chitosan Film  in water:acetic acid 2% t= 2000.00000 step= 2000000
78843
    1CHTO  H203    1   5.363   6.871   5.662  0.3892 -0.2204 -0.5346
    1CHTO   O82    2   5.416   6.794   5.661  0.4601 -0.1810  0.2161
    1CHTO  C123    3   5.516   6.794   5.562  0.4958 -0.6517 -0.3323
    1CHTO  H227    4   5.614   6.797   5.611  0.4924 -0.8461 -0.3139
    1CHTO   O77    5   5.503   6.664   5.491  0.1054  0.3974 -0.5958
    1CHTO  C118    6   5.621   6.625   5.416 -0.9510 -0.0669  0.7365
    1CHTO  H222    7   5.701   6.645   5.488  0.9500  1.1800 -1.6388
    1CHTO  C125    8   5.629   6.469   5.385  0.2526  0.0074  0.1738
    1CHTO   O84    9   5.504   6.435   5.319 -0.1280  0.4004  0.3134
    1CHTO  H205   10   5.501   6.342   5.314  1.3299  0.4041 -0.8736
    1CHTO  C114   11   5.646   6.729   5.300 -0.6131  0.3248  0.1807
    1CHTO  H218   12   5.565   6.717   5.227  2.0532 -0.8185 -2.6837
    1CHTO  C116   13   5.637   6.882   5.349  0.3967  0.0395 -0.1084
    1CHTO  H220   14   5.730   6.919   5.398 -0.9743  1.1847  1.6848
    1CHTO   O79   15   5.623   6.962   5.234  0.0339  0.0605 -0.2972
    1CHTO  H201   16   5.667   6.917   5.164  0.3960 -0.5029  0.2836
    1CHTO  C120   17   5.516   6.909   5.454  0.1432  0.3850  1.5295
    1CHTO  H224   18   5.425   6.904   5.390  3.2540 -1.9358 -3.0374
    1CHTO   N21   19   5.530   7.041   5.525 -0.0644  0.2068 -0.7830
    1CHTO  H211   20   5.482   7.032   5.621  0.4024  0.9921 -0.4679
    1CHTO  H212   21   5.635   7.057   5.548 -0.0290  1.7181 -1.8869
    1CHTO   O75   22   5.768   6.691   5.241 -0.3166  0.3289 -1.2063
    1CHTO  C112   23   5.759   6.654   5.077  0.5694 -0.1863 -0.5790
    1CHTO  H216   24   5.679   6.715   5.033  1.0481  0.0262 -1.1482
    1CHTO   O73   25   5.732   6.517   5.063 -0.0410 -0.0305 -0.0968
    1CHTO  C113   26   5.710   6.485   4.924 -0.7533  0.3378 -0.2856
    1CHTO  H217   27   5.634   6.551   4.877 -1.1088 -0.1217 -0.3611
    1CHTO  C124   28   5.656   6.343   4.923  0.8031  0.1719  0.6255
    1CHTO   O83   29   5.583   6.326   4.799  0.0854 -0.2897 -0.2501
    1CHTO  H204   30   5.555   6.237   4.804  0.4958 -0.3396  1.5262
    1CHTO  C109   31   5.848   6.493   4.845 -0.4512  0.1347  1.0396
    1CHTO  H213   32   5.917   6.418   4.886  0.2152 -0.5331 -1.2156
    1CHTO  C110   33   5.901   6.638   4.862  0.1473 -0.0271  0.0555
    1CHTO  H214   34   5.839   6.700   4.798 -0.3711  0.6816  1.2328
    1CHTO   O78   35   6.034   6.640   4.810  0.3278 -0.0599 -0.3868
    1CHTO  H200   36   6.054   6.724   4.774 -0.9068  0.0034 -0.9633
    1CHTO  C111   37   5.900   6.693   5.013 -0.1798  0.4875  0.0614
    1CHTO  H215   38   5.978   6.642   5.072  1.3265  0.5393 -1.8181
    1CHTO   N19   39   5.928   6.835   5.016 -0.6968  0.2645  0.3698
    1CHTO  H207   40   6.000   6.870   4.944 -1.5586  3.3079  0.9161
    1CHTO  H208   41   5.965   6.874   5.109  0.0780  1.1237 -0.2878
    1CHTO   O74   42   5.830   6.465   4.701 -0.2593 -0.4844 -0.0202
    1CHTO  C115   43   5.854   6.299   4.646 -0.1081  0.7142  0.1633
    1CHTO  H219   44   5.871   6.229   4.727 -1.9363 -0.3642 -0.3470
    1CHTO   O76   45   5.721   6.241   4.559  0.3055  0.2286  0.0647
    1CHTO  C122   46   5.725   6.286   4.421 -0.2313 -0.0803  0.6878
    1CHTO  H226   47   5.741   6.394   4.421  2.9164 -0.4722 -1.3013
    1CHTO  C126   48   5.585   6.254   4.348  0.1738  0.2628  0.3109
    1CHTO   O85   49   5.543   6.330   4.229 -0.3792 -0.3650  0.0769
    1CHTO  H206   50   5.511   6.412   4.259 -0.0581 -0.7621  1.5326
    1CHTO  C121   51   5.846   6.226   4.336  0.4169 -0.1260  0.3609
    1CHTO  H225   52   5.827   6.131   4.282 -0.0828 -0.6531  1.4386
    1CHTO   O81   53   5.879   6.315   4.235  0.0524  0.4135  0.2429
    1CHTO  H202   54   5.806   6.344   4.184 -0.0155  0.1988  0.2170
    1CHTO  C119   55   5.967   6.212   4.433  0.0730 -0.3047 -0.4820
    1CHTO  H223   56   5.957   6.116   4.485 -1.1101 -0.4468 -0.9416
    1CHTO  C117   57   5.981   6.312   4.549  0.7493  0.3510  0.4056
    1CHTO  H221   58   5.981   6.415   4.512  0.4397  0.2153  0.0286
    1CHTO   N20   59   6.112   6.305   4.631  0.2084 -1.0492  0.0757
    1CHTO  H209   60   6.120   6.392   4.694  1.3070 -1.7361  0.9046
    1CHTO  H210   61   6.191   6.285   4.559 -0.6009 -0.1331 -1.0744
    1CHTO   O80   62   6.088   6.191   4.355  0.1460  0.6479  0.3325
    1CHTO  C103   63   6.135   6.032   4.335  0.0092  0.0734 -0.1439
    1CHTO  H190   64   6.165   5.987   4.429 -0.8950 -0.7166 -0.2268
    1CHTO  C101   65   6.033   5.932   4.269 -0.2690 -0.1658  0.1935
    1CHTO  H188   66   5.990   5.967   4.176  1.0112 -0.1001 -0.3926
    1CHTO   O68   67   5.926   5.906   4.378  0.1349  0.6197  0.0482
    1CHTO  H168   68   5.889   5.821   4.369 -0.9435  1.2289 -1.4650
    1CHTO   C99   69   6.114   5.801   4.230  0.4624 -0.4738  0.1149
    1CHTO  H186   70   6.156   5.745   4.316 -0.7146  0.4528  1.3400
    1CHTO   N17   71   6.032   5.696   4.165  0.7421 -0.1915 -0.0011
    1CHTO  H174   72   6.002   5.710   4.063 -1.8412  0.2009  0.7727
    1CHTO  H175   73   5.954   5.667   4.234  0.2865  0.5945 -0.1822
    1CHTO   C97   74   6.244   5.841   4.143  0.5312  0.5422 -0.6847
    1CHTO  H184   75   6.202   5.880   4.049 -1.9413 -0.9472 -0.2440
    1CHTO   O64   76   6.325   5.936   4.209 -0.1870  0.3268 -0.1119
    1CHTO  C104   77   6.261   6.063   4.253  0.3791 -0.0917  0.2457
    1CHTO  H191   78   6.236   6.119   4.163  0.3086 -1.4127 -0.5785
    1CHTO  C108   79   6.352   6.138   4.341 -0.0946 -0.0164 -0.7761
    1CHTO   O71   80   6.473   6.182   4.273 -0.1366 -0.0679 -0.3917
    1CHTO  H171   81   6.468   6.187   4.180  1.0370 -0.5060 -0.4824
    1CHTO   O62   82   6.335   5.726   4.120  0.0704  0.2824  0.6051
    1CHTO   C91   83   6.431   5.748   4.009 -0.0698  0.3856 -0.0789
    1CHTO  H178   84   6.444   5.856   3.997 -2.2910  0.6393 -0.3693
    1CHTO   C92   85   6.389   5.698   3.868 -0.1230 -0.0234 -0.1872
    1CHTO  H179   86   6.286   5.735   3.855  0.4269  2.0580  1.1667
    1CHTO   O66   87   6.464   5.760   3.761  0.5508  0.1808 -0.1859
    1CHTO  H166   88   6.441   5.851   3.769  0.5422  0.0409  1.5710
    1CHTO   C93   89   6.414   5.545   3.847  0.2673  0.1660 -0.6998
    1CHTO  H180   90   6.410   5.529   3.738 -0.8896 -0.6039 -0.5519
    1CHTO   N16   91   6.325   5.444   3.912  0.3625 -0.1133  1.1451
    1CHTO  H172   92   6.344   5.347   3.869  1.1796  0.6255 -0.2011
    1CHTO  H173   93   6.221   5.472   3.900 -0.7565 -4.5452 -0.8104
    1CHTO   C94   94   6.565   5.514   3.889  0.6850  0.4063  0.0251
    1CHTO  H181   95   6.570   5.435   3.964 -3.0378  0.0238 -0.0045
    1CHTO   O61   96   6.641   5.627   3.937  0.3068  0.1168 -0.0145
    1CHTO   C95   97   6.582   5.699   4.044 -0.0205  0.5153  0.1072
    1CHTO  H182   98   6.587   5.632   4.129  1.3581 -2.6746 -2.3857
    1CHTO  C106   99   6.681   5.819   4.085  0.3457 -0.1225 -0.1038
    1CHTO   O69  100   6.818   5.767   4.090 -0.6558  0.5360 -0.2822
    1CHTO  H169  101   6.875   5.837   4.117  0.2271 -0.7775  1.2821
    1CHTO   O63  102   6.639   5.466   3.747 -0.2217  0.1079  0.1408
    1CHTO   C96  103   6.741   5.357   3.782  0.2417  0.3979  0.4756
    1CHTO  H183  104   6.697   5.283   3.849 -0.1472  0.7199  0.5758
    1CHTO   C98  105   6.878   5.425   3.834  0.4713  0.3249 -0.5598
    1CHTO  H185  106   6.848   5.515   3.889 -1.0535 -0.5001 -0.0271
    1CHTO   O67  107   6.939   5.345   3.935 -0.2158  0.7067  0.3971
    1CHTO  H167  108   6.869   5.317   3.990 -0.7012 -2.1063 -1.5061
    1CHTO  C102  109   6.986   5.451   3.720  0.1215 -0.2837  0.2284
    1CHTO  H189  110   7.075   5.483   3.776  1.1977 -2.9795  0.1822
    1CHTO   N18  111   6.952   5.561   3.628  0.2634  0.0249 -0.0200
    1CHTO  H176  112   6.872   5.541   3.559  1.9736 -2.2315 -1.4208
    1CHTO  H177  113   6.928   5.647   3.689 -1.4206  0.6581 -1.5407
    1CHTO  C105  114   7.019   5.319   3.640 -0.1538  0.8899 -0.2627
    1CHTO  H192  115   7.048   5.346   3.539  0.0620 -0.3567 -0.5442
    1CHTO   O65  116   6.910   5.221   3.641  0.1121 -0.2119  0.3366
    1CHTO  C100  117   6.775   5.271   3.650  0.2924  1.4503 -1.1903
    1CHTO  H187  118   6.759   5.340   3.566  1.8781  1.9817 -1.0819
    1CHTO  C107  119   6.681   5.160   3.625  0.6802  0.0556  0.2958
    1CHTO   O70  120   6.540   5.208   3.626  0.3034  0.2205 -0.1847
    1CHTO  H170  121   6.528   5.229   3.716  0.6256  1.0829 -0.3416
    1CHTO   O57  122   7.133   5.267   3.709  0.3023 -0.4376 -0.2898
    1CHTO   C85  123   7.261   5.243   3.655  0.4636 -0.4223  0.3185
    1CHTO  H157  124   7.240   5.185   3.563 -0.4066  0.1510  0.1550
    1CHTO   C83  125   7.343   5.148   3.749  0.7904 -0.0173 -0.9964
    1CHTO  H155  126   7.280   5.059   3.759  0.6729  0.2862  1.2287
    1CHTO   O56  127   7.338   5.205   3.881 -0.2199  0.2225  0.9257
    1CHTO  H135  128   7.387   5.144   3.933 -1.4602 -1.2431  0.3687
    1CHTO   C81  129   7.478   5.108   3.684  0.4486  0.1009 -0.4791
    1CHTO  H153  130   7.450   5.073   3.585 -0.7996  2.0026 -0.8334
    1CHTO   N14  131   7.548   4.995   3.753  0.0066 -0.0787 -0.4505
    1CHTO  H141  132   7.564   5.021   3.855  0.3984  0.9132 -0.7553
    1CHTO  H142  133   7.643   4.998   3.703 -0.3415  0.1867 -1.1091
    1CHTO   C79  134   7.565   5.240   3.674 -0.1180 -0.7595 -0.4685
    1CHTO  H151  135   7.663   5.210   3.637  0.0300 -1.5086  0.5150
    1CHTO   O52  136   7.496   5.337   3.584 -0.5625  0.3218 -0.0753
    1CHTO   C86  137   7.361   5.362   3.625 -0.7841 -0.5660  0.2904
    1CHTO  H158  138   7.371   5.431   3.712  0.0686 -0.5838  0.2083
    1CHTO   C90  139   7.302   5.450   3.509  0.0768  0.3740 -0.4795
    1CHTO   O60  140   7.317   5.385   3.382 -0.3409  0.4980 -0.0590
    1CHTO  H138  141   7.406   5.396   3.353 -0.3612 -1.8192 -1.1123
    1CHTO   O50  142   7.588   5.304   3.804  0.1798 -0.0645 -0.2257
    1CHTO   C73  143   7.699   5.367   3.869  0.3126 -0.0828 -0.1812
    1CHTO  H145  144   7.775   5.387   3.792 -2.0088 -3.5767 -3.6379
    1CHTO   C74  145   7.754   5.280   3.986  0.6682 -0.0139  0.4090
    1CHTO  H146  146   7.796   5.184   3.950  0.8041  0.0211  0.4764
    1CHTO   O54  147   7.874   5.344   4.039  0.2695  0.1877 -0.1400
    1CHTO  H133  148   7.859   5.381   4.124  0.3956 -1.9635  0.8399
    1CHTO   C75  149   7.632   5.254   4.094 -0.5503  0.1614  0.1838
    1CHTO  H147  150   7.563   5.184   4.046  0.9149 -0.9268 -0.3687
    1CHTO   N13  151   7.679   5.185   4.218  0.1215  0.4100 -0.2026
    1CHTO  H139  152   7.650   5.251   4.298 -2.0803  0.3466 -0.9193
    1CHTO  H140  153   7.787   5.174   4.218  0.3413  2.2778 -2.1433
    1CHTO   C76  154   7.565   5.391   4.124  0.4929  0.1425 -0.4461
    1CHTO  H148  155   7.627   5.450   4.192 -0.4458  1.7111 -0.9179
    1CHTO   O49  156   7.533   5.486   4.018 -0.2476 -0.1464 -0.0579
    1CHTO   C77  157   7.645   5.503   3.922  0.7475 -0.0365  0.1856
    1CHTO  H149  158   7.724   5.555   3.976  1.4511 -1.4235  0.4975
    1CHTO   C88  159   7.591   5.588   3.804  0.6057  0.1406 -0.4740
    1CHTO   O58  160   7.489   5.699   3.854  0.4602 -0.3056 -0.4640
    1CHTO  H136  161   7.467   5.759   3.785 -2.7076 -1.3271 -0.4210
    1CHTO   O51  162   7.417   5.356   4.190  0.2459 -0.1807  0.0914
    1CHTO   C78  163   7.371   5.476   4.284  0.1851  0.4456 -0.7891
    1CHTO  H150  164   7.431   5.568   4.269  2.0793 -0.6206  0.0733
    1CHTO   C80  165   7.372   5.446   4.438  0.1330 -0.0238  0.1070
    1CHTO  H152  166   7.317   5.351   4.452  0.8395 -0.6832 -1.4765
    1CHTO   O55  167   7.506   5.414   4.463 -0.0167 -0.0809 -0.0430
    1CHTO  H134  168   7.530   5.343   4.408  0.9682 -0.1019  0.3872
    1CHTO   C84  169   7.319   5.570   4.526 -0.2458 -0.0272 -0.2931
    1CHTO  H156  170   7.387   5.653   4.509  2.0167 -1.3772  1.9768
    1CHTO   N15  171   7.327   5.563   4.675  0.5819 -0.1646  0.1927
    1CHTO  H143  172   7.380   5.472   4.694  1.7198  0.3289 -0.5303
    1CHTO  H144  173   7.378   5.644   4.722 -1.9017  2.4280 -1.3589
    1CHTO   C87  174   7.176   5.614   4.477  0.7353  0.7748  0.1496
    1CHTO  H159  175   7.093   5.548   4.504  0.2469  0.7104 -1.4732
    1CHTO   O53  176   7.179   5.634   4.324  0.4251  0.2709  0.1976
    1CHTO   C82  177   7.230   5.524   4.251 -0.1511  0.7366  0.2672
    1CHTO  H154  178   7.158   5.444   4.265  1.3920 -1.1195 -1.8664
    1CHTO   C89  179   7.221   5.567   4.099 -0.5342 -0.6137 -1.0017
    1CHTO   O59  180   7.091   5.593   4.047  0.4915  0.2977 -0.3058
    1CHTO  H137  181   7.077   5.529   3.980 -0.7970  0.9482 -0.6756
    1CHTO   O45  182   7.149   5.748   4.537 -0.3888  0.1769  0.0589
    1CHTO   C67  183   7.041   5.825   4.489 -0.5368  0.4775  0.3469
    1CHTO  H124  184   6.962   5.761   4.450  0.1394 -0.3362  0.3043
    1CHTO   C65  185   6.988   5.896   4.615 -0.0942 -0.0747 -0.0880
    1CHTO  H122  186   6.975   5.815   4.687  1.7352  0.4056  0.8238
    1CHTO   O44  187   6.865   5.959   4.595 -0.1732 -0.9683  0.0888
    1CHTO  H102  188   6.881   6.041   4.552 -0.1700 -0.1288  1.6564
    1CHTO   C63  189   7.091   5.998   4.671 -0.2014 -0.0041 -0.7853
    1CHTO  H120  190   7.190   5.953   4.677  0.2810  1.2061  0.7236
    1CHTO   N11  191   7.075   6.044   4.811 -0.0035  0.1680 -0.4622
    1CHTO  H108  192   7.093   5.974   4.890  2.8376  0.9911 -0.3066
    1CHTO  H109  193   6.972   6.069   4.824 -0.0134  0.4768 -1.0923
    1CHTO   C61  194   7.112   6.111   4.556  0.9603 -0.0027 -0.3654
    1CHTO  H118  195   7.196   6.178   4.581  0.8215  0.3827 -0.9261
    1CHTO   O40  196   7.145   6.047   4.424 -0.2358 -0.4242 -0.2960
    1CHTO   C68  197   7.077   5.927   4.379  0.7644  0.0461 -0.6924
    1CHTO  H125  198   7.158   5.878   4.321 -0.3076 -0.9593 -1.3531
    1CHTO   C72  199   6.968   5.960   4.284  0.4933 -0.2798  0.0445
    1CHTO   O48  200   7.034   6.004   4.168 -0.3868 -0.1993  0.0190
    1CHTO  H105  201   6.983   5.978   4.094 -0.5026  0.1818 -0.0389
    1CHTO   O38  202   7.000   6.195   4.535  0.5187 -0.3736 -0.0765
    1CHTO   C55  203   7.025   6.338   4.517 -0.0905  0.6237 -1.0825
    1CHTO  H112  204   7.119   6.364   4.466  0.5190  3.1473  1.2169
    1CHTO   C56  205   7.007   6.411   4.652  0.6959  0.6123 -0.3482
    1CHTO  H113  206   6.921   6.375   4.711  0.3436  2.0595  0.0421
    1CHTO   O42  207   7.122   6.368   4.735  0.4214  0.1657  0.0741
    1CHTO  H100  208   7.106   6.384   4.827 -0.3656 -1.3106  0.2033
    1CHTO   C57  209   6.998   6.577   4.636  0.5136  0.0549  0.8807
    1CHTO  H114  210   7.098   6.613   4.612  0.3986  1.1515  1.9773
    1CHTO   N10  211   6.966   6.641   4.770  0.0244 -0.5019  0.3139
    1CHTO  H106  212   7.003   6.743   4.773  1.1635 -0.9294  0.8076
    1CHTO  H107  213   7.006   6.585   4.853  0.4313 -2.3954 -1.1429
    1CHTO   C58  214   6.895   6.607   4.525 -0.4901 -0.4811  0.3459
    1CHTO  H115  215   6.796   6.565   4.552 -0.7119 -0.6515 -0.7231
    1CHTO   O37  216   6.930   6.534   4.404 -0.7685  0.3482  0.0359
    1CHTO   C59  217   6.926   6.395   4.415 -0.2495  0.4302  0.3610
    1CHTO  H116  218   6.821   6.376   4.434 -0.9209  1.6117 -1.9456
    1CHTO   C70  219   6.959   6.328   4.278  0.9379 -0.2787 -0.2164
    1CHTO   O46  220   6.871   6.366   4.173 -0.5536  0.5647  0.6244
    1CHTO  H103  221   6.876   6.302   4.104  0.9707 -2.3611  3.3008
    1CHTO   O39  222   6.887   6.755   4.486  0.0215  0.0943 -0.4210
    1CHTO   C60  223   6.780   6.786   4.394 -0.2082 -0.3227 -0.2270
    1CHTO  H117  224   6.736   6.699   4.345  0.0142 -0.0801 -0.8594
    1CHTO   C62  225   6.672   6.860   4.477 -0.1632 -0.3905 -0.7462
    1CHTO  H119  226   6.648   6.814   4.575 -0.2285  2.0190  0.4067
    1CHTO   O43  227   6.731   6.977   4.536 -0.0928  0.6203  0.0594
    1CHTO  H101  228   6.711   7.049   4.479  0.0858  0.6216 -0.0012
    1CHTO   C66  229   6.541   6.896   4.382  0.3352 -0.1211  0.1958
    1CHTO  H123  230   6.509   6.801   4.338 -0.9406 -0.1976  1.2504
    1CHTO   N12  231   6.418   6.951   4.442 -0.0397 -0.4221 -0.7366
    1CHTO  H110  232   6.431   6.937   4.549  1.6144 -0.4213 -0.9276
    1CHTO  H111  233   6.330   6.901   4.405  0.1058 -0.7084 -0.6995
    1CHTO   C69  234   6.578   6.969   4.251  0.0614  0.4533  0.0747
    1CHTO  H126  235   6.603   7.075   4.271 -0.6324  0.6916 -0.3306
    1CHTO   O41  236   6.715   6.893   4.176  0.1836 -0.3122  0.3819
    1CHTO   C64  237   6.831   6.888   4.273  0.0760 -0.1589 -0.0075
    1CHTO  H121  238   6.859   6.985   4.319  2.1016 -0.7759  0.1161
    1CHTO   C71  239   6.953   6.842   4.191 -0.0600 -0.3132  0.4503
    1CHTO   O47  240   6.981   6.924   4.084  0.1249  0.7866 -0.5459
    1CHTO  H104  241   7.073   6.939   4.075 -0.2595  2.7398 -1.6771
    1CHTO   O34  242   6.457   6.960   4.154 -0.0542  0.3852 -0.3889
    1CHTO   C49  243   6.467   7.025   4.016  0.1901  0.6290 -0.0901
    1CHTO   H91  244   6.550   7.096   4.009  0.7537 -0.0951 -0.9595
    1CHTO   C47  245   6.334   7.092   3.989  0.0104 -0.3023 -0.1473
    1CHTO   H89  246   6.352   7.157   3.901 -0.3930 -1.0350 -0.7757
    1CHTO   O33  247   6.296   7.183   4.099 -0.1355  0.3288  0.8936
    1CHTO   H70  248   6.360   7.250   4.115  0.0070 -0.6106  4.9897
    1CHTO   C45  249   6.216   6.989   3.961  0.0272  0.1809  0.2111
    1CHTO   H87  250   6.208   6.918   4.044  2.1554 -1.9816 -1.3568
    1CHTO    N8  251   6.080   7.048   3.936  0.2327  0.4646 -0.0977
    1CHTO   H75  252   6.081   7.125   3.860  1.5117  2.7372  2.1655
    1CHTO   H76  253   6.004   6.977   3.905  0.8981 -0.0729 -0.5079
    1CHTO   C43  254   6.257   6.899   3.831 -0.2602 -0.3283 -0.3744
    1CHTO   H85  255   6.181   6.821   3.829  0.8863 -1.5884  2.5560
    1CHTO   O29  256   6.385   6.842   3.866  0.0043  0.0998 -0.6268
    1CHTO   C50  257   6.498   6.916   3.905  0.2552 -0.2213 -0.5333
    1CHTO   H92  258   6.566   6.845   3.954  1.8234  2.0499  0.6653
    1CHTO   C54  259   6.568   6.979   3.781 -0.4786  0.3776  0.0537
    1CHTO   O36  260   6.708   7.023   3.799  0.2814  0.4808  0.0974
    1CHTO   H72  261   6.700   7.089   3.865  1.4761  1.0774 -0.3325
    1CHTO   O27  262   6.250   6.976   3.709  0.3126 -0.2610  0.3933
    1CHTO   C37  263   6.193   6.938   3.583  0.3212 -0.1577  0.5706
    1CHTO   H79  264   6.188   6.829   3.586 -1.1813 -0.0601  2.6498
    1CHTO   C38  265   6.049   6.984   3.548  0.3501 -0.1981  0.4776
    1CHTO   H80  266   6.049   7.094   3.552 -0.4222 -0.2281  1.4660
    1CHTO   O31  267   5.951   6.929   3.640  0.3295  0.3544  0.0350
    1CHTO   H68  268   5.890   6.992   3.674 -2.0936 -2.3081  0.7517
    1CHTO   C39  269   6.010   6.932   3.402  0.4137  0.2145 -0.5830
    1CHTO   H81  270   6.007   6.824   3.394  1.5571  0.2986 -2.3687
    1CHTO    N7  271   5.875   6.978   3.353  0.0329 -0.6598 -0.2799
    1CHTO   H73  272   5.801   6.930   3.414  0.7131  0.7726  1.7445
    1CHTO   H74  273   5.858   6.960   3.248 -1.3712 -0.4306 -0.1020
    1CHTO   C40  274   6.109   6.972   3.293 -0.0183  0.3449 -0.1788
    1CHTO   H82  275   6.099   7.077   3.268 -2.1179 -0.4206 -2.8523
    1CHTO   O26  276   6.236   6.937   3.339 -0.4022 -0.1702  0.0138
    1CHTO   C41  277   6.284   6.987   3.460 -0.8387 -0.3386  0.9599
    1CHTO   H83  278   6.286   7.097   3.454  0.5211 -0.2476  2.5537
    1CHTO   C52  279   6.439   6.939   3.459  0.3442 -0.1906  0.7555
    1CHTO   O35  280   6.514   7.017   3.365  0.3457  0.0389 -0.0866
    1CHTO   H71  281   6.606   7.010   3.381  0.6913  3.7627  0.0682
    1CHTO   O28  282   6.093   6.890   3.173 -0.1660 -0.4576 -0.2020
    1CHTO   C42  283   6.170   6.917   3.051 -0.3575  1.1449 -1.1571
    1CHTO   H84  284   6.165   6.819   3.004  2.1809 -0.5867  2.0296
    1CHTO   C44  285   6.324   6.955   3.057  0.3494 -0.2065 -0.6407
    1CHTO   H86  286   6.334   7.029   3.137  1.8307 -0.4335 -0.6078
    1CHTO   O32  287   6.395   6.836   3.103 -0.0000  0.8416 -0.2731
    1CHTO   H69  288   6.342   6.795   3.169  1.0120  0.5863  0.3983
    1CHTO   C48  289   6.381   7.004   2.923  0.9591 -0.0235 -0.1826
    1CHTO   H90  290   6.401   6.910   2.871  2.3969 -0.7558  1.6718
    1CHTO    N9  291   6.514   7.068   2.942 -0.0300  0.0548  0.4092
    1CHTO   H77  292   6.552   7.104   2.847 -0.3487 -1.5982 -0.3806
    1CHTO   H78  293   6.587   7.004   2.991  1.0658 -0.1763 -1.4577
    1CHTO   C51  294   6.289   7.105   2.844  0.8486 -0.3051  0.7735
    1CHTO   H93  295   6.277   7.198   2.900  1.9955 -1.2624  2.6531
    1CHTO   O30  296   6.170   7.043   2.822 -0.0066  0.2069  0.1997
    1CHTO   C46  297   6.096   7.017   2.967  0.5443 -0.3085 -0.6570
    1CHTO   H88  298   6.094   7.112   3.020  2.3416 -1.8051  2.2403
    1CHTO   C53  299   5.947   6.976   2.938  0.2254  0.0130 -0.1707
    1CHTO   O72  300   5.874   7.086   2.883  0.7181 -0.4929 -0.4203
    1CHTO  H199  301   5.783   7.077   2.904  1.3488 -0.3503  2.4952
    1CHTO   O22  302   6.342   7.148   2.714  0.1040  0.2389  1.1317
    1CHTO   C31  303   6.263   7.242   2.639  0.5019 -0.6910  0.6602
    1CHTO   H59  304   6.160   7.226   2.676  0.9214  1.4753  2.9363
    1CHTO   C29  305   6.296   7.390   2.667 -0.5897 -0.6137 -0.4015
    1CHTO   H57  306   6.396   7.406   2.624 -0.6023 -1.2515 -0.6843
    1CHTO   O21  307   6.303   7.403   2.809  0.0502  0.3568 -0.4962
    1CHTO   H37  308   6.217   7.408   2.846 -0.0529 -1.5559 -0.4083
    1CHTO   C27  309   6.203   7.491   2.594  0.4894 -0.2554 -0.9403
    1CHTO   H55  310   6.099   7.470   2.622  0.4546 -0.3023 -1.1076
    1CHTO    N5  311   6.239   7.636   2.610  0.7624  0.2565 -0.0274
    1CHTO   H43  312   6.186   7.695   2.537  0.8627  1.2435  0.6842
    1CHTO   H44  313   6.208   7.668   2.708 -1.1654 -1.9453  0.1416
    1CHTO   C25  314   6.223   7.446   2.446 -0.1094  0.1424  0.3353
    1CHTO   H53  315   6.326   7.450   2.406  0.1401  0.0169  0.9629
    1CHTO   O17  316   6.182   7.311   2.413  0.5463  0.2660 -0.0574
    1CHTO   C32  317   6.258   7.215   2.489  0.4664 -0.1678  0.5402
    1CHTO   H60  318   6.360   7.222   2.450 -0.6927 -0.5316 -2.6402
    1CHTO   C36  319   6.218   7.069   2.457  0.4448  0.7746  0.5275
    1CHTO   O25  320   6.077   7.041   2.461 -0.4891  0.5001  0.7077
    1CHTO   H40  321   6.032   7.097   2.400 -1.7745  0.3191  1.4758
    1CHTO   O15  322   6.141   7.542   2.340  0.0479  0.0378 -0.2328
    1CHTO   C19  323   6.191   7.558   2.201  0.1126  0.4737 -0.1662
    1CHTO   H47  324   6.108   7.612   2.154 -0.9689 -1.5380 -0.6084
    1CHTO   C20  325   6.322   7.650   2.195 -0.2299 -1.1819 -0.4253
    1CHTO   H48  326   6.409   7.607   2.246  1.3713  0.8136 -1.4263
    1CHTO   O19  327   6.289   7.771   2.266  0.3604 -0.2809  0.7153
    1CHTO   H35  328   6.207   7.768   2.312  1.3680  1.4158  2.7415
    1CHTO   C21  329   6.365   7.673   2.041 -0.0984  0.4093  0.3178
    1CHTO   H49  330   6.287   7.733   1.994  0.2383  0.4664 -0.1611
    1CHTO    N4  331   6.496   7.742   2.028  0.4287 -0.5514 -0.1519
    1CHTO   H41  332   6.547   7.752   2.122 -0.0212  0.3274 -0.0011
    1CHTO   H42  333   6.497   7.832   1.968  0.6501  1.2391  2.4398
    1CHTO   C22  334   6.363   7.535   1.968  0.0483  0.2964 -0.3154
    1CHTO   H50  335   6.448   7.473   1.997 -1.2841 -0.5927  1.8355
    1CHTO   O14  336   6.239   7.472   1.988 -0.2792  0.2106  0.2624
    1CHTO   C23  337   6.211   7.423   2.120  0.4239 -0.4434 -0.3064
    1CHTO   H51  338   6.290   7.361   2.166 -0.4010 -1.6145 -0.4401
    1CHTO   C34  339   6.083   7.344   2.118  0.1982 -0.0151  0.4553
    1CHTO   O23  340   6.087   7.250   2.011  0.4553 -0.0607 -0.1960
    1CHTO   H38  341   6.028   7.180   2.029 -0.1157  0.4549 -0.0496
    1CHTO   O16  342   6.366   7.556   1.824  0.4767  0.1856 -0.5261
    1CHTO   C24  343   6.431   7.459   1.747 -0.1357 -0.4555 -0.6095
    1CHTO   H52  344   6.446   7.366   1.802 -0.8932 -2.2588 -3.3146
    1CHTO   C26  345   6.566   7.517   1.691  0.2959  0.7365 -0.2260
    1CHTO   H54  346   6.543   7.619   1.655  2.6548  1.3526 -0.0630
    1CHTO   O20  347   6.659   7.535   1.800  0.5078  0.0159 -1.1076
    1CHTO   H36  348   6.657   7.461   1.857 -0.9345 -0.3028 -1.5595
    1CHTO   C30  349   6.632   7.437   1.567 -0.3467 -0.5124  0.6360
    1CHTO   H58  350   6.662   7.339   1.608  1.2291  0.6027  2.2397
    1CHTO    N6  351   6.743   7.509   1.497 -0.2500 -0.5501 -0.2160
    1CHTO   H45  352   6.740   7.616   1.508 -0.5924 -0.3773 -1.7885
    1CHTO   H46  353   6.835   7.471   1.539  0.4704  0.4232 -0.8819
    1CHTO   C33  354   6.517   7.404   1.470  0.2724 -0.7077  0.4877
    1CHTO   H61  355   6.477   7.494   1.422  1.8469 -0.9387 -1.3171
    1CHTO   O18  356   6.409   7.340   1.545 -0.0964  0.2461  0.9897
    1CHTO   C28  357   6.337   7.419   1.634  0.4536  0.0093 -0.5144
    1CHTO   H56  358   6.299   7.510   1.586  0.1931  0.4062  0.4415
    1CHTO   C35  359   6.221   7.334   1.692 -0.4380  0.2724  0.3910
    1CHTO   O24  360   6.114   7.307   1.611  0.0062  0.2570  0.3709
    1CHTO   H39  361   6.136   7.244   1.545  1.4579  0.9708  0.1415
    1CHTO    O9  362   6.565   7.323   1.358  0.2779  0.2136  0.7043
    1CHTO   C13  363   6.466   7.351   1.210  0.6315 -0.0649  0.4910
    1CHTO   H26  364   6.508   7.447   1.172  0.6321  0.1444  1.0167
    1CHTO   C11  365   6.308   7.365   1.256 -0.4545  0.1051 -0.5011
    1CHTO   H24  366   6.292   7.449   1.325 -0.9783 -0.1771 -0.2762
    1CHTO    O8  367   6.265   7.251   1.327 -0.4834  0.3916 -0.1233
    1CHTO    H3  368   6.239   7.189   1.261  1.9343  0.2402 -0.9834
    1CHTO    C9  369   6.231   7.396   1.129  0.3042 -0.5305  0.3754
    1CHTO   H22  370   6.267   7.494   1.095  1.5147 -1.8524 -2.3351
    1CHTO    N2  371   6.086   7.426   1.152 -0.2221 -0.8282  0.0343
    1CHTO   H10  372   6.068   7.494   1.234  0.5417  2.2076 -2.2132
    1CHTO   H11  373   6.034   7.335   1.179  0.2361 -0.2748  2.9494
    1CHTO    C7  374   6.256   7.288   1.014  0.2597 -0.4963 -0.1964
    1CHTO   H20  375   6.213   7.336   0.924  1.7186  1.3756  0.0735
    1CHTO    O4  376   6.400   7.264   0.996 -0.0089  0.2687 -0.0350
    1CHTO   C14  377   6.490   7.240   1.101 -1.1980  0.0652  0.6199
    1CHTO   H27  378   6.585   7.249   1.044 -1.9062 -1.3900 -0.8052
    1CHTO   C18  379   6.488   7.094   1.157 -0.8497 -0.2320  0.0108
    1CHTO   O13  380   6.615   7.066   1.234 -0.6410 -0.5330  0.2109
    1CHTO    H7  381   6.613   7.105   1.319 -1.6902  0.7709 -0.3843
    1CHTO    O2  382   6.169   7.139   1.025 -0.7553  0.1964 -0.2877
    1CHTO    C1  383   6.190   7.042   0.917 -0.4992  0.0439 -0.1725
    1CHTO   H14  384   6.300   7.023   0.912 -0.6249 -0.5685 -0.7282
    1CHTO    C2  385   6.139   7.088   0.771  0.3449 -0.1730  0.2712
    1CHTO   H15  386   6.032   7.114   0.773  0.4450  0.2384  0.3550
    1CHTO    O6  387   6.208   7.203   0.721  0.0857 -0.4925  0.0289
    1CHTO    H1  388   6.166   7.243   0.647  0.9427  0.5363  0.0881
    1CHTO    C3  389   6.156   6.967   0.666 -0.0916  0.1307 -0.3352
    1CHTO   H16  390   6.262   6.950   0.644 -0.5371 -0.2087 -2.3571
    1CHTO    N1  391   6.098   6.987   0.532 -0.7849  0.4556  0.2462
    1CHTO    H8  392   5.992   7.006   0.541 -1.2420 -0.4669 -2.5168
    1CHTO    H9  393   6.150   7.074   0.495  1.2438  0.2777  2.5926
    1CHTO    C4  394   6.105   6.833   0.731  0.0889  0.3117  0.6871
    1CHTO   H17  395   5.997   6.839   0.732  0.1571  2.9789 -1.1379
    1CHTO    O1  396   6.160   6.802   0.859  0.2052 -0.6461 -0.2102
    1CHTO    C5  397   6.128   6.908   0.959 -0.3464  0.0345 -0.1987
    1CHTO   H18  398   6.021   6.925   0.964 -0.4654 -0.7845  0.1278
    1CHTO   C16  399   6.175   6.856   1.095 -0.7761  0.4547 -0.3152
    1CHTO   O11  400   6.096   6.741   1.133  0.0532 -0.6949  0.5896
    1CHTO    H5  401   6.144   6.689   1.194  2.0412 -0.9218 -1.1303
    1CHTO    O3  402   6.151   6.724   0.649  0.0951  0.2673  0.1168
    1CHTO    C6  403   6.077   6.595   0.649 -0.5883  0.0503  0.3672
    1CHTO   H19  404   6.018   6.591   0.742 -1.4616  0.6176 -0.1510
    1CHTO    C8  405   5.978   6.577   0.540  0.0635  0.8368 -0.1561
    1CHTO   H21  406   6.031   6.588   0.445  1.0653 -0.5647  0.2237
    1CHTO    O7  407   5.877   6.679   0.555 -0.5116  0.3894  0.2211
    1CHTO    H2  408   5.794   6.637   0.566  0.6193 -2.7587 -2.3952
    1CHTO   C12  409   5.931   6.427   0.529 -0.7316 -0.4920  0.1192
    1CHTO   H25  410   5.875   6.419   0.625  1.9917 -2.1584  1.6221
    1CHTO    N3  411   5.839   6.391   0.413  0.2428 -0.0373  0.4629
    1CHTO   H12  412   5.863   6.436   0.318  0.2524  0.7569  0.8402
    1CHTO   H13  413   5.734   6.380   0.438  0.0256  1.4832  0.2414
    1CHTO   C15  414   6.050   6.327   0.535 -0.3157 -0.2414  0.2510
    1CHTO   H28  415   6.104   6.319   0.441 -1.3956 -0.5292 -0.3606
    1CHTO   O10  416   6.012   6.185   0.575 -0.3175 -0.0891  0.3715
    1CHTO    H4  417   5.992   6.143   0.493 -0.0505  0.3700  0.0690
    1CHTO    O5  418   6.137   6.348   0.651 -0.0915 -0.6486 -0.2763
    1CHTO   C10  419   6.184   6.486   0.664 -0.1546  0.5167  0.1351
    1CHTO   H23  420   6.257   6.507   0.586  0.2157 -3.1057 -0.5943
    1CHTO   C17  421   6.265   6.496   0.794 -0.2326  0.6657  0.2325
    1CHTO   O12  422   6.335   6.381   0.832  0.1418 -0.3152  0.2576
    1CHTO    H6  423   6.399   6.419   0.889 -1.0501  0.1273  1.3132
    2CHTO  H203  424   6.644   5.459   6.603  2.4584 -0.4381  1.4341
    2CHTO   O82  425   6.641   5.418   6.519  0.5883  0.6567  0.9335
    2CHTO  C123  426   6.508   5.356   6.486  0.2727  0.4657  0.0341
    2CHTO  H227  427   6.431   5.434   6.483 -0.9167 -0.6284  1.5789
    2CHTO   O77  428   6.543   5.304   6.348 -0.1571  0.1843  0.1680
    2CHTO  C118  429   6.436   5.252   6.269 -0.0230 -0.5042  0.0710
    2CHTO  H222  430   6.371   5.340   6.261  2.3303  1.3734  1.1700
    2CHTO  C125  431   6.493   5.224   6.122  0.3017 -0.2227 -0.2359
    2CHTO   O84  432   6.580   5.113   6.116 -0.4350 -0.1944 -1.1160
    2CHTO  H205  433   6.640   5.111   6.188 -2.5292 -0.1139  0.6694
    2CHTO  C114  434   6.368   5.132   6.343 -0.4390 -0.0300  0.6536
    2CHTO  H218  435   6.434   5.045   6.341  0.3931  0.5918  0.8339
    2CHTO  C116  436   6.339   5.165   6.498  0.0791  0.1060 -0.0574
    2CHTO  H220  437   6.261   5.243   6.496  0.6153  0.7446  2.1270
    2CHTO   O79  438   6.293   5.050   6.568  0.1335  0.0363 -0.2976
    2CHTO  H201  439   6.218   5.078   6.616 -1.1337 -1.6758 -1.2055
    2CHTO  C120  440   6.468   5.229   6.573 -0.3347 -0.0215  1.2070
    2CHTO  H224  441   6.546   5.149   6.578  0.5193  0.6924 -0.2308
    2CHTO   N21  442   6.444   5.269   6.715  0.3023  0.1962  0.1900
    2CHTO  H211  443   6.342   5.288   6.746  0.5681  0.8299  0.6724
    2CHTO  H212  444   6.493   5.196   6.777 -0.6769 -0.7154 -0.0894
    2CHTO   O75  445   6.253   5.095   6.263  0.0782  0.3291 -0.3871
    2CHTO  C112  446   6.125   5.204   6.266  0.2615 -0.2516  0.4812
    2CHTO  H216  447   6.176   5.300   6.277  0.2975  0.1907 -2.8633
    2CHTO   O73  448   6.047   5.174   6.382  0.2483  0.0091 -0.0340
    2CHTO  C113  449   5.934   5.266   6.409  0.0688  0.2908  0.0422
    2CHTO  H217  450   5.972   5.369   6.422  1.0870  0.0438 -0.8631
    2CHTO  C124  451   5.887   5.220   6.542 -0.1699 -0.4502 -0.0996
    2CHTO   O83  452   5.775   5.291   6.590  0.1033  0.1554 -0.0245
    2CHTO  H204  453   5.722   5.337   6.527  2.7965  0.3019 -2.2516
    2CHTO  C109  454   5.835   5.268   6.291  0.3354  0.3501 -0.1827
    2CHTO  H213  455   5.794   5.166   6.288  0.4483  0.2161  1.9791
    2CHTO  C110  456   5.914   5.300   6.161  0.6294 -0.2804  0.1957
    2CHTO  H214  457   5.952   5.401   6.168 -0.3286  0.2582 -2.0248
    2CHTO   O78  458   5.819   5.290   6.051 -0.0092 -0.3667 -0.1549
    2CHTO  H200  459   5.743   5.344   6.066 -1.2046 -1.6830 -1.3692
    2CHTO  C111  460   6.035   5.206   6.140 -0.7561  0.4267  0.1041
    2CHTO  H215  461   6.002   5.102   6.129 -0.8381  0.6226 -1.5997
    2CHTO   N19  462   6.110   5.236   6.022 -0.0883 -0.0310  0.1117
    2CHTO  H207  463   6.196   5.172   6.013 -1.4584 -2.2590  2.3794
    2CHTO  H208  464   6.133   5.339   5.998 -2.0187  0.4801  0.3614
    2CHTO   O74  465   5.727   5.366   6.313  0.2272 -1.0073 -0.7971
    2CHTO  C115  466   5.590   5.304   6.292  0.5803  0.1201  0.1382
    2CHTO  H219  467   5.595   5.219   6.223  1.7501  0.6463 -0.4407
    2CHTO   O76  468   5.520   5.240   6.439  0.1491 -0.3230  0.0773
    2CHTO  C122  469   5.467   5.352   6.514  0.6629 -0.3448  0.4606
    2CHTO  H226  470   5.543   5.429   6.520  1.4720 -0.9480 -1.6938
    2CHTO  C126  471   5.433   5.309   6.661  0.6620 -0.3855 -0.5468
    2CHTO   O85  472   5.529   5.239   6.738 -0.2808  0.2549 -0.0341
    2CHTO  H206  473   5.504   5.247   6.828  0.4778  1.0506  0.1195
    2CHTO  C121  474   5.334   5.397   6.439  0.3894 -0.5417 -0.5008
    2CHTO  H225  475   5.240   5.347   6.470  0.2168 -0.8866 -1.5488
    2CHTO   O81  476   5.317   5.530   6.478  0.0841  0.5620 -0.0505
    2CHTO  H202  477   5.229   5.559   6.465 -0.8332 -2.2306 -0.5978
    2CHTO  C119  478   5.348   5.389   6.279  0.2191  0.3548 -0.3756
    2CHTO  H223  479   5.331   5.284   6.253  1.6056  0.2945 -1.1214
    2CHTO  C117  480   5.498   5.419   6.230  0.2834  0.7384  0.5915
    2CHTO  H221  481   5.538   5.517   6.258  1.6017  0.0575  1.1329
    2CHTO   N20  482   5.504   5.408   6.084 -0.0377 -0.2414  0.3412
    2CHTO  H209  483   5.459   5.490   6.030  0.1062 -0.1658  0.3356
    2CHTO  H210  484   5.609   5.397   6.060 -0.4342 -1.6437 -0.8156
    2CHTO   O80  485   5.227   5.455   6.201  0.1530  0.2839  0.1168
    2CHTO  C103  486   5.158   5.378   6.092 -0.8415  0.4552  0.8290
    2CHTO  H190  487   5.229   5.323   6.031 -2.5366 -0.7724 -0.0939
    2CHTO  C101  488   5.050   5.276   6.146 -0.0045 -0.2500 -0.3635
    2CHTO  H188  489   5.001   5.303   6.239  2.0364 -1.0983  0.9767
    2CHTO   O68  490   5.131   5.143   6.187  0.3633 -0.2582  0.4475
    2CHTO  H168  491   5.093   5.089   6.254 -1.2152  0.9523  0.5505
    2CHTO   C99  492   4.935   5.245   6.040 -0.1421 -0.0585  0.2703
    2CHTO  H186  493   4.982   5.187   5.958  1.4654 -1.9513  2.4659
    2CHTO   N17  494   4.818   5.165   6.098 -0.2192  0.2742 -0.2598
    2CHTO  H174  495   4.849   5.072   6.144 -1.7084  0.8346  1.9530
    2CHTO  H175  496   4.762   5.216   6.175 -3.4720 -3.8332  0.3237
    2CHTO   C97  497   4.886   5.378   5.985  0.4086  0.6462  0.4104
    2CHTO  H184  498   4.838   5.439   6.062  0.5382 -0.0095  1.0101
    2CHTO   O64  499   4.990   5.444   5.911 -1.3943 -0.2295 -0.1521
    2CHTO  C104  500   5.092   5.484   6.000  0.0850 -0.1161  0.2742
    2CHTO  H191  501   5.049   5.558   6.067 -3.4252 -2.3532  0.6075
    2CHTO  C108  502   5.185   5.566   5.912  0.0506  0.5673  0.3189
    2CHTO   O71  503   5.117   5.688   5.881  0.2043  0.1819  0.2134
    2CHTO  H171  504   5.156   5.749   5.822  2.0034 -2.1321 -1.0837
    2CHTO   O62  505   4.793   5.366   5.877  0.0264  0.3570  0.8006
    2CHTO   C91  506   4.689   5.460   5.879  1.5632 -0.4276 -0.0877
    2CHTO  H178  507   4.654   5.467   5.982  0.9422  0.6938 -0.3663
    2CHTO   C92  508   4.562   5.400   5.813  0.7013  0.1583 -0.2024
    2CHTO  H179  509   4.549   5.295   5.839  2.0080 -0.1067 -0.5596
    2CHTO   O66  510   4.450   5.467   5.861  0.1519 -0.6071 -0.0008
    2CHTO  H166  511   4.455   5.559   5.846 -3.9505  0.2125  2.9903
    2CHTO   C93  512   4.558   5.422   5.659  0.1790  0.5147 -0.1920
    2CHTO  H180  513   4.453   5.412   5.628  0.3089  0.2368 -0.5556
    2CHTO   N16  514   4.640   5.318   5.584 -0.1841  0.6343  0.0806
    2CHTO  H172  515   4.658   5.340   5.480 -0.7994 -1.5705 -0.5232
    2CHTO  H173  516   4.728   5.286   5.638  1.4808 -0.1754 -2.9440
    2CHTO   C94  517   4.611   5.567   5.617  0.2609  0.3488 -0.6971
    2CHTO  H181  518   4.696   5.565   5.549  0.0144 -1.5215 -0.9662
    2CHTO   O61  519   4.627   5.658   5.727 -0.3631 -0.3981  0.3434
    2CHTO   C95  520   4.727   5.606   5.818 -0.1837 -0.2826 -0.3059
    2CHTO  H182  521   4.822   5.600   5.765  1.1774 -2.1322  2.2187
    2CHTO  C106  522   4.757   5.702   5.942  0.8880 -0.8401 -0.3253
    2CHTO   O69  523   4.788   5.831   5.894 -0.0938  0.2371  0.5155
    2CHTO  H169  524   4.870   5.826   5.848 -0.5815  0.6105 -0.4105
    2CHTO   O63  525   4.481   5.621   5.525 -0.0741  0.6566  0.7443
    2CHTO   C96  526   4.395   5.726   5.566 -0.9132  0.9675 -0.5530
    2CHTO  H183  527   4.395   5.738   5.675 -1.2837  2.4899 -0.6990
    2CHTO   C98  528   4.249   5.688   5.534 -0.4528 -0.3159 -0.3525
    2CHTO  H185  529   4.237   5.650   5.431  3.2194  0.5611 -1.1894
    2CHTO   O67  530   4.213   5.573   5.619 -0.4209 -0.1101 -0.4892
    2CHTO  H167  531   4.261   5.500   5.585 -1.3532 -0.5191 -0.9390
    2CHTO  C102  532   4.162   5.809   5.562  0.2342  0.6313  0.5300
    2CHTO  H189  533   4.176   5.829   5.669  1.1793  1.0749  0.3281
    2CHTO   N18  534   4.016   5.778   5.545  0.0795  0.2909  0.5291
    2CHTO  H176  535   3.957   5.864   5.515 -0.4737 -0.5450 -0.8169
    2CHTO  H177  536   3.994   5.683   5.499 -1.4248  0.9914 -0.2405
    2CHTO  C105  537   4.215   5.928   5.479  0.2831  0.5607 -1.0736
    2CHTO  H192  538   4.227   5.894   5.376  3.2216  0.4724 -0.7512
    2CHTO   O65  539   4.344   5.967   5.520  0.3981 -0.3839 -0.4113
    2CHTO  C100  540   4.439   5.869   5.498  0.2138  1.3579  0.1460
    2CHTO  H187  541   4.460   5.844   5.393  0.8216 -2.4546  1.0753
    2CHTO  C107  542   4.569   5.926   5.562  0.2489 -0.5053 -0.0049
    2CHTO   O70  543   4.620   6.050   5.508 -0.4480  0.2355 -0.7956
    2CHTO  H170  544   4.711   6.062   5.529 -1.1073  1.2079  1.6327
    2CHTO   O57  545   4.126   6.048   5.497 -0.2468 -0.0296 -0.0621
    2CHTO   C85  546   4.092   6.131   5.384 -0.1246 -0.1562 -0.0961
    2CHTO  H157  547   4.020   6.067   5.329 -0.0130  0.2188 -0.6803
    2CHTO   C83  548   4.223   6.147   5.284 -0.0844  0.2391 -0.6532
    2CHTO  H155  549   4.253   6.049   5.249  2.0029  0.2638  0.9377
    2CHTO   O56  550   4.338   6.209   5.351 -0.7648  0.0683 -0.5138
    2CHTO  H135  551   4.401   6.146   5.382 -1.2752 -0.5599 -0.7377
    2CHTO   C81  552   4.170   6.227   5.162 -0.3222  0.4702  0.2455
    2CHTO  H153  553   4.081   6.178   5.122  0.6286  0.0164 -1.3653
    2CHTO   N14  554   4.266   6.237   5.051  0.2260 -0.6072 -0.1896
    2CHTO  H141  555   4.309   6.335   5.048  0.8706 -0.9040 -0.9944
    2CHTO  H142  556   4.238   6.211   4.951  1.0914 -1.0337 -0.3327
    2CHTO   C79  557   4.126   6.369   5.214 -0.3019  0.6453 -0.2205
    2CHTO  H151  558   4.085   6.428   5.132 -1.4534  1.9439  1.2562
    2CHTO   O52  559   4.021   6.361   5.315 -0.0835  0.4193 -0.0803
    2CHTO   C86  560   4.033   6.269   5.425  0.2404  0.0689  0.3348
    2CHTO  H158  561   4.094   6.320   5.503  2.0475 -1.7190  0.1309
    2CHTO   C90  562   3.901   6.250   5.496 -0.0376 -0.2933 -0.5284
    2CHTO   O60  563   3.919   6.189   5.628  0.4300 -0.0174 -0.2268
    2CHTO  H138  564   3.959   6.105   5.619  1.7235  0.6537 -1.0049
    2CHTO   O50  565   4.226   6.447   5.274 -0.1631  0.3258  0.0839
    2CHTO   C73  566   4.288   6.576   5.255  0.4679 -0.0272 -0.6643
    2CHTO  H145  567   4.201   6.639   5.230  2.1358  2.8065  0.3727
    2CHTO   C74  568   4.390   6.580   5.137  0.7383  0.2442  0.7632
    2CHTO  H146  569   4.327   6.536   5.058  1.0742 -0.2070  0.7436
    2CHTO   O54  570   4.431   6.712   5.107 -0.2332 -0.2983  0.0968
    2CHTO  H133  571   4.368   6.756   5.053  0.2529 -1.0763 -1.1380
    2CHTO   C75  572   4.517   6.491   5.166  0.3043  0.4693  0.2221
    2CHTO  H147  573   4.490   6.390   5.201 -0.3483  1.1799  1.8440
    2CHTO   N13  574   4.609   6.478   5.051 -0.3656  0.5319 -0.0629
    2CHTO  H139  575   4.617   6.567   4.991 -0.9548  1.3785  1.0992
    2CHTO  H140  576   4.600   6.386   4.995  2.9584  0.6060 -0.8200
    2CHTO   C76  577   4.582   6.557   5.297 -0.8626  0.8716  0.0571
    2CHTO  H148  578   4.625   6.655   5.276 -0.0462  0.7930  1.2918
    2CHTO   O49  579   4.486   6.568   5.407  0.3773  0.8475 -0.0416
    2CHTO   C77  580   4.364   6.638   5.385  0.5489  0.0564 -0.0348
    2CHTO  H149  581   4.392   6.742   5.370 -0.1207  0.4762  1.6005
    2CHTO   C88  582   4.284   6.624   5.511  0.5086 -0.0082  0.1537
    2CHTO   O58  583   4.152   6.695   5.501 -0.1501  0.2093 -0.3268
    2CHTO  H136  584   4.100   6.650   5.437  1.3580  0.5356 -1.8008
    2CHTO   O51  585   4.693   6.448   5.343  0.8301  0.2888  0.3790
    2CHTO   C78  586   4.796   6.508   5.433 -0.1331  0.3749 -0.1279
    2CHTO  H150  587   4.762   6.598   5.488  0.5884  0.7624 -0.3050
    2CHTO   C80  588   4.921   6.552   5.358  0.0794 -0.3023  0.4068
    2CHTO  H152  589   4.965   6.469   5.299 -0.2574  1.0151 -1.7364
    2CHTO   O55  590   4.874   6.658   5.270  0.4894 -0.1984 -0.3328
    2CHTO  H134  591   4.942   6.695   5.218 -0.0335 -1.0523 -1.6709
    2CHTO   C84  592   5.031   6.622   5.459 -0.3580  0.2703  0.3061
    2CHTO  H156  593   4.991   6.707   5.515 -2.1883 -1.8294  2.2510
    2CHTO   N15  594   5.144   6.679   5.382  0.1019  0.5202 -0.2746
    2CHTO  H143  595   5.185   6.762   5.434  0.3801 -0.1656  0.6144
    2CHTO  H144  596   5.221   6.608   5.357 -0.8295 -0.3744 -0.6612
    2CHTO   C87  597   5.062   6.523   5.567 -0.0134 -0.8077 -0.4439
    2CHTO  H159  598   5.088   6.429   5.518  2.0645 -0.6148  0.2678
    2CHTO   O53  599   4.928   6.494   5.636 -0.0091  0.4893  0.4692
    2CHTO   C82  600   4.835   6.417   5.548  0.0189 -0.2737  0.0100
    2CHTO  H154  601   4.897   6.332   5.521  1.1672  0.1713  1.1615
    2CHTO   C89  602   4.716   6.361   5.624 -0.4295 -0.1369 -0.5693
    2CHTO   O59  603   4.637   6.462   5.690 -0.3958  0.1795  0.1266
    2CHTO  H137  604   4.543   6.452   5.684 -0.4269  0.6448 -0.1304
    2CHTO   O45  605   5.168   6.577   5.691 -0.5703  0.9842  0.5564
    2CHTO   C67  606   5.210   6.464   5.777 -0.0093  0.1851  0.0391
    2CHTO  H124  607   5.148   6.377   5.754  2.6952 -1.1624 -2.6500
    2CHTO   C65  608   5.359   6.420   5.751  0.0461  0.5545 -0.5510
    2CHTO  H122  609   5.405   6.502   5.696  1.7156 -0.6351 -0.9760
    2CHTO   O44  610   5.349   6.305   5.660 -0.4904  0.3257  0.5896
    2CHTO  H102  611   5.417   6.286   5.598 -2.1801 -2.1163 -0.6080
    2CHTO   C63  612   5.440   6.401   5.887 -0.8313 -0.0525  0.4395
    2CHTO  H120  613   5.465   6.496   5.934  0.6060 -0.5601  0.7241
    2CHTO   N11  614   5.576   6.341   5.877 -0.4777  0.8327 -0.4080
    2CHTO  H108  615   5.627   6.389   5.796  2.1831 -0.7974  0.2358
    2CHTO  H109  616   5.578   6.236   5.854  2.5464  0.7862 -0.1248
    2CHTO   C61  617   5.343   6.329   5.995  0.2146  0.5615  0.0198
    2CHTO  H118  618   5.407   6.338   6.084 -1.2367 -2.4707  1.4365
    2CHTO   O40  619   5.219   6.393   6.023  0.3471  0.3627 -0.3833
    2CHTO   C68  620   5.174   6.493   5.930 -0.1716 -0.4004 -0.0817
    2CHTO  H125  621   5.219   6.590   5.962 -2.2084  1.4474 -2.5898
    2CHTO   C72  622   5.020   6.504   5.950  0.3661 -0.4607 -0.6296
    2CHTO   O48  623   4.976   6.537   6.080 -0.2716  0.4468  0.1668
    2CHTO  H105  624   4.934   6.621   6.083  0.3566  0.7366  1.0208
    2CHTO   O38  625   5.335   6.184   5.974 -0.3172 -0.2861 -0.4376
    2CHTO   C55  626   5.268   6.095   6.072  0.7681  0.8741 -0.1571
    2CHTO  H112  627   5.215   6.160   6.143  0.8589  1.6051 -0.7546
    2CHTO   C56  628   5.373   6.001   6.139  0.1063 -0.4484  0.1962
    2CHTO  H113  629   5.419   5.942   6.059  0.8673  0.0536  0.2623
    2CHTO   O42  630   5.476   6.086   6.196 -0.1833  0.2702  0.0837
    2CHTO  H100  631   5.472   6.176   6.169 -1.0007  0.7563  1.7625
    2CHTO   C57  632   5.309   5.908   6.240 -0.2692  0.8841  0.1313
    2CHTO  H114  633   5.262   5.973   6.313 -0.0235  2.7393 -1.3307
    2CHTO   N10  634   5.402   5.815   6.317 -0.4272 -0.4063  0.3730
    2CHTO  H106  635   5.477   5.765   6.258  0.5250 -0.4587  1.6095
    2CHTO  H107  636   5.338   5.741   6.363  1.2444 -1.2358  1.3780
    2CHTO   C58  637   5.195   5.829   6.165 -0.9258  1.0676 -0.7966
    2CHTO  H115  638   5.247   5.762   6.095 -1.1500 -0.7641  0.7365
    2CHTO   O37  639   5.105   5.920   6.101 -0.0184  0.2947 -0.2368
    2CHTO   C59  640   5.173   5.996   5.999  0.1170  0.4451  0.2208
    2CHTO  H116  641   5.215   5.929   5.925  1.5108  1.0787  0.4266
    2CHTO   C70  642   5.063   6.070   5.922  0.0669 -0.2628 -0.2000
    2CHTO   O46  643   4.998   6.167   5.999  0.4109 -0.2486  0.1512
    2CHTO  H103  644   4.904   6.161   5.991  0.5765 -1.3608 -1.0302
    2CHTO   O39  645   5.112   5.739   6.275 -0.6786  0.1568  0.6298
    2CHTO   C60  646   4.972   5.740   6.296  0.4930 -0.6008 -0.7760
    2CHTO  H117  647   4.918   5.777   6.209  0.9971 -0.9132 -1.2247
    2CHTO   C62  648   4.931   5.589   6.324  0.2858  0.3487 -0.4120
    2CHTO  H119  649   4.974   5.527   6.242 -0.9019 -1.5793  0.3941
    2CHTO   O43  650   5.000   5.534   6.440  0.4490  0.2612 -0.3229
    2CHTO  H101  651   5.061   5.475   6.401  0.6134  0.8163 -0.9072
    2CHTO   C66  652   4.764   5.588   6.329  0.4252 -0.2567  0.0788
    2CHTO  H123  653   4.725   5.646   6.246 -1.0702 -2.1789 -0.6318
    2CHTO   N12  654   4.705   5.451   6.324  0.8278  0.4504 -0.2040
    2CHTO  H110  655   4.716   5.417   6.222 -0.1435 -1.9472  0.4667
    2CHTO  H111  656   4.758   5.387   6.393  1.1330  0.0483 -0.8029
    2CHTO   C69  657   4.725   5.675   6.455  0.4028 -0.6549  0.0620
    2CHTO  H126  658   4.740   5.638   6.559  0.1476  0.9371  0.6839
    2CHTO   O41  659   4.790   5.829   6.455 -0.2954 -0.2612  0.2569
    2CHTO   C64  660   4.940   5.831   6.420  0.1985 -0.9424 -0.2080
    2CHTO  H121  661   5.004   5.795   6.504 -1.1435 -0.8062  0.8986
    2CHTO   C71  662   4.989   5.978   6.406  0.2539 -0.3185 -0.0753
    2CHTO   O47  663   4.931   6.033   6.283  0.1771  0.4037 -0.1862
    2CHTO  H104  664   4.852   6.083   6.287  1.1297  2.2453 -2.7521
    2CHTO   O34  665   4.575   5.703   6.445  0.3083 -0.3894 -0.6057
    2CHTO   C49  666   4.483   5.820   6.445  0.0156  0.6975 -0.2118
    2CHTO   H91  667   4.436   5.830   6.543 -0.7579 -1.2214 -0.3714
    2CHTO   C47  668   4.375   5.800   6.340 -0.1843  0.5336 -0.3075
    2CHTO   H89  669   4.305   5.886   6.339  0.6597  1.2256 -0.3090
    2CHTO   O33  670   4.303   5.680   6.384  0.6561 -0.5658  0.3305
    2CHTO   H70  671   4.360   5.606   6.396  0.3676 -1.0672 -1.2707
    2CHTO   C45  672   4.452   5.792   6.193 -0.2179  0.8850  0.5232
    2CHTO   H87  673   4.530   5.714   6.197 -1.7601 -0.6546  1.7829
    2CHTO    N8  674   4.350   5.752   6.087 -0.1686 -0.9078  0.1846
    2CHTO   H75  675   4.251   5.741   6.130 -0.3032  0.4218  0.2349
    2CHTO   H76  676   4.346   5.813   5.998  2.1203 -2.7210 -1.1900
    2CHTO   C43  677   4.539   5.926   6.165 -0.4295 -0.2341 -0.2069
    2CHTO   H85  678   4.607   5.898   6.085 -0.3617 -2.4913  0.6210
    2CHTO   O29  679   4.612   5.961   6.287  0.4257  0.4986 -0.6367
    2CHTO   C50  680   4.548   5.955   6.417 -0.5173  0.2660  0.3003
    2CHTO   H92  681   4.619   5.961   6.501 -2.2141  1.9829  1.6721
    2CHTO   C54  682   4.455   6.075   6.432 -0.4638 -0.0944  0.1475
    2CHTO   O36  683   4.525   6.190   6.485  0.1974  0.5099  0.7829
    2CHTO   H72  684   4.563   6.247   6.420 -2.6580 -1.0136 -2.4075
    2CHTO   O27  685   4.452   6.033   6.114 -0.1245 -0.3490 -0.7243
    2CHTO   C37  686   4.459   6.151   6.028 -0.9817  0.0748 -0.1155
    2CHTO   H79  687   4.517   6.118   5.941  0.7604 -2.4687  1.9308
    2CHTO   C38  688   4.314   6.191   5.985 -0.2113  0.2146 -0.1641
    2CHTO   H80  689   4.253   6.221   6.073 -0.8310 -0.8888 -0.2096
    2CHTO   O31  690   4.257   6.080   5.917 -0.0573  0.3538 -0.1062
    2CHTO   H68  691   4.166   6.091   5.893 -0.7021 -1.9159  1.1480
    2CHTO   C39  692   4.314   6.316   5.892  0.3178 -0.0653  0.1785
    2CHTO   H81  693   4.366   6.282   5.802  0.1570  0.1855 -0.0097
    2CHTO    N7  694   4.172   6.365   5.854 -0.3181 -0.1337  0.7185
    2CHTO   H73  695   4.101   6.306   5.909  1.6304 -0.3432  3.0759
    2CHTO   H74  696   4.147   6.466   5.883 -0.6392 -0.4187  1.4482
    2CHTO   C40  697   4.391   6.429   5.952 -0.0221 -0.9763 -0.2362
    2CHTO   H82  698   4.340   6.473   6.038  1.4435  0.6971 -0.1884
    2CHTO   O26  699   4.525   6.382   5.993 -0.4426  0.2479 -0.1166
    2CHTO   C41  700   4.531   6.274   6.091 -0.0284 -0.1443 -0.0064
    2CHTO   H83  701   4.479   6.298   6.185  0.5253 -0.9552  0.5116
    2CHTO   C52  702   4.679   6.253   6.131  0.0646  0.0247 -0.5965
    2CHTO   O35  703   4.738   6.382   6.180 -0.1925  0.5440 -0.0377
    2CHTO   H71  704   4.760   6.431   6.103 -1.9638  0.2804 -0.7388
    2CHTO   O28  705   4.433   6.534   5.859 -0.1482  0.4697  0.3469
    2CHTO   C42  706   4.456   6.672   5.916 -0.0380 -0.2716 -0.7480
    2CHTO   H84  707   4.484   6.725   5.825 -1.2706 -0.0152 -0.9807
    2CHTO   C44  708   4.565   6.691   6.019  0.3626  0.2774  0.3740
    2CHTO   H86  709   4.552   6.613   6.094 -0.3198 -1.9404 -1.9695
    2CHTO   O32  710   4.691   6.658   5.954  0.1945 -0.4367  0.2723
    2CHTO   H69  711   4.761   6.680   6.013 -0.9235 -1.0536  1.8797
    2CHTO   C48  712   4.570   6.826   6.093  0.4428 -0.1589 -0.2749
    2CHTO   H90  713   4.584   6.907   6.022  0.2257 -2.1882 -2.6885
    2CHTO    N9  714   4.678   6.830   6.196  0.0102  1.1508  0.2464
    2CHTO   H77  715   4.694   6.910   6.266 -1.9148  1.4772  0.3340
    2CHTO   H78  716   4.772   6.802   6.151 -0.4539  0.1987 -0.1420
    2CHTO   C51  717   4.417   6.852   6.144 -0.0395 -0.5401 -0.0929
    2CHTO   H93  718   4.393   6.772   6.214 -1.0321  0.4600  0.7320
    2CHTO   O30  719   4.332   6.848   6.028 -0.3935  0.0016  1.0194
    2CHTO   C46  720   4.319   6.729   5.957  0.0484 -1.0698 -0.4710
    2CHTO   H88  721   4.274   6.668   6.036  0.5810 -0.5544  0.2340
    2CHTO   C53  722   4.225   6.742   5.836  0.1567 -0.4661 -0.8037
    2CHTO   O72  723   4.090   6.780   5.865 -0.3296 -0.1224 -0.1991
    2CHTO  H199  724   4.074   6.861   5.821  0.3367  0.5396  0.7389
    2CHTO   O22  725   4.417   6.981   6.216  0.4483 -0.3799 -0.0034
    2CHTO   C31  726   4.300   7.021   6.296  0.6033  0.6278  0.8082
    2CHTO   H59  727   4.316   7.129   6.317 -0.3127  0.4240  2.7159
    2CHTO   C29  728   4.165   7.010   6.214 -0.0749 -0.1366 -0.1353
    2CHTO   H57  729   4.141   6.904   6.194  1.6115 -0.8144  1.3037
    2CHTO   O21  730   4.168   7.075   6.085 -0.3612  0.3447  0.1192
    2CHTO   H37  731   4.210   7.015   6.026 -0.4015 -1.3370  1.7483
    2CHTO   C27  732   4.047   7.060   6.301 -0.2230 -0.4416  0.6551
    2CHTO   H55  733   4.057   7.168   6.324 -0.5432 -0.3710  0.4745
    2CHTO    N5  734   3.925   7.042   6.228  0.7626  0.3866 -0.2538
    2CHTO   H43  735   3.860   6.965   6.267  2.7354 -0.8804  0.6701
    2CHTO   H44  736   3.873   7.136   6.221  0.7596  0.6594  2.5774
    2CHTO   C25  737   4.045   6.972   6.428 -0.1700  0.0626 -0.6224
    2CHTO   H53  738   4.029   6.869   6.395 -0.9101  0.3613 -1.1970
    2CHTO   O17  739   4.166   6.999   6.507 -0.2283 -0.6881 -0.3767
    2CHTO   C32  740   4.283   6.954   6.437  0.1331  0.1795  0.0423
    2CHTO   H60  741   4.277   6.846   6.422 -2.0148  0.1262  1.1189
    2CHTO   C36  742   4.409   6.977   6.524 -0.2478 -0.4757  0.4090
    2CHTO   O25  743   4.391   6.935   6.659  0.1102 -0.1527 -0.2764
    2CHTO   H40  744   4.415   6.845   6.664  0.5310  0.0484  1.9186
    2CHTO   O15  745   3.930   7.003   6.532  0.7505 -0.0153  0.1410
    2CHTO   C19  746   3.851   6.933   6.630  0.8546 -0.3893 -0.3577
    2CHTO   H47  747   3.746   6.950   6.602  0.1317 -1.1459  1.7697
    2CHTO   C20  748   3.868   6.779   6.625 -0.3079  0.5839  0.0224
    2CHTO   H48  749   3.973   6.745   6.627 -0.2089  0.7010 -1.9821
    2CHTO   O19  750   3.815   6.736   6.493  0.9813  0.1100 -0.2487
    2CHTO   H35  751   3.880   6.682   6.453 -2.1422 -3.5862 -0.5929
    2CHTO   C21  752   3.791   6.704   6.741  0.9735  0.0184  0.0619
    2CHTO   H49  753   3.685   6.718   6.721  0.3348 -1.4403  2.2593
    2CHTO    N4  754   3.811   6.557   6.740 -0.0671 -0.2123 -0.1685
    2CHTO   H41  755   3.869   6.532   6.828  1.3249 -0.1205 -1.0373
    2CHTO   H42  756   3.714   6.511   6.747 -0.6968  0.9733 -0.9138
    2CHTO   C22  757   3.826   6.773   6.872 -0.5087 -0.2915  0.2927
    2CHTO   H50  758   3.926   6.744   6.904 -0.2693  1.0626  0.8262
    2CHTO   O14  759   3.795   6.911   6.853 -0.2240 -0.3191  0.7048
    2CHTO   C23  760   3.877   6.989   6.770 -0.4714  0.8828  0.5013
    2CHTO   H51  761   3.984   6.981   6.796 -0.3580  0.6842 -0.0267
    2CHTO   C34  762   3.839   7.136   6.786 -0.4248  0.0653  0.4715
    2CHTO   O23  763   3.936   7.219   6.743  0.2491  0.2073 -0.0350
    2CHTO   H38  764   4.011   7.214   6.799 -0.2385  1.1816  0.7206
    2CHTO   O16  765   3.727   6.737   6.974  0.5549  0.0393  0.4304
    2CHTO   C24  766   3.760   6.769   7.118 -0.3593  0.4543  0.2172
    2CHTO   H52  767   3.833   6.850   7.129 -0.4089  0.3333  1.5752
    2CHTO   C26  768   3.803   6.639   7.190  0.1680  0.0206 -1.0215
    2CHTO   H54  769   3.717   6.569   7.191 -1.3221  1.8025  1.0840
    2CHTO   O20  770   3.911   6.564   7.124 -0.3189  0.3386  0.3276
    2CHTO   H36  771   3.893   6.549   7.033  2.3526 -0.6212 -0.0814
    2CHTO   C30  772   3.846   6.666   7.339 -0.4301  0.0279 -0.1991
    2CHTO   H58  773   3.933   6.734   7.342  1.1195 -1.7912 -2.5472
    2CHTO    N6  774   3.892   6.555   7.425 -0.3522  0.3662  0.1230
    2CHTO   H45  775   3.853   6.560   7.525  0.9609 -1.8864  0.7710
    2CHTO   H46  776   4.000   6.561   7.426 -0.2154 -1.3436 -1.6575
    2CHTO   C33  777   3.729   6.744   7.410  0.2321  0.3358 -0.6309
    2CHTO   H61  778   3.645   6.674   7.424 -0.4339  1.1241 -0.6581
    2CHTO   O18  779   3.684   6.846   7.324 -0.1144 -0.1345  0.1287
    2CHTO   C28  780   3.639   6.818   7.188  0.0063  0.0160  0.2595
    2CHTO   H56  781   3.570   6.734   7.193  0.3258 -0.4708 -2.5521
    2CHTO   C35  782   3.566   6.940   7.119 -0.2320 -1.3085  0.3555
    2CHTO   O24  783   3.657   7.050   7.124  0.6613 -0.0647 -0.1140
    2CHTO   H39  784   3.607   7.126   7.103 -1.4244 -1.2009  0.6572
    2CHTO    O9  785   3.761   6.796   7.542 -0.0039  0.5817  0.4945
    2CHTO   C13  786   3.679   6.939   7.600  0.5698 -0.4680  0.3556
    2CHTO   H26  787   3.575   6.928   7.561  0.1989 -0.4180  1.3138
    2CHTO   C11  788   3.752   7.069   7.551 -0.1424  0.4910 -0.1247
    2CHTO   H24  789   3.720   7.071   7.446  2.8080  2.9934 -1.0450
    2CHTO    O8  790   3.895   7.049   7.568 -0.2995  0.3957 -0.0710
    2CHTO    H3  791   3.923   7.049   7.658  0.7032 -3.0425 -0.3390
    2CHTO    C9  792   3.697   7.198   7.619  0.0671  0.1949  0.2375
    2CHTO   H22  793   3.587   7.191   7.609  0.2625 -0.2285 -1.7855
    2CHTO    N2  794   3.730   7.324   7.546  0.4797 -0.0708  0.6291
    2CHTO   H10  795   3.641   7.383   7.528  0.4998 -0.3906 -0.5603
    2CHTO   H11  796   3.772   7.297   7.450 -1.8624 -2.1609  0.1555
    2CHTO    C7  797   3.734   7.181   7.770 -0.8371 -0.2803 -0.0852
    2CHTO   H20  798   3.637   7.207   7.818 -1.5177 -0.0461 -1.5642
    2CHTO    O4  799   3.764   7.048   7.810  0.0084  0.1594  0.1417
    2CHTO   C14  800   3.677   6.940   7.759  0.2523  0.5985 -0.4580
    2CHTO   H27  801   3.576   6.964   7.798 -0.1784 -0.2407 -1.0363
    2CHTO   C18  802   3.721   6.807   7.827  0.4086  0.1673  0.4247
    2CHTO   O13  803   3.725   6.811   7.968 -0.2162 -0.0143  0.2245
    2CHTO    H7  804   3.798   6.760   7.997  1.4387  1.2139 -1.5992
    2CHTO    O2  805   3.860   7.269   7.813  0.0672 -0.2377 -0.2373
    2CHTO    C1  806   3.848   7.313   7.950  0.1055  0.3556  0.2824
    2CHTO   H14  807   3.782   7.238   7.999 -1.3032  1.5695  0.2906
    2CHTO    C2  808   3.783   7.456   7.978  0.1827  0.3824 -0.2728
    2CHTO   H15  809   3.846   7.523   7.918  0.0490 -0.1610 -1.0274
    2CHTO    O6  810   3.651   7.457   7.917  0.0251  0.6384  0.2619
    2CHTO    H1  811   3.592   7.520   7.954 -0.1941 -0.7539  2.3451
    2CHTO    C3  812   3.777   7.492   8.138 -0.1965  0.0203  0.0275
    2CHTO   H16  813   3.699   7.432   8.186  0.0699  0.9052  1.5959
    2CHTO    N1  814   3.744   7.641   8.153  0.3756 -0.1000 -0.2119
    2CHTO    H8  815   3.698   7.647   8.250  0.5049  1.0109 -0.2051
    2CHTO    H9  816   3.832   7.704   8.157 -1.4024  2.3737  1.3765
    2CHTO    C4  817   3.915   7.457   8.203 -0.0775  0.4912 -0.4635
    2CHTO   H17  818   3.985   7.532   8.167  0.2302  1.1648  1.5000
    2CHTO    O1  819   3.952   7.319   8.165  0.2377  0.3225  0.3534
    2CHTO    C5  820   3.984   7.300   8.025  0.5557  0.0016  1.2210
    2CHTO   H18  821   4.051   7.376   7.983  2.1695 -2.3942 -0.7110
    2CHTO   C16  822   4.067   7.161   8.015 -0.3506 -0.0075  0.2197
    2CHTO   O11  823   4.140   7.156   7.893 -0.0425 -0.1919  0.3130
    2CHTO    H5  824   4.081   7.157   7.820  0.2038  1.5755  0.1204
    2CHTO    O3  825   3.913   7.449   8.348  0.1504 -0.2609 -0.3291
    2CHTO    C6  826   4.034   7.483   8.420 -0.4017 -0.6934 -0.5842
    2CHTO   H19  827   4.115   7.521   8.357  0.0792  1.0364  1.0401
    2CHTO    C8  828   3.991   7.599   8.520 -0.0501 -0.0496  0.5986
    2CHTO   H21  829   3.901   7.568   8.573 -1.3371  0.5117 -1.2248
    2CHTO    O7  830   3.971   7.706   8.432 -0.2547  0.0003 -0.3929
    2CHTO    H2  831   3.881   7.700   8.405  0.2932 -1.5025 -1.9676
    2CHTO   C12  832   4.108   7.628   8.622  0.4069 -0.1206  0.2540
    2CHTO   H25  833   4.189   7.674   8.563 -0.0536 -0.4683 -0.6529
    2CHTO    N3  834   4.067   7.731   8.722  0.1547 -0.7144  0.6423
    2CHTO   H12  835   4.150   7.768   8.781 -0.7247  3.7119 -0.7216
    2CHTO   H13  836   3.986   7.691   8.781 -0.1382 -0.7924  0.1840
    2CHTO   C15  837   4.147   7.491   8.680  0.0461 -0.1498 -0.0229
    2CHTO   H28  838   4.067   7.438   8.731 -0.0714 -2.5264 -2.5658
    2CHTO   O10  839   4.275   7.493   8.772  0.5368 -0.8974 -0.3554
    2CHTO    H4  840   4.317   7.412   8.790  0.3288 -0.9293 -0.0116
    2CHTO    O5  841   4.197   7.409   8.576  0.2574 -0.4336 -0.3268
    2CHTO   C10  842   4.084   7.365   8.497 -0.0526  0.1068  0.0473
    2CHTO   H23  843   4.011   7.320   8.565  0.5185 -1.4134 -0.3288
    2CHTO   C17  844   4.127   7.254   8.404 -0.4132  0.0360 -0.1570
    2CHTO   O12  845   4.153   7.134   8.488  0.3026 -0.7891 -0.3413
    2CHTO    H6  846   4.204   7.158   8.563  0.7581 -1.1181 -0.5449
    3CHTO  H203  847   5.464   3.814   4.143 -0.8983 -1.6828 -0.6959
    3CHTO   O82  848   5.556   3.802   4.128 -0.5858  0.0352 -0.2547
    3CHTO  C123  849   5.573   3.772   3.988 -0.2571  0.2352 -0.1910
    3CHTO  H227  850   5.497   3.825   3.928 -0.4814  1.7377  1.3954
    3CHTO   O77  851   5.708   3.808   3.942  0.0189  0.3075 -0.4211
    3CHTO  C118  852   5.729   3.784   3.803  0.0537 -0.1927 -0.2544
    3CHTO  H222  853   5.650   3.841   3.751 -1.5156 -1.4826  0.6302
    3CHTO  C125  854   5.860   3.848   3.775 -0.2791 -0.0650  0.3531
    3CHTO   O84  855   5.969   3.790   3.849  0.3397  0.4592  0.4004
    3CHTO  H205  856   6.047   3.842   3.837  0.7784  0.6217  3.3991
    3CHTO  C114  857   5.723   3.632   3.772 -0.2130 -0.3284 -0.6493
    3CHTO  H218  858   5.808   3.583   3.819 -0.1424  0.7714  0.3846
    3CHTO  C116  859   5.588   3.566   3.812  0.4838 -0.1010 -0.6033
    3CHTO  H220  860   5.520   3.598   3.731  0.4103  0.8331 -0.1782
    3CHTO   O79  861   5.605   3.426   3.801  0.3970 -0.1690 -0.4768
    3CHTO  H201  862   5.518   3.392   3.815 -0.3681  2.1786  0.8407
    3CHTO  C120  863   5.561   3.615   3.960  0.4105  0.6269  0.2477
    3CHTO  H224  864   5.642   3.559   4.012  0.9406 -0.1717 -1.3961
    3CHTO   N21  865   5.426   3.566   4.008 -0.2733 -0.7540  0.1526
    3CHTO  H211  866   5.424   3.536   4.112 -2.4491 -0.7317  0.1385
    3CHTO  H212  867   5.339   3.623   3.979  1.3844  1.4841 -0.5524
    3CHTO   O75  868   5.742   3.641   3.625  0.1525  0.3269 -0.7093
    3CHTO  C112  869   5.839   3.518   3.558  0.2954  0.7838  0.0875
    3CHTO  H216  870   5.839   3.435   3.630 -1.7327  2.0478  1.6000
    3CHTO   O73  871   5.972   3.573   3.531  0.1466 -0.4926  0.2049
    3CHTO  C113  872   6.061   3.482   3.466  0.5567 -0.0017  0.4397
    3CHTO  H217  873   6.066   3.380   3.510  0.3403  0.6371  1.9475
    3CHTO  C124  874   6.201   3.535   3.456  0.3356 -0.1473 -0.3882
    3CHTO   O83  875   6.252   3.555   3.584 -0.0500 -0.1288 -0.7843
    3CHTO  H204  876   6.345   3.565   3.579 -0.0428  0.0840 -0.2359
    3CHTO  C109  877   6.007   3.445   3.333 -0.2956  0.6537  0.6594
    3CHTO  H213  878   6.000   3.536   3.272  1.5281 -0.3870 -1.1968
    3CHTO  C110  879   5.872   3.383   3.340 -0.2285  0.8048  0.5911
    3CHTO  H214  880   5.860   3.282   3.379  0.0420  0.4244 -0.3163
    3CHTO   O78  881   5.830   3.355   3.205  0.5065  0.1007  0.0219
    3CHTO  H200  882   5.785   3.426   3.163 -1.9394 -2.5458 -2.0476
    3CHTO  C111  883   5.772   3.471   3.417  0.3850 -0.1236  0.0558
    3CHTO  H215  884   5.753   3.565   3.363  2.2727  0.4914  0.4084
    3CHTO   N19  885   5.638   3.403   3.441 -0.0864  0.0777  0.8066
    3CHTO  H207  886   5.563   3.456   3.384  1.7651 -0.3433 -2.1259
    3CHTO  H208  887   5.639   3.297   3.426 -0.9496  0.3088 -0.9598
    3CHTO   O74  888   6.103   3.347   3.267 -0.3961 -0.1888  0.2880
    3CHTO  C115  889   6.167   3.422   3.132  0.2044 -0.2640  0.0668
    3CHTO  H219  890   6.160   3.531   3.142 -3.2199 -0.3438 -0.9417
    3CHTO   O76  891   6.317   3.402   3.122 -0.2823  0.0894 -0.1252
    3CHTO  C122  892   6.359   3.270   3.111  0.3864 -0.0278  0.7765
    3CHTO  H226  893   6.368   3.221   3.208  0.2180 -0.2241  0.6944
    3CHTO  C126  894   6.502   3.276   3.050  0.2163 -0.6976 -0.5839
    3CHTO   O85  895   6.606   3.334   3.135  0.5097 -0.1547  0.1794
    3CHTO  H206  896   6.626   3.278   3.207 -1.2353  0.3359  1.0628
    3CHTO  C121  897   6.273   3.174   3.014  0.2920 -0.5355  0.4614
    3CHTO  H225  898   6.343   3.118   2.949  1.6777  1.0449  0.5436
    3CHTO   O81  899   6.192   3.082   3.092  0.2435  0.1649 -0.0404
    3CHTO  H202  900   6.103   3.080   3.061  0.4766  1.1137 -0.7838
    3CHTO  C119  901   6.185   3.272   2.923  0.7906 -0.7461 -0.0070
    3CHTO  H223  902   6.264   3.325   2.868 -1.2733  0.8524 -1.5589
    3CHTO  C117  903   6.097   3.382   2.993 -0.0602  0.6967 -0.4105
    3CHTO  H221  904   5.997   3.360   3.031  0.2212  0.9946  0.5229
    3CHTO   N20  905   6.072   3.497   2.906 -0.2289 -0.1505  0.2470
    3CHTO  H209  906   6.167   3.521   2.861 -0.0417  0.3440  0.8939
    3CHTO  H210  907   6.041   3.582   2.965  0.9476  0.7469 -0.4090
    3CHTO   O80  908   6.107   3.197   2.807  0.2414 -0.3787 -0.5155
    3CHTO  C103  909   6.031   3.091   2.827  0.0050 -0.1599 -0.7669
    3CHTO  H190  910   6.031   3.051   2.928 -1.2095 -1.9363 -1.4553
    3CHTO  C101  911   5.875   3.128   2.816 -0.1279 -0.1610  0.4035
    3CHTO  H188  912   5.858   3.181   2.723  1.5103 -0.4225 -0.0596
    3CHTO   O68  913   5.842   3.224   2.931 -0.2345  0.1207  0.1651
    3CHTO  H168  914   5.758   3.197   2.964 -0.4814  0.2901 -0.3107
    3CHTO   C99  915   5.788   2.998   2.812  0.3698 -0.8904 -0.3704
    3CHTO  H186  916   5.794   2.942   2.908  1.1087  0.7222  0.5582
    3CHTO   N17  917   5.637   3.005   2.801  0.1647 -0.4503 -0.0172
    3CHTO  H174  918   5.603   3.046   2.708  1.5445 -1.0215 -0.7898
    3CHTO  H175  919   5.590   3.054   2.885 -0.5763  0.1867 -0.7921
    3CHTO   C97  920   5.844   2.903   2.704  0.2043  0.3494  0.5706
    3CHTO  H184  921   5.825   2.946   2.605  1.0477  0.0131  0.2626
    3CHTO   O64  922   5.985   2.863   2.726  0.0905  0.2037  0.2760
    3CHTO  C104  923   6.077   2.977   2.725 -0.1727 -1.0945  0.2011
    3CHTO  H191  924   6.074   3.017   2.623  0.7426 -3.1142 -0.6599
    3CHTO  C108  925   6.218   2.935   2.754 -0.3460 -0.0283 -0.4484
    3CHTO   O71  926   6.301   3.042   2.724  0.3673 -0.3363  0.5858
    3CHTO  H171  927   6.320   3.090   2.803  0.8553  0.7838 -0.1914
    3CHTO   O62  928   5.783   2.774   2.718 -0.2727  0.1064  0.4094
    3CHTO   C91  929   5.758   2.691   2.609  0.8215  0.7144 -1.0568
    3CHTO  H178  930   5.751   2.754   2.520  1.3372 -1.3778 -2.6455
    3CHTO   C92  931   5.614   2.625   2.625 -0.4857  0.0532  0.0572
    3CHTO  H179  932   5.607   2.578   2.724  0.0632  0.0432  0.0939
    3CHTO   O66  933   5.516   2.724   2.606 -0.6076 -0.8379 -0.2788
    3CHTO  H166  934   5.533   2.801   2.657 -1.0675 -1.5351  0.9505
    3CHTO   C93  935   5.609   2.514   2.518  0.9072 -0.3818  0.2816
    3CHTO  H180  936   5.629   2.556   2.419 -1.1915  0.0001 -0.0048
    3CHTO   N16  937   5.473   2.458   2.498  0.3525 -0.2453 -0.8031
    3CHTO  H172  938   5.458   2.385   2.420 -0.5717 -0.4082 -0.4857
    3CHTO  H173  939   5.435   2.429   2.595 -0.6863  1.6072 -0.6384
    3CHTO   C94  940   5.715   2.400   2.538 -0.8193 -0.3633  0.3444
    3CHTO  H181  941   5.684   2.323   2.608 -0.0992  0.0419  1.1282
    3CHTO   O61  942   5.824   2.452   2.608  0.0936 -0.2102 -0.7808
    3CHTO   C95  943   5.871   2.587   2.590 -0.2636 -0.5605 -0.2040
    3CHTO  H182  944   5.945   2.607   2.668 -0.0769 -0.8280 -0.3099
    3CHTO  C106  945   5.943   2.616   2.448  0.7734  0.3634  0.0554
    3CHTO   O69  946   6.045   2.718   2.451 -0.0110  0.2356 -0.0029
    3CHTO  H169  947   6.122   2.682   2.411 -1.1222  0.2587 -2.2190
    3CHTO   O63  948   5.771   2.335   2.406 -0.1222  0.1844 -0.3093
    3CHTO   C96  949   5.691   2.254   2.331 -0.0305  0.0483  0.4025
    3CHTO  H183  950   5.591   2.296   2.342 -0.6993 -1.5908  0.8280
    3CHTO   C98  951   5.691   2.099   2.358  0.7733  0.3605 -0.2298
    3CHTO  H185  952   5.796   2.072   2.343  0.5314 -1.6071  1.4388
    3CHTO   O67  953   5.663   2.066   2.493 -0.5603 -0.1101 -0.2601
    3CHTO  H167  954   5.737   2.093   2.545 -1.1513  1.2861 -0.1101
    3CHTO  C102  955   5.589   2.026   2.257  0.6019 -0.5879 -0.3697
    3CHTO  H189  956   5.492   2.035   2.308  1.3980  2.0676  0.8053
    3CHTO   N18  957   5.615   1.880   2.237  0.1985  0.2725 -0.5947
    3CHTO  H176  958   5.718   1.856   2.254  0.1202  0.9142  0.8801
    3CHTO  H177  959   5.564   1.830   2.156 -0.3316 -1.3066  0.6762
    3CHTO  C105  960   5.564   2.102   2.124  0.0469  0.0087  0.1833
    3CHTO  H192  961   5.527   2.037   2.045  0.4449  0.8176 -0.6780
    3CHTO   O65  962   5.676   2.183   2.080  0.1812 -0.5043 -0.0444
    3CHTO  C100  963   5.736   2.268   2.182  0.4980  0.4009 -0.5446
    3CHTO  H187  964   5.845   2.255   2.177  0.5021 -0.3639  1.1690
    3CHTO  C107  965   5.734   2.419   2.138 -0.1828  0.1410  0.5625
    3CHTO   O70  966   5.819   2.446   2.022  0.0693  0.1271 -0.2114
    3CHTO  H170  967   5.888   2.383   2.026 -0.8015 -0.6932  2.4649
    3CHTO   O57  968   5.444   2.186   2.162 -0.0271  0.2077  0.6485
    3CHTO   C85  969   5.370   2.241   2.054  0.9144 -0.6210  0.0569
    3CHTO  H157  970   5.426   2.219   1.961 -1.1163  2.7140 -2.0536
    3CHTO   C83  971   5.370   2.395   2.060  0.1746 -0.8021 -0.5000
    3CHTO  H155  972   5.474   2.428   2.049 -0.3501  0.6609 -1.3142
    3CHTO   O56  973   5.326   2.439   2.187  0.3390  0.4747 -0.1613
    3CHTO  H135  974   5.363   2.524   2.205  0.9138  0.3545 -0.7886
    3CHTO   C81  975   5.285   2.456   1.947  0.0309  0.4360  0.1081
    3CHTO  H153  976   5.322   2.414   1.854 -0.3698  0.0754  0.1118
    3CHTO   N14  977   5.302   2.603   1.937  0.6152 -0.1370 -0.1522
    3CHTO  H141  978   5.339   2.631   2.034 -2.3501  0.6152  0.8144
    3CHTO  H142  979   5.204   2.646   1.930  0.4710 -0.1320  1.7196
    3CHTO   C79  980   5.133   2.405   1.966  0.1938 -0.1542 -0.0911
    3CHTO  H151  981   5.081   2.437   1.876  1.1564 -2.9919 -1.7350
    3CHTO   O52  982   5.124   2.258   1.964 -0.1461  0.3580 -0.1414
    3CHTO   C86  983   5.221   2.181   2.042 -0.0981 -1.2392  0.0128
    3CHTO  H158  984   5.171   2.176   2.141 -3.1400  1.0162 -1.3409
    3CHTO   C90  985   5.220   2.037   1.986 -0.2815  0.3841 -0.3460
    3CHTO   O60  986   5.274   1.954   2.091 -0.0673  0.0767 -0.2027
    3CHTO  H138  987   5.246   1.865   2.082  1.2355 -0.4025  0.2668
    3CHTO   O50  988   5.066   2.455   2.085  0.0440  0.0449  0.4328
    3CHTO   C73  989   4.927   2.482   2.094 -0.0962 -0.1844 -0.0611
    3CHTO  H145  990   4.868   2.410   2.036 -0.0485 -1.2718  1.2126
    3CHTO   C74  991   4.900   2.625   2.039  0.4043  0.2522 -0.1597
    3CHTO  H146  992   4.933   2.622   1.935 -0.7629 -1.9025 -0.5033
    3CHTO   O54  993   4.760   2.637   2.028 -0.2714 -0.3862 -0.1460
    3CHTO  H133  994   4.750   2.689   1.950 -0.4341  1.7930  1.2890
    3CHTO   C75  995   4.970   2.732   2.123  0.5642  0.3039  0.6186
    3CHTO  H147  996   5.078   2.713   2.117  0.1469 -2.1660  0.6422
    3CHTO   N13  997   4.955   2.875   2.076  0.5422 -0.3286 -0.0971
    3CHTO  H139  998   4.856   2.902   2.045 -0.1342  0.2865  2.4859
    3CHTO  H140  999   4.986   2.938   2.158 -0.2481 -0.1824  0.0857
    3CHTO   C76 1000   4.929   2.710   2.278 -0.0572 -0.9376 -0.4478
    3CHTO  H148 1001   4.824   2.739   2.283  0.8947  2.8138 -0.4206
    3CHTO   O49 1002   4.937   2.574   2.325 -0.9999 -0.1570 -0.8468
    3CHTO   C77 1003   4.878   2.472   2.243 -0.5989 -0.2191 -0.6580
    3CHTO  H149 1004   4.770   2.479   2.248 -0.6227  0.0251 -1.4815
    3CHTO   C88 1005   4.910   2.333   2.308  0.3354 -1.1701  0.6315
    3CHTO   O58 1006   4.864   2.229   2.228  0.2787 -0.3948  0.6487
    3CHTO  H136 1007   4.794   2.183   2.269  0.4535 -1.4494 -0.2004
    3CHTO   O51 1008   5.021   2.795   2.370 -0.0174 -0.4973 -0.1402
    3CHTO   C78 1009   4.947   2.859   2.490 -0.0843 -0.1727  0.2340
    3CHTO  H150 1010   4.877   2.784   2.531  1.3506 -1.4355  0.4246
    3CHTO   C80 1011   4.879   2.989   2.458  0.2763 -0.1251 -0.0934
    3CHTO  H152 1012   4.955   3.065   2.429 -0.5066  1.0719  0.9539
    3CHTO   O55 1013   4.793   2.992   2.346 -0.5655 -0.1823 -0.3469
    3CHTO  H134 1014   4.849   2.981   2.272 -1.2480 -0.6163 -0.8050
    3CHTO   C84 1015   4.803   3.048   2.588  0.1114 -0.3824 -0.3730
    3CHTO  H156 1016   4.724   2.982   2.622  0.4971 -0.4858  0.3286
    3CHTO   N15 1017   4.733   3.175   2.568  0.1314  0.0803 -0.1102
    3CHTO  H143 1018   4.794   3.260   2.545 -0.8436  0.6251 -0.7245
    3CHTO  H144 1019   4.662   3.168   2.488 -0.0195 -0.7656  0.0960
    3CHTO   C87 1020   4.898   3.064   2.702  0.2293 -0.2420  0.1449
    3CHTO  H159 1021   4.974   3.138   2.677 -1.3264  1.0258 -1.0021
    3CHTO   O53 1022   4.963   2.923   2.729 -0.3546 -0.5641 -0.3304
    3CHTO   C82 1023   5.039   2.883   2.614  0.2645  0.4486  0.4926
    3CHTO  H154 1024   5.115   2.958   2.590  0.7428 -0.3788 -0.6389
    3CHTO   C89 1025   5.109   2.756   2.664 -0.0507 -0.0781  0.2951
    3CHTO   O59 1026   5.178   2.685   2.557 -0.0263 -0.6531  0.1170
    3CHTO  H137 1027   5.237   2.750   2.523  1.4309 -1.7184  0.5869
    3CHTO   O45 1028   4.815   3.109   2.847 -0.1975  0.1692 -0.0114
    3CHTO   C67 1029   4.908   3.114   2.963  0.1368 -0.2431  0.2076
    3CHTO  H124 1030   4.994   3.051   2.943 -0.8194 -1.5001 -0.0183
    3CHTO   C65 1031   4.952   3.262   3.009  0.6721 -0.0106  0.8654
    3CHTO  H122 1032   4.892   3.334   2.952 -1.1861 -2.3272 -0.1988
    3CHTO   O44 1033   5.088   3.273   2.967  0.5132 -0.1200  0.2257
    3CHTO  H102 1034   5.098   3.284   2.874 -3.0779 -0.0043 -0.2172
    3CHTO   C63 1035   4.916   3.293   3.157  0.0017 -0.0183  1.0353
    3CHTO  H120 1036   4.808   3.301   3.169 -0.0124 -0.2805  1.0796
    3CHTO   N11 1037   4.955   3.433   3.202 -0.1213 -0.0771 -0.4623
    3CHTO  H108 1038   4.885   3.509   3.177  0.3766  0.3513 -0.5752
    3CHTO  H109 1039   5.040   3.464   3.144  0.0509 -0.1284 -0.2409
    3CHTO   C61 1040   4.965   3.172   3.246 -0.2764  0.5884 -0.4298
    3CHTO  H118 1041   4.922   3.184   3.346  1.5867 -2.3352  0.7915
    3CHTO   O40 1042   4.917   3.043   3.200 -0.1710 -0.1289 -0.3086
    3CHTO   C68 1043   4.842   3.044   3.075 -0.1164  0.2505 -0.3654
    3CHTO  H125 1044   4.745   3.092   3.098  0.6661  1.2182  0.9669
    3CHTO   C72 1045   4.802   2.900   3.038  0.2189 -0.4102 -0.3592
    3CHTO   O48 1046   4.920   2.817   3.025 -0.0098  0.0590 -0.4226
    3CHTO  H105 1047   4.969   2.802   3.103  0.1321 -0.3926 -0.5907
    3CHTO   O38 1048   5.108   3.165   3.255  0.8438  0.3754  0.0605
    3CHTO   C55 1049   5.159   3.104   3.375 -0.6350 -0.5309 -0.1353
    3CHTO  H112 1050   5.088   3.031   3.417  0.1909 -1.9987 -1.2605
    3CHTO   C56 1051   5.195   3.221   3.476  0.7018  0.0360  0.4076
    3CHTO  H113 1052   5.246   3.291   3.409  0.6683  0.6466  1.0138
    3CHTO   O42 1053   5.079   3.281   3.527  0.6693  0.0435 -0.0698
    3CHTO  H100 1054   5.088   3.343   3.596  1.0333  0.7460 -0.7475
    3CHTO   C57 1055   5.286   3.168   3.592 -0.5570  0.0645  0.8225
    3CHTO  H114 1056   5.223   3.101   3.651 -0.9592  0.1842  0.5260
    3CHTO   N10 1057   5.339   3.275   3.675 -0.0711  0.1806  0.8534
    3CHTO  H106 1058   5.355   3.362   3.613 -2.8268 -0.9667 -1.5889
    3CHTO  H107 1059   5.272   3.303   3.754 -0.0080  0.2911  0.8673
    3CHTO   C58 1060   5.402   3.077   3.540  0.4759 -0.1585 -0.8397
    3CHTO  H115 1061   5.475   3.137   3.481  0.9120 -0.6824 -0.8460
    3CHTO   O37 1062   5.347   2.978   3.447 -0.9910  0.2923 -0.0032
    3CHTO   C59 1063   5.278   3.031   3.334 -0.2176  0.0796 -0.7586
    3CHTO  H116 1064   5.353   3.083   3.273 -1.3812  1.9568 -0.6156
    3CHTO   C70 1065   5.239   2.913   3.244  0.6355  0.4352  0.4237
    3CHTO   O46 1066   5.182   2.950   3.115  0.0067  0.3984 -0.2067
    3CHTO  H103 1067   5.174   2.871   3.064 -4.7930  0.8411 -0.4131
    3CHTO   O39 1068   5.466   2.980   3.639 -0.1263 -0.0054  0.1015
    3CHTO   C60 1069   5.605   2.970   3.611  0.2938 -0.3612  0.6929
    3CHTO  H117 1070   5.623   2.978   3.504 -0.1222 -1.0351  0.5724
    3CHTO   C62 1071   5.692   3.069   3.694  0.3591 -0.7593  0.5661
    3CHTO  H119 1072   5.668   3.172   3.663  0.7905 -0.6411  0.6164
    3CHTO   O43 1073   5.666   3.050   3.834 -0.0401  0.3755 -0.3199
    3CHTO  H101 1074   5.575   3.064   3.848 -1.0571 -2.4863 -3.2284
    3CHTO   C66 1075   5.850   3.052   3.668 -0.5630  0.1799  0.7732
    3CHTO  H123 1076   5.871   3.061   3.562  0.1274 -2.3912  0.6822
    3CHTO   N12 1077   5.930   3.160   3.733 -0.2972 -0.4816 -0.0594
    3CHTO  H110 1078   6.031   3.135   3.703 -0.8367 -1.1640 -1.3516
    3CHTO  H111 1079   5.909   3.255   3.684  0.7956 -1.0026 -1.5986
    3CHTO   C69 1080   5.886   2.907   3.708 -0.1699  0.6697 -0.1532
    3CHTO  H126 1081   5.871   2.901   3.818 -1.3883  2.5067 -0.1889
    3CHTO   O41 1082   5.786   2.805   3.630 -0.3069  0.2550 -0.1209
    3CHTO   C64 1083   5.648   2.822   3.653  0.5510 -0.5137 -0.1412
    3CHTO  H121 1084   5.629   2.814   3.763  1.6997  1.2841  0.2144
    3CHTO   C71 1085   5.568   2.712   3.580 -0.2584  0.4931  0.7216
    3CHTO   O47 1086   5.569   2.725   3.434 -0.1143  0.3258  0.1370
    3CHTO  H104 1087   5.488   2.694   3.398 -0.2774  1.2750 -0.3394
    3CHTO   O34 1088   6.034   2.872   3.670  0.6009 -0.1663  0.9537
    3CHTO   C49 1089   6.130   2.824   3.555 -0.5698  0.0029 -0.2053
    3CHTO   H91 1090   6.231   2.837   3.592 -0.0664 -0.3714 -1.4050
    3CHTO   C47 1091   6.110   2.908   3.424  0.0358 -0.4578  0.2144
    3CHTO   H89 1092   6.194   2.885   3.355  0.4188  2.0533 -0.1828
    3CHTO   O33 1093   6.130   3.047   3.456  0.7050  0.3480  0.3407
    3CHTO   H70 1094   6.138   3.100   3.379 -1.5446  0.9305  0.4566
    3CHTO   C45 1095   5.965   2.872   3.359 -0.3375  0.4548 -0.2199
    3CHTO   H87 1096   5.886   2.882   3.436  0.1889 -0.1429  0.4020
    3CHTO    N8 1097   5.930   2.961   3.250  0.3829 -0.3075  0.3255
    3CHTO   H75 1098   5.986   2.932   3.162  3.3250  0.2247  1.9498
    3CHTO   H76 1099   5.962   3.060   3.277  1.7844 -0.8241  0.6229
    3CHTO   C43 1100   5.957   2.713   3.328 -0.4611  0.0906  0.2289
    3CHTO   H85 1101   5.856   2.691   3.294  0.1803  0.3074 -1.8782
    3CHTO   O29 1102   5.992   2.639   3.451 -0.7269 -0.2641  0.3044
    3CHTO   C50 1103   6.112   2.672   3.528 -0.0745 -0.6704 -0.2381
    3CHTO   H92 1104   6.113   2.626   3.628 -1.8716 -1.4189 -0.5395
    3CHTO   C54 1105   6.247   2.616   3.475 -0.6094 -0.5145  0.4458
    3CHTO   O36 1106   6.251   2.480   3.470  0.3725  0.2557  0.9307
    3CHTO   H72 1107   6.265   2.452   3.558  0.5136  0.1930  0.8867
    3CHTO   O27 1108   6.045   2.675   3.219 -0.3673  0.6778 -0.0230
    3CHTO   C37 1109   6.075   2.554   3.151 -0.1123  0.1298  0.8821
    3CHTO   H79 1110   6.129   2.487   3.218 -2.0017 -2.7406 -0.3811
    3CHTO   C38 1111   5.940   2.492   3.101 -0.4335  0.1358 -0.2734
    3CHTO   H80 1112   5.884   2.566   3.042 -0.0189 -1.4539 -2.7334
    3CHTO   O31 1113   5.869   2.450   3.218  0.2469  0.4963  0.0649
    3CHTO   H68 1114   5.837   2.525   3.263 -2.1608 -1.3383  1.5334
    3CHTO   C39 1115   5.959   2.367   3.002 -0.6588 -0.3099  0.4759
    3CHTO   H81 1116   6.011   2.287   3.055  0.8599 -0.1216 -0.7122
    3CHTO    N7 1117   5.833   2.325   2.936 -0.0951 -0.1529  0.0353
    3CHTO   H73 1118   5.852   2.239   2.873  1.7129  0.3342 -0.1133
    3CHTO   H74 1119   5.766   2.291   3.013  1.8283 -1.0297  1.3664
    3CHTO   C40 1120   6.067   2.402   2.893  0.6060 -0.5060 -0.0991
    3CHTO   H82 1121   6.021   2.477   2.828  0.2854 -1.7452 -1.3233
    3CHTO   O26 1122   6.186   2.450   2.962 -0.2091  0.4467  1.0006
    3CHTO   C41 1123   6.162   2.582   3.027  0.4110  0.1123  0.4946
    3CHTO   H83 1124   6.111   2.654   2.962 -1.2434  0.2617  1.9392
    3CHTO   C52 1125   6.305   2.633   3.066  0.9433  0.0279 -0.0864
    3CHTO   O35 1126   6.410   2.614   2.955 -0.0435 -0.3459  0.6373
    3CHTO   H71 1127   6.489   2.581   2.993  0.3697 -0.4886 -0.3196
    3CHTO   O28 1128   6.119   2.284   2.827  1.3985 -0.6784 -0.3099
    3CHTO   C42 1129   6.186   2.279   2.698  0.2283 -0.5008  0.5168
    3CHTO   H84 1130   6.273   2.216   2.715  1.3938  0.7429 -0.7155
    3CHTO   C44 1131   6.246   2.414   2.637  0.8262  0.0074 -0.3577
    3CHTO   H86 1132   6.166   2.481   2.607  2.2094  2.3871  1.1613
    3CHTO   O32 1133   6.339   2.480   2.725 -0.0786 -0.9393  0.2994
    3CHTO   H69 1134   6.294   2.508   2.803  2.4989  0.4971  1.3343
    3CHTO   C48 1135   6.322   2.377   2.506  1.3749 -0.0778 -0.6258
    3CHTO   H90 1136   6.403   2.314   2.541  2.0375  1.1716  0.1000
    3CHTO    N9 1137   6.374   2.489   2.422 -0.1705 -0.5042 -0.4165
    3CHTO   H77 1138   6.458   2.528   2.476 -1.9622  1.0067  1.3749
    3CHTO   H78 1139   6.296   2.559   2.398 -0.0612 -0.1923  0.1290
    3CHTO   C51 1140   6.229   2.278   2.416  0.5056  0.2235  0.1093
    3CHTO   H93 1141   6.145   2.335   2.375 -0.3621 -0.7528  0.5125
    3CHTO   O30 1142   6.180   2.164   2.488 -0.0004  0.0822 -0.3934
    3CHTO   C46 1143   6.098   2.208   2.592 -0.1463 -0.3202  0.0477
    3CHTO   H88 1144   6.023   2.274   2.550  1.0008 -0.9401 -3.1338
    3CHTO   C53 1145   6.032   2.079   2.644  0.5432 -0.6782  0.1754
    3CHTO   O72 1146   6.110   1.960   2.651 -0.0641 -0.5829  0.0260
    3CHTO  H199 1147   6.091   1.911   2.728 -0.3095 -2.6218 -1.2916
    3CHTO   O22 1148   6.303   2.223   2.305 -0.4313  0.1165  0.5874
    3CHTO   C31 1149   6.244   2.173   2.178 -0.9241 -0.2421 -0.3510
    3CHTO   H59 1150   6.331   2.149   2.114 -1.4563 -0.4107 -1.0161
    3CHTO   C29 1151   6.162   2.045   2.194 -0.2878 -0.1912 -0.4604
    3CHTO   H57 1152   6.075   2.076   2.254  0.3076  0.4731  0.0708
    3CHTO   O21 1153   6.243   1.947   2.275 -0.1917  0.1523  0.3297
    3CHTO   H37 1154   6.186   1.889   2.322  2.5069 -2.6689  0.2283
    3CHTO   C27 1155   6.107   1.985   2.061 -0.0534 -0.0874  0.4461
    3CHTO   H55 1156   6.193   1.959   1.997 -0.1537  0.5765  0.0335
    3CHTO    N5 1157   6.016   1.870   2.074  0.1799 -0.3321  0.9665
    3CHTO   H43 1158   6.047   1.827   2.168 -1.0534  0.3805  1.7221
    3CHTO   H44 1159   6.045   1.798   2.000 -0.3788 -0.2671  0.6750
    3CHTO   C25 1160   6.034   2.094   1.981  0.0723  0.6555 -0.2791
    3CHTO   H53 1161   5.940   2.117   2.034  0.3135 -0.2951  0.5872
    3CHTO   O17 1162   6.118   2.224   1.975 -0.5101  0.0648  0.3277
    3CHTO   C32 1163   6.160   2.281   2.104  0.1251 -0.3278 -0.6783
    3CHTO   H60 1164   6.072   2.301   2.165  1.5387  0.5189  1.1168
    3CHTO   C36 1165   6.227   2.423   2.083  0.0494 -0.1216 -0.3685
    3CHTO   O25 1166   6.328   2.428   1.985  0.0420 -0.0741  0.8867
    3CHTO   H40 1167   6.351   2.516   1.961 -2.1027  0.8552  2.0686
    3CHTO   O15 1168   6.025   2.058   1.845  0.0918  0.7958  0.1919
    3CHTO   C19 1169   5.926   2.082   1.744  0.0731 -0.3700 -0.0030
    3CHTO   H47 1170   5.963   2.033   1.653  1.4620  0.5527  0.0451
    3CHTO   C20 1171   5.783   2.031   1.781  0.1192 -0.0922  0.1977
    3CHTO   H48 1172   5.746   2.080   1.872  1.3538  1.5656 -0.1774
    3CHTO   O19 1173   5.794   1.889   1.790 -0.2186 -0.1025 -0.2337
    3CHTO   H35 1174   5.849   1.852   1.723 -0.7267  2.5949 -2.2020
    3CHTO   C21 1175   5.677   2.066   1.676  0.4108  0.2457  0.7977
    3CHTO   H49 1176   5.698   2.009   1.586 -1.2590 -1.4744  1.4759
    3CHTO    N4 1177   5.541   2.015   1.709 -0.4984 -0.2708 -0.1696
    3CHTO   H41 1178   5.505   2.045   1.806 -0.6618  3.6380 -1.3674
    3CHTO   H42 1179   5.549   1.908   1.703 -1.4242 -0.2130 -3.1601
    3CHTO   C22 1180   5.682   2.217   1.644 -0.8476 -1.1990 -1.0380
    3CHTO   H50 1181   5.657   2.269   1.736  0.2453 -0.9661 -0.8572
    3CHTO   O14 1182   5.812   2.254   1.596 -0.5858  0.2966  0.3571
    3CHTO   C23 1183   5.904   2.233   1.702 -0.4824  0.2357  0.6537
    3CHTO   H51 1184   5.876   2.295   1.788 -2.2319 -0.2723  0.4758
    3CHTO   C34 1185   6.042   2.296   1.670 -0.2854 -0.0484  0.3785
    3CHTO   O23 1186   6.024   2.431   1.630  0.0709  0.0792  0.2873
    3CHTO   H38 1187   6.107   2.466   1.603 -0.1914 -0.0395 -0.6976
    3CHTO   O16 1188   5.595   2.259   1.537 -0.0293 -0.1944 -0.0783
    3CHTO   C24 1189   5.459   2.360   1.587 -0.2967  0.5803  0.5411
    3CHTO   H52 1190   5.435   2.351   1.693 -1.1923  0.5441  0.3431
    3CHTO   C26 1191   5.327   2.324   1.518  0.3917  0.3242 -0.3743
    3CHTO   H54 1192   5.345   2.324   1.409  0.0990 -0.8794 -0.4288
    3CHTO   O20 1193   5.276   2.202   1.565  0.2557 -0.7394 -0.1178
    3CHTO   H36 1194   5.194   2.190   1.522  0.3204  1.7314 -0.9837
    3CHTO   C30 1195   5.214   2.436   1.539 -0.6782  0.5478  1.3432
    3CHTO   H58 1196   5.170   2.432   1.640 -0.4693 -1.2341  1.3803
    3CHTO    N6 1197   5.094   2.406   1.450  0.1366  0.2431  0.1925
    3CHTO   H45 1198   5.069   2.494   1.392  0.5779 -0.2108 -0.6972
    3CHTO   H46 1199   5.011   2.377   1.513 -1.0290 -1.5347 -2.0368
    3CHTO   C33 1200   5.278   2.578   1.504 -0.2382  0.2004  0.5951
    3CHTO   H61 1201   5.310   2.579   1.399  1.9646 -0.7951  1.2149
    3CHTO   O18 1202   5.397   2.597   1.589 -0.2199  1.0797  0.0948
    3CHTO   C28 1203   5.507   2.504   1.564 -0.0873  0.7946 -0.6484
    3CHTO   H56 1204   5.550   2.508   1.464  0.9479 -1.1039 -0.2871
    3CHTO   C35 1205   5.637   2.536   1.650 -0.2916 -0.0628  0.0284
    3CHTO   O24 1206   5.610   2.524   1.796 -0.0435  0.9569  0.6241
    3CHTO   H39 1207   5.694   2.512   1.837 -0.4678 -1.7160  0.7454
    3CHTO    O9 1208   5.189   2.686   1.519 -0.1197 -0.1594  0.1042
    3CHTO   C13 1209   5.200   2.843   1.444 -0.9891  0.3673 -0.5998
    3CHTO   H26 1210   5.108   2.851   1.384 -0.1127 -2.3253 -2.3674
    3CHTO   C11 1211   5.331   2.845   1.353  0.3048 -0.0175 -0.3849
    3CHTO   H24 1212   5.319   2.762   1.282  0.3341 -0.8262  0.5470
    3CHTO    O8 1213   5.451   2.809   1.425 -0.7986 -0.1215  0.6566
    3CHTO    H3 1214   5.454   2.717   1.440 -1.5454 -0.2729 -0.0791
    3CHTO    C9 1215   5.338   2.988   1.284  0.0555  0.5928  0.5982
    3CHTO   H22 1216   5.247   3.003   1.224 -1.4615 -1.4152  2.3326
    3CHTO    N2 1217   5.441   3.005   1.180  0.3319 -0.7589  0.2680
    3CHTO   H10 1218   5.532   3.022   1.236  0.1999  0.0537  0.2438
    3CHTO   H11 1219   5.420   3.100   1.134 -3.2871 -0.4162  2.4735
    3CHTO    C7 1220   5.349   3.093   1.404  0.5319 -0.4648  0.4121
    3CHTO   H20 1221   5.349   3.193   1.356 -0.2199 -0.7200 -0.1199
    3CHTO    O4 1222   5.234   3.088   1.496  0.2204  0.4140  0.1921
    3CHTO   C14 1223   5.197   2.957   1.547 -0.7098 -0.0710 -0.4673
    3CHTO   H27 1224   5.095   2.956   1.591  0.2147 -2.3134  1.7463
    3CHTO   C18 1225   5.291   2.922   1.665 -0.3653  0.2956  0.1563
    3CHTO   O13 1226   5.241   2.990   1.781  0.2034  0.1866 -0.0984
    3CHTO    H7 1227   5.228   3.082   1.771 -0.6832  0.1303  0.5236
    3CHTO    O2 1228   5.512   3.083   1.496  0.5040 -0.4374  0.5530
    3CHTO    C1 1229   5.533   3.190   1.592  0.6475  0.1819  0.4998
    3CHTO   H14 1230   5.451   3.192   1.667  1.5258  3.6343  1.4793
    3CHTO    C2 1231   5.534   3.332   1.526 -0.8812 -0.3481 -0.0990
    3CHTO   H15 1232   5.597   3.323   1.436 -2.8744 -2.0769 -1.3913
    3CHTO    O6 1233   5.400   3.375   1.485 -0.1789 -0.1005 -0.3545
    3CHTO    H1 1234   5.367   3.316   1.420  0.1703 -1.0659  0.3344
    3CHTO    C3 1235   5.592   3.438   1.635  0.6323  0.7115 -0.9001
    3CHTO   H16 1236   5.516   3.437   1.715  2.6448  0.1341  1.0482
    3CHTO    N1 1237   5.610   3.582   1.581  0.2411  0.0957  0.0303
    3CHTO    H8 1238   5.679   3.586   1.497  0.6698 -0.1392  0.3711
    3CHTO    H9 1239   5.528   3.651   1.572  0.7973  0.4390 -3.0804
    3CHTO    C4 1240   5.722   3.388   1.705  0.5859 -0.1148 -0.3647
    3CHTO   H17 1241   5.802   3.393   1.631  0.4554  0.0526 -0.4939
    3CHTO    O1 1242   5.709   3.256   1.753 -0.6024 -0.1384  0.0180
    3CHTO    C5 1243   5.665   3.152   1.661  0.3863  0.5325 -0.7379
    3CHTO   H18 1244   5.737   3.153   1.578 -0.5704 -0.7769 -1.5911
    3CHTO   C16 1245   5.655   3.014   1.727  0.2298  0.8146 -0.2938
    3CHTO   O11 1246   5.784   2.972   1.753  0.4827  0.0788  0.1250
    3CHTO    H5 1247   5.786   2.921   1.832 -1.2864 -0.7930 -0.3523
    3CHTO    O3 1248   5.740   3.468   1.825 -0.0488 -0.1699 -0.4396
    3CHTO    C6 1249   5.878   3.501   1.851 -0.3367  0.6568  0.1008
    3CHTO   H19 1250   5.954   3.465   1.782  1.7899  2.4052  1.4833
    3CHTO    C8 1251   5.903   3.657   1.851 -0.0864  0.1961 -0.4397
    3CHTO   H21 1252   5.837   3.701   1.925  0.1237 -2.0009  1.1181
    3CHTO    O7 1253   5.860   3.712   1.726 -0.1090  0.2323  0.4844
    3CHTO    H2 1254   5.893   3.799   1.720  1.2063 -0.0509  2.9168
    3CHTO   C12 1255   6.057   3.680   1.884  0.6776 -0.1384  0.1461
    3CHTO   H25 1256   6.113   3.636   1.799  2.6584 -1.7451  2.2109
    3CHTO    N3 1257   6.090   3.821   1.880  0.3542 -0.1312  0.2943
    3CHTO   H12 1258   6.161   3.849   1.957 -0.7026 -1.1188  1.6373
    3CHTO   H13 1259   6.140   3.839   1.786  1.0864 -2.9736  0.1078
    3CHTO   C15 1260   6.089   3.607   2.021 -0.1094 -0.3283  0.3067
    3CHTO   H28 1261   6.049   3.653   2.111  1.4416  1.6847  0.0058
    3CHTO   O10 1262   6.254   3.588   2.032  0.4085  0.3830  0.5218
    3CHTO    H4 1263   6.280   3.498   2.026 -0.3345  0.2555 -0.9782
    3CHTO    O5 1264   6.056   3.472   2.011  0.5262 -0.4446  0.2411
    3CHTO   C10 1265   5.919   3.447   1.991  0.2143 -0.8223 -0.1878
    3CHTO   H23 1266   5.863   3.503   2.067  0.5076 -2.0635  0.9545
    3CHTO   C17 1267   5.908   3.297   2.018  0.1691 -0.0911 -0.4389
    3CHTO   O12 1268   5.976   3.214   1.917  0.2191  0.4810 -0.4450
    3CHTO    H6 1269   5.920   3.207   1.842 -0.7883  1.3445  0.2152
    4CHTO  H203 1270   5.376   8.684   2.079 -0.2007  2.0121  1.0511
    4CHTO   O82 1271   5.448   8.667   2.138  0.1560 -0.4030 -0.0178
    4CHTO  C123 1272   5.549   8.584   2.093  0.0834 -0.0299  0.3815
    4CHTO  H227 1273   5.498   8.492   2.060  2.0432 -0.0973 -2.7413
    4CHTO   O77 1274   5.597   8.652   1.973  0.2213 -0.4709  0.8291
    4CHTO  C118 1275   5.725   8.606   1.916  0.0840 -0.0287  0.1853
    4CHTO  H222 1276   5.714   8.505   1.874  1.0438 -1.0253  2.2786
    4CHTO  C125 1277   5.764   8.696   1.802  0.6380 -0.0764  0.2662
    4CHTO   O84 1278   5.770   8.837   1.822  0.2364 -0.6616 -0.0161
    4CHTO  H205 1279   5.839   8.875   1.770 -0.1242 -0.3739 -0.2877
    4CHTO  C114 1280   5.840   8.610   2.017  0.2809 -0.2039 -0.3399
    4CHTO  H218 1281   5.843   8.712   2.054  0.2982 -0.2259 -0.2787
    4CHTO  C116 1282   5.798   8.516   2.127  0.2779  0.5430 -0.1778
    4CHTO  H220 1283   5.789   8.416   2.079  1.2366  0.3392  0.0429
    4CHTO   O79 1284   5.904   8.514   2.228  0.7051  0.3171 -0.5883
    4CHTO  H201 1285   5.985   8.498   2.183 -0.6908 -1.2724 -2.6395
    4CHTO  C120 1286   5.667   8.563   2.197 -0.9705  0.2313 -0.0460
    4CHTO  H224 1287   5.691   8.655   2.254  3.8064 -0.7752 -0.2859
    4CHTO   N21 1288   5.621   8.464   2.301  1.3101 -0.0588  0.5777
    4CHTO  H211 1289   5.634   8.362   2.269 -0.5153  0.2991 -1.4575
    4CHTO  H212 1290   5.661   8.479   2.400  1.8018 -1.3839  0.5917
    4CHTO   O75 1291   5.961   8.569   1.954  0.0739 -0.1918 -0.0868
    4CHTO  C112 1292   6.105   8.654   2.009  0.1460  0.1573  0.9371
    4CHTO  H216 1293   6.101   8.676   2.116 -2.0426 -1.9800  1.3292
    4CHTO   O73 1294   6.124   8.773   1.930 -0.0445  0.4764 -0.3256
    4CHTO  C113 1295   6.230   8.858   1.969  0.2834  0.3857 -0.4601
    4CHTO  H217 1296   6.208   8.887   2.074 -0.6386  0.5965 -0.6991
    4CHTO  C124 1297   6.231   8.989   1.889  0.5296  0.2894  0.5198
    4CHTO   O83 1298   6.143   9.086   1.948 -0.4159 -0.6214 -0.4391
    4CHTO  H204 1299   6.166   9.175   1.932 -1.9375  0.2153  1.7772
    4CHTO  C109 1300   6.366   8.779   1.942  0.0362  0.0600  0.1169
    4CHTO  H213 1301   6.376   8.774   1.833  1.2834  1.8311  0.1234
    4CHTO  C110 1302   6.356   8.648   2.025  0.3184 -0.0775  0.5413
    4CHTO  H214 1303   6.352   8.675   2.131  1.5721  0.4599  0.4681
    4CHTO   O78 1304   6.482   8.577   2.002  0.1750 -0.1356  0.1362
    4CHTO  H200 1305   6.487   8.504   2.061  1.4105  0.9644  1.4102
    4CHTO  C111 1306   6.231   8.560   1.990  0.4099  0.8130 -0.7613
    4CHTO  H215 1307   6.235   8.534   1.883 -0.9675 -4.9133  0.4263
    4CHTO   N19 1308   6.214   8.429   2.065  0.2042  0.1317 -0.2277
    4CHTO  H207 1309   6.297   8.360   2.053  1.0719  1.1581 -0.1531
    4CHTO  H208 1310   6.125   8.371   2.047  0.5468 -0.5017  0.0909
    4CHTO   O74 1311   6.488   8.848   1.993  0.1457  0.5937 -0.3150
    4CHTO  C115 1312   6.616   8.854   1.871  0.0947  0.3532  0.0640
    4CHTO  H219 1313   6.606   8.777   1.794  0.4903 -0.3369  0.6883
    4CHTO   O76 1314   6.612   8.988   1.792  0.4808 -0.2526  0.4966
    4CHTO  C122 1315   6.658   9.097   1.878  0.3436  0.0400  0.0882
    4CHTO  H226 1316   6.603   9.103   1.972 -0.2594 -1.6877 -0.1372
    4CHTO  C126 1317   6.636   9.242   1.808  0.3698  0.7095 -0.2780
    4CHTO   O85 1318   6.511   9.256   1.739  0.1590 -0.5667 -0.5953
    4CHTO  H206 1319   6.442   9.277   1.799 -1.2455 -0.5403 -2.1949
    4CHTO  C121 1320   6.816   9.074   1.892 -0.2990 -0.3871 -0.1149
    4CHTO  H225 1321   6.870   9.138   1.820  0.8848  1.5753  2.4426
    4CHTO   O81 1322   6.858   9.090   2.030 -0.0354  0.1332  0.5598
    4CHTO  H202 1323   6.796   9.038   2.078 -1.7994  1.9255  0.3245
    4CHTO  C119 1324   6.853   8.922   1.869 -0.1097 -0.1099  0.5124
    4CHTO  H223 1325   6.840   8.911   1.761  0.0363  1.2198  0.3631
    4CHTO  C117 1326   6.755   8.822   1.938  0.0170  0.3296  0.4557
    4CHTO  H221 1327   6.742   8.833   2.046  0.7080  0.1808  0.5568
    4CHTO   N20 1328   6.791   8.681   1.925 -0.1696  0.0893  0.8123
    4CHTO  H209 1329   6.851   8.648   2.009  1.7756 -0.6040 -0.8160
    4CHTO  H210 1330   6.710   8.616   1.897  1.4868 -0.9443 -1.7325
    4CHTO   O80 1331   7.012   8.888   1.886  0.4897  0.1215 -0.1284
    4CHTO  C103 1332   7.122   8.981   1.805  0.0799 -0.4477 -0.4637
    4CHTO  H190 1333   7.070   9.059   1.750  0.4661 -0.0257 -0.2351
    4CHTO  C101 1334   7.228   9.047   1.898  0.6785 -0.3031 -0.4226
    4CHTO  H188 1335   7.274   8.981   1.971  0.6854  1.5908  1.3212
    4CHTO   O68 1336   7.157   9.171   2.006 -0.1119  0.2991  0.1516
    4CHTO  H168 1337   7.119   9.134   2.084 -0.8944 -0.8426 -0.7598
    4CHTO   C99 1338   7.344   9.110   1.806  0.3412  0.9814 -0.3545
    4CHTO  H186 1339   7.305   9.204   1.762  2.3206  1.6313 -0.7778
    4CHTO   N17 1340   7.469   9.167   1.873  0.4878  0.0239 -0.6054
    4CHTO  H174 1341   7.534   9.087   1.904 -0.3210 -0.5451 -0.3422
    4CHTO  H175 1342   7.431   9.219   1.960  1.3684 -0.5083  0.0987
    4CHTO   C97 1343   7.384   9.016   1.687 -0.5275 -0.1792  0.4141
    4CHTO  H184 1344   7.452   8.940   1.729 -2.3381 -1.9996  0.0946
    4CHTO   O64 1345   7.281   8.962   1.617  0.4640 -0.0510 -0.0682
    4CHTO  C104 1346   7.189   8.889   1.700  0.3476 -0.5596  0.2395
    4CHTO  H191 1347   7.245   8.810   1.750 -1.0478 -1.3172  0.6488
    4CHTO  C108 1348   7.085   8.820   1.612  0.1544  0.0782 -0.1540
    4CHTO   O71 1349   7.143   8.743   1.507  0.6295  0.0426  0.6446
    4CHTO  H171 1350   7.211   8.683   1.530  0.3120 -0.5935 -0.0314
    4CHTO   O62 1351   7.447   9.088   1.580  0.1489  0.4634  0.7871
    4CHTO   C91 1352   7.544   9.013   1.500 -0.0585 -0.6080 -0.4351
    4CHTO  H178 1353   7.573   8.919   1.546 -0.7975 -0.2549  0.8039
    4CHTO   C92 1354   7.662   9.112   1.500  0.3194 -0.5309  0.2047
    4CHTO  H179 1355   7.681   9.138   1.605 -0.6280  0.9053  0.0197
    4CHTO   O66 1356   7.778   9.043   1.445 -0.3718 -0.0158 -0.3111
    4CHTO  H166 1357   7.857   9.091   1.462 -0.8409  0.6472  0.0019
    4CHTO   C93 1358   7.638   9.241   1.418  0.1046  0.7703 -0.0437
    4CHTO  H180 1359   7.732   9.286   1.385  0.4274  0.3278  0.2775
    4CHTO   N16 1360   7.571   9.348   1.499 -0.2178 -0.3889 -0.1812
    4CHTO  H172 1361   7.465   9.348   1.482 -0.2969  1.4310  0.2270
    4CHTO  H173 1362   7.601   9.449   1.474  0.7096 -0.7858 -0.6986
    4CHTO   C94 1363   7.553   9.214   1.288 -0.1763 -0.2233 -0.0680
    4CHTO  H181 1364   7.446   9.227   1.302 -0.2748  0.9889 -1.7590
    4CHTO   O61 1365   7.564   9.075   1.259 -0.4984  0.0166  0.4385
    4CHTO   C95 1366   7.500   8.986   1.354 -0.3264 -0.1532  0.5023
    4CHTO  H182 1367   7.393   9.004   1.343 -0.2639  1.1386  1.9266
    4CHTO  C106 1368   7.521   8.835   1.304  0.1896 -0.6838 -0.3073
    4CHTO   O69 1369   7.517   8.826   1.162  0.7296  0.4017 -0.2989
    4CHTO  H169 1370   7.434   8.862   1.138 -0.3177 -1.3481  0.5909
    4CHTO   O63 1371   7.603   9.299   1.172 -0.8997  0.3312  0.1381
    4CHTO   C96 1372   7.485   9.313   1.056  0.6147  0.2507  0.0828
    4CHTO  H183 1373   7.403   9.246   1.080 -1.1990  2.5194  0.4052
    4CHTO   C98 1374   7.540   9.268   0.920 -0.1513 -0.2208  0.7174
    4CHTO  H185 1375   7.634   9.324   0.908  0.8392 -1.6777  1.5727
    4CHTO   O67 1376   7.582   9.131   0.928  0.0568  0.1807  0.4109
    4CHTO  H167 1377   7.571   9.084   0.847 -0.1776  0.8452  0.0586
    4CHTO  C102 1378   7.442   9.290   0.796  0.4748 -0.2555  0.9883
    4CHTO  H189 1379   7.373   9.205   0.798 -1.6114  1.3896 -0.2511
    4CHTO   N18 1380   7.516   9.291   0.665  0.3267 -0.6454  0.0527
    4CHTO  H176 1381   7.613   9.338   0.663  0.6623 -1.3037 -3.0318
    4CHTO  H177 1382   7.454   9.312   0.579 -1.6758 -1.7709  1.2074
    4CHTO  C105 1383   7.358   9.418   0.816  0.7704  0.2138 -0.0820
    4CHTO  H192 1384   7.348   9.476   0.724  1.0888  0.1184 -0.1761
    4CHTO   O65 1385   7.415   9.508   0.910  0.3458  0.0692  0.6935
    4CHTO  C100 1386   7.436   9.462   1.042 -0.4376 -0.7466 -0.0132
    4CHTO  H187 1387   7.514   9.528   1.082  0.5980  0.2526 -3.4908
    4CHTO  C107 1388   7.313   9.497   1.131 -0.2860 -0.9844  0.6807
    4CHTO   O70 1389   7.308   9.435   1.257  0.0352 -0.2911 -0.2823
    4CHTO  H170 1390   7.366   9.484   1.311 -1.2199  2.0755 -1.0376
    4CHTO   O57 1391   7.211   9.365   0.848  0.3595 -0.3034 -0.4932
    4CHTO   C85 1392   7.097   9.365   0.759  0.7061  0.1501  0.3190
    4CHTO  H157 1393   7.131   9.397   0.658 -2.0118  3.3525  0.3315
    4CHTO   C83 1394   7.013   9.487   0.805 -1.2962  0.7674  0.3250
    4CHTO  H155 1395   7.066   9.581   0.791  1.1420 -0.8011 -1.5058
    4CHTO   O56 1396   6.980   9.475   0.947 -0.2670 -0.0402 -0.7218
    4CHTO  H135 1397   6.940   9.393   0.968  0.2404 -0.1079  0.0062
    4CHTO   C81 1398   6.888   9.490   0.711 -0.1897  0.4254  0.1631
    4CHTO  H153 1399   6.926   9.509   0.611  0.9400 -1.0488  0.3027
    4CHTO   N14 1400   6.802   9.610   0.732  0.0193 -0.2552 -0.1424
    4CHTO  H141 1401   6.699   9.585   0.720  0.1541 -0.8076 -0.2074
    4CHTO  H142 1402   6.823   9.647   0.830  1.2458  0.3796 -0.6231
    4CHTO   C79 1403   6.807   9.352   0.718 -0.1613 -0.1743  0.0819
    4CHTO  H151 1404   6.718   9.362   0.656 -0.5184 -2.1358  0.2335
    4CHTO   O52 1405   6.890   9.240   0.678 -0.4152  0.6355 -0.0763
    4CHTO   C86 1406   7.012   9.231   0.754  0.1398 -0.2021 -0.0570
    4CHTO  H158 1407   6.979   9.207   0.857 -2.1332  3.8865  0.2879
    4CHTO   C90 1408   7.095   9.113   0.711 -0.1576 -0.0874 -0.5085
    4CHTO   O60 1409   7.026   8.991   0.743  0.0929  0.1646  0.0970
    4CHTO  H138 1410   6.948   8.973   0.695 -0.7434  0.4211  1.3273
    4CHTO   O50 1411   6.752   9.319   0.845  0.1285 -0.7633 -0.0863
    4CHTO   C73 1412   6.651   9.255   0.926  0.1724 -0.2107  0.6928
    4CHTO  H145 1413   6.551   9.283   0.892  1.3938  1.1318 -1.9628
    4CHTO   C74 1414   6.662   9.306   1.065  1.4616  0.4006  0.1242
    4CHTO  H146 1415   6.663   9.416   1.054 -0.9096  0.2129 -2.4748
    4CHTO   O54 1416   6.538   9.263   1.135  0.4815 -0.0307  0.2482
    4CHTO  H133 1417   6.534   9.312   1.215 -1.4028 -1.7534  1.2605
    4CHTO   C75 1418   6.792   9.251   1.131 -0.2334 -0.0889  0.1239
    4CHTO  H147 1419   6.882   9.293   1.083  0.4005 -1.8253 -0.2447
    4CHTO   N13 1420   6.807   9.291   1.270 -0.3421  0.1241 -0.6479
    4CHTO  H139 1421   6.906   9.285   1.314 -0.3781  0.8644 -0.4547
    4CHTO  H140 1422   6.744   9.218   1.319 -0.7047 -1.1309 -2.9491
    4CHTO   C76 1423   6.803   9.086   1.108  0.0245  0.6774 -0.4439
    4CHTO  H148 1424   6.729   9.036   1.170  0.3394  1.3525  0.4966
    4CHTO   O49 1425   6.789   9.050   0.968 -1.2479 -0.6176 -0.4456
    4CHTO   C77 1426   6.662   9.100   0.926  0.1650 -0.5129  0.6498
    4CHTO  H149 1427   6.584   9.060   0.992 -0.0050 -2.1754 -0.5355
    4CHTO   C88 1428   6.631   9.036   0.787  0.1129  0.2799  0.4010
    4CHTO   O58 1429   6.492   9.025   0.771  0.5173 -0.3075  0.1560
    4CHTO  H136 1430   6.457   9.112   0.771  1.9498  0.3111  1.5580
    4CHTO   O51 1431   6.947   9.045   1.137 -0.6898  0.1105  0.3209
    4CHTO   C78 1432   6.996   8.889   1.090  0.6514 -0.0785  0.0039
    4CHTO  H150 1433   6.990   8.881   0.979  0.4449 -2.2843  0.1562
    4CHTO   C80 1434   6.908   8.777   1.150  0.2246  0.1845 -0.3076
    4CHTO  H152 1435   6.889   8.797   1.257 -0.8413  2.2728 -0.8728
    4CHTO   O55 1436   6.788   8.784   1.085 -0.3892  0.6981  0.4240
    4CHTO  H134 1437   6.711   8.763   1.134  1.1450 -0.8691  2.2595
    4CHTO   C84 1438   6.977   8.628   1.127  0.3646 -0.2509 -0.1094
    4CHTO  H156 1439   6.973   8.606   1.020  0.4949 -2.5656  0.3305
    4CHTO   N15 1440   6.904   8.513   1.195 -0.1384  0.1778  0.4218
    4CHTO  H143 1441   6.836   8.463   1.129 -1.2863  0.4293  1.4035
    4CHTO  H144 1442   6.973   8.443   1.236  2.2753  1.3180 -1.5692
    4CHTO   C87 1443   7.122   8.648   1.184 -0.4633 -0.0576 -0.2356
    4CHTO  H159 1444   7.110   8.681   1.287 -0.6676  1.5280 -0.7590
    4CHTO   O53 1445   7.189   8.743   1.099 -0.2078  0.3460  0.0233
    4CHTO   C82 1446   7.150   8.877   1.127 -0.4374 -0.0722 -0.5602
    4CHTO  H154 1447   7.151   8.899   1.233 -0.0818 -3.9865  0.3001
    4CHTO   C89 1448   7.243   8.977   1.051 -0.3777 -0.2985 -0.1605
    4CHTO   O59 1449   7.220   9.114   1.083 -0.1634  0.4603 -0.4753
    4CHTO  H137 1450   7.292   9.174   1.076  0.0737  0.1413 -0.7599
    4CHTO   O45 1451   7.211   8.513   1.168  0.2740  0.0287  0.5019
    4CHTO   C67 1452   7.322   8.503   1.259 -0.0903  0.4932 -0.5149
    4CHTO  H124 1453   7.344   8.606   1.287  1.6514  0.8670 -3.1071
    4CHTO   C65 1454   7.275   8.431   1.389 -0.2759  0.0569  0.2037
    4CHTO  H122 1455   7.186   8.487   1.417 -1.2575 -0.3227 -2.0004
    4CHTO   O44 1456   7.372   8.437   1.496  0.8714 -0.2208  0.3607
    4CHTO  H102 1457   7.349   8.395   1.577 -2.6866  1.8036  0.5018
    4CHTO   C63 1458   7.245   8.291   1.341 -0.1820 -0.0244 -0.5856
    4CHTO  H120 1459   7.169   8.292   1.263 -0.2177  2.2896 -0.5634
    4CHTO   N11 1460   7.171   8.207   1.445  0.6202  0.2417  0.4025
    4CHTO  H108 1461   7.091   8.255   1.496 -0.1247 -2.2165  1.5889
    4CHTO  H109 1462   7.134   8.121   1.394  3.2879 -0.3609 -0.5935
    4CHTO   C61 1463   7.372   8.218   1.285 -0.9279 -0.1869  0.5001
    4CHTO  H118 1464   7.326   8.132   1.234 -2.3573  1.9695 -1.9227
    4CHTO   O40 1465   7.434   8.297   1.171  0.6218 -0.0895  1.0512
    4CHTO   C68 1466   7.455   8.444   1.193  0.5936  0.5166 -0.2571
    4CHTO  H125 1467   7.470   8.497   1.097  3.2092  1.6286  0.7150
    4CHTO   C72 1468   7.582   8.463   1.267 -0.5992  0.1871  0.0580
    4CHTO   O48 1469   7.698   8.460   1.175  0.0771  0.0443 -0.0700
    4CHTO  H105 1470   7.769   8.510   1.210  0.6813 -2.0642  1.8334
    4CHTO   O38 1471   7.479   8.165   1.372  0.6735  0.1363  0.1508
    4CHTO   C55 1472   7.519   8.025   1.340 -0.0725  0.1269  0.0654
    4CHTO  H112 1473   7.496   7.988   1.239  1.4367 -3.6838  1.0043
    4CHTO   C56 1474   7.465   7.924   1.450 -1.0510  0.6410 -0.7317
    4CHTO  H113 1475   7.499   7.963   1.547  1.3810 -2.0304 -0.4377
    4CHTO   O42 1476   7.317   7.937   1.447  0.1413 -0.0248  0.8271
    4CHTO  H100 1477   7.291   8.021   1.414 -1.7712 -0.6786  0.5819
    4CHTO   C57 1478   7.516   7.782   1.424  0.0827  0.3229 -0.0648
    4CHTO  H114 1479   7.470   7.761   1.327 -0.0693  0.8133 -0.1017
    4CHTO   N10 1480   7.464   7.682   1.523  0.3795 -0.0040 -0.3005
    4CHTO  H106 1481   7.380   7.736   1.566 -0.5982 -1.3847 -0.4298
    4CHTO  H107 1482   7.542   7.676   1.597 -2.0736  0.6370  2.4591
    4CHTO   C58 1483   7.670   7.784   1.404  0.4243  0.4898  0.9706
    4CHTO  H115 1484   7.709   7.785   1.508 -3.0161 -2.2017  2.4224
    4CHTO   O37 1485   7.726   7.894   1.329 -0.4697 -0.1049  0.1504
    4CHTO   C59 1486   7.673   8.027   1.350 -0.4840  1.1706 -0.6404
    4CHTO  H116 1487   7.698   8.063   1.450 -1.6781  1.3084 -0.3879
    4CHTO   C70 1488   7.749   8.121   1.250  0.3354 -0.1843  0.3340
    4CHTO   O46 1489   7.713   8.084   1.116 -0.2903  0.8321 -0.2741
    4CHTO  H103 1490   7.786   8.109   1.062 -0.3112 -0.6989 -1.0511
    4CHTO   O39 1491   7.722   7.635   1.337 -0.1013 -0.6612  0.2761
    4CHTO   C60 1492   7.661   7.594   1.214  0.3503  0.1880  0.1416
    4CHTO  H117 1493   7.557   7.626   1.217 -0.7109 -2.9598 -1.0357
    4CHTO   C62 1494   7.740   7.660   1.097  0.3951  0.6473  0.4529
    4CHTO  H119 1495   7.730   7.768   1.121 -3.2481  0.3221  0.6855
    4CHTO   O43 1496   7.884   7.631   1.102 -0.6152  0.3366 -0.2084
    4CHTO  H101 1497   7.902   7.545   1.137  0.1841 -0.1204 -1.6751
    4CHTO   C66 1498   7.684   7.633   0.950  0.0707 -0.0291 -0.1001
    4CHTO  H123 1499   7.578   7.653   0.961 -0.7285 -2.5688 -2.8412
    4CHTO   N12 1500   7.740   7.717   0.839  0.3725  0.2329  0.1996
    4CHTO  H110 1501   7.717   7.820   0.860 -3.5683 -0.3563 -0.7751
    4CHTO  H111 1502   7.691   7.695   0.745 -0.2991 -3.9105  1.4289
    4CHTO   C69 1503   7.714   7.484   0.922  0.6222  0.1637 -1.0613
    4CHTO  H126 1504   7.818   7.453   0.943  1.7801  1.6750 -4.1752
    4CHTO   O41 1505   7.622   7.410   1.037 -0.2789 -0.1750  0.0017
    4CHTO   C64 1506   7.659   7.438   1.192  0.1486  0.4328  0.1457
    4CHTO  H121 1507   7.755   7.398   1.229 -1.4305 -0.6721  3.1866
    4CHTO   C71 1508   7.550   7.369   1.276 -0.1301  0.0710 -0.1702
    4CHTO   O47 1509   7.543   7.229   1.266 -0.3477 -0.1200  0.0885
    4CHTO  H104 1510   7.618   7.183   1.297  0.5741  0.7211 -0.8241
    4CHTO   O34 1511   7.674   7.428   0.796 -0.0128 -0.2305  0.2549
    4CHTO   C49 1512   7.764   7.403   0.677 -0.0655  0.2126 -0.1520
    4CHTO   H91 1513   7.829   7.490   0.667 -0.7741  0.4818 -2.6953
    4CHTO   C47 1514   7.680   7.394   0.549 -0.3175 -0.1076 -0.1416
    4CHTO   H89 1515   7.762   7.396   0.474  0.2225  3.4622  0.4675
    4CHTO   O33 1516   7.610   7.516   0.526 -0.3676 -0.3885  0.4185
    4CHTO   H70 1517   7.673   7.585   0.540  0.5713 -1.3850  1.1233
    4CHTO   C45 1518   7.581   7.267   0.543 -0.1883 -0.3603 -0.1963
    4CHTO   H87 1519   7.491   7.300   0.596  0.3650 -1.4065  1.4193
    4CHTO    N8 1520   7.548   7.239   0.403  0.3950  0.7922 -0.1594
    4CHTO   H75 1521   7.493   7.146   0.402  2.4751 -0.4849 -0.7852
    4CHTO   H76 1522   7.641   7.218   0.351 -0.1204 -0.9856 -0.3988
    4CHTO   C43 1523   7.641   7.145   0.631 -0.5952  0.1571  0.8203
    4CHTO   H85 1524   7.589   7.162   0.726  0.0043 -3.7815  1.9174
    4CHTO   O29 1525   7.786   7.149   0.641  0.1622 -0.1685 -1.0346
    4CHTO   C50 1526   7.849   7.271   0.695 -0.4384 -0.5481  0.5221
    4CHTO   H92 1527   7.877   7.274   0.801  0.6641  0.6746  0.2198
    4CHTO   C54 1528   7.992   7.295   0.631  0.1117 -0.2797  0.0513
    4CHTO   O36 1529   8.060   7.393   0.712  0.4024  0.1309  0.1186
    4CHTO   H72 1530   8.063   7.354   0.797 -3.0639 -0.4750  0.0287
    4CHTO   O27 1531   7.612   7.007   0.589  0.0539  0.3093 -0.2418
    4CHTO   C37 1532   7.628   6.868   0.617 -0.0521 -0.0160  0.2699
    4CHTO   H79 1533   7.707   6.825   0.554 -0.2947 -1.6517  1.0686
    4CHTO   C38 1534   7.686   6.842   0.758 -0.0525  0.6040  0.7087
    4CHTO   H80 1535   7.622   6.893   0.831 -1.2553 -0.7592  0.6193
    4CHTO   O31 1536   7.815   6.905   0.756 -0.6341 -0.4159 -0.3059
    4CHTO   H68 1537   7.813   6.986   0.803  1.8057 -0.7151  0.3519
    4CHTO   C39 1538   7.686   6.689   0.795 -0.5612 -0.6246 -0.4206
    4CHTO   H81 1539   7.767   6.639   0.742  1.3025  3.0996 -1.2510
    4CHTO    N7 1540   7.730   6.659   0.936 -0.4881  0.2858  0.4921
    4CHTO   H73 1541   7.838   6.666   0.939 -0.2259 -1.6627 -2.3497
    4CHTO   H74 1542   7.682   6.731   1.000  0.1503  0.6835  0.5257
    4CHTO   C40 1543   7.549   6.622   0.759  0.1516 -0.0792  0.2894
    4CHTO   H82 1544   7.472   6.667   0.822  0.2837  2.7821 -1.5332
    4CHTO   O26 1545   7.522   6.645   0.622 -0.3249 -0.5911  0.4511
    4CHTO   C41 1546   7.500   6.787   0.593  0.4029  0.4688 -0.5652
    4CHTO   H83 1547   7.423   6.834   0.656  1.0402  0.3515  0.3163
    4CHTO   C52 1548   7.447   6.782   0.449 -1.0230 -0.0761 -0.2371
    4CHTO   O35 1549   7.446   6.923   0.380 -0.1772  0.0251  0.1849
    4CHTO   H71 1550   7.373   6.924   0.321 -0.0045 -0.0193 -0.0339
    4CHTO   O28 1551   7.544   6.472   0.771 -0.5905 -0.1811  0.0682
    4CHTO   C42 1552   7.422   6.384   0.776  0.2346  0.5220  0.3213
    4CHTO   H84 1553   7.463   6.285   0.757 -1.3034  0.2162 -1.7251
    4CHTO   C44 1554   7.330   6.406   0.644 -0.0791  0.4854  0.2046
    4CHTO   H86 1555   7.296   6.509   0.643  3.1087  1.6085 -0.2703
    4CHTO   O32 1556   7.419   6.373   0.534  0.3840 -0.6175  0.1618
    4CHTO   H69 1557   7.511   6.390   0.542 -0.0234  2.6426 -1.4125
    4CHTO   C48 1558   7.212   6.305   0.651 -0.5619  0.1039 -0.0786
    4CHTO   H90 1559   7.264   6.210   0.643 -0.5106  0.0645  0.7035
    4CHTO    N9 1560   7.116   6.330   0.526  0.3038  0.3438  0.5873
    4CHTO   H77 1561   7.045   6.250   0.514 -0.0530  0.8735 -0.9610
    4CHTO   H78 1562   7.180   6.326   0.439  0.3795  1.5805  0.5714
    4CHTO   C51 1563   7.134   6.324   0.782 -0.1633  0.5132  0.0604
    4CHTO   H93 1564   7.115   6.431   0.774 -1.6102  0.0847 -2.9827
    4CHTO   O30 1565   7.219   6.291   0.894 -0.4442  0.1504 -0.0857
    4CHTO   C46 1566   7.346   6.388   0.912 -0.1794  0.1545 -0.6645
    4CHTO   H88 1567   7.306   6.486   0.939  0.7453  0.3899 -0.1260
    4CHTO   C53 1568   7.429   6.338   1.030  0.0060  0.2332 -0.3480
    4CHTO   O72 1569   7.540   6.417   1.067  0.2273  0.3767 -0.2538
    4CHTO  H199 1570   7.590   6.368   1.130 -1.3537 -0.3533  0.4496
    4CHTO   O22 1571   7.017   6.247   0.794  0.9267  0.0538  0.3492
    4CHTO   C31 1572   6.924   6.259   0.912 -0.0411  0.1532  0.0117
    4CHTO   H59 1573   6.985   6.283   1.002  2.4741 -1.0127 -1.3306
    4CHTO   C29 1574   6.810   6.367   0.907  0.0343 -0.0086 -0.4731
    4CHTO   H57 1575   6.747   6.343   0.820 -0.6261 -0.1148  0.0300
    4CHTO   O21 1576   6.876   6.492   0.881  0.0488 -0.2732  0.3795
    4CHTO   H37 1577   6.822   6.551   0.831  3.7148  2.4284 -0.6416
    4CHTO   C27 1578   6.717   6.370   1.040  0.1910 -0.5813  0.4277
    4CHTO   H55 1579   6.780   6.389   1.128  1.1510 -0.3519 -0.2863
    4CHTO    N5 1580   6.602   6.459   1.046  0.2342 -0.3214 -0.0863
    4CHTO   H43 1581   6.590   6.492   1.148  0.3157 -1.0372  0.1573
    4CHTO   H44 1582   6.601   6.544   0.979  1.2716 -0.8262 -0.7799
    4CHTO   C25 1583   6.665   6.225   1.081 -0.6236  0.1508  0.7185
    4CHTO   H53 1584   6.581   6.189   1.019  1.2087  0.1086 -1.8415
    4CHTO   O17 1585   6.770   6.127   1.060 -0.4990 -0.3047 -0.3515
    4CHTO   C32 1586   6.849   6.120   0.945  0.0193  0.3577 -0.2554
    4CHTO   H60 1587   6.779   6.098   0.864 -0.8726 -2.8215  1.3375
    4CHTO   C36 1588   6.957   6.015   0.973 -0.0480 -0.4068 -0.4142
    4CHTO   O25 1589   7.057   6.062   1.064 -0.2299  0.5378 -0.5388
    4CHTO   H40 1590   7.027   6.053   1.153  1.3642  0.2243 -0.0216
    4CHTO   O15 1591   6.618   6.227   1.239 -0.6346  0.4815 -0.1175
    4CHTO   C19 1592   6.675   6.268   1.369 -0.4891 -0.6224  0.4815
    4CHTO   H47 1593   6.625   6.202   1.442  1.7654 -0.7865  1.9278
    4CHTO   C20 1594   6.830   6.262   1.394  0.4141 -0.4877 -0.0758
    4CHTO   H48 1595   6.886   6.333   1.331 -0.2278 -0.6360 -0.8275
    4CHTO   O19 1596   6.875   6.136   1.347  0.2830 -0.3512 -0.2085
    4CHTO   H35 1597   6.963   6.128   1.380  0.0607 -0.7314  0.3057
    4CHTO   C21 1598   6.871   6.295   1.547 -0.5299 -0.3908 -0.5864
    4CHTO   H49 1599   6.812   6.226   1.607 -2.3851  0.9587 -0.8227
    4CHTO    N4 1600   7.019   6.287   1.574  0.0905  0.5908 -0.4397
    4CHTO   H41 1601   7.049   6.371   1.635 -0.1638 -1.2014  2.2602
    4CHTO   H42 1602   7.047   6.197   1.627 -3.0577 -0.2233 -0.0921
    4CHTO   C22 1603   6.809   6.433   1.588 -0.1357  0.7028 -0.3007
    4CHTO   H50 1604   6.858   6.518   1.538 -0.1201  1.1681  0.4982
    4CHTO   O14 1605   6.669   6.440   1.551  0.8528  0.6747 -0.2547
    4CHTO   C23 1606   6.640   6.415   1.414  0.1671 -0.2810 -0.8579
    4CHTO   H51 1607   6.694   6.490   1.354  1.6136 -1.4452 -1.0399
    4CHTO   C34 1608   6.487   6.436   1.392 -0.5809  0.0574 -0.2280
    4CHTO   O23 1609   6.401   6.365   1.478  0.6042  0.3202  0.2328
    4CHTO   H38 1610   6.339   6.316   1.429 -0.1933  0.9515  0.5947
    4CHTO   O16 1611   6.807   6.454   1.730 -0.0345 -0.0491 -0.3218
    4CHTO   C24 1612   6.828   6.613   1.781  0.2654 -0.3281 -0.4197
    4CHTO   H52 1613   6.786   6.682   1.708  0.7430  1.2506  0.7718
    4CHTO   C26 1614   6.974   6.646   1.786 -0.3325  0.7912  0.2320
    4CHTO   H54 1615   7.032   6.558   1.820  0.0773  0.5247 -1.1219
    4CHTO   O20 1616   7.024   6.662   1.645 -0.1102 -0.1068  0.0647
    4CHTO   H36 1617   7.113   6.631   1.645  0.2949  0.9625  0.9781
    4CHTO   C30 1618   7.008   6.769   1.877  0.2457  0.5185  0.6942
    4CHTO   H58 1619   6.993   6.861   1.820  0.3729  0.2645  0.2448
    4CHTO    N6 1620   7.150   6.780   1.909  0.0945  0.0735  0.5393
    4CHTO   H45 1621   7.172   6.717   1.993 -1.1272 -0.3014  0.5868
    4CHTO   H46 1622   7.210   6.742   1.827  0.1191 -2.2411  1.6008
    4CHTO   C33 1623   6.928   6.770   2.014  0.4841  0.0380 -0.0724
    4CHTO   H61 1624   6.953   6.680   2.072 -1.9770 -0.3637  0.4153
    4CHTO   O18 1625   6.789   6.756   1.984 -0.3286  0.2155  0.3247
    4CHTO   C28 1626   6.754   6.634   1.917 -0.6661  0.1552 -0.0533
    4CHTO   H56 1627   6.768   6.548   1.982 -1.4815  1.7161  2.2485
    4CHTO   C35 1628   6.610   6.635   1.887  0.1434 -0.3145  0.9352
    4CHTO   O24 1629   6.532   6.643   2.007  0.0352 -0.0385  0.6561
    4CHTO   H39 1630   6.559   6.567   2.054  0.5517  0.3170  0.9469
    4CHTO    O9 1631   6.956   6.885   2.099 -0.1906  0.0593 -0.6988
    4CHTO   C13 1632   6.913   6.872   2.248  0.0457  0.0452 -0.4073
    4CHTO   H26 1633   6.963   6.777   2.277 -2.5991 -2.1016 -2.5296
    4CHTO   C11 1634   6.757   6.857   2.263 -0.1408  0.4414 -0.4592
    4CHTO   H24 1635   6.735   6.756   2.224  0.7288  0.1506 -0.2038
    4CHTO    O8 1636   6.701   6.948   2.172  0.6960 -0.0467 -0.0194
    4CHTO    H3 1637   6.645   6.906   2.110 -0.2308  1.0217  0.0749
    4CHTO    C9 1638   6.701   6.865   2.408  0.7688 -0.5693  0.6151
    4CHTO   H22 1639   6.753   6.784   2.461 -2.4370 -3.2300 -0.1283
    4CHTO    N2 1640   6.554   6.838   2.418  0.2311  0.0272  0.2972
    4CHTO   H10 1641   6.515   6.831   2.318 -1.3440  3.2666  0.6296
    4CHTO   H11 1642   6.523   6.753   2.477  2.1074 -0.6472  0.3547
    4CHTO    C7 1643   6.757   6.995   2.468  0.1437 -0.6605  0.3708
    4CHTO   H20 1644   6.741   6.987   2.577  0.9481 -1.4095  0.4350
    4CHTO    O4 1645   6.900   7.017   2.453 -0.1648  0.0828 -0.1878
    4CHTO   C14 1646   6.974   6.989   2.337  0.3739  0.2505  0.1616
    4CHTO   H27 1647   7.073   6.952   2.370 -0.2604  0.0081  1.8174
    4CHTO   C18 1648   7.002   7.117   2.257 -0.2987  0.1707  1.4644
    4CHTO   O13 1649   7.088   7.213   2.319  0.2481  0.3098  0.4666
    4CHTO    H7 1650   7.176   7.184   2.309 -0.3993 -0.8386 -2.4503
    4CHTO    O2 1651   6.681   7.122   2.399  0.7607  0.3653  0.7491
    4CHTO    C1 1652   6.719   7.258   2.435  0.6995  0.0540  0.2085
    4CHTO   H14 1653   6.830   7.262   2.427  0.9649 -2.4559  1.8727
    4CHTO    C2 1654   6.670   7.300   2.584 -0.3167 -0.3103  0.1262
    4CHTO   H15 1655   6.562   7.279   2.589 -0.5653  0.3073 -2.0828
    4CHTO    O6 1656   6.746   7.223   2.677  0.2825 -0.3794 -0.5191
    4CHTO    H1 1657   6.821   7.277   2.695 -1.9317  2.6012  0.3022
    4CHTO    C3 1658   6.703   7.460   2.611  0.5108 -0.0922 -0.0226
    4CHTO   H16 1659   6.812   7.466   2.619  0.6082  0.2373 -1.4053
    4CHTO    N1 1660   6.650   7.497   2.741  0.5240 -0.7771 -0.5583
    4CHTO    H8 1661   6.551   7.466   2.770  0.3960  0.1333 -0.0112
    4CHTO    H9 1662   6.661   7.598   2.777 -1.9485 -0.8755  0.5586
    4CHTO    C4 1663   6.660   7.554   2.489 -0.3849 -0.0588  0.5114
    4CHTO   H17 1664   6.552   7.558   2.477 -0.3329 -1.2856 -0.4952
    4CHTO    O1 1665   6.708   7.503   2.366  0.2351  0.2337  0.1328
    4CHTO    C5 1666   6.661   7.373   2.331 -0.8027 -0.0189  0.2831
    4CHTO   H18 1667   6.553   7.365   2.338 -1.0915  0.8712 -2.4583
    4CHTO   C16 1668   6.695   7.337   2.188  0.1292 -0.4817  0.4550
    4CHTO   O11 1669   6.637   7.443   2.115 -0.4512  0.1170 -0.1302
    4CHTO    H5 1670   6.561   7.415   2.067  0.0795 -0.4083 -0.6695
    4CHTO    O3 1671   6.726   7.685   2.507 -0.8791 -0.7502  0.1576
    4CHTO    C6 1672   6.704   7.788   2.408  0.0565  0.2227 -0.0884
    4CHTO   H19 1673   6.640   7.757   2.325 -1.1936 -0.3966  1.0798
    4CHTO    C8 1674   6.639   7.901   2.485  0.2037 -0.2854  0.3474
    4CHTO   H21 1675   6.703   7.932   2.567  1.3334 -0.7041 -0.3689
    4CHTO    O7 1676   6.509   7.851   2.524  0.7015  0.0303  0.0996
    4CHTO    H2 1677   6.491   7.886   2.610  1.2142  0.5271  0.0028
    4CHTO   C12 1678   6.629   8.026   2.387 -0.0337 -0.1698 -0.4592
    4CHTO   H25 1679   6.546   8.005   2.316  0.8414  0.5451 -1.7116
    4CHTO    N3 1680   6.586   8.148   2.464 -0.8654 -0.3388  0.0337
    4CHTO   H12 1681   6.491   8.195   2.444 -0.4307  0.8885  0.8105
    4CHTO   H13 1682   6.591   8.120   2.569 -0.4372  1.3567  0.4734
    4CHTO   C15 1683   6.760   8.058   2.307 -0.2309 -0.5187  0.7216
    4CHTO   H28 1684   6.830   8.123   2.360 -0.1353 -1.0080  1.2050
    4CHTO   O10 1685   6.717   8.122   2.173 -0.5404 -0.2463  0.3483
    4CHTO    H4 1686   6.646   8.076   2.132  0.1397 -1.1023  0.1106
    4CHTO    O5 1687   6.814   7.937   2.247  0.6939  0.8385  0.2028
    4CHTO   C10 1688   6.838   7.832   2.343  0.4565  0.3954  1.0595
    4CHTO   H23 1689   6.906   7.866   2.421  2.7492 -0.0555 -0.6799
    4CHTO   C17 1690   6.904   7.720   2.264 -0.3889  0.6861  1.2549
    4CHTO   O12 1691   6.825   7.689   2.150  0.0782  0.7111  0.1190
    4CHTO    H6 1692   6.837   7.598   2.132 -2.1048  0.5612 -0.6719
    5CHTO  H203 1693   7.288   3.929   4.138 -0.5249 -0.4941 -0.3278
    5CHTO   O82 1694   7.258   4.016   4.119  0.4584  0.0644  0.6828
    5CHTO  C123 1695   7.312   4.113   4.219  0.5254  0.1158  0.8896
    5CHTO  H227 1696   7.402   4.159   4.175  1.1653 -1.5480  0.4100
    5CHTO   O77 1697   7.209   4.220   4.227  0.3280  0.2225  0.5234
    5CHTO  C118 1698   7.229   4.327   4.323  0.1067  0.6865  0.3212
    5CHTO  H222 1699   7.328   4.370   4.303 -0.0365  2.0798  2.4087
    5CHTO  C125 1700   7.114   4.440   4.322  0.1791  0.1683 -0.6386
    5CHTO   O84 1701   7.146   4.541   4.223  0.1945  0.2297 -0.8954
    5CHTO  H205 1702   7.072   4.598   4.218 -0.0395  0.0985  0.6596
    5CHTO  C114 1703   7.235   4.269   4.466 -0.6830 -0.3474  0.0337
    5CHTO  H218 1704   7.145   4.210   4.483 -0.7934 -0.8434 -2.0284
    5CHTO  C116 1705   7.347   4.152   4.483  0.2456  0.3031  0.0745
    5CHTO  H220 1706   7.450   4.192   4.480  0.2737  0.2468  0.3218
    5CHTO   O79 1707   7.312   4.089   4.606  0.4931 -0.5715 -0.6930
    5CHTO  H201 1708   7.363   4.014   4.629  1.1056  0.2331  0.6698
    5CHTO  C120 1709   7.335   4.047   4.367 -0.0784  0.1504  0.0983
    5CHTO  H224 1710   7.241   3.990   4.385 -1.2055  0.7685 -3.4290
    5CHTO   N21 1711   7.443   3.951   4.372 -0.0130  0.0073  0.0859
    5CHTO  H211 1712   7.428   3.868   4.304  0.1618 -1.0590  1.3120
    5CHTO  H212 1713   7.540   3.999   4.368  1.2967 -2.2221  2.6507
    5CHTO   O75 1714   7.250   4.379   4.561  0.0345 -0.1585  0.1111
    5CHTO  C112 1715   7.145   4.355   4.678  0.1807 -0.0207 -0.3342
    5CHTO  H216 1716   7.138   4.247   4.698 -0.1448 -0.2428 -1.6004
    5CHTO   O73 1717   7.020   4.408   4.624  0.5591  0.3356  0.5306
    5CHTO  C113 1718   6.906   4.411   4.715 -0.2796 -0.1284 -0.5273
    5CHTO  H217 1719   6.886   4.308   4.753 -2.1313 -0.6048 -2.7169
    5CHTO  C124 1720   6.779   4.449   4.638 -0.4404  0.5272  0.0247
    5CHTO   O83 1721   6.658   4.450   4.707  0.4558  0.1722 -0.0573
    5CHTO  H204 1722   6.658   4.519   4.770 -1.0298  1.9040 -1.8610
    5CHTO  C109 1723   6.940   4.501   4.831  0.4964  0.6722  0.1319
    5CHTO  H213 1724   6.971   4.597   4.787  1.5145  0.4210  0.2848
    5CHTO  C110 1725   7.064   4.444   4.908 -0.7326  0.2982 -0.0957
    5CHTO  H214 1726   7.035   4.344   4.939  1.7211 -0.3190  0.2418
    5CHTO   O78 1727   7.090   4.535   5.017 -0.3200  0.6111  0.1653
    5CHTO  H200 1728   7.097   4.483   5.094  1.2472  0.7760  0.1351
    5CHTO  C111 1729   7.187   4.437   4.810  0.0751  0.3144  0.6948
    5CHTO  H215 1730   7.211   4.538   4.774  0.8901  0.8662  2.7505
    5CHTO   N19 1731   7.307   4.384   4.873 -0.1052  0.4043 -0.8921
    5CHTO  H207 1732   7.370   4.349   4.793  1.1437  0.0639  0.2252
    5CHTO  H208 1733   7.274   4.296   4.927 -0.5514 -0.0158 -1.8365
    5CHTO   O74 1734   6.826   4.526   4.913  0.0708  0.4556 -0.2604
    5CHTO  C115 1735   6.760   4.672   4.916  0.3067  0.5542 -0.0882
    5CHTO  H219 1736   6.820   4.740   4.976  1.0678 -0.4546  0.3232
    5CHTO   O76 1737   6.750   4.736   4.767  0.3753  0.2898 -0.2701
    5CHTO  C122 1738   6.665   4.849   4.757 -0.6276  0.7177  0.0107
    5CHTO  H226 1739   6.642   4.853   4.650  0.6221 -2.8036 -0.4677
    5CHTO  C126 1740   6.746   4.977   4.794  0.4490  0.2608 -0.5742
    5CHTO   O85 1741   6.682   5.098   4.751 -0.1466  0.3656 -0.7826
    5CHTO  H206 1742   6.745   5.162   4.722  1.8397 -2.2542 -2.5149
    5CHTO  C121 1743   6.531   4.839   4.839 -0.0871  0.5585  0.7882
    5CHTO  H225 1744   6.473   4.933   4.833  0.9517  1.1039 -0.7638
    5CHTO   O81 1745   6.443   4.743   4.779  0.4748  0.1874 -0.2401
    5CHTO  H202 1746   6.367   4.768   4.729 -0.7071 -0.3557  1.2400
    5CHTO  C119 1747   6.553   4.798   4.984 -0.4676  0.4737  0.3472
    5CHTO  H223 1748   6.619   4.871   5.030 -0.9790  0.6093  0.8721
    5CHTO  C117 1749   6.630   4.662   4.993  0.3837  0.1287 -0.3529
    5CHTO  H221 1750   6.579   4.577   4.948  1.5101 -1.3626  1.1762
    5CHTO   N20 1751   6.647   4.629   5.138  0.4446  0.5771  0.7188
    5CHTO  H209 1752   6.712   4.693   5.195  0.1941  0.9672  0.5705
    5CHTO  H210 1753   6.551   4.629   5.189 -0.3446 -1.9538 -0.6769
    5CHTO   O80 1754   6.418   4.821   5.082  0.1732  0.1961  0.2259
    5CHTO  C103 1755   6.294   4.781   5.037  0.1124  0.4683  0.7257
    5CHTO  H190 1756   6.270   4.793   4.931 -0.5673 -2.7928  0.4613
    5CHTO  C101 1757   6.264   4.620   5.071 -0.7444  0.3896 -0.3524
    5CHTO  H188 1758   6.300   4.594   5.170 -0.2815 -1.9255 -1.1064
    5CHTO   O68 1759   6.344   4.524   4.965  0.6857 -0.1076  0.4649
    5CHTO  H168 1760   6.282   4.494   4.900  0.5915 -1.7338  1.2730
    5CHTO   C99 1761   6.108   4.586   5.065 -0.6398 -1.3209  0.7066
    5CHTO  H186 1762   6.087   4.601   4.957  0.6569 -2.2755  0.3049
    5CHTO   N17 1763   6.071   4.444   5.096 -0.6755  0.0504  1.2839
    5CHTO  H174 1764   6.118   4.388   5.016  0.5000  1.8833  0.6477
    5CHTO  H175 1765   5.964   4.437   5.088 -0.5241 -2.2696  0.9590
    5CHTO   C97 1766   6.032   4.688   5.147  0.4230 -0.1574  0.0087
    5CHTO  H184 1767   6.052   4.662   5.252 -1.1681 -0.7206  0.1817
    5CHTO   O64 1768   6.068   4.821   5.117 -0.3081 -0.3097  0.2864
    5CHTO  C104 1769   6.198   4.874   5.116  0.3412  0.0787  0.9235
    5CHTO  H191 1770   6.228   4.874   5.221 -0.9276 -1.8469  1.3130
    5CHTO  C108 1771   6.204   5.021   5.066 -0.0422 -0.4576  0.2601
    5CHTO   O71 1772   6.316   5.095   5.121 -0.3440  0.0134 -0.2229
    5CHTO  H171 1773   6.302   5.186   5.135 -1.1144  0.0177 -0.9695
    5CHTO   O62 1774   5.892   4.685   5.139 -0.9884 -0.1633  0.3713
    5CHTO   C91 1775   5.814   4.715   5.018  0.0323 -0.9733  0.3896
    5CHTO  H178 1776   5.841   4.814   4.982  4.6357 -1.8393  1.1795
    5CHTO   C92 1777   5.663   4.720   5.060  0.1335 -0.2408  0.7494
    5CHTO  H179 1778   5.652   4.796   5.138  0.1189 -1.9170  2.4196
    5CHTO   O66 1779   5.575   4.755   4.950  0.1393 -0.1080 -0.3705
    5CHTO  H166 1780   5.587   4.845   4.926  3.4480 -0.7386 -1.3136
    5CHTO   C93 1781   5.611   4.580   5.109 -0.2414  0.5465 -0.3698
    5CHTO  H180 1782   5.501   4.593   5.107 -0.1878  1.2384  0.6395
    5CHTO   N16 1783   5.653   4.552   5.250 -0.7792 -0.1323  0.2012
    5CHTO  H172 1784   5.743   4.492   5.247 -0.3068  0.5571  0.4084
    5CHTO  H173 1785   5.573   4.496   5.295 -2.3794  1.2753 -0.7759
    5CHTO   C94 1786   5.651   4.468   5.009 -0.2108 -0.7644  0.2775
    5CHTO  H181 1787   5.742   4.415   5.040 -1.7928 -2.6503  1.8172
    5CHTO   O61 1788   5.703   4.519   4.882  0.7413  0.4640  0.4378
    5CHTO   C95 1789   5.817   4.612   4.890  0.1603 -0.2888  0.9380
    5CHTO  H182 1790   5.905   4.547   4.890 -0.3775 -1.0305  0.4722
    5CHTO  C106 1791   5.827   4.694   4.753  0.1291 -0.4421 -0.5486
    5CHTO   O69 1792   5.826   4.617   4.634  0.6225  0.1478 -0.5078
    5CHTO  H169 1793   5.736   4.592   4.621  0.7078 -0.5769  0.2223
    5CHTO   O63 1794   5.538   4.383   4.989 -0.0891  0.3680 -0.5286
    5CHTO   C96 1795   5.551   4.259   4.885  0.0798  0.1021 -0.5538
    5CHTO  H183 1796   5.594   4.285   4.788  2.3652  0.5462  0.5523
    5CHTO   C98 1797   5.407   4.203   4.861 -0.1762 -0.4208  0.4181
    5CHTO  H185 1798   5.335   4.285   4.854  0.2471  0.0531  1.4598
    5CHTO   O67 1799   5.397   4.136   4.733 -0.9358  0.4341 -0.2595
    5CHTO  H167 1800   5.477   4.143   4.685 -0.9629  1.0030 -0.2278
    5CHTO  C102 1801   5.363   4.104   4.974  0.5450  0.3481 -0.2778
    5CHTO  H189 1802   5.264   4.075   4.936  0.7321  1.7089 -1.8796
    5CHTO   N18 1803   5.338   4.150   5.111 -0.0975 -0.4005 -0.0975
    5CHTO  H176 1804   5.432   4.154   5.164 -0.0073  0.4936 -0.3126
    5CHTO  H177 1805   5.282   4.066   5.148 -2.0673  0.1176 -1.8547
    5CHTO  C105 1806   5.461   3.990   4.976  0.2089  0.4026  0.3883
    5CHTO  H192 1807   5.464   3.937   5.071  0.9113 -1.1970 -0.5206
    5CHTO   O65 1808   5.599   4.025   4.936  0.1023 -0.1820 -0.2949
    5CHTO  C100 1809   5.651   4.155   4.950 -0.1561  0.0156 -0.5012
    5CHTO  H187 1810   5.659   4.183   5.056 -2.2237  3.3365 -1.1469
    5CHTO  C107 1811   5.789   4.163   4.888  0.0703  0.2995  0.1172
    5CHTO   O70 1812   5.890   4.069   4.937  0.3174  0.0535  0.1497
    5CHTO  H170 1813   5.892   4.077   5.031 -1.4205  0.1447  0.1808
    5CHTO   O57 1814   5.406   3.894   4.866  0.3469  0.1647  0.0912
    5CHTO   C85 1815   5.400   3.754   4.880  0.0788 -0.8742  0.1302
    5CHTO  H157 1816   5.321   3.745   4.958  0.3917  0.2334  0.5923
    5CHTO   C83 1817   5.524   3.684   4.943 -0.0620  0.1747 -0.5131
    5CHTO  H155 1818   5.524   3.719   5.046 -0.2801  3.0755 -1.4696
    5CHTO   O56 1819   5.649   3.737   4.895  0.2462 -0.0062 -0.4798
    5CHTO  H135 1820   5.662   3.723   4.803  4.3871  0.3345 -0.0307
    5CHTO   C81 1821   5.509   3.530   4.936  0.5023 -0.3749 -0.3998
    5CHTO  H153 1822   5.416   3.503   4.986  0.4076 -2.9863 -1.8726
    5CHTO   N14 1823   5.611   3.459   5.020 -0.2324 -0.2203  0.0892
    5CHTO  H141 1824   5.655   3.508   5.104  0.0695 -1.7451  0.8408
    5CHTO  H142 1825   5.690   3.409   4.967  2.1341  1.6792  1.7324
    5CHTO   C79 1826   5.484   3.479   4.796 -0.9336  0.8672  0.7724
    5CHTO  H151 1827   5.453   3.375   4.809  0.1818  0.3808 -0.3639
    5CHTO   O52 1828   5.363   3.541   4.742  0.1207 -0.1869  0.0654
    5CHTO   C86 1829   5.359   3.689   4.747 -0.7942  0.4506  0.0952
    5CHTO  H158 1830   5.427   3.724   4.667 -1.6534  0.6849 -0.5304
    5CHTO   C90 1831   5.213   3.725   4.704 -0.4414  0.0411  0.3018
    5CHTO   O60 1832   5.193   3.698   4.563 -0.0898  0.0489 -0.4310
    5CHTO  H138 1833   5.105   3.674   4.543 -1.7901  4.0161  1.7566
    5CHTO   O50 1834   5.592   3.501   4.699 -0.6518 -0.5923 -0.4801
    5CHTO   C73 1835   5.638   3.406   4.602  0.4809  0.1460  0.2345
    5CHTO  H145 1836   5.556   3.367   4.540  0.9972  0.4747 -0.6468
    5CHTO   C74 1837   5.720   3.290   4.673  0.3547  0.4136  0.1992
    5CHTO  H146 1838   5.656   3.259   4.757 -2.8143  1.6858 -1.6464
    5CHTO   O54 1839   5.726   3.171   4.588  0.6387 -0.9247  0.3879
    5CHTO  H133 1840   5.754   3.206   4.506 -2.1942 -1.2313 -0.7488
    5CHTO   C75 1841   5.866   3.343   4.720  0.2384 -0.0196  0.1101
    5CHTO  H147 1842   5.851   3.415   4.802 -1.9880 -0.2987 -0.0264
    5CHTO   N13 1843   5.953   3.234   4.779  0.5941 -0.4560  0.4869
    5CHTO  H139 1844   5.914   3.134   4.768 -0.2433 -0.0674 -0.0926
    5CHTO  H140 1845   5.955   3.253   4.885 -1.6932  0.7347  0.3501
    5CHTO   C76 1846   5.939   3.418   4.605  0.0885  0.5166  0.5705
    5CHTO  H148 1847   5.963   3.354   4.520  0.2193  0.2118  0.8375
    5CHTO   O49 1848   5.855   3.532   4.554 -0.2198 -0.2666  0.3846
    5CHTO   C77 1849   5.738   3.475   4.500  0.5126 -0.0274 -0.1258
    5CHTO  H149 1850   5.768   3.398   4.429 -0.2081  0.3020 -0.7969
    5CHTO   C88 1851   5.653   3.573   4.421 -0.2836  0.0511  0.3678
    5CHTO   O58 1852   5.540   3.539   4.347  0.5165  0.8073 -0.0316
    5CHTO  H136 1853   5.534   3.591   4.269 -0.1175  2.7714  1.2808
    5CHTO   O51 1854   6.068   3.483   4.672  0.4350 -0.2956  1.2706
    5CHTO   C78 1855   6.141   3.617   4.603  0.4217  0.4027  0.1758
    5CHTO  H150 1856   6.095   3.632   4.503 -0.6877  5.0216  1.2518
    5CHTO   C80 1857   6.284   3.584   4.576 -0.4577 -0.2034  0.0315
    5CHTO  H152 1858   6.330   3.527   4.659  0.3542  2.7733  1.6839
    5CHTO   O55 1859   6.276   3.486   4.465  0.1823 -0.2627  0.4985
    5CHTO  H134 1860   6.250   3.402   4.497  1.8330 -1.0555 -0.2062
    5CHTO   C84 1861   6.376   3.706   4.537  0.7284 -0.3766 -0.7707
    5CHTO  H156 1862   6.333   3.758   4.451 -1.0065  1.0977  0.9690
    5CHTO   N15 1863   6.522   3.674   4.505  0.5813  0.4258 -0.1929
    5CHTO  H143 1864   6.537   3.635   4.407  1.1360 -0.6939  0.3172
    5CHTO  H144 1865   6.568   3.608   4.577 -0.2161  0.4578  0.3599
    5CHTO   C87 1866   6.364   3.803   4.649  0.2340  0.5534  0.2578
    5CHTO  H159 1867   6.399   3.779   4.749  0.1856 -2.4067 -0.3866
    5CHTO   O53 1868   6.204   3.843   4.654 -0.1599  0.3564 -0.1952
    5CHTO   C82 1869   6.130   3.729   4.707 -0.3113 -0.0699 -0.0783
    5CHTO  H154 1870   6.176   3.702   4.802  0.4344 -2.4348 -1.0665
    5CHTO   C89 1871   5.981   3.763   4.734 -0.1777 -0.4128 -0.3692
    5CHTO   O59 1872   5.930   3.681   4.835  0.3531  0.1556 -0.6176
    5CHTO  H137 1873   5.837   3.672   4.839  0.4314 -0.4504 -0.0756
    5CHTO   O45 1874   6.439   3.960   4.628  0.2494 -0.6842  0.0294
    5CHTO   C67 1875   6.456   4.027   4.755 -0.7250  0.5113 -0.2323
    5CHTO  H124 1876   6.385   3.984   4.826  0.0402 -2.1870 -1.0425
    5CHTO   C65 1877   6.598   4.008   4.818 -0.4169  0.2414  0.1667
    5CHTO  H122 1878   6.661   3.970   4.737  1.1743 -0.7203  1.8013
    5CHTO   O44 1879   6.594   3.904   4.918  0.3898  0.2146  0.1959
    5CHTO  H102 1880   6.595   3.823   4.870  1.4900  0.5632 -0.3884
    5CHTO   C63 1881   6.653   4.146   4.868 -1.0792 -0.1722  0.1555
    5CHTO  H120 1882   6.678   4.202   4.778 -1.3927  0.7578  0.6381
    5CHTO   N11 1883   6.791   4.139   4.936 -0.0080  0.2456  0.2040
    5CHTO  H108 1884   6.779   4.119   5.040  2.1300 -2.7925 -0.0770
    5CHTO  H109 1885   6.853   4.226   4.930  3.2988 -1.7332  3.8106
    5CHTO   C61 1886   6.540   4.229   4.941 -0.6136 -0.0376  0.0559
    5CHTO  H118 1887   6.581   4.327   4.970 -0.5903  0.1169 -0.5119
    5CHTO   O40 1888   6.426   4.252   4.866  0.8869 -0.2472 -0.4243
    5CHTO   C68 1889   6.423   4.184   4.739  0.3307  0.3264  0.7668
    5CHTO  H125 1890   6.500   4.225   4.670  0.0625 -0.1963  0.1569
    5CHTO   C72 1891   6.286   4.227   4.684 -0.0448  0.4564  0.3177
    5CHTO   O48 1892   6.168   4.161   4.732 -0.4311 -0.0312  0.2810
    5CHTO  H105 1893   6.116   4.146   4.655 -0.8592 -0.5422  0.6722
    5CHTO   O38 1894   6.493   4.146   5.053  0.0905 -0.3699  0.0375
    5CHTO   C55 1895   6.430   4.215   5.156 -0.2953  0.1459 -0.4550
    5CHTO  H112 1896   6.396   4.311   5.115  2.0717  1.8723  1.4356
    5CHTO   C56 1897   6.536   4.236   5.281  0.4590 -0.3370  0.0856
    5CHTO  H113 1898   6.567   4.138   5.320  0.0194 -0.8921 -0.9494
    5CHTO   O42 1899   6.652   4.299   5.221  0.2034 -0.2395 -0.2680
    5CHTO  H100 1900   6.620   4.373   5.174 -0.7397 -0.9155 -0.7037
    5CHTO   C57 1901   6.463   4.322   5.390 -0.1227  0.6067  0.3126
    5CHTO  H114 1902   6.448   4.422   5.349  1.8458  2.0587  2.9703
    5CHTO   N10 1903   6.541   4.348   5.513 -0.1344  0.3931 -0.3031
    5CHTO  H106 1904   6.493   4.351   5.610  0.3692 -1.5499  0.0212
    5CHTO  H107 1905   6.615   4.270   5.518 -0.5872  0.0484  1.5803
    5CHTO   C58 1906   6.329   4.255   5.422  0.6864 -0.1781 -0.0022
    5CHTO  H115 1907   6.354   4.154   5.462 -1.6770 -0.5297  0.6852
    5CHTO   O37 1908   6.251   4.222   5.306 -0.2052  0.3036 -0.0206
    5CHTO   C59 1909   6.313   4.139   5.213 -0.4155 -0.0988  0.8764
    5CHTO  H116 1910   6.340   4.044   5.260 -0.6270 -0.6786 -0.1565
    5CHTO   C70 1911   6.220   4.101   5.097  0.7708 -0.7977 -0.1051
    5CHTO   O46 1912   6.249   3.989   5.020  0.0166  0.3633  0.2838
    5CHTO  H103 1913   6.201   3.987   4.940  2.0046 -2.0307 -0.9528
    5CHTO   O39 1914   6.231   4.347   5.522  0.0614  0.2232 -1.0215
    5CHTO   C60 1915   6.102   4.282   5.556  0.0791  0.2055  0.1846
    5CHTO  H117 1916   6.060   4.238   5.465  1.0647  0.7297 -0.5397
    5CHTO   C62 1917   6.125   4.178   5.671  0.3886  0.0441  0.1641
    5CHTO  H119 1918   6.192   4.099   5.630 -1.7156 -0.2179 -2.8992
    5CHTO   O43 1919   6.204   4.243   5.770  0.2825 -0.0820 -0.4266
    5CHTO  H101 1920   6.225   4.173   5.829  1.7873 -1.1009 -2.1227
    5CHTO   C66 1921   5.991   4.114   5.726 -0.2317  0.1917 -0.4828
    5CHTO  H123 1922   5.933   4.058   5.652 -1.4255  1.2284 -0.3489
    5CHTO   N12 1923   6.020   3.999   5.818  0.5609 -0.4583 -0.5985
    5CHTO  H110 1924   5.934   3.939   5.843 -0.8775  1.3548 -1.0342
    5CHTO  H111 1925   6.063   4.044   5.907  1.1352  0.1585 -1.1831
    5CHTO   C69 1926   5.894   4.225   5.773 -0.3966 -0.3290  0.3349
    5CHTO  H126 1927   5.948   4.281   5.852  0.1315 -0.7448  0.2709
    5CHTO   O41 1928   5.868   4.315   5.656  0.0253 -0.1129  0.2107
    5CHTO   C64 1929   5.997   4.385   5.605 -0.0047  0.4414 -0.3722
    5CHTO  H121 1930   6.034   4.445   5.690  0.9454 -0.1673 -0.3382
    5CHTO   C71 1931   5.966   4.484   5.490 -0.2194 -0.7075 -0.3131
    5CHTO   O47 1932   5.890   4.592   5.539  0.3884 -0.5298  0.1354
    5CHTO  H104 1933   5.945   4.668   5.538  1.3757 -1.2028 -3.0970
    5CHTO   O34 1934   5.755   4.179   5.834 -0.0105 -0.8305  0.7325
    5CHTO   C49 1935   5.671   4.261   5.939 -0.6906  0.6532  0.2980
    5CHTO   H91 1936   5.742   4.277   6.021 -2.4244 -0.2360  2.0078
    5CHTO   C47 1937   5.548   4.186   5.984  0.6330 -0.0543 -0.1930
    5CHTO   H89 1938   5.513   4.236   6.077  2.8349  2.7220 -0.7612
    5CHTO   O33 1939   5.586   4.054   6.014  0.3004 -0.0368  0.0399
    5CHTO   H70 1940   5.660   4.039   6.069  1.1003  1.0261 -0.7121
    5CHTO   C45 1941   5.428   4.197   5.874 -1.1824 -0.0395  0.2004
    5CHTO   H87 1942   5.465   4.154   5.780  0.0297 -0.1423  0.7157
    5CHTO    N8 1943   5.309   4.120   5.916 -0.1880 -0.0775  0.4540
    5CHTO   H75 1944   5.332   4.017   5.936  1.2887  0.4355  1.4364
    5CHTO   H76 1945   5.248   4.182   5.980 -1.3381  1.5090 -2.0869
    5CHTO   C43 1946   5.404   4.357   5.835  0.8413  0.0267  0.0016
    5CHTO   H85 1947   5.339   4.355   5.747 -2.0021 -1.9858  2.0627
    5CHTO   O29 1948   5.526   4.426   5.809  0.5703 -0.1605 -0.9891
    5CHTO   C50 1949   5.637   4.404   5.894 -0.2900 -0.5250 -0.7376
    5CHTO   H92 1950   5.718   4.445   5.832  0.7287  3.5298  3.0528
    5CHTO   C54 1951   5.642   4.512   6.006 -0.3233 -0.8146 -0.5866
    5CHTO   O36 1952   5.734   4.619   5.971  0.1597  0.3804 -0.1071
    5CHTO   H72 1953   5.735   4.679   6.042 -3.4650 -0.2072  0.5455
    5CHTO   O27 1954   5.332   4.429   5.940 -0.3348 -0.0904 -0.0086
    5CHTO   C37 1955   5.259   4.539   6.000  0.1906 -0.9224 -0.3879
    5CHTO   H79 1956   5.324   4.623   6.031 -0.6217 -0.6535  0.6278
    5CHTO   C38 1957   5.152   4.594   5.909 -0.1759 -0.3844  0.1993
    5CHTO   H80 1958   5.093   4.511   5.867 -0.4833  0.2558 -0.6367
    5CHTO   O31 1959   5.219   4.659   5.801 -0.1976  0.0088 -0.7991
    5CHTO   H68 1960   5.295   4.611   5.773 -1.1448 -0.0890 -3.3410
    5CHTO   C39 1961   5.051   4.695   5.985  0.2545 -0.7426  0.3955
    5CHTO   H81 1962   5.110   4.779   6.022 -1.4746  0.2763  0.8893
    5CHTO    N7 1963   4.945   4.752   5.896  0.2675  0.5598  0.1149
    5CHTO   H73 1964   4.983   4.783   5.800  0.6879  2.5229  0.9045
    5CHTO   H74 1965   4.854   4.788   5.941 -1.0615 -3.2206  0.7000
    5CHTO   C40 1966   4.999   4.625   6.118 -0.5800 -0.4106  0.0959
    5CHTO   H82 1967   4.936   4.540   6.091 -0.2471 -0.0916 -1.7741
    5CHTO   O26 1968   5.112   4.590   6.198 -0.0953 -0.0855 -0.1442
    5CHTO   C41 1969   5.184   4.485   6.128  0.6179 -0.7462  0.2526
    5CHTO   H83 1970   5.107   4.422   6.081 -1.9747  2.6707 -0.2797
    5CHTO   C52 1971   5.279   4.398   6.209  0.0580 -0.2061 -0.4641
    5CHTO   O35 1972   5.375   4.480   6.286  0.2246 -0.0520 -0.5375
    5CHTO   H71 1973   5.436   4.513   6.224  0.0791 -2.5435 -2.0747
    5CHTO   O28 1974   4.919   4.718   6.194 -0.0443 -0.2958 -0.3101
    5CHTO   C42 1975   4.901   4.733   6.334  0.4538  0.3780  1.2128
    5CHTO   H84 1976   4.804   4.783   6.332  0.6462  0.7214 -0.1308
    5CHTO   C44 1977   5.002   4.837   6.401  0.5843  0.3529 -0.0575
    5CHTO   H86 1978   5.099   4.803   6.367  0.2879  0.3220 -0.8687
    5CHTO   O32 1979   4.965   4.969   6.358  0.0504 -0.2243 -0.0885
    5CHTO   H69 1980   4.956   5.015   6.440  0.9970  1.2153 -0.7669
    5CHTO   C48 1981   5.018   4.825   6.557 -0.0429  0.0957 -0.7740
    5CHTO   H90 1982   4.926   4.860   6.604  0.5647 -1.2608  1.5013
    5CHTO    N9 1983   5.132   4.911   6.606  0.1171  0.1911  1.0963
    5CHTO   H77 1984   5.157   4.910   6.711  3.0650  1.0899  0.4529
    5CHTO   H78 1985   5.217   4.871   6.553 -1.5755 -1.0253 -0.7555
    5CHTO   C51 1986   5.040   4.673   6.588  0.3638 -0.1941 -0.2149
    5CHTO   H93 1987   5.114   4.634   6.519  0.0606 -0.2909 -0.4855
    5CHTO   O30 1988   4.911   4.606   6.574 -0.3064  0.3136  0.3892
    5CHTO   C46 1989   4.885   4.593   6.413 -0.1935  0.5069  0.2909
    5CHTO   H88 1990   4.956   4.519   6.377 -0.9604 -0.1322  0.0844
    5CHTO   C53 1991   4.737   4.538   6.395  0.5042  0.3587  0.2570
    5CHTO   O72 1992   4.638   4.636   6.439 -0.1529 -0.4080 -0.5312
    5CHTO  H199 1993   4.660   4.682   6.518  0.9718  0.3991 -1.2990
    5CHTO   O22 1994   5.082   4.647   6.728 -0.2990 -0.7206  0.7155
    5CHTO   C31 1995   5.183   4.542   6.761 -0.2470  0.0006 -0.3020
    5CHTO   H59 1996   5.175   4.520   6.870 -1.8490  0.7573 -0.2567
    5CHTO   C29 1997   5.149   4.413   6.691  0.3614  0.2978 -0.2392
    5CHTO   H57 1998   5.126   4.433   6.585  0.4302  0.6516 -0.1866
    5CHTO   O21 1999   5.030   4.360   6.741  0.1766 -0.1683 -0.5579
    5CHTO   H37 2000   5.042   4.324   6.827  1.7322  0.6550 -0.4081
    5CHTO   C27 2001   5.263   4.307   6.696  0.3172  0.1021  0.5701
    5CHTO   H55 2002   5.292   4.289   6.801 -0.7778 -2.4586  0.4847
    5CHTO    N5 2003   5.229   4.175   6.635 -0.6000  0.1707 -0.3240
    5CHTO   H43 2004   5.251   4.182   6.529 -1.5248  2.6417 -0.3801
    5CHTO   H44 2005   5.267   4.093   6.693  0.0078  0.2471 -0.6085
    5CHTO   C25 2006   5.387   4.375   6.630 -0.0965 -0.4609 -0.0340
    5CHTO   H53 2007   5.355   4.399   6.528  0.9651 -0.0727 -0.2810
    5CHTO   O17 2008   5.429   4.491   6.715  0.1138  0.5526 -0.3716
    5CHTO   C32 2009   5.330   4.592   6.731  0.2995 -0.1931 -0.9454
    5CHTO   H60 2010   5.331   4.647   6.637  0.3777  1.2381 -0.1269
    5CHTO   C36 2011   5.388   4.671   6.854 -0.2069 -0.0920 -0.0543
    5CHTO   O25 2012   5.515   4.735   6.822 -0.1289  0.6347 -0.6294
    5CHTO   H40 2013   5.499   4.822   6.792 -1.5151  1.7952  3.2180
    5CHTO   O15 2014   5.526   4.275   6.628 -0.7296 -0.0794  0.5274
    5CHTO   C19 2015   5.654   4.338   6.602  0.2022  0.1536 -0.0918
    5CHTO   H47 2016   5.634   4.442   6.573  1.3933 -0.1042 -1.9321
    5CHTO   C20 2017   5.748   4.341   6.730 -0.2750  0.0148  0.5843
    5CHTO   H48 2018   5.773   4.240   6.767  0.8066 -0.0031 -0.1665
    5CHTO   O19 2019   5.679   4.403   6.843  0.3141 -0.0654 -0.3169
    5CHTO   H35 2020   5.671   4.493   6.818  1.9408 -0.0853 -0.9889
    5CHTO   C21 2021   5.893   4.399   6.703 -0.3147 -0.1583 -0.3287
    5CHTO   H49 2022   5.886   4.502   6.668 -1.1929 -0.9275 -2.4851
    5CHTO    N4 2023   5.984   4.389   6.818  0.0579  0.4660 -0.2406
    5CHTO   H41 2024   6.015   4.286   6.824 -0.5127  0.2442 -1.1361
    5CHTO   H42 2025   6.069   4.456   6.817 -0.4983  1.1608 -1.9659
    5CHTO   C22 2026   5.947   4.333   6.571 -0.3869 -0.1145 -0.3237
    5CHTO   H50 2027   5.976   4.229   6.584  0.8508  0.2122 -0.3951
    5CHTO   O14 2028   5.850   4.341   6.462 -0.3219 -0.2875  0.3862
    5CHTO   C23 2029   5.727   4.265   6.482  0.7902 -0.6654 -0.1778
    5CHTO   H51 2030   5.754   4.161   6.505 -2.4618 -1.1034  1.9615
    5CHTO   C34 2031   5.643   4.275   6.354 -0.2213  0.7187 -0.5690
    5CHTO   O23 2032   5.532   4.182   6.350 -0.5898  0.2565 -0.6936
    5CHTO   H38 2033   5.562   4.097   6.322 -0.7004 -0.4338  1.2059
    5CHTO   O16 2034   6.050   4.410   6.508 -0.5656  0.3543 -0.0331
    5CHTO   C24 2035   6.182   4.306   6.460 -0.4899 -0.1499 -0.1139
    5CHTO   H52 2036   6.188   4.213   6.517 -0.7601  0.6011  1.1680
    5CHTO   C26 2037   6.311   4.388   6.491  0.2314 -0.0380  0.2198
    5CHTO   H54 2038   6.313   4.473   6.419  0.2246 -0.2731 -0.0580
    5CHTO   O20 2039   6.309   4.412   6.633 -0.5935 -0.0473  0.8257
    5CHTO   H36 2040   6.336   4.333   6.675  0.5212 -0.6675 -0.9705
    5CHTO   C30 2041   6.432   4.310   6.434  0.1042 -0.6995 -0.2514
    5CHTO   H58 2042   6.444   4.209   6.477 -0.3719 -0.9358 -0.6790
    5CHTO    N6 2043   6.561   4.381   6.453 -0.0947  0.0828  0.1714
    5CHTO   H45 2044   6.617   4.387   6.362  0.4111 -0.0273  0.4753
    5CHTO   H46 2045   6.538   4.480   6.491 -2.0372 -0.3308  0.1430
    5CHTO   C33 2046   6.415   4.273   6.287  0.0776  0.2291 -0.1933
    5CHTO   H61 2047   6.412   4.358   6.217 -1.2523  0.2000 -0.1920
    5CHTO   O18 2048   6.288   4.201   6.276  0.3281  0.6169  0.1735
    5CHTO   C28 2049   6.171   4.269   6.309  0.5931 -0.5383  0.2191
    5CHTO   H56 2050   6.167   4.358   6.246  1.6025  0.5188  1.6127
    5CHTO   C35 2051   6.050   4.182   6.267  0.5899 -0.5093 -0.0053
    5CHTO   O24 2052   6.047   4.060   6.342 -0.0371  0.2760  0.3013
    5CHTO   H39 2053   5.990   4.057   6.416 -0.3523  1.2359  0.0935
    5CHTO    O9 2054   6.526   4.192   6.241 -0.4955 -0.4923 -0.0239
    5CHTO   C13 2055   6.521   4.157   6.083 -0.4776 -0.3410  0.0789
    5CHTO   H26 2056   6.466   4.235   6.026  0.6415 -0.1997 -0.8460
    5CHTO   C11 2057   6.465   4.011   6.052 -0.5636  0.1307  0.2649
    5CHTO   H24 2058   6.361   4.014   6.086 -0.8356 -0.1435 -0.5410
    5CHTO    O8 2059   6.543   3.911   6.124 -0.4214  0.7087 -0.0789
    5CHTO    H3 2060   6.481   3.849   6.156 -2.2948  1.3125 -2.3913
    5CHTO    C9 2061   6.471   3.995   5.898 -0.4830 -0.4798 -0.6530
    5CHTO   H22 2062   6.398   4.069   5.862 -0.1525 -0.6556 -1.7193
    5CHTO    N2 2063   6.403   3.869   5.860  0.4376  0.3167  0.5276
    5CHTO   H10 2064   6.415   3.832   5.759  0.3863 -0.5745  0.8442
    5CHTO   H11 2065   6.300   3.890   5.883 -0.2614 -3.3765  1.0933
    5CHTO    C7 2066   6.615   4.027   5.829  0.3538 -0.7416  0.1936
    5CHTO   H20 2067   6.592   4.122   5.776  1.3415 -1.5533 -1.7060
    5CHTO    O4 2068   6.706   4.065   5.936 -0.0143  0.7369 -0.0461
    5CHTO   C14 2069   6.668   4.175   6.017  0.6795  0.4330 -0.5565
    5CHTO   H27 2070   6.664   4.253   5.939  0.0624  1.0458  0.0779
    5CHTO   C18 2071   6.789   4.201   6.116 -0.1592  0.1102  0.1012
    5CHTO   O13 2072   6.909   4.212   6.043 -0.5009  0.1970  0.2206
    5CHTO    H7 2073   6.975   4.250   6.098  1.6505  0.2104 -2.2891
    5CHTO    O2 2074   6.683   3.914   5.739 -0.1302 -0.3669 -0.3776
    5CHTO    C1 2075   6.715   3.955   5.606  0.4410  0.7016  0.1287
    5CHTO   H14 2076   6.679   4.056   5.578 -1.8724  0.3628  1.7393
    5CHTO    C2 2077   6.637   3.854   5.503 -0.1884  0.2233  0.4759
    5CHTO   H15 2078   6.645   3.749   5.534  0.4282 -0.3981 -1.6678
    5CHTO    O6 2079   6.499   3.886   5.498  0.1139 -0.0149  0.3255
    5CHTO    H1 2080   6.479   3.975   5.520 -0.8514  0.0901 -0.9317
    5CHTO    C3 2081   6.691   3.878   5.358 -0.8219 -0.8612  0.4380
    5CHTO   H16 2082   6.661   3.977   5.320 -0.9138 -0.1813  2.2581
    5CHTO    N1 2083   6.630   3.779   5.256 -0.1112 -0.6131 -0.7794
    5CHTO    H8 2084   6.649   3.675   5.279 -1.0047 -0.4489  0.7944
    5CHTO    H9 2085   6.671   3.808   5.161 -0.0817  1.2336 -0.2223
    5CHTO    C4 2086   6.850   3.892   5.353 -0.1815  0.6464  0.3300
    5CHTO   H17 2087   6.892   3.792   5.368 -1.7010 -0.0567  0.0229
    5CHTO    O1 2088   6.896   3.979   5.454 -0.2203  0.0648  0.6360
    5CHTO    C5 2089   6.872   3.955   5.591  0.3048  0.0251  0.1797
    5CHTO   H18 2090   6.916   3.858   5.613  0.3585 -0.2063 -0.9172
    5CHTO   C16 2091   6.947   4.057   5.675 -0.9700 -0.1458  0.3043
    5CHTO   O11 2092   6.908   4.193   5.664 -0.1356  0.3126 -0.0245
    5CHTO    H5 2093   6.978   4.246   5.632  0.5620 -1.0705 -0.8010
    5CHTO    O3 2094   6.892   3.950   5.233 -0.6391  0.0315  0.0765
    5CHTO    C6 2095   7.038   3.931   5.207 -0.4715 -0.4284 -0.2156
    5CHTO   H19 2096   7.099   3.894   5.290  1.5828  2.1197 -0.5082
    5CHTO    C8 2097   7.055   3.839   5.082 -0.1182 -0.3277 -0.0519
    5CHTO   H21 2098   7.003   3.884   4.997  0.4779 -3.0930 -1.9394
    5CHTO    O7 2099   6.983   3.718   5.114  0.4383 -0.5561  0.9322
    5CHTO    H2 2100   7.032   3.675   5.181  1.7685 -1.3973 -0.5367
    5CHTO   C12 2101   7.205   3.825   5.050 -0.6262 -0.0890 -0.8986
    5CHTO   H25 2102   7.263   3.778   5.132  1.3462  1.5822 -1.2966
    5CHTO    N3 2103   7.237   3.731   4.938  0.3808 -0.3292 -0.5329
    5CHTO   H12 2104   7.212   3.771   4.841  1.0890 -0.0039 -0.5814
    5CHTO   H13 2105   7.343   3.709   4.945  0.5975  1.5346  3.0639
    5CHTO   C15 2106   7.263   3.975   5.028  0.7223 -0.3210 -0.5872
    5CHTO   H28 2107   7.218   4.018   4.938 -0.2169 -0.2245 -0.0773
    5CHTO   O10 2108   7.413   3.983   5.007 -0.1530  0.1723 -0.0431
    5CHTO    H4 2109   7.456   3.901   5.021  1.4438  0.8142 -1.1113
    5CHTO    O5 2110   7.241   4.064   5.140  0.0801  0.2151  0.2389
    5CHTO   C10 2111   7.096   4.073   5.168 -0.6534  0.9263  0.7141
    5CHTO   H23 2112   7.043   4.105   5.079  2.5703 -0.0762 -1.6742
    5CHTO   C17 2113   7.070   4.178   5.285 -0.3704 -0.6003 -0.0196
    5CHTO   O12 2114   7.124   4.309   5.269 -0.0477  0.0325 -0.1616
    5CHTO    H6 2115   7.218   4.303   5.260 -0.0392  0.8501 -0.6321
    6CHTO  H203 2116   7.582   6.018   2.185 -0.6504 -0.2550  3.4287
    6CHTO   O82 2117   7.512   5.959   2.164  0.2393 -0.2535  0.1897
    6CHTO  C123 2118   7.387   6.028   2.192  0.5769 -0.2587  0.1181
    6CHTO  H227 2119   7.402   6.133   2.164  1.0127 -0.7347 -1.4779
    6CHTO   O77 2120   7.292   5.971   2.104 -0.0213 -0.9812 -0.0592
    6CHTO  C118 2121   7.163   6.022   2.119 -0.4797  0.0093  0.5911
    6CHTO  H222 2122   7.158   6.132   2.113 -1.0030 -0.0751 -0.9059
    6CHTO  C125 2123   7.077   5.958   2.003  0.6155 -0.1631  0.2919
    6CHTO   O84 2124   7.094   6.017   1.878  0.2485 -0.7274 -0.2339
    6CHTO  H205 2125   7.012   6.055   1.852  0.2054  0.1926  1.2154
    6CHTO  C114 2126   7.113   5.979   2.257  0.2192 -0.2094  0.3426
    6CHTO  H218 2127   7.127   5.871   2.267  0.8782 -0.0914  0.6913
    6CHTO  C116 2128   7.199   6.049   2.365 -0.1852  0.6545  0.1984
    6CHTO  H220 2129   7.187   6.159   2.357  0.4398  0.8454  1.7435
    6CHTO   O79 2130   7.145   6.018   2.490  0.5536 -0.2721  0.0712
    6CHTO  H201 2131   7.146   5.925   2.495  0.2205 -0.3337 -0.8732
    6CHTO  C120 2132   7.351   6.011   2.342 -0.0227 -0.0155  0.2492
    6CHTO  H224 2133   7.359   5.904   2.372  2.3794  0.1406  0.2384
    6CHTO   N21 2134   7.438   6.075   2.438 -0.3034  0.6556 -0.3702
    6CHTO  H211 2135   7.475   6.170   2.401 -0.6724  1.7887  2.0464
    6CHTO  H212 2136   7.517   6.009   2.471 -1.7008 -0.3932  0.9326
    6CHTO   O75 2137   6.970   6.014   2.254  0.1079  0.3183 -0.1789
    6CHTO  C112 2138   6.866   5.905   2.315 -0.1490 -0.6430 -0.5349
    6CHTO  H216 2139   6.911   5.857   2.403  0.3000  0.2600 -0.2756
    6CHTO   O73 2140   6.838   5.814   2.203  0.3427 -0.7458 -0.3822
    6CHTO  C113 2141   6.731   5.730   2.229 -0.7563  0.0979  0.2820
    6CHTO  H217 2142   6.755   5.665   2.316  0.2375 -0.0518 -0.0978
    6CHTO  C124 2143   6.709   5.636   2.103  0.4720  0.0600  0.4495
    6CHTO   O83 2144   6.702   5.716   1.989 -0.6679  0.4926 -0.3599
    6CHTO  H204 2145   6.762   5.788   1.993  0.0302 -0.1892  2.6237
    6CHTO  C109 2146   6.599   5.794   2.283 -0.0954  0.1822  0.0459
    6CHTO  H213 2147   6.551   5.850   2.201 -0.3323  0.3561  0.3023
    6CHTO  C110 2148   6.625   5.896   2.393 -0.1544 -0.4109 -0.2044
    6CHTO  H214 2149   6.645   5.841   2.486 -0.0371 -0.3936 -0.2193
    6CHTO   O78 2150   6.503   5.972   2.420  0.3640 -0.5687  0.4042
    6CHTO  H200 2151   6.432   5.920   2.452 -0.0450 -0.1615  0.1601
    6CHTO  C111 2152   6.743   5.989   2.362 -0.0932  0.7044 -1.3095
    6CHTO  H215 2153   6.710   6.056   2.282 -0.2832  1.1405 -0.8679
    6CHTO   N19 2154   6.783   6.070   2.479 -0.2546 -0.3929  0.0133
    6CHTO  H207 2155   6.804   6.008   2.564  0.4204 -0.6677 -0.3466
    6CHTO  H208 2156   6.872   6.128   2.459  0.2214 -0.7330  1.1058
    6CHTO   O74 2157   6.503   5.685   2.336 -0.5678  0.5876  0.4859
    6CHTO  C115 2158   6.341   5.744   2.302 -0.5079  0.7127  0.1544
    6CHTO  H219 2159   6.339   5.844   2.260  0.6289  0.0023 -1.6634
    6CHTO   O76 2160   6.277   5.654   2.195 -0.4245  0.0334  0.1944
    6CHTO  C122 2161   6.286   5.520   2.232 -0.1220 -0.1439 -0.7772
    6CHTO  H226 2162   6.391   5.490   2.218 -0.1782 -0.8938  0.3216
    6CHTO  C126 2163   6.212   5.440   2.120  0.1297 -0.1544 -1.0601
    6CHTO   O85 2164   6.217   5.300   2.125  0.1089  0.2419 -0.3139
    6CHTO  H206 2165   6.156   5.267   2.188  1.5197 -0.2522  0.8099
    6CHTO  C121 2166   6.246   5.480   2.377 -0.2751  0.2065 -0.2923
    6CHTO  H225 2167   6.172   5.397   2.378 -0.4225  0.3501  0.9127
    6CHTO   O81 2168   6.359   5.440   2.450 -0.0294 -0.0470  0.2665
    6CHTO  H202 2169   6.346   5.351   2.476  1.8319  0.0015  1.4194
    6CHTO  C119 2170   6.183   5.598   2.460 -0.4125 -0.5909  0.3535
    6CHTO  H223 2171   6.082   5.596   2.418 -1.0750  0.8772  1.8553
    6CHTO  C117 2172   6.257   5.740   2.435  0.3353  0.0321  0.2282
    6CHTO  H221 2173   6.332   5.768   2.510  2.0291  1.3991 -1.9101
    6CHTO   N20 2174   6.158   5.852   2.441 -0.4963 -0.3361 -0.4327
    6CHTO  H209 2175   6.216   5.942   2.449  0.3057 -0.8813 -0.0120
    6CHTO  H210 2176   6.094   5.852   2.354 -1.8225 -0.0925  0.5307
    6CHTO   O80 2177   6.162   5.567   2.598  0.2080 -0.2413 -0.4057
    6CHTO  C103 2178   6.010   5.571   2.668 -0.7863 -0.7091  0.9880
    6CHTO  H190 2179   6.021   5.554   2.775  0.2601  0.5298  1.0833
    6CHTO  C101 2180   5.936   5.698   2.647  0.6487 -0.2844 -0.6483
    6CHTO  H188 2181   5.923   5.715   2.540  1.2454  3.2349 -0.2235
    6CHTO   O68 2182   6.017   5.832   2.710 -0.5106 -0.7857  0.1830
    6CHTO  H168 2183   5.955   5.888   2.752  0.1227  0.7481 -0.8686
    6CHTO   C99 2184   5.786   5.674   2.705 -1.0177 -0.0753  0.3558
    6CHTO  H186 2185   5.797   5.657   2.814  1.3147  1.6004  0.4205
    6CHTO   N17 2186   5.702   5.793   2.692 -0.4657  0.2215 -0.2691
    6CHTO  H174 2187   5.663   5.793   2.591  1.3743 -0.5831 -0.9960
    6CHTO  H175 2188   5.768   5.877   2.706 -2.2603  1.3100  1.9104
    6CHTO   C97 2189   5.726   5.544   2.638  0.5007  0.8658 -0.2830
    6CHTO  H184 2190   5.712   5.557   2.530  1.4972  0.7779 -0.4336
    6CHTO   O64 2191   5.813   5.430   2.662 -0.5870  0.5532 -0.4346
    6CHTO  C104 2192   5.945   5.440   2.614 -0.6340  0.6397  0.2534
    6CHTO  H191 2193   5.954   5.438   2.505  1.1486 -1.7623  0.3980
    6CHTO  C108 2194   6.027   5.318   2.670  0.3511  0.5257 -0.6556
    6CHTO   O71 2195   6.058   5.320   2.810  0.7023 -0.0944  0.7318
    6CHTO  H171 2196   6.106   5.243   2.834  1.0961  0.1003  0.5694
    6CHTO   O62 2197   5.593   5.510   2.696  0.0602  0.7409 -0.2884
    6CHTO   C91 2198   5.586   5.458   2.828 -0.0762  0.3049  0.2436
    6CHTO  H178 2199   5.670   5.501   2.883 -0.3645  1.2526 -0.0417
    6CHTO   C92 2200   5.590   5.305   2.819 -0.7164  0.2168 -0.0541
    6CHTO  H179 2201   5.668   5.279   2.745  0.0354 -2.3860  1.6198
    6CHTO   O66 2202   5.643   5.255   2.948  0.8544  0.0659  0.3435
    6CHTO  H166 2203   5.574   5.257   3.013 -0.2513  1.2928 -0.8514
    6CHTO   C93 2204   5.455   5.240   2.802 -0.1143  0.0549  0.9108
    6CHTO  H180 2205   5.471   5.132   2.815  0.3076 -0.0235 -0.1601
    6CHTO   N16 2206   5.400   5.246   2.664 -0.5015  0.9032 -0.7532
    6CHTO  H172 2207   5.293   5.234   2.657 -0.3465 -1.1961 -0.0599
    6CHTO  H173 2208   5.443   5.167   2.605  0.3063  2.4335 -2.2293
    6CHTO   C94 2209   5.350   5.289   2.913  0.9707 -0.1978  0.4210
    6CHTO  H181 2210   5.252   5.307   2.869 -0.0843 -1.5084  2.1714
    6CHTO   O61 2211   5.392   5.403   2.986  0.3844 -0.2695 -0.3160
    6CHTO   C95 2212   5.455   5.504   2.902  0.2407 -0.1002  0.3390
    6CHTO  H182 2213   5.388   5.527   2.819 -0.0549 -1.1556  0.2755
    6CHTO  C106 2214   5.469   5.644   2.972 -0.2738 -0.5040 -0.2731
    6CHTO   O69 2215   5.566   5.631   3.069 -0.0968 -0.0487 -0.2480
    6CHTO  H169 2216   5.642   5.685   3.060  0.3787 -0.3081  1.9435
    6CHTO   O63 2217   5.333   5.177   3.034  0.1512  0.5350  0.0164
    6CHTO   C96 2218   5.244   5.053   2.965  0.1095  0.6765 -1.1203
    6CHTO  H183 2219   5.242   5.068   2.857  0.2149  0.8139 -1.1038
    6CHTO   C98 2220   5.095   5.055   3.014 -1.2760  0.3521  0.0493
    6CHTO  H185 2221   5.085   5.076   3.122  2.0603 -1.5203  0.7863
    6CHTO   O67 2222   5.035   5.170   2.955 -0.4892  0.3223  0.2551
    6CHTO  H167 2223   4.942   5.161   2.965 -0.1784 -1.3509  2.0918
    6CHTO  C102 2224   5.025   4.918   2.982  0.2942 -0.7360 -0.0235
    6CHTO  H189 2225   5.029   4.918   2.872 -0.5256 -0.0302 -0.0635
    6CHTO   N18 2226   4.883   4.914   3.012 -0.2234 -0.2711 -0.3300
    6CHTO  H176 2227   4.846   5.014   3.024  1.0236  0.2195 -0.5537
    6CHTO  H177 2228   4.858   4.858   3.102 -0.8378  2.7492  1.4598
    6CHTO  C105 2229   5.104   4.810   3.047 -0.3717 -0.1779 -0.9181
    6CHTO  H192 2230   5.123   4.833   3.152 -0.1108 -1.0244 -0.7753
    6CHTO   O65 2231   5.229   4.803   2.975 -0.1773 -0.1666 -0.5912
    6CHTO  C100 2232   5.315   4.913   2.999 -0.4256 -0.5291  0.1023
    6CHTO  H187 2233   5.342   4.908   3.105 -0.9143  0.4179  0.2716
    6CHTO  C107 2234   5.445   4.889   2.934 -0.7726  0.3808  0.3857
    6CHTO   O70 2235   5.504   4.770   2.981  0.2533 -0.4870 -0.0056
    6CHTO  H170 2236   5.478   4.697   2.928  1.4314  0.8781 -2.5411
    6CHTO   O57 2237   5.039   4.657   3.017 -0.0507 -0.2595 -0.3128
    6CHTO   C85 2238   5.055   4.544   3.104  0.1070  0.8988 -0.5789
    6CHTO  H157 2239   5.024   4.464   3.033 -0.0166  0.3426  0.0969
    6CHTO   C83 2240   4.947   4.552   3.219  0.2127 -0.0287  0.2893
    6CHTO  H155 2241   4.852   4.518   3.178  1.7307 -0.4658 -3.0145
    6CHTO   O56 2242   4.932   4.688   3.264 -0.9194  0.2779 -0.4182
    6CHTO  H135 2243   4.848   4.687   3.305 -1.7351 -1.8040 -2.0904
    6CHTO   C81 2244   4.976   4.453   3.337 -0.3029 -0.1291  0.3377
    6CHTO  H153 2245   4.955   4.352   3.301  1.3162 -0.4094  0.1187
    6CHTO   N14 2246   4.878   4.466   3.446  0.4965 -0.1235 -0.3619
    6CHTO  H141 2247   4.782   4.428   3.418  1.4289 -1.0546 -2.4430
    6CHTO  H142 2248   4.910   4.412   3.532 -0.7045 -0.6594 -0.2365
    6CHTO   C79 2249   5.131   4.455   3.380 -0.1488 -0.4601 -0.5367
    6CHTO  H151 2250   5.142   4.370   3.446 -0.7055 -0.5875 -0.6104
    6CHTO   O52 2251   5.204   4.424   3.267 -0.3366 -0.3514 -0.5127
    6CHTO   C86 2252   5.198   4.520   3.161  0.3389  0.0574 -0.3079
    6CHTO  H158 2253   5.240   4.616   3.197  0.1402  0.3644 -0.8809
    6CHTO   C90 2254   5.295   4.480   3.049 -0.4910  0.1835 -0.0655
    6CHTO   O60 2255   5.433   4.509   3.082  0.4809  0.0765 -0.0180
    6CHTO  H138 2256   5.455   4.580   3.025 -2.0435  1.6451  0.9139
    6CHTO   O50 2257   5.162   4.577   3.442  0.1631  0.2444 -0.1096
    6CHTO   C73 2258   5.173   4.647   3.565 -0.4094  1.0753  0.1196
    6CHTO  H145 2259   5.129   4.585   3.645 -1.3006 -0.4901 -1.5464
    6CHTO   C74 2260   5.086   4.777   3.553 -0.0569  0.3806 -0.8291
    6CHTO  H146 2261   4.981   4.752   3.531 -0.0286 -0.1117 -0.4198
    6CHTO   O54 2262   5.080   4.835   3.685  0.1484 -0.3591 -0.6597
    6CHTO  H133 2263   5.019   4.906   3.697 -0.0345 -0.3590 -1.5736
    6CHTO   C75 2264   5.158   4.871   3.444  0.9925  0.6354  0.1231
    6CHTO  H147 2265   5.140   4.824   3.347  0.4908  0.3525  0.3522
    6CHTO   N13 2266   5.089   5.001   3.442 -0.1980  0.4559  0.1624
    6CHTO  H139 2267   4.990   4.989   3.402  1.1763 -1.4965 -2.7741
    6CHTO  H140 2268   5.088   5.050   3.539  0.8441  0.5271  0.1406
    6CHTO   C76 2269   5.314   4.882   3.468 -0.2839  0.4953 -0.2484
    6CHTO  H148 2270   5.315   4.928   3.567  1.1299  0.3225 -0.1726
    6CHTO   O49 2271   5.381   4.751   3.483  0.0125 -0.4642 -0.1774
    6CHTO   C77 2272   5.319   4.681   3.595  0.5992 -0.5011  0.3188
    6CHTO  H149 2273   5.324   4.753   3.678  1.4209  2.1604 -1.9590
    6CHTO   C88 2274   5.400   4.561   3.639  0.4696 -0.0522  0.2456
    6CHTO   O58 2275   5.555   4.621   3.641  0.1832  0.5174  0.1548
    6CHTO  H136 2276   5.615   4.559   3.678 -0.9561 -1.4192 -1.1124
    6CHTO   O51 2277   5.390   4.952   3.353  0.1895  0.0660 -0.4896
    6CHTO   C78 2278   5.501   5.071   3.383 -0.4688 -0.5492  0.4272
    6CHTO  H150 2279   5.550   5.066   3.482  2.2098  2.1367 -0.6838
    6CHTO   C80 2280   5.440   5.213   3.377  0.2488  0.5574 -0.2901
    6CHTO  H152 2281   5.404   5.232   3.274  1.6894  3.7806 -0.2814
    6CHTO   O55 2282   5.340   5.221   3.481 -0.7362  0.2414 -0.4091
    6CHTO  H134 2283   5.388   5.212   3.561  0.2463  2.6103 -0.7027
    6CHTO   C84 2284   5.544   5.328   3.398 -0.2524  0.4577 -0.2078
    6CHTO  H156 2285   5.556   5.313   3.505 -0.4514  0.8691 -0.1283
    6CHTO   N15 2286   5.487   5.467   3.376  0.1009  0.4630 -0.1354
    6CHTO  H143 2287   5.380   5.473   3.369  0.0305 -0.0303  0.4681
    6CHTO  H144 2288   5.525   5.522   3.292 -0.4260  4.7896  2.3158
    6CHTO   C87 2289   5.665   5.299   3.313 -0.3177 -0.7137 -0.1400
    6CHTO  H159 2290   5.645   5.320   3.209 -1.0111  1.3320  0.3901
    6CHTO   O53 2291   5.706   5.157   3.321  0.2269  0.2969  0.3089
    6CHTO   C82 2292   5.618   5.059   3.281  0.6177 -0.0866  0.2919
    6CHTO  H154 2293   5.587   5.077   3.178  0.2400 -3.0249 -0.1444
    6CHTO   C89 2294   5.673   4.917   3.282  0.6976 -0.3010 -0.2649
    6CHTO   O59 2295   5.736   4.883   3.407  0.0631  0.3179  0.0652
    6CHTO  H137 2296   5.678   4.888   3.481  0.3308  3.2639  0.1168
    6CHTO   O45 2297   5.808   5.385   3.367  0.3474  0.2494  0.1931
    6CHTO   C67 2298   5.911   5.381   3.266  0.0810  0.7755  0.6585
    6CHTO  H124 2299   5.895   5.293   3.205 -1.7132  0.5054  1.4974
    6CHTO   C65 2300   5.882   5.516   3.185 -0.6959 -0.3464 -0.0401
    6CHTO  H122 2301   5.780   5.551   3.203  0.1656  3.9539 -2.9620
    6CHTO   O44 2302   5.896   5.487   3.042  0.2784  0.0627  0.1844
    6CHTO  H102 2303   5.983   5.458   3.021  0.4398  1.2992 -0.9041
    6CHTO   C63 2304   5.979   5.629   3.224 -0.9063 -0.4396 -0.5079
    6CHTO  H120 2305   5.980   5.639   3.332  2.6203 -1.0699 -0.4097
    6CHTO   N11 2306   5.945   5.768   3.175  1.0780 -0.0981 -0.0544
    6CHTO  H108 2307   5.891   5.808   3.258 -0.5591 -1.9151 -0.2144
    6CHTO  H109 2308   6.039   5.821   3.178  1.6310 -1.0720 -0.0593
    6CHTO   C61 2309   6.126   5.580   3.191 -0.3577  0.0117 -0.1986
    6CHTO  H118 2310   6.202   5.645   3.237 -0.9669  0.8080 -0.3060
    6CHTO   O40 2311   6.154   5.446   3.238 -0.5145  0.7229  0.1693
    6CHTO   C68 2312   6.055   5.381   3.327  0.0382  0.1802 -0.7806
    6CHTO  H125 2313   6.050   5.441   3.420  0.7003 -3.2600  1.5755
    6CHTO   C72 2314   6.102   5.241   3.365 -0.7540  0.0368  0.4717
    6CHTO   O48 2315   6.216   5.239   3.451 -0.4582 -0.0501  0.6311
    6CHTO  H105 2316   6.278   5.302   3.419 -0.1122  0.1347  1.6351
    6CHTO   O38 2317   6.152   5.562   3.047  0.2014  0.6022  0.0750
    6CHTO   C55 2318   6.282   5.602   3.003 -0.6158 -0.5308  0.3983
    6CHTO  H112 2319   6.350   5.597   3.090  0.8101  0.2691 -0.6450
    6CHTO   C56 2320   6.288   5.741   2.937 -0.4267  0.5916 -0.0388
    6CHTO  H113 2321   6.215   5.741   2.854 -0.1749  0.7012 -0.2649
    6CHTO   O42 2322   6.245   5.835   3.035 -0.2117  0.4703 -0.1793
    6CHTO  H100 2323   6.307   5.904   3.048 -0.6734  0.7867  0.3302
    6CHTO   C57 2324   6.429   5.772   2.875 -0.4826 -0.6608  0.0637
    6CHTO  H114 2325   6.506   5.782   2.951 -0.5787 -1.3588  0.2538
    6CHTO   N10 2326   6.433   5.895   2.794  0.1729 -0.3462 -0.3291
    6CHTO  H106 2327   6.331   5.929   2.777  0.2396  0.0395  0.0255
    6CHTO  H107 2328   6.487   5.974   2.844  0.0701 -0.9106  0.6835
    6CHTO   C58 2329   6.474   5.653   2.781 -0.1150 -0.0675  0.2462
    6CHTO  H115 2330   6.396   5.643   2.702 -0.6183 -0.9120  0.8358
    6CHTO   O37 2331   6.470   5.532   2.859 -0.3480 -0.5201  0.4369
    6CHTO   C59 2332   6.335   5.495   2.899 -0.0225  0.4461 -1.3450
    6CHTO  H116 2333   6.257   5.500   2.823 -0.1744 -0.2702 -1.2451
    6CHTO   C70 2334   6.342   5.348   2.948  0.3099  0.2802 -0.5384
    6CHTO   O46 2335   6.412   5.330   3.079  0.1281  0.1257  0.4203
    6CHTO  H103 2336   6.369   5.370   3.153 -1.1554 -4.0374  2.0668
    6CHTO   O39 2337   6.631   5.679   2.697  0.2001  0.5759  0.2437
    6CHTO   C60 2338   6.736   5.583   2.716  0.1801  0.1417  0.5032
    6CHTO  H117 2339   6.741   5.557   2.822  0.9456  0.2798  0.5061
    6CHTO   C62 2340   6.696   5.459   2.634 -0.4469  0.6208 -0.3048
    6CHTO  H119 2341   6.594   5.426   2.664 -1.7037  4.0582 -0.5805
    6CHTO   O43 2342   6.692   5.505   2.499  0.4641 -0.7983 -0.6845
    6CHTO  H101 2343   6.641   5.584   2.493  1.2542 -0.2700 -0.4960
    6CHTO   C66 2344   6.805   5.338   2.655 -0.5911 -0.1955  0.2471
    6CHTO  H123 2345   6.808   5.309   2.760  0.8476  0.6123  0.4343
    6CHTO   N12 2346   6.766   5.214   2.577 -0.0718  0.6512  0.1424
    6CHTO  H110 2347   6.667   5.226   2.536 -0.4296 -1.9476  0.1960
    6CHTO  H111 2348   6.756   5.130   2.643 -1.5425  0.1922 -0.6535
    6CHTO   C69 2349   6.953   5.388   2.625 -0.0586  0.3470  0.9233
    6CHTO  H126 2350   6.982   5.387   2.518 -1.1149 -1.0119  0.6458
    6CHTO   O41 2351   6.981   5.534   2.699 -0.4714  0.2982 -0.6751
    6CHTO   C64 2352   6.874   5.640   2.680  0.5588  0.0814  0.1424
    6CHTO  H121 2353   6.882   5.679   2.576  2.0752  1.2074  0.6768
    6CHTO   C71 2354   6.909   5.742   2.778 -0.3665 -0.0764 -0.0604
    6CHTO   O47 2355   6.834   5.861   2.772  0.0673 -0.1293  0.6958
    6CHTO  H104 2356   6.758   5.843   2.824 -0.6566  0.4735 -0.1412
    6CHTO   O34 2357   7.042   5.295   2.697 -0.5257 -0.2749 -0.1393
    6CHTO   C49 2358   7.153   5.198   2.635 -0.2972 -0.1972  0.1937
    6CHTO   H91 2359   7.098   5.136   2.565 -1.0119  1.8033 -1.0749
    6CHTO   C47 2360   7.211   5.104   2.748  0.0380 -0.5271  0.8871
    6CHTO   H89 2361   7.285   5.041   2.694  0.1750 -2.9248  3.7810
    6CHTO   O33 2362   7.113   5.014   2.795  0.4178  0.3500  0.4249
    6CHTO   H70 2363   7.101   5.044   2.883  0.6649  3.8476 -0.6214
    6CHTO   C45 2364   7.298   5.196   2.852 -0.6328  0.6562 -0.0043
    6CHTO   H87 2365   7.222   5.224   2.927  0.3544  0.9962  0.8763
    6CHTO    N8 2366   7.402   5.107   2.912 -0.4358 -0.0376 -0.1840
    6CHTO   H75 2367   7.354   5.011   2.926 -1.1188  0.1030 -1.4158
    6CHTO   H76 2368   7.484   5.108   2.842 -1.6534  0.4752 -1.6462
    6CHTO   C43 2369   7.339   5.331   2.784  0.4298  0.1396 -0.0071
    6CHTO   H85 2370   7.248   5.392   2.789 -0.1179 -0.6481 -0.3685
    6CHTO   O29 2371   7.382   5.308   2.646 -0.1225 -0.5909 -0.6729
    6CHTO   C50 2372   7.273   5.270   2.563  0.3385  0.6543  0.3348
    6CHTO   H92 2373   7.238   5.362   2.514  0.3409 -0.0612 -1.0527
    6CHTO   C54 2374   7.332   5.190   2.451  0.2971  0.5908 -0.1659
    6CHTO   O36 2375   7.235   5.167   2.345 -0.0858  0.1729 -0.5525
    6CHTO   H72 2376   7.288   5.126   2.279  2.5239  1.1944  0.7957
    6CHTO   O27 2377   7.424   5.412   2.870 -0.4643  0.1757  0.6761
    6CHTO   C37 2378   7.466   5.548   2.876  0.0086 -0.5713  0.4514
    6CHTO   H79 2379   7.569   5.551   2.838 -0.9900 -1.0041 -2.4171
    6CHTO   C38 2380   7.371   5.636   2.781 -0.4031  0.1154 -0.2004
    6CHTO   H80 2381   7.268   5.605   2.805 -0.5034  0.1691 -0.5699
    6CHTO   O31 2382   7.394   5.613   2.641 -0.2747  0.6561  0.0465
    6CHTO   H68 2383   7.355   5.531   2.620  1.2106  0.1082 -0.5809
    6CHTO   C39 2384   7.375   5.794   2.807  0.2859 -0.1406  0.6170
    6CHTO   H81 2385   7.473   5.823   2.768 -0.1273  1.5547  0.7913
    6CHTO    N7 2386   7.261   5.869   2.738 -0.1180 -0.0530  0.5407
    6CHTO   H73 2387   7.278   5.879   2.631  0.2827 -0.7106  0.5401
    6CHTO   H74 2388   7.170   5.816   2.760 -0.1362  0.6045  2.0829
    6CHTO   C40 2389   7.382   5.826   2.963  0.4800  0.4519 -0.7663
    6CHTO   H82 2390   7.286   5.798   3.005  2.0235 -2.2553  1.0953
    6CHTO   O26 2391   7.487   5.750   3.027  0.6994 -0.1330  0.2695
    6CHTO   C41 2392   7.460   5.607   3.017  0.0027 -0.2249  0.3264
    6CHTO   H83 2393   7.362   5.585   3.062 -0.7792 -0.5219 -1.5040
    6CHTO   C52 2394   7.551   5.536   3.119  0.0807 -0.1462  0.4286
    6CHTO   O35 2395   7.520   5.588   3.271  0.0752  0.4262  0.5402
    6CHTO   H71 2396   7.595   5.577   3.326 -0.3467  1.3474  1.3165
    6CHTO   O28 2397   7.435   5.954   2.990  0.1614  0.3599  0.1543
    6CHTO   C42 2398   7.416   6.023   3.117  0.5606  0.5162 -0.5945
    6CHTO   H84 2399   7.485   6.108   3.116  1.1010  0.0876 -0.2860
    6CHTO   C44 2400   7.454   5.940   3.247 -0.3740  0.5597 -0.0712
    6CHTO   H86 2401   7.409   5.841   3.244 -0.1793  0.2046  5.1558
    6CHTO   O32 2402   7.591   5.915   3.242  0.0779  0.4043 -0.1364
    6CHTO   H69 2403   7.606   5.824   3.228 -1.1821  0.2326 -0.3771
    6CHTO   C48 2404   7.409   6.008   3.385  0.3426  0.1668 -0.0578
    6CHTO   H90 2405   7.479   6.091   3.398 -1.5609  1.8707 -0.4395
    6CHTO    N9 2406   7.443   5.918   3.500  0.0163 -0.2536 -0.1962
    6CHTO   H77 2407   7.386   5.928   3.591 -0.2306 -1.4748 -0.2088
    6CHTO   H78 2408   7.548   5.929   3.527  0.1787  0.2404 -1.0126
    6CHTO   C51 2409   7.259   6.040   3.382  0.0442 -0.2168  0.7135
    6CHTO   H93 2410   7.188   5.959   3.370  0.9160 -0.8277 -0.3646
    6CHTO   O30 2411   7.258   6.131   3.268 -0.1340 -0.5647 -0.1228
    6CHTO   C46 2412   7.279   6.078   3.131  0.6425  0.0130 -0.0981
    6CHTO   H88 2413   7.199   6.006   3.117  0.1287  0.3969  0.8018
    6CHTO   C53 2414   7.254   6.201   3.042 -0.0818  0.5799 -0.8885
    6CHTO   O72 2415   7.234   6.184   2.900 -0.1372 -0.4687 -0.0960
    6CHTO  H199 2416   7.152   6.140   2.886  0.2021 -1.2457  0.3403
    6CHTO   O22 2417   7.212   6.117   3.495  0.3761 -0.2814 -0.5686
    6CHTO   C31 2418   7.087   6.191   3.514 -0.1024  0.1667  0.2559
    6CHTO   H59 2419   7.079   6.219   3.621 -0.6416 -0.3647  0.3611
    6CHTO   C29 2420   7.084   6.323   3.430  0.6315  0.5124 -0.1381
    6CHTO   H57 2421   7.092   6.294   3.324 -0.1069  1.2185 -0.3953
    6CHTO   O21 2422   7.203   6.402   3.466  0.3034 -0.4260 -0.0808
    6CHTO   H37 2423   7.180   6.492   3.474  0.1069 -0.4940  0.0967
    6CHTO   C27 2424   6.944   6.407   3.446 -0.1470 -0.1475 -0.0237
    6CHTO   H55 2425   6.940   6.460   3.543 -1.7714  1.1391 -0.7744
    6CHTO    N5 2426   6.938   6.507   3.337 -0.6682  0.1022 -0.2992
    6CHTO   H43 2427   6.839   6.551   3.329 -0.4629  0.5902 -0.2128
    6CHTO   H44 2428   6.994   6.597   3.357  1.7685 -0.7061 -3.1085
    6CHTO   C25 2429   6.823   6.309   3.449  0.8633  0.4009  0.7121
    6CHTO   H53 2430   6.803   6.265   3.350 -0.6206  0.4599  0.9787
    6CHTO   O17 2431   6.847   6.197   3.537 -0.1577 -1.1658  0.2510
    6CHTO   C32 2432   6.951   6.110   3.484 -0.1741  0.5312  0.2252
    6CHTO   H60 2433   6.944   6.089   3.377  0.0379  1.7818 -0.0479
    6CHTO   C36 2434   6.943   5.972   3.551 -0.2567 -0.0727  0.6309
    6CHTO   O25 2435   6.962   5.982   3.688 -0.2879 -0.6124  0.2906
    6CHTO   H40 2436   6.909   5.920   3.735  1.4350 -0.6967  2.1492
    6CHTO   O15 2437   6.676   6.354   3.479 -0.7971  0.0213  0.1782
    6CHTO   C19 2438   6.573   6.354   3.585  0.0392 -0.1268  0.3199
    6CHTO   H47 2439   6.477   6.352   3.532  0.2828  0.7566 -0.1787
    6CHTO   C20 2440   6.586   6.237   3.687  0.0909  0.3265  0.4389
    6CHTO   H48 2441   6.684   6.237   3.737  0.9770 -1.3174 -1.2414
    6CHTO   O19 2442   6.593   6.115   3.612 -0.5779 -0.3951 -0.0399
    6CHTO   H35 2443   6.669   6.101   3.560 -2.1084  0.0680 -2.4977
    6CHTO   C21 2444   6.468   6.230   3.789 -0.1342  0.1558  0.1114
    6CHTO   H49 2445   6.378   6.197   3.738  0.9597 -2.5160 -0.1868
    6CHTO    N4 2446   6.483   6.119   3.883  0.2443  0.1594  0.4008
    6CHTO   H41 2447   6.402   6.121   3.954  0.7397  1.1141  0.9592
    6CHTO   H42 2448   6.577   6.104   3.934 -0.1312 -1.6168  0.5906
    6CHTO   C22 2449   6.449   6.371   3.854 -0.8781  0.2562  0.3995
    6CHTO   H50 2450   6.526   6.391   3.928  1.9450 -0.0317 -2.3359
    6CHTO   O14 2451   6.451   6.471   3.752  0.1407 -0.6786  0.2248
    6CHTO   C23 2452   6.565   6.484   3.671 -0.2478 -0.3733 -0.0877
    6CHTO   H51 2453   6.655   6.498   3.733  0.5504  0.2312 -1.3725
    6CHTO   C34 2454   6.554   6.610   3.579 -0.8724  0.4369  0.1055
    6CHTO   O23 2455   6.679   6.658   3.522 -0.5705  0.4297 -0.2614
    6CHTO   H38 2456   6.711   6.591   3.465  0.3670  0.5999  0.0524
    6CHTO   O16 2457   6.317   6.371   3.904 -0.4830  0.2542 -0.0491
    6CHTO   C24 2458   6.288   6.499   4.007  1.0538  0.0556 -0.0482
    6CHTO   H52 2459   6.335   6.591   3.974  1.8519 -1.3992 -3.2035
    6CHTO   C26 2460   6.329   6.463   4.155  0.8333  0.2434  1.0396
    6CHTO   H54 2461   6.264   6.378   4.185 -0.3803  1.1032  0.9098
    6CHTO   O20 2462   6.472   6.436   4.165  0.6409 -0.1338  0.4967
    6CHTO   H36 2463   6.518   6.512   4.135 -1.6411  1.2277  0.2858
    6CHTO   C30 2464   6.288   6.580   4.249 -0.1738 -0.5674  0.1898
    6CHTO   H58 2465   6.335   6.673   4.212  0.1804 -0.3837  1.0717
    6CHTO    N6 2466   6.335   6.553   4.392  0.0219 -0.0152  0.0751
    6CHTO   H45 2467   6.255   6.532   4.462 -0.7336  0.0490 -0.7613
    6CHTO   H46 2468   6.412   6.478   4.400  1.0666  0.6948 -2.7476
    6CHTO   C33 2469   6.133   6.594   4.230 -0.5203  0.0199 -0.9632
    6CHTO   H61 2470   6.088   6.496   4.250  0.0952 -0.4326 -1.7438
    6CHTO   O18 2471   6.113   6.629   4.092 -0.4039  0.0924  0.2186
    6CHTO   C28 2472   6.135   6.524   4.000  0.5620  0.4455 -0.4457
    6CHTO   H56 2473   6.076   6.437   4.029 -0.3574  1.4752  0.8663
    6CHTO   C35 2474   6.079   6.567   3.858 -0.3062  0.3241  0.2448
    6CHTO   O24 2475   6.140   6.523   3.736  0.7497  0.1329 -0.1803
    6CHTO   H39 2476   6.206   6.579   3.701  1.1917 -1.5890 -2.2322
    6CHTO    O9 2477   6.072   6.691   4.312 -0.5416 -0.1954  0.1453
    6CHTO   C13 2478   5.913   6.668   4.344  0.1653 -0.3110  0.2505
    6CHTO   H26 2479   5.898   6.558   4.357  1.2636 -0.7577 -1.9943
    6CHTO   C11 2480   5.821   6.722   4.231  0.1417 -0.5781 -0.0339
    6CHTO   H24 2481   5.860   6.682   4.137 -0.1883 -2.7545  0.7175
    6CHTO    O8 2482   5.824   6.864   4.234  0.0617 -0.3765 -0.6192
    6CHTO    H3 2483   5.907   6.908   4.231  0.3256 -0.8167  0.1607
    6CHTO    C9 2484   5.684   6.665   4.258  0.3464 -0.0238 -0.2803
    6CHTO   H22 2485   5.694   6.556   4.256  3.6844  0.2518 -2.2685
    6CHTO    N2 2486   5.595   6.694   4.145 -0.1814  0.1804  0.4099
    6CHTO   H10 2487   5.492   6.666   4.163 -0.4564 -1.4033 -3.1829
    6CHTO   H11 2488   5.616   6.628   4.062  0.4417  1.0838 -0.1592
    6CHTO    C7 2489   5.628   6.710   4.403 -0.6057  0.3057 -0.0894
    6CHTO   H20 2490   5.603   6.615   4.455  1.2420  1.2476  2.6214
    6CHTO    O4 2491   5.728   6.780   4.485  0.6458 -0.2646 -0.0220
    6CHTO   C14 2492   5.864   6.728   4.481 -0.6589 -0.2501 -0.4899
    6CHTO   H27 2493   5.885   6.650   4.557  2.1853  0.2779 -0.6571
    6CHTO   C18 2494   5.957   6.850   4.516  0.3456 -1.0134 -0.1669
    6CHTO   O13 2495   5.909   6.910   4.636 -0.2566  0.3596 -0.2469
    6CHTO    H7 2496   5.904   6.840   4.697  1.3626 -0.8702 -1.4903
    6CHTO    O2 2497   5.493   6.806   4.399  0.3681  0.9678  0.0719
    6CHTO    C1 2498   5.390   6.783   4.499  0.6344 -0.0766 -0.3244
    6CHTO   H14 2499   5.317   6.863   4.474 -0.2315 -0.6945  0.2027
    6CHTO    C2 2500   5.453   6.813   4.635  0.5627 -0.3640 -0.4653
    6CHTO   H15 2501   5.549   6.760   4.643  0.5808 -0.5740 -1.8991
    6CHTO    O6 2502   5.482   6.954   4.640 -0.1202  0.7191 -0.3634
    6CHTO    H1 2503   5.513   6.976   4.725  1.1788  3.8781 -1.5706
    6CHTO    C3 2504   5.353   6.769   4.755  0.2431 -0.0559 -0.1357
    6CHTO   H16 2505   5.264   6.834   4.755 -0.2805 -0.7753  0.3141
    6CHTO    N1 2506   5.420   6.791   4.890  0.1442 -0.0425  0.4449
    6CHTO    H8 2507   5.353   6.825   4.968 -0.1946 -0.5510  0.3783
    6CHTO    H9 2508   5.501   6.862   4.884 -0.2338  0.3452 -0.1969
    6CHTO    C4 2509   5.296   6.620   4.730 -0.1852  0.3089 -0.2761
    6CHTO   H17 2510   5.378   6.552   4.753  0.9253  1.5151 -0.6567
    6CHTO    O1 2511   5.245   6.606   4.602 -0.4952 -0.3570  0.9333
    6CHTO    C5 2512   5.331   6.641   4.490  0.0105 -0.0844 -0.1419
    6CHTO   H18 2513   5.412   6.568   4.486 -2.8529 -3.2503 -3.4261
    6CHTO   C16 2514   5.254   6.626   4.356  0.2910 -0.7415  0.5135
    6CHTO   O11 2515   5.269   6.494   4.304  0.1685  0.5218 -0.0249
    6CHTO    H5 2516   5.260   6.495   4.211  0.1652  0.1912 -0.0312
    6CHTO    O3 2517   5.186   6.609   4.822  0.8206 -0.4000  0.4068
    6CHTO    C6 2518   5.160   6.473   4.878 -0.2056 -0.7819  1.1276
    6CHTO   H19 2519   5.220   6.400   4.824 -1.0865 -0.7180  0.0193
    6CHTO    C8 2520   5.194   6.472   5.026 -0.0730 -0.3811  0.2869
    6CHTO   H21 2521   5.135   6.550   5.074  1.4176  1.1226 -0.2782
    6CHTO    O7 2522   5.334   6.516   5.031  0.5694 -0.1277  0.3382
    6CHTO    H2 2523   5.346   6.602   4.995  0.2616  0.8359  2.4460
    6CHTO   C12 2524   5.172   6.332   5.090  0.1692  0.7483  0.3602
    6CHTO   H25 2525   5.233   6.261   5.030 -1.7917 -0.1813 -0.5583
    6CHTO    N3 2526   5.208   6.334   5.230 -0.3635 -0.2227  0.6563
    6CHTO   H12 2527   5.239   6.233   5.255  0.6171 -1.0571 -3.5922
    6CHTO   H13 2528   5.289   6.402   5.253 -0.3908 -0.5214  1.6575
    6CHTO   C15 2529   5.021   6.302   5.060 -0.3271  0.6364  0.1171
    6CHTO   H28 2530   4.950   6.364   5.114  1.0877  4.6166 -2.4472
    6CHTO   O10 2531   5.002   6.155   5.099  0.0998 -0.3819 -0.0453
    6CHTO    H4 2532   4.930   6.151   5.159  1.5282 -0.0957  1.7259
    6CHTO    O5 2533   4.991   6.306   4.923  0.4864  0.4601 -0.5540
    6CHTO   C10 2534   5.010   6.431   4.851 -0.1230  0.8908 -0.0393
    6CHTO   H23 2535   4.940   6.510   4.879  0.6241  2.2183 -1.8655
    6CHTO   C17 2536   4.981   6.393   4.708  0.3311 -0.0022  0.5845
    6CHTO   O12 2537   5.010   6.496   4.613  0.5414  0.5460  0.4751
    6CHTO    H6 2538   4.929   6.525   4.575  1.3461  1.4372 -0.5931
    7CHTO  H203 2539   5.183   3.878   5.648  0.0011  0.1198  0.0201
    7CHTO   O82 2540   5.242   3.814   5.614  0.2435  0.3431  0.0189
    7CHTO  C123 2541   5.304   3.847   5.492 -0.3368 -0.7799 -0.4564
    7CHTO  H227 2542   5.237   3.907   5.430  1.4566 -1.0076 -2.6975
    7CHTO   O77 2543   5.414   3.934   5.543  0.5996 -0.3977  0.3351
    7CHTO  C118 2544   5.502   3.974   5.438  0.3487 -0.4835 -0.1084
    7CHTO  H222 2545   5.435   4.033   5.372  1.8122  1.6561  0.2686
    7CHTO  C125 2546   5.600   4.074   5.504 -0.1087  0.4943  0.5590
    7CHTO   O84 2547   5.527   4.194   5.533  1.0578  0.4367 -0.1003
    7CHTO  H205 2548   5.534   4.252   5.460  0.8018  3.1609  1.9342
    7CHTO  C114 2549   5.571   3.852   5.376  0.0557 -0.6716  0.1742
    7CHTO  H218 2550   5.627   3.799   5.452 -0.9294 -0.5598  0.9931
    7CHTO  C116 2551   5.463   3.750   5.325  0.3286 -0.3701  0.1099
    7CHTO  H220 2552   5.404   3.798   5.244 -0.9730 -1.3366  0.4696
    7CHTO   O79 2553   5.527   3.632   5.278  0.0865 -0.5790  0.3185
    7CHTO  H201 2554   5.541   3.643   5.186  1.6836 -1.2038  0.4677
    7CHTO  C120 2555   5.351   3.709   5.423 -0.4403 -0.1166  0.3768
    7CHTO  H224 2556   5.404   3.642   5.493 -0.4585 -0.1345  0.3731
    7CHTO   N21 2557   5.237   3.633   5.377 -0.0626  0.4298 -0.0430
    7CHTO  H211 2558   5.271   3.531   5.362 -1.5827 -0.2581  1.0548
    7CHTO  H212 2559   5.217   3.685   5.285 -1.2445  0.2929  0.1307
    7CHTO   O75 2560   5.667   3.896   5.280  0.1893 -0.5183 -0.4079
    7CHTO  C112 2561   5.836   3.818   5.276  0.3871  0.8135 -0.0618
    7CHTO  H216 2562   5.876   3.826   5.173 -1.3253 -0.6249 -0.8748
    7CHTO   O73 2563   5.822   3.683   5.317 -0.9338  0.7151 -0.8396
    7CHTO  C113 2564   5.945   3.616   5.332  0.1239  0.7651  0.0740
    7CHTO  H217 2565   5.990   3.598   5.232 -1.6237  0.4613 -0.6746
    7CHTO  C124 2566   5.917   3.478   5.390 -0.1585  0.2508 -0.0758
    7CHTO   O83 2567   5.835   3.396   5.306 -0.3032  0.4671 -0.3793
    7CHTO  H204 2568   5.857   3.401   5.215 -0.4562  0.0573 -0.4419
    7CHTO  C109 2569   6.036   3.696   5.428 -0.0733  0.6821  0.0967
    7CHTO  H213 2570   5.985   3.693   5.526 -0.0652  0.0350  0.0829
    7CHTO  C110 2571   6.067   3.839   5.372  0.1566  0.7193 -0.0491
    7CHTO  H214 2572   6.111   3.825   5.273  0.1845  0.2866  0.0277
    7CHTO   O78 2573   6.150   3.919   5.461  0.4284 -0.2683 -0.2955
    7CHTO  H200 2574   6.239   3.925   5.432  0.2846 -0.3307 -0.7610
    7CHTO  C111 2575   5.926   3.910   5.367 -1.0334  0.0046 -0.5182
    7CHTO  H215 2576   5.889   3.921   5.470  0.7036  2.7191 -0.1131
    7CHTO   N19 2577   5.941   4.051   5.314  0.5792 -0.0954  0.6119
    7CHTO  H207 2578   5.961   4.117   5.397 -0.6674  0.9391  0.1148
    7CHTO  H208 2579   6.006   4.062   5.229  0.0370 -3.9209 -0.3828
    7CHTO   O74 2580   6.159   3.616   5.441 -0.4034  0.4797  0.4826
    7CHTO  C115 2581   6.258   3.630   5.566  0.2928  0.7255 -0.2797
    7CHTO  H219 2582   6.321   3.719   5.558  0.9144  0.3572  0.4053
    7CHTO   O76 2583   6.174   3.640   5.714 -0.1541 -0.3763 -0.5048
    7CHTO  C122 2584   6.124   3.511   5.753 -1.4550 -0.1053  0.0909
    7CHTO  H226 2585   6.067   3.475   5.668 -1.2411 -0.2153 -0.0053
    7CHTO  C126 2586   6.025   3.542   5.868  0.1089 -0.3028  0.5557
    7CHTO   O85 2587   5.919   3.624   5.821  0.4255  0.2663 -0.4615
    7CHTO  H206 2588   5.844   3.619   5.877  0.1055  0.2815 -0.8906
    7CHTO  C121 2589   6.244   3.405   5.785  0.4016  0.4609  0.2250
    7CHTO  H225 2590   6.268   3.395   5.893  0.5751 -0.0870  0.1366
    7CHTO   O81 2591   6.199   3.274   5.748  0.1754  0.0490 -0.1419
    7CHTO  H202 2592   6.262   3.212   5.780 -1.3790 -0.1812  2.6897
    7CHTO  C119 2593   6.378   3.455   5.712 -0.2657 -0.2525 -0.2577
    7CHTO  H223 2594   6.406   3.543   5.770  1.6068 -0.2678 -1.1102
    7CHTO  C117 2595   6.350   3.504   5.566  0.1657  0.0720 -0.3219
    7CHTO  H221 2596   6.290   3.434   5.509  1.5371 -0.1461 -1.5287
    7CHTO   N20 2597   6.481   3.522   5.493  0.5592 -0.1042 -0.3779
    7CHTO  H209 2598   6.504   3.627   5.480  0.3471  0.1313  1.0253
    7CHTO  H210 2599   6.559   3.477   5.552  0.8229  1.7867  0.7604
    7CHTO   O80 2600   6.514   3.358   5.733 -0.0646  0.6048 -0.2444
    7CHTO  C103 2601   6.600   3.370   5.875  0.3174 -0.1439  0.1928
    7CHTO  H190 2602   6.707   3.364   5.856 -0.0180  0.4567 -1.9681
    7CHTO  C101 2603   6.579   3.491   5.972 -1.3590  0.4699  0.0004
    7CHTO  H188 2604   6.470   3.502   5.979 -1.5125  1.4961 -3.0354
    7CHTO   O68 2605   6.636   3.623   5.899 -0.4110  0.0007  0.2165
    7CHTO  H168 2606   6.600   3.698   5.942 -1.0377 -0.7510  1.0406
    7CHTO   C99 2607   6.643   3.474   6.119 -0.4553  0.0571  0.5443
    7CHTO  H186 2608   6.754   3.466   6.110 -0.4261  1.0608 -0.0700
    7CHTO   N17 2609   6.611   3.576   6.215 -0.2220 -0.0890 -0.1663
    7CHTO  H174 2610   6.672   3.665   6.223  0.1547 -0.2858 -0.8093
    7CHTO  H175 2611   6.507   3.602   6.212 -0.1225  0.5185  1.1044
    7CHTO   C97 2612   6.601   3.331   6.181  1.4831 -0.3099 -0.2122
    7CHTO  H184 2613   6.493   3.335   6.198  1.6348 -0.7877  0.8914
    7CHTO   O64 2614   6.636   3.231   6.084  0.1934 -0.1881 -0.1344
    7CHTO  C104 2615   6.558   3.235   5.960  0.2792  0.1847 -0.0856
    7CHTO  H191 2616   6.452   3.244   5.982 -0.4152 -0.7847 -2.7862
    7CHTO  C108 2617   6.578   3.102   5.878  0.6217 -0.0350  0.0204
    7CHTO   O71 2618   6.503   3.009   5.950  0.4999  0.2750 -0.3168
    7CHTO  H171 2619   6.430   2.982   5.897  0.6925  0.4807 -0.6900
    7CHTO   O62 2620   6.684   3.283   6.287 -0.0510 -0.1810  0.1792
    7CHTO   C91 2621   6.629   3.179   6.378 -0.2329 -0.4497 -0.3910
    7CHTO  H178 2622   6.523   3.194   6.397  0.7626  2.1232  3.6109
    7CHTO   C92 2623   6.698   3.203   6.515  0.9466  0.6818  0.5208
    7CHTO  H179 2624   6.680   3.308   6.543 -0.2183  0.8125 -0.7342
    7CHTO   O66 2625   6.636   3.129   6.623 -0.4352  0.3768 -0.0466
    7CHTO  H166 2626   6.543   3.145   6.624 -0.8673 -1.8253  2.2939
    7CHTO   C93 2627   6.850   3.160   6.510  0.0514  0.0826  0.1180
    7CHTO  H180 2628   6.887   3.159   6.614 -1.0207 -0.0111  0.5051
    7CHTO   N16 2629   6.934   3.256   6.442 -0.2564 -0.2509  0.5089
    7CHTO  H172 2630   6.876   3.290   6.357 -0.0323 -1.6901 -0.2421
    7CHTO  H173 2631   7.021   3.204   6.404 -2.4653 -2.3426 -1.8959
    7CHTO   C94 2632   6.860   3.010   6.458 -0.2151  0.7486 -0.1259
    7CHTO  H181 2633   6.916   2.999   6.366  0.6567 -1.5842  0.6573
    7CHTO   O61 2634   6.732   2.945   6.425 -0.4583  0.3915  0.3958
    7CHTO   C95 2635   6.646   3.026   6.338 -0.2267  0.8981  0.0861
    7CHTO  H182 2636   6.683   3.018   6.236  1.5118 -0.3303  0.7927
    7CHTO  C106 2637   6.499   2.959   6.333 -0.1402 -0.0665 -0.3188
    7CHTO   O69 2638   6.501   2.824   6.293  0.0186  0.2456 -0.2215
    7CHTO  H169 2639   6.423   2.790   6.254 -0.8757  0.0499  1.6874
    7CHTO   O63 2640   6.927   2.929   6.571 -0.2157 -0.3017 -0.2538
    7CHTO   C96 2641   6.839   2.864   6.684 -0.2869  0.2599 -0.2722
    7CHTO  H183 2642   6.764   2.942   6.690 -1.1072 -0.5741  0.7104
    7CHTO   C98 2643   6.932   2.859   6.809  0.2375 -0.3892  0.3529
    7CHTO  H185 2644   6.971   2.961   6.826  0.1460 -0.2638 -0.2007
    7CHTO   O67 2645   6.851   2.835   6.925  0.2207  0.6090  0.0799
    7CHTO  H167 2646   6.892   2.765   6.973 -2.7872 -1.5587 -0.3281
    7CHTO  C102 2647   7.042   2.738   6.811  0.0310 -0.3776  0.3297
    7CHTO  H189 2648   7.075   2.730   6.915 -0.0922 -0.1836  0.3847
    7CHTO   N18 2649   7.166   2.753   6.731 -0.0546 -1.0562 -0.0378
    7CHTO  H176 2650   7.258   2.737   6.785 -0.3913 -0.7743  0.6218
    7CHTO  H177 2651   7.165   2.847   6.679  1.7084  0.8566  3.2213
    7CHTO  C105 2652   6.969   2.602   6.779 -0.7600  0.0477  0.9402
    7CHTO  H192 2653   7.025   2.545   6.704  0.0037  1.8033  0.1412
    7CHTO   O65 2654   6.835   2.620   6.731  0.6264 -0.0760  0.6003
    7CHTO  C100 2655   6.787   2.722   6.636  0.2215  0.2459 -0.4094
    7CHTO  H187 2656   6.814   2.706   6.530 -1.5207 -0.9113 -0.6985
    7CHTO  C107 2657   6.635   2.738   6.638 -0.1150 -0.6958  0.3910
    7CHTO   O70 2658   6.569   2.623   6.579  0.4787  0.1377 -0.1250
    7CHTO  H170 2659   6.536   2.565   6.645 -1.2582  1.5165  0.2697
    7CHTO   O57 2660   6.963   2.519   6.921 -0.4652  0.1758 -0.0211
    7CHTO   C85 2661   7.038   2.400   6.939 -0.2951  0.9341 -0.1392
    7CHTO  H157 2662   7.119   2.390   6.864 -0.6033 -1.1495 -0.2314
    7CHTO   C83 2663   6.955   2.277   6.913  0.2226 -0.1635  0.0828
    7CHTO  H155 2664   6.921   2.288   6.810 -1.0983  0.4893  0.5798
    7CHTO   O56 2665   6.843   2.284   7.005  0.0065 -0.1036 -0.0094
    7CHTO  H135 2666   6.768   2.234   6.977  0.5814 -0.7358 -0.4334
    7CHTO   C81 2667   7.033   2.148   6.930  0.2296 -0.0681  0.3129
    7CHTO  H153 2668   7.122   2.153   6.867 -1.8919 -2.5673 -3.1220
    7CHTO   N14 2669   6.962   2.027   6.877  0.1093  0.1275  0.4165
    7CHTO  H141 2670   6.933   2.035   6.774 -2.0560  0.1283  0.9988
    7CHTO  H142 2671   7.017   1.937   6.896 -0.6693 -0.4061  0.1522
    7CHTO   C79 2672   7.074   2.126   7.076 -0.0723 -0.4069 -0.3873
    7CHTO  H151 2673   7.137   2.037   7.075  1.5840  0.7148  0.4943
    7CHTO   O52 2674   7.138   2.251   7.126  0.8138 -0.1092 -0.3220
    7CHTO   C86 2675   7.095   2.386   7.088 -0.1326 -0.3460 -0.0413
    7CHTO  H158 2676   7.016   2.412   7.161 -0.3601  0.8989 -0.7009
    7CHTO   C90 2677   7.204   2.493   7.114  0.1528 -0.0846  0.3456
    7CHTO   O60 2678   7.240   2.490   7.251  0.4180 -0.3260  0.0153
    7CHTO  H138 2679   7.304   2.555   7.272 -1.6477  1.4568  0.9686
    7CHTO   O50 2680   6.959   2.106   7.167  0.2714 -0.4018 -0.0077
    7CHTO   C73 2681   6.946   2.026   7.285  0.0331 -0.4546 -0.1212
    7CHTO  H145 2682   7.047   2.006   7.325  0.7284  2.7862 -0.0720
    7CHTO   C74 2683   6.870   1.896   7.237 -0.6170  0.0791  0.2521
    7CHTO  H146 2684   6.933   1.859   7.155  1.9256  1.3981  1.5457
    7CHTO   O54 2685   6.887   1.809   7.349  0.0713 -0.9472  0.5279
    7CHTO  H133 2686   6.829   1.737   7.335 -0.6465  0.1424 -2.5339
    7CHTO   C75 2687   6.729   1.936   7.191  0.1530 -0.4288  0.0350
    7CHTO  H147 2688   6.732   2.000   7.102 -1.2510 -0.5379 -0.1031
    7CHTO   N13 2689   6.650   1.819   7.148 -0.4411 -0.1648 -0.4805
    7CHTO  H139 2690   6.693   1.771   7.061 -1.9542 -0.5483 -1.0316
    7CHTO  H140 2691   6.633   1.750   7.229 -1.3098  2.4365  1.6391
    7CHTO   C76 2692   6.657   2.013   7.312 -0.2948  0.3833 -0.2071
    7CHTO  H148 2693   6.655   1.949   7.400  0.8267 -0.0566 -0.5035
    7CHTO   O49 2694   6.735   2.134   7.351  0.6600 -0.0806  0.4311
    7CHTO   C77 2695   6.867   2.100   7.396  1.0053 -0.1343 -0.1158
    7CHTO  H149 2696   6.879   2.042   7.487 -0.4587 -1.9291 -1.0424
    7CHTO   C88 2697   6.941   2.228   7.442  0.1523 -0.1399  0.0193
    7CHTO   O58 2698   6.890   2.287   7.550  0.5171 -0.1438  0.4686
    7CHTO  H136 2699   6.954   2.350   7.578  2.0329 -1.8693  0.9560
    7CHTO   O51 2700   6.530   2.087   7.261  0.0791 -0.1832  0.5919
    7CHTO   C78 2701   6.422   2.096   7.355 -0.1652 -0.5475 -0.3032
    7CHTO  H150 2702   6.453   2.106   7.461 -0.7494 -1.0497 -0.0816
    7CHTO   C80 2703   6.330   1.968   7.341  0.0545 -0.8259 -0.2687
    7CHTO  H152 2704   6.309   1.946   7.234  1.3235 -1.9728 -0.3001
    7CHTO   O55 2705   6.408   1.856   7.387  0.4391 -0.4000  0.4568
    7CHTO  H134 2706   6.351   1.782   7.390  1.3433 -1.1736 -0.9178
    7CHTO   C84 2707   6.197   1.990   7.419 -0.6822  0.2637  0.7344
    7CHTO  H156 2708   6.216   2.009   7.525  1.5304  2.0268  0.0592
    7CHTO   N15 2709   6.109   1.878   7.413  0.0096 -0.2860  0.6209
    7CHTO  H143 2710   6.118   1.827   7.507  1.3689 -1.0202  0.1009
    7CHTO  H144 2711   6.008   1.911   7.396  0.1654  0.4039  1.0224
    7CHTO   C87 2712   6.128   2.124   7.376 -0.1447  0.0229  0.6993
    7CHTO  H159 2713   6.094   2.112   7.273  1.3989 -0.2591  0.2146
    7CHTO   O53 2714   6.220   2.240   7.394  0.3055 -0.1843 -0.3451
    7CHTO   C82 2715   6.338   2.222   7.317 -0.1008  0.2882  0.0171
    7CHTO  H154 2716   6.315   2.205   7.212 -0.1475 -0.3686  0.1317
    7CHTO   C89 2717   6.416   2.350   7.319 -1.0205  0.2307  0.3851
    7CHTO   O59 2718   6.479   2.385   7.446 -0.2496  0.2712  0.5830
    7CHTO  H137 2719   6.416   2.435   7.494 -0.6767  0.6998 -0.4011
    7CHTO   O45 2720   5.985   2.154   7.471 -0.7709  0.3178 -0.6412
    7CHTO   C67 2721   5.903   2.259   7.413  0.0897 -0.7084  0.3915
    7CHTO  H124 2722   5.966   2.338   7.372 -0.9902 -0.8415 -1.6157
    7CHTO   C65 2723   5.816   2.206   7.296 -0.8187 -0.0718  0.0768
    7CHTO  H122 2724   5.819   2.098   7.312  0.8282  0.2583  2.1914
    7CHTO   O44 2725   5.885   2.244   7.175  0.2547 -0.0439 -0.2798
    7CHTO  H102 2726   5.850   2.192   7.104 -1.0482  1.3548 -0.6887
    7CHTO   C63 2727   5.670   2.257   7.312  0.2730  0.5373  0.8743
    7CHTO  H120 2728   5.627   2.205   7.398  0.0411 -0.3394  0.2339
    7CHTO   N11 2729   5.567   2.214   7.205 -0.1304 -0.0518  0.2932
    7CHTO  H108 2730   5.595   2.210   7.102 -1.8231  1.8240 -0.2575
    7CHTO  H109 2731   5.464   2.193   7.225  0.0919  0.1955  1.7948
    7CHTO   C61 2732   5.669   2.409   7.352  0.7142  0.4512 -0.3626
    7CHTO  H118 2733   5.566   2.434   7.384  0.6449  0.1115 -0.3191
    7CHTO   O40 2734   5.752   2.441   7.454 -0.5126  0.1033 -0.1576
    7CHTO   C68 2735   5.820   2.329   7.523  0.0393 -0.3128  0.0174
    7CHTO  H125 2736   5.758   2.246   7.563  0.4423 -2.0400 -2.7758
    7CHTO   C72 2737   5.909   2.382   7.628 -0.1224  0.7032 -0.1273
    7CHTO   O48 2738   6.019   2.474   7.595  0.2159 -0.4648 -0.4506
    7CHTO  H105 2739   5.982   2.551   7.556  3.7992  1.4465 -0.2878
    7CHTO   O38 2740   5.703   2.499   7.244 -0.0715 -0.2929 -0.1154
    7CHTO   C55 2741   5.676   2.635   7.263  1.0288 -0.0860  0.1485
    7CHTO  H112 2742   5.685   2.669   7.367  1.1461 -0.5160  0.2774
    7CHTO   C56 2743   5.536   2.670   7.202 -0.1806 -0.4074 -0.5756
    7CHTO  H113 2744   5.543   2.638   7.097  2.0285 -3.1628  0.3337
    7CHTO   O42 2745   5.420   2.600   7.250 -0.5547  0.4494  0.0201
    7CHTO  H100 2746   5.408   2.605   7.342  0.5780  1.0715  0.1495
    7CHTO   C57 2747   5.511   2.827   7.207 -0.4863 -0.0499  0.3944
    7CHTO  H114 2748   5.512   2.845   7.315 -0.4599 -0.5607  0.4821
    7CHTO   N10 2749   5.384   2.883   7.140  0.3825 -0.2147  0.0747
    7CHTO  H106 2750   5.313   2.878   7.221 -0.1773  1.6001 -0.2727
    7CHTO  H107 2751   5.396   2.987   7.113  1.4922 -0.6546 -1.1423
    7CHTO   C58 2752   5.640   2.904   7.146  0.4371  0.1392 -0.1345
    7CHTO  H115 2753   5.643   2.894   7.036 -2.1634  0.1429 -0.2411
    7CHTO   O37 2754   5.762   2.858   7.203  0.3674 -0.3755  0.0135
    7CHTO   C59 2755   5.791   2.717   7.187 -0.2694 -0.5822  0.0516
    7CHTO  H116 2756   5.813   2.688   7.084  1.1602  0.9162 -0.0892
    7CHTO   C70 2757   5.922   2.686   7.267  0.4992 -1.0045 -0.0684
    7CHTO   O46 2758   5.970   2.552   7.238 -0.4397  0.2352 -0.4419
    7CHTO  H103 2759   6.001   2.545   7.150 -0.5748 -1.6779 -0.3442
    7CHTO   O39 2760   5.636   3.060   7.180 -0.2729 -0.2943 -0.0014
    7CHTO   C60 2761   5.736   3.146   7.124  0.3831 -0.5156  0.6666
    7CHTO  H117 2762   5.837   3.112   7.148  0.1374 -0.5601  1.6587
    7CHTO   C62 2763   5.725   3.159   6.969  0.5032 -0.3550 -0.2296
    7CHTO  H119 2764   5.754   3.067   6.913 -0.9478  0.3581 -2.2186
    7CHTO   O43 2765   5.588   3.187   6.931 -0.4558  0.5003 -0.3376
    7CHTO  H101 2766   5.555   3.250   6.992  0.0176  1.1953 -0.7864
    7CHTO   C66 2767   5.829   3.276   6.921  0.5706  0.0879 -0.9437
    7CHTO  H123 2768   5.930   3.236   6.927  0.7743  0.7104 -0.2138
    7CHTO   N12 2769   5.823   3.288   6.775  0.5450  0.3046  0.3093
    7CHTO  H110 2770   5.725   3.318   6.743  0.7812  0.7118 -0.0375
    7CHTO  H111 2771   5.903   3.348   6.733 -2.2143  2.8986 -1.4397
    7CHTO   C69 2772   5.805   3.408   6.997  0.1108  0.1584 -0.0797
    7CHTO  H126 2773   5.708   3.453   6.967  0.0013 -0.5531 -0.8014
    7CHTO   O41 2774   5.811   3.381   7.149  0.4751 -0.2844  0.6027
    7CHTO   C64 2775   5.717   3.284   7.195 -0.4629 -0.1192  0.2735
    7CHTO  H121 2776   5.611   3.314   7.181 -0.9806 -1.8765  0.2492
    7CHTO   C71 2777   5.740   3.279   7.354  0.0991  0.1053 -0.3054
    7CHTO   O47 2778   5.737   3.412   7.416  0.4470 -0.2631  0.0288
    7CHTO  H104 2779   5.791   3.474   7.372  1.5691 -0.1636  1.5215
    7CHTO   O34 2780   5.910   3.509   6.975  0.0510 -0.3966  0.7972
    7CHTO   C49 2781   5.984   3.640   7.017 -0.3646  0.1653 -0.1647
    7CHTO   H91 2782   5.935   3.725   6.972  1.1388 -1.2400 -4.7588
    7CHTO   C47 2783   6.129   3.629   6.970 -0.1779  0.2792 -0.0763
    7CHTO   H89 2784   6.176   3.726   6.996  0.6603 -0.6251  1.8602
    7CHTO   O33 2785   6.118   3.616   6.828  0.0377 -0.2152 -0.0834
    7CHTO   H70 2786   6.199   3.587   6.791 -0.1811  0.9580 -1.5196
    7CHTO   C45 2787   6.197   3.492   7.036 -0.5087  0.2584 -0.7402
    7CHTO   H87 2788   6.167   3.403   6.979  0.2133 -0.1791 -0.4364
    7CHTO    N8 2789   6.348   3.504   7.020 -0.0630  0.2184  0.1866
    7CHTO   H75 2790   6.399   3.441   7.091  0.0523 -0.5063 -0.5395
    7CHTO   H76 2791   6.371   3.461   6.924 -0.4156 -0.2869  0.3247
    7CHTO   C43 2792   6.133   3.467   7.187 -0.2577  0.4845 -0.6945
    7CHTO   H85 2793   6.048   3.402   7.168 -1.5577  1.6757  0.9295
    7CHTO   O29 2794   6.096   3.593   7.242 -0.5248  0.1030 -0.2249
    7CHTO   C50 2795   5.984   3.653   7.172 -0.4097  0.4658  0.7610
    7CHTO   H92 2796   5.884   3.619   7.202 -0.6523  0.1524 -0.3590
    7CHTO   C54 2797   5.976   3.801   7.225  0.1792  0.3807  0.4623
    7CHTO   O36 2798   6.073   3.885   7.163 -0.2790 -0.6235  0.3533
    7CHTO   H72 2799   6.053   3.977   7.170  1.0871 -0.2910 -0.0399
    7CHTO   O27 2800   6.197   3.394   7.287  0.0186 -0.1978 -0.7684
    7CHTO   C37 2801   6.161   3.287   7.375 -0.2073 -0.1137 -0.2124
    7CHTO   H79 2802   6.053   3.298   7.395 -0.0981 -1.5725  1.2886
    7CHTO   C38 2803   6.180   3.149   7.299  0.1114  0.0426  0.1248
    7CHTO   H80 2804   6.280   3.163   7.255 -0.1767  2.3332  0.1479
    7CHTO   O31 2805   6.074   3.141   7.199  0.0872  0.2640 -0.4728
    7CHTO   H68 2806   6.108   3.101   7.122  2.3603  2.3225 -0.5681
    7CHTO   C39 2807   6.175   3.017   7.384 -0.9477 -0.8373 -0.0921
    7CHTO   H81 2808   6.072   3.015   7.418 -1.4412 -0.8525 -1.5635
    7CHTO    N7 2809   6.207   2.888   7.301 -0.3852  0.0149 -0.3510
    7CHTO   H73 2810   6.310   2.858   7.302 -0.4568 -0.2370  0.5584
    7CHTO   H74 2811   6.154   2.811   7.356 -1.0716  0.1013 -0.8864
    7CHTO   C40 2812   6.257   3.053   7.512  0.0366 -0.7013 -0.7646
    7CHTO   H82 2813   6.359   3.072   7.480  1.4516 -1.0630  3.3248
    7CHTO   O26 2814   6.204   3.173   7.585  0.0573 -0.1465  0.8616
    7CHTO   C41 2815   6.240   3.296   7.510 -0.1622 -0.2880 -0.4514
    7CHTO   H83 2816   6.346   3.290   7.482  0.5544 -0.3170  2.1242
    7CHTO   C52 2817   6.203   3.423   7.598 -0.1952 -0.4600 -0.4587
    7CHTO   O35 2818   6.246   3.539   7.538  0.0091  0.1883  1.0591
    7CHTO   H71 2819   6.326   3.560   7.581 -0.0313 -1.6390  2.0882
    7CHTO   O28 2820   6.265   2.953   7.613 -0.0971 -0.0630 -0.4675
    7CHTO   C42 2821   6.389   2.915   7.682  0.2531 -0.4641 -0.0080
    7CHTO   H84 2822   6.344   2.854   7.760  3.3264 -2.3323  0.3930
    7CHTO   C44 2823   6.464   3.030   7.763  0.7573  0.1617 -0.0325
    7CHTO   H86 2824   6.495   3.112   7.697 -0.5994 -1.1816 -2.4183
    7CHTO   O32 2825   6.372   3.081   7.865  0.5246  0.3331 -0.0077
    7CHTO   H69 2826   6.286   3.075   7.827  1.1635  1.6050 -1.7059
    7CHTO   C48 2827   6.603   2.976   7.821 -0.1241 -0.4035  0.9496
    7CHTO   H90 2828   6.594   2.884   7.878 -0.6024 -0.0968  1.3697
    7CHTO    N9 2829   6.669   3.074   7.911  0.0789  0.0222  0.2855
    7CHTO   H77 2830   6.766   3.113   7.882 -0.1550 -0.5795 -1.3726
    7CHTO   H78 2831   6.682   3.021   8.004 -4.3183  1.7451  2.0091
    7CHTO   C51 2832   6.684   2.944   7.695 -0.4421 -0.0564  0.3025
    7CHTO   H93 2833   6.694   3.030   7.629 -1.5375 -0.2968 -0.1719
    7CHTO   O30 2834   6.626   2.825   7.628  0.2677  0.4251 -0.7924
    7CHTO   C46 2835   6.481   2.819   7.594 -0.1766  0.4726  0.6499
    7CHTO   H88 2836   6.467   2.835   7.487  2.4322  0.5756  0.3004
    7CHTO   C53 2837   6.446   2.671   7.632 -0.7965 -0.2122 -0.5957
    7CHTO   O72 2838   6.312   2.632   7.605 -0.0450  0.3247  0.3116
    7CHTO  H199 2839   6.262   2.631   7.685 -0.5579 -0.4134 -0.0114
    7CHTO   O22 2840   6.817   2.893   7.723 -0.0574 -0.5265  0.0657
    7CHTO   C31 2841   6.936   2.915   7.632 -0.1596 -0.2809  0.0609
    7CHTO   H59 2842   7.025   2.874   7.684 -0.6728 -0.5017  0.7747
    7CHTO   C29 2843   6.924   2.843   7.499  0.2673 -0.4169 -0.4171
    7CHTO   H57 2844   6.828   2.870   7.453  0.5522  0.1697 -0.6765
    7CHTO   O21 2845   6.899   2.701   7.527  0.7485 -0.5909  0.0194
    7CHTO   H37 2846   6.811   2.673   7.507  0.5007  0.6595 -0.6558
    7CHTO   C27 2847   7.045   2.860   7.391  0.9830  0.1047 -0.1952
    7CHTO   H55 2848   7.136   2.809   7.428  0.6454  0.0082  0.5010
    7CHTO    N5 2849   7.002   2.804   7.262  0.7393  0.4108 -0.1409
    7CHTO   H43 2850   6.901   2.835   7.239  0.6708  1.0233  0.9396
    7CHTO   H44 2851   7.066   2.826   7.178  0.9005 -1.1114 -0.4364
    7CHTO   C25 2852   7.089   3.008   7.390  0.1507  0.0454  1.2831
    7CHTO   H53 2853   7.011   3.061   7.333 -0.7461 -1.7337  0.8131
    7CHTO   O17 2854   7.085   3.072   7.518  0.3546 -0.6759 -0.0337
    7CHTO   C32 2855   6.964   3.065   7.596 -0.4056 -0.0699  0.5379
    7CHTO   H60 2856   6.876   3.109   7.550  0.5657 -0.5922 -1.8502
    7CHTO   C36 2857   6.980   3.157   7.721  0.4898  0.2467  0.2956
    7CHTO   O25 2858   7.095   3.123   7.794 -0.1883  0.4013  0.1883
    7CHTO   H40 2859   7.078   3.051   7.851 -1.1908 -0.4528 -1.1665
    7CHTO   O15 2860   7.235   3.026   7.316 -0.0681  0.2183  0.1713
    7CHTO   C19 2861   7.271   3.124   7.207  0.1263  0.0231 -0.3820
    7CHTO   H47 2862   7.380   3.120   7.200  0.3397  1.1957  1.6500
    7CHTO   C20 2863   7.201   3.085   7.068  0.5950  0.0356 -0.2714
    7CHTO   H48 2864   7.091   3.096   7.072  0.7658  1.4614  1.1792
    7CHTO   O19 2865   7.227   2.947   7.043  0.7859  0.4951  0.4736
    7CHTO   H35 2866   7.204   2.933   6.953  0.3712 -1.4803  0.8667
    7CHTO   C21 2867   7.247   3.187   6.950 -0.0599  0.5863 -0.0976
    7CHTO   H49 2868   7.356   3.191   6.944 -0.1551  1.2703 -1.4858
    7CHTO    N4 2869   7.183   3.157   6.823  0.6573 -0.0228 -0.0937
    7CHTO   H41 2870   7.202   3.241   6.758 -0.7837  0.1231 -0.3629
    7CHTO   H42 2871   7.212   3.068   6.770  0.6381  0.4974 -0.9791
    7CHTO   C22 2872   7.219   3.333   7.002 -0.4162  0.3137  0.6981
    7CHTO   H50 2873   7.111   3.334   7.015 -0.4273 -2.6577  1.1205
    7CHTO   O14 2874   7.280   3.359   7.132 -0.4976 -0.1116 -0.4191
    7CHTO   C23 2875   7.248   3.273   7.240 -0.4960 -0.3646  0.5622
    7CHTO   H51 2876   7.150   3.293   7.288 -1.0211 -0.8277 -0.3079
    7CHTO   C34 2877   7.332   3.326   7.357  0.6174  0.3145  0.3014
    7CHTO   O23 2878   7.317   3.462   7.396  0.4564  0.1755  0.1524
    7CHTO   H38 2879   7.237   3.466   7.445  1.2879  0.6913  1.4983
    7CHTO   O16 2880   7.264   3.427   6.905  0.2049  0.1658  0.6593
    7CHTO   C24 2881   7.150   3.549   6.865  0.6049 -0.4148 -0.5517
    7CHTO   H52 2882   7.049   3.526   6.900 -1.2215  2.3477 -3.7168
    7CHTO   C26 2883   7.130   3.554   6.719 -0.0859 -0.5177  0.5167
    7CHTO   H54 2884   7.230   3.575   6.674 -0.6744  0.0240 -0.5550
    7CHTO   O20 2885   7.092   3.417   6.683 -0.0360 -0.3945 -0.1395
    7CHTO   H36 2886   7.114   3.394   6.595  0.7161  0.4709 -0.1927
    7CHTO   C30 2887   7.032   3.658   6.666  0.3126  0.3131  0.0876
    7CHTO   H58 2888   6.931   3.641   6.709  1.0149 -1.8475  0.9870
    7CHTO    N6 2889   7.013   3.662   6.518 -0.0067  0.0689  0.6756
    7CHTO   H45 2890   7.095   3.717   6.474 -1.0939 -0.3741 -1.9990
    7CHTO   H46 2891   6.923   3.716   6.494  0.7641  2.0232  1.9550
    7CHTO   C33 2892   7.076   3.794   6.726  0.6513 -0.0008 -0.2005
    7CHTO   H61 2893   7.168   3.824   6.672  1.1361  2.8462  2.0534
    7CHTO   O18 2894   7.099   3.790   6.865  0.4072 -0.3471  0.2969
    7CHTO   C28 2895   7.193   3.693   6.919  0.1297 -0.3227  1.1876
    7CHTO   H56 2896   7.290   3.714   6.876  0.5029 -3.1983  0.5398
    7CHTO   C35 2897   7.190   3.702   7.070 -0.0993 -0.2882  0.5086
    7CHTO   O24 2898   7.060   3.673   7.122 -0.7794 -0.2817  0.1475
    7CHTO   H39 2899   7.002   3.721   7.066  1.7792  1.4176 -1.1504
    7CHTO    O9 2900   6.980   3.896   6.692 -0.0370 -0.4157 -0.3648
    7CHTO   C13 2901   7.011   4.042   6.638 -0.2146 -0.3703  0.4154
    7CHTO   H26 2902   7.074   4.030   6.547  0.7217  0.1852  0.9913
    7CHTO   C11 2903   7.080   4.144   6.746 -0.1627  0.0822  0.0175
    7CHTO   H24 2904   7.189   4.135   6.755 -0.3875 -1.2418  1.8537
    7CHTO    O8 2905   7.033   4.111   6.885  0.8176 -0.4754  0.0603
    7CHTO    H3 2906   7.101   4.138   6.944  3.0430 -0.7321 -2.3188
    7CHTO    C9 2907   7.040   4.288   6.709 -0.4931 -0.1020 -0.2535
    7CHTO   H22 2908   7.073   4.306   6.606 -0.0728  0.1425 -0.0797
    7CHTO    N2 2909   7.120   4.386   6.781  0.0916  0.3009 -0.0187
    7CHTO   H10 2910   7.223   4.353   6.785 -0.0451 -0.6595 -3.2130
    7CHTO   H11 2911   7.077   4.404   6.879 -1.4021 -2.5252 -0.1022
    7CHTO    C7 2912   6.882   4.300   6.720 -0.3368  0.2912 -0.5689
    7CHTO   H20 2913   6.862   4.366   6.633  2.4700 -2.8528 -3.7376
    7CHTO    O4 2914   6.805   4.178   6.694 -1.0621  0.2352 -0.3111
    7CHTO   C14 2915   6.865   4.100   6.585 -0.2743  0.0880 -0.5078
    7CHTO   H27 2916   6.891   4.155   6.492  0.7877 -0.1743 -0.3781
    7CHTO   C18 2917   6.760   3.989   6.547 -0.2278 -0.7096  0.7870
    7CHTO   O13 2918   6.637   4.043   6.498  0.2187  0.7478 -0.5726
    7CHTO    H7 2919   6.598   4.094   6.566 -2.1772  1.2126 -2.2512
    7CHTO    O2 2920   6.827   4.353   6.847  0.0264  0.2389  0.2985
    7CHTO    C1 2921   6.698   4.421   6.822 -0.3207  0.6840  0.0631
    7CHTO   H14 2922   6.640   4.387   6.734 -0.8920 -1.3472  1.1944
    7CHTO    C2 2923   6.715   4.580   6.817  0.4760  0.0880 -0.5883
    7CHTO   H15 2924   6.758   4.606   6.914 -2.6316 -4.7793  2.3232
    7CHTO    O6 2925   6.790   4.608   6.700 -0.2491 -0.6165 -0.0605
    7CHTO    H1 2926   6.879   4.615   6.726 -0.1314  2.5895 -1.1210
    7CHTO    C3 2927   6.568   4.642   6.815 -0.4128 -0.7496 -0.4973
    7CHTO   H16 2928   6.513   4.614   6.724 -1.0584  0.0342 -0.3460
    7CHTO    N1 2929   6.585   4.795   6.806 -0.0091 -0.1948  0.1692
    7CHTO    H8 2930   6.603   4.821   6.703  1.4403 -1.9682 -0.0516
    7CHTO    H9 2931   6.662   4.833   6.871  1.7484  0.2903 -2.1623
    7CHTO    C4 2932   6.484   4.593   6.933 -0.8195  0.4419  0.4199
    7CHTO   H17 2933   6.525   4.621   7.030 -0.2152  1.1691 -0.0432
    7CHTO    O1 2934   6.475   4.453   6.929  0.4250  0.1394  0.4952
    7CHTO    C5 2935   6.599   4.381   6.945  0.1168  0.1773  0.6523
    7CHTO   H18 2936   6.642   4.421   7.037 -2.0909  1.5141  1.1509
    7CHTO   C16 2937   6.586   4.230   6.954  0.5341  0.9461  0.4674
    7CHTO   O11 2938   6.520   4.198   7.075 -0.1870 -0.0858  0.6892
    7CHTO    H5 2939   6.524   4.104   7.084 -0.2832 -0.1365  0.2374
    7CHTO    O3 2940   6.346   4.636   6.928 -0.0221 -0.6062 -0.4625
    7CHTO    C6 2941   6.284   4.668   7.061 -0.0627 -0.3021 -0.7550
    7CHTO   H19 2942   6.175   4.668   7.062 -0.0623  0.3078  0.8184
    7CHTO    C8 2943   6.308   4.551   7.169 -0.3693  0.4584  0.1883
    7CHTO   H21 2944   6.417   4.537   7.169 -0.4939 -0.5821  0.7609
    7CHTO    O7 2945   6.241   4.436   7.115 -0.5213 -0.1521  0.5939
    7CHTO    H2 2946   6.151   4.460   7.125 -0.3012  0.8416  0.2485
    7CHTO   C12 2947   6.253   4.587   7.311 -0.0267 -0.2199  0.3639
    7CHTO   H25 2948   6.143   4.589   7.296  0.1272  3.5921 -0.6284
    7CHTO    N3 2949   6.302   4.481   7.411  0.1703  0.4580 -0.5389
    7CHTO   H12 2950   6.209   4.428   7.423  0.9383 -0.4083  2.0689
    7CHTO   H13 2951   6.329   4.518   7.509  2.1038  2.1745 -1.6754
    7CHTO   C15 2952   6.287   4.735   7.345 -0.1023 -0.9562 -0.0931
    7CHTO   H28 2953   6.393   4.753   7.367  0.2792 -0.9615 -1.9035
    7CHTO   O10 2954   6.209   4.782   7.452 -0.3152 -0.1335 -0.4147
    7CHTO    H4 2955   6.267   4.797   7.524  2.1976  0.7524 -2.5435
    7CHTO    O5 2956   6.241   4.823   7.242  0.0791 -0.5454 -0.0085
    7CHTO   C10 2957   6.320   4.810   7.119 -0.5099  0.1056 -0.3646
    7CHTO   H23 2958   6.423   4.832   7.148 -1.1791  1.3320  1.1111
    7CHTO   C17 2959   6.274   4.925   7.027  0.0677  0.2092 -0.1015
    7CHTO   O12 2960   6.317   5.046   7.093  0.2995  0.0669  0.0131
    7CHTO    H6 2961   6.254   5.115   7.086 -0.6975 -0.7184  0.9938
    8CHTO  H203 2962   7.296   7.694   1.807 -1.1247 -1.3405 -1.8767
    8CHTO   O82 2963   7.275   7.781   1.778  0.9315  0.0347  0.4956
    8CHTO  C123 2964   7.142   7.815   1.819 -0.0329 -0.1627  0.5613
    8CHTO  H227 2965   7.125   7.788   1.924 -0.1851  0.3636  0.6715
    8CHTO   O77 2966   7.143   7.960   1.813 -0.2089 -0.2150 -0.1951
    8CHTO  C118 2967   7.032   8.016   1.882 -0.3931 -0.2923 -0.3800
    8CHTO  H222 2968   7.021   7.969   1.981  2.1033 -0.6513 -0.2360
    8CHTO  C125 2969   7.056   8.173   1.906 -0.7089 -0.1301  0.3797
    8CHTO   O84 2970   7.072   8.246   1.789  0.2765 -1.2181  0.3051
    8CHTO  H205 2971   7.146   8.221   1.737 -0.2607  1.9660 -2.1341
    8CHTO  C114 2972   6.916   7.988   1.790 -0.6140 -0.1719  0.4208
    8CHTO  H218 2973   6.935   8.038   1.695  0.2294 -2.1496 -0.4861
    8CHTO  C116 2974   6.892   7.835   1.759 -0.0272  0.2935  0.3092
    8CHTO  H220 2975   6.847   7.791   1.851  3.3410  1.4135  2.6012
    8CHTO   O79 2976   6.794   7.825   1.651 -0.2780  0.0338  0.4812
    8CHTO  H201 2977   6.827   7.864   1.572 -0.5854  2.1738  1.3604
    8CHTO  C120 2978   7.027   7.758   1.726  0.4433  0.3533 -0.2192
    8CHTO  H224 2979   7.048   7.789   1.621  0.1557  1.3992  0.0314
    8CHTO   N21 2980   7.013   7.611   1.737 -0.2370  0.2543  0.1158
    8CHTO  H211 2981   7.090   7.565   1.677 -0.2392 -1.6171  1.4845
    8CHTO  H212 2982   7.018   7.562   1.833  1.9375 -0.3656 -0.2910
    8CHTO   O75 2983   6.795   8.045   1.859 -0.6683 -0.2820  0.5121
    8CHTO  C112 2984   6.709   8.136   1.756 -0.1947 -0.2182  0.9595
    8CHTO  H216 2985   6.680   8.078   1.667 -1.1647  2.7897 -0.7866
    8CHTO   O73 2986   6.792   8.251   1.714 -0.3923  0.0186  0.4893
    8CHTO  C113 2987   6.737   8.324   1.608  0.0081 -0.0416  0.1357
    8CHTO  H217 2988   6.715   8.255   1.523 -0.4724  3.1506 -2.4432
    8CHTO  C124 2989   6.847   8.412   1.549  0.2275  0.0983 -0.1795
    8CHTO   O83 2990   6.901   8.519   1.634 -0.2283 -0.6327 -0.1794
    8CHTO  H204 2991   6.987   8.493   1.663 -0.8875 -1.1938  1.3466
    8CHTO  C109 2992   6.614   8.403   1.666 -0.2006 -0.0622  0.3291
    8CHTO  H213 2993   6.653   8.478   1.737 -1.0760  0.9305 -0.2162
    8CHTO  C110 2994   6.513   8.305   1.733  0.1658  0.4667 -1.0530
    8CHTO  H214 2995   6.459   8.254   1.653 -0.6221  0.6022 -0.6121
    8CHTO   O78 2996   6.416   8.392   1.792 -1.2052  0.0009 -0.4040
    8CHTO  H200 2997   6.440   8.420   1.879 -0.6389  2.4327 -1.3063
    8CHTO  C111 2998   6.581   8.204   1.825  0.0516 -0.5770  0.1899
    8CHTO  H215 2999   6.619   8.254   1.916  1.5148 -0.4111 -0.4988
    8CHTO   N19 3000   6.496   8.093   1.875 -0.0660  0.4423  0.5167
    8CHTO  H207 3001   6.551   8.023   1.936  0.6182  0.6761  0.1681
    8CHTO  H208 3002   6.436   8.045   1.799 -1.6995  1.0244  1.4175
    8CHTO   O74 3003   6.552   8.477   1.553 -0.2243  0.0587  0.0024
    8CHTO  C115 3004   6.472   8.613   1.582  0.0754  0.4837 -0.1613
    8CHTO  H219 3005   6.430   8.612   1.683  1.7313 -3.0009  0.5699
    8CHTO   O76 3006   6.567   8.746   1.580 -0.3536  0.4376 -0.1816
    8CHTO  C122 3007   6.622   8.769   1.450 -0.2260 -0.3068 -0.3794
    8CHTO  H226 3008   6.683   8.681   1.431  0.1691  0.0816 -0.9464
    8CHTO  C126 3009   6.721   8.886   1.456 -0.2092 -0.3395 -0.2704
    8CHTO   O85 3010   6.674   9.017   1.505  0.3794  0.0592  0.1035
    8CHTO  H206 3011   6.719   9.046   1.582 -2.6208  0.2003  1.8920
    8CHTO  C121 3012   6.511   8.784   1.341  0.2112  0.2628  0.4063
    8CHTO  H225 3013   6.518   8.883   1.291  1.5427 -0.9381 -1.8929
    8CHTO   O81 3014   6.533   8.699   1.234 -0.5419  0.2370  0.3572
    8CHTO  H202 3015   6.469   8.635   1.208 -2.0277  1.0995  1.8508
    8CHTO  C119 3016   6.365   8.761   1.398  0.3783 -0.3205 -0.3948
    8CHTO  H223 3017   6.346   8.837   1.473  3.1627 -0.9459  1.0281
    8CHTO  C117 3018   6.356   8.626   1.469 -0.4325 -0.3834  0.3659
    8CHTO  H221 3019   6.370   8.537   1.408 -2.3316  0.2116 -1.0114
    8CHTO   N20 3020   6.224   8.599   1.526 -0.5183  0.2162 -0.1118
    8CHTO  H209 3021   6.199   8.495   1.509 -1.5071  0.4531 -0.1246
    8CHTO  H210 3022   6.147   8.656   1.477  0.2845 -0.2728 -2.0176
    8CHTO   O80 3023   6.254   8.790   1.285  0.4404 -0.4570 -0.1208
    8CHTO  C103 3024   6.180   8.935   1.275  0.2661  0.6550 -0.1470
    8CHTO  H190 3025   6.076   8.914   1.250 -0.1463  3.4668 -0.9327
    8CHTO  C101 3026   6.188   9.022   1.411  0.2503 -0.1034 -0.8213
    8CHTO  H188 3027   6.283   9.027   1.465 -1.0918 -1.9654  1.7908
    8CHTO   O68 3028   6.092   8.957   1.501  0.2694 -0.2137 -0.5308
    8CHTO  H168 3029   6.109   8.990   1.587  3.5275  1.0043 -1.5937
    8CHTO   C99 3030   6.138   9.173   1.376  0.9022 -0.8355 -0.5797
    8CHTO  H186 3031   6.028   9.176   1.359  0.8304 -0.5268 -0.0759
    8CHTO   N17 3032   6.165   9.268   1.491  0.1406  0.4445 -1.0670
    8CHTO  H174 3033   6.068   9.289   1.534  1.2719  0.6666  1.5163
    8CHTO  H175 3034   6.217   9.353   1.450  2.3914  1.0725  2.7953
    8CHTO   C97 3035   6.194   9.221   1.246  0.1123 -0.2952  0.3637
    8CHTO  H184 3036   6.302   9.237   1.263  0.0562 -0.1604  0.6013
    8CHTO   O64 3037   6.168   9.137   1.142  0.2972  0.0531 -0.0460
    8CHTO  C104 3038   6.240   9.010   1.150 -0.2495 -0.0217  0.0416
    8CHTO  H191 3039   6.345   9.033   1.167 -0.5017  1.8045 -0.6711
    8CHTO  C108 3040   6.231   8.941   1.019 -0.1059  0.0051 -0.4275
    8CHTO   O71 3041   6.099   8.921   0.972 -0.2341  0.5888  0.3113
    8CHTO  H171 3042   6.078   8.997   0.921 -0.0598  0.9940  0.8363
    8CHTO   O62 3043   6.151   9.344   1.196  0.2089 -0.5720 -0.2241
    8CHTO   C91 3044   6.234   9.449   1.135 -0.3472 -0.1383 -0.3325
    8CHTO  H178 3045   6.341   9.434   1.146 -0.3340  1.4635  2.0886
    8CHTO   C92 3046   6.218   9.576   1.220  0.0217  0.0370 -0.0272
    8CHTO  H179 3047   6.113   9.588   1.252  0.9327  0.9657  2.6987
    8CHTO   O66 3048   6.275   9.544   1.346 -0.2694  0.4171  0.2003
    8CHTO  H166 3049   6.256   9.610   1.409  1.8946 -0.7400  2.1396
    8CHTO   C93 3050   6.283   9.709   1.159  0.2262  0.2566 -0.2719
    8CHTO  H180 3051   6.392   9.695   1.169 -0.0176  0.5366  3.1476
    8CHTO   N16 3052   6.253   9.826   1.244 -0.1804  0.1476 -0.0901
    8CHTO  H172 3053   6.196   9.909   1.205 -0.3784  0.2730  0.4580
    8CHTO  H173 3054   6.348   9.866   1.276 -0.2081  1.3353 -1.4707
    8CHTO   C94 3055   6.240   9.723   1.007  0.0824  0.0330 -0.3608
    8CHTO  H181 3056   6.132   9.734   0.994 -0.0960  2.2792  2.6722
    8CHTO   O61 3057   6.284   9.596   0.946 -0.0531 -0.1044  0.0606
    8CHTO   C95 3058   6.208   9.481   0.983 -0.0383 -0.0584 -0.1822
    8CHTO  H182 3059   6.103   9.494   0.957 -0.0357  2.1244  0.8273
    8CHTO  C106 3060   6.269   9.367   0.900 -0.0404 -0.1425 -0.3241
    8CHTO   O69 3061   6.283   9.387   0.759 -0.1680 -0.4777 -0.5297
    8CHTO  H169 3062   6.196   9.365   0.733  0.0776 -0.9509 -0.9695
    8CHTO   O63 3063   6.299   9.844   0.927  0.3962  0.1875 -0.0866
    8CHTO   C96 3064   6.293   9.847   0.766  0.1615  0.1091  0.8197
    8CHTO  H183 3065   6.217   9.777   0.732 -0.5374  1.8901 -1.3910
    8CHTO   C98 3066   6.430   9.813   0.708 -0.9784 -0.1297 -0.8335
    8CHTO  H185 3067   6.505   9.866   0.769  0.1856 -1.0673 -1.4525
    8CHTO   O67 3068   6.457   9.671   0.717 -0.5259  0.6433  0.2363
    8CHTO  H167 3069   6.434   9.633   0.634  2.1427  0.2180 -0.3571
    8CHTO  C102 3070   6.446   9.848   0.553 -0.8059 -0.4502 -0.1551
    8CHTO  H189 3071   6.383   9.778   0.497 -1.8103  0.1037  0.2738
    8CHTO   N18 3072   6.582   9.832   0.495  0.6508  0.7691  0.1092
    8CHTO  H176 3073   6.594   9.740   0.440  0.8991 -0.5149  2.2429
    8CHTO  H177 3074   6.603   9.919   0.434 -1.5689  1.1735 -0.1098
    8CHTO  C105 3075   6.378   9.986   0.518  0.2347 -0.4231 -0.0823
    8CHTO  H192 3076   6.447  10.066   0.545  0.1201  0.7800 -3.0696
    8CHTO   O65 3077   6.257  10.012   0.582  0.3044 -0.1228  0.2720
    8CHTO  C100 3078   6.249   9.992   0.726  0.7818  0.1925  0.2925
    8CHTO  H187 3079   6.321  10.061   0.773  0.1463  0.0348  1.5090
    8CHTO  C107 3080   6.104  10.036   0.759 -0.3916 -0.5825  0.2714
    8CHTO   O70 3081   6.078  10.039   0.902  0.4257  0.2778 -0.0850
    8CHTO  H170 3082   5.987  10.062   0.906  0.1242 -1.1373  1.9119
    8CHTO   O57 3083   6.368   9.988   0.351 -0.0032  0.3358  0.0551
    8CHTO   C85 3084   6.420  10.100   0.278  0.4844  0.1997 -0.7773
    8CHTO  H157 3085   6.526  10.105   0.310  0.6225  1.6601 -1.4189
    8CHTO   C83 3086   6.342  10.228   0.325 -0.4975  0.1442  0.9705
    8CHTO  H155 3087   6.358  10.235   0.433 -0.1331 -1.2437  1.0271
    8CHTO   O56 3088   6.204  10.216   0.290 -0.1608 -0.4020 -0.2237
    8CHTO  H135 3089   6.177  10.139   0.338 -1.0062 -1.7339 -2.7591
    8CHTO   C81 3090   6.417  10.344   0.254 -0.5252 -0.5857  0.3894
    8CHTO  H153 3091   6.523  10.334   0.277 -0.9296 -0.5239  2.4025
    8CHTO   N14 3092   6.389  10.479   0.314  0.1067 -0.3398  0.3631
    8CHTO  H141 3093   6.370  10.547   0.234 -1.4888 -2.5770 -1.2340
    8CHTO  H142 3094   6.471  10.516   0.373  0.2966 -0.3483  0.1020
    8CHTO   C79 3095   6.398  10.328   0.096  0.5094  0.2845 -0.1880
    8CHTO  H151 3096   6.458  10.403   0.045  0.2238  0.8683  0.3092
    8CHTO   O52 3097   6.450  10.195   0.049 -0.4657 -0.9618  0.5445
    8CHTO   C86 3098   6.410  10.082   0.127 -0.2511  0.1762  0.2242
    8CHTO  H158 3099   6.307  10.058   0.094 -0.3283  1.9983 -0.9740
    8CHTO   C90 3100   6.494   9.962   0.078 -0.6754  0.8804 -0.3909
    8CHTO   O60 3101   6.627   9.971   0.132 -0.2470  0.6877  0.3003
    8CHTO  H138 3102   6.676  10.043   0.098  3.1063 -1.9587 -0.8082
    8CHTO   O50 3103   6.257  10.336   0.055  0.7223 -0.3718 -0.4696
    8CHTO   C73 3104   6.149  10.380  -0.029  0.0174 -0.3864  0.1955
    8CHTO  H145 3105   6.186  10.377  -0.132  0.5232 -2.6126  0.4149
    8CHTO   C74 3106   6.088  10.521   0.015 -0.2001  0.7203  0.2250
    8CHTO  H146 3107   6.167  10.596   0.004 -0.2944  0.8229  0.2472
    8CHTO   O54 3108   5.982  10.559  -0.074  0.0607 -0.0891  0.0427
    8CHTO  H133 3109   6.015  10.574  -0.160 -0.2447  1.0880  0.1242
    8CHTO   C75 3110   6.041  10.508   0.168  0.2666  0.3658 -0.0876
    8CHTO  H147 3111   6.129  10.487   0.231 -0.2924  4.3081  2.2109
    8CHTO   N13 3112   5.996  10.628   0.227  0.0506  0.5960 -0.1978
    8CHTO  H139 3113   6.063  10.711   0.214  1.7308 -0.9517 -1.7580
    8CHTO  H140 3114   5.962  10.609   0.328 -0.5513  1.7819 -0.1698
    8CHTO   C76 3115   5.938  10.389   0.193 -0.1100  0.4866 -0.2558
    8CHTO  H148 3116   5.836  10.421   0.174 -0.3561  1.0806  1.9637
    8CHTO   O49 3117   5.982  10.276   0.119 -0.3005  0.1191 -0.0838
    8CHTO   C77 3118   6.036  10.275  -0.014 -0.1799  0.0722  0.4556
    8CHTO  H149 3119   5.962  10.297  -0.091 -0.8493 -0.3114  0.9794
    8CHTO   C88 3120   6.088  10.136  -0.050 -0.2435  0.7238 -0.2415
    8CHTO   O58 3121   5.970  10.030  -0.007  0.2478 -0.0120  0.4309
    8CHTO  H136 3122   5.930   9.987  -0.081  0.3158  0.1416  0.3062
    8CHTO   O51 3123   5.943  10.339   0.339  0.1116  0.6368 -0.7672
    8CHTO   C78 3124   5.815  10.288   0.395 -1.1381  0.5801  0.1922
    8CHTO  H150 3125   5.741  10.281   0.312 -1.4609 -0.4164  0.5604
    8CHTO   C80 3126   5.772  10.395   0.498 -0.3314  0.3918  0.4427
    8CHTO  H152 3127   5.857  10.422   0.564 -1.5418  1.3404  1.6170
    8CHTO   O55 3128   5.730  10.519   0.427 -0.0748  0.0348 -0.7515
    8CHTO  H134 3129   5.771  10.537   0.345 -0.0950  1.1813 -0.5124
    8CHTO   C84 3130   5.657  10.346   0.587 -0.1377 -0.7168 -0.0991
    8CHTO  H156 3131   5.565  10.337   0.531 -0.2487  1.0582 -0.2181
    8CHTO   N15 3132   5.641  10.444   0.706  0.0915 -0.6586 -0.2075
    8CHTO  H143 3133   5.721  10.451   0.777 -0.0147 -1.8506  0.0353
    8CHTO  H144 3134   5.553  10.419   0.760 -1.3604  1.7109 -1.3575
    8CHTO   C87 3135   5.682  10.205   0.643  0.0818 -0.0813 -0.8841
    8CHTO  H159 3136   5.770  10.212   0.707  1.1402 -1.9089 -2.1091
    8CHTO   O53 3137   5.708  10.102   0.523 -0.1313 -0.0196 -0.0785
    8CHTO   C82 3138   5.831  10.142   0.458 -0.2254 -0.0820  0.5130
    8CHTO  H154 3139   5.915  10.142   0.527 -0.3490  2.1068  0.7198
    8CHTO   C89 3140   5.861  10.038   0.355  0.1906 -0.1261  0.1180
    8CHTO   O59 3141   6.005  10.017   0.336  0.2240  0.0841  0.3598
    8CHTO  H137 3142   6.019   9.927   0.317 -1.6945 -0.1430 -0.1262
    8CHTO   O45 3143   5.562  10.147   0.725 -0.1310  0.3785  0.4398
    8CHTO   C67 3144   5.603  10.046   0.819 -0.7582  0.0854 -0.0032
    8CHTO  H124 3145   5.685   9.994   0.772 -0.7511  1.9414 -2.1350
    8CHTO   C65 3146   5.650  10.101   0.962 -0.6105  0.0323  1.4594
    8CHTO  H122 3147   5.616  10.204   0.968 -2.5866 -0.5029 -0.1770
    8CHTO   O44 3148   5.792  10.100   0.975  0.0982 -0.4898 -0.0409
    8CHTO  H102 3149   5.839  10.101   0.894 -1.9170  0.0371 -1.2301
    8CHTO   C63 3150   5.571  10.037   1.078 -0.9522 -0.2140  0.3778
    8CHTO  H120 3151   5.470  10.076   1.071 -0.7603  0.4385  1.1823
    8CHTO   N11 3152   5.605  10.075   1.220  1.1049 -0.2702 -0.2468
    8CHTO  H108 3153   5.582  10.178   1.233  0.5735 -0.1836 -1.7416
    8CHTO  H109 3154   5.710  10.063   1.240  1.3554 -2.3493 -2.4597
    8CHTO   C61 3155   5.565   9.881   1.056  0.3816  1.0761 -0.2158
    8CHTO  H118 3156   5.495   9.835   1.127  0.3662 -1.2850 -1.7249
    8CHTO   O40 3157   5.514   9.835   0.932  0.6428 -0.0378 -0.2579
    8CHTO   C68 3158   5.486   9.940   0.832  0.0133 -0.7231 -0.0635
    8CHTO  H125 3159   5.396   9.994   0.866  0.3643  0.6885 -1.2900
    8CHTO   C72 3160   5.452   9.878   0.691  0.2716  0.3528  0.4175
    8CHTO   O48 3161   5.346   9.781   0.708 -0.2406  0.2967 -0.2233
    8CHTO  H105 3162   5.273   9.825   0.747 -0.7419  0.9759 -1.8689
    8CHTO   O38 3163   5.703   9.826   1.062  0.3168  0.1910 -0.0683
    8CHTO   C55 3164   5.711   9.687   1.068 -0.0674  0.5090  0.7771
    8CHTO  H112 3165   5.631   9.638   1.010  1.0140  0.0295 -0.3457
    8CHTO   C56 3166   5.729   9.620   1.210  0.1953  0.3412  0.2713
    8CHTO  H113 3167   5.818   9.674   1.245  0.3247 -0.7868  1.7529
    8CHTO   O42 3168   5.618   9.646   1.301 -0.1055 -0.0044  0.3701
    8CHTO  H100 3169   5.652   9.687   1.379 -0.2915  0.3844  0.2477
    8CHTO   C57 3170   5.767   9.465   1.194  0.1136 -0.1988 -0.1886
    8CHTO  H114 3171   5.676   9.415   1.161  0.2360 -1.8305  1.8488
    8CHTO   N10 3172   5.804   9.402   1.325 -0.2686  0.1896 -0.0549
    8CHTO  H106 3173   5.908   9.426   1.340 -0.4809 -0.2734  2.3483
    8CHTO  H107 3174   5.749   9.452   1.404  0.1868  0.0817  0.3324
    8CHTO   C58 3175   5.882   9.441   1.087  0.6822  0.5799 -0.4760
    8CHTO  H115 3176   5.976   9.491   1.119 -0.4218  2.3981  0.0125
    8CHTO   O37 3177   5.838   9.506   0.971  0.7798 -0.8567  0.6918
    8CHTO   C59 3178   5.836   9.645   0.980 -0.3052  0.4800 -0.1252
    8CHTO  H116 3179   5.930   9.672   1.029 -0.4813 -0.7187  0.9150
    8CHTO   C70 3180   5.831   9.709   0.839  0.2165 -0.4519  0.1528
    8CHTO   O46 3181   5.951   9.708   0.759  0.2853 -0.0041  0.2871
    8CHTO  H103 3182   5.933   9.731   0.670 -1.2076 -0.9082  0.3488
    8CHTO   O39 3183   5.904   9.285   1.051 -0.1192  1.0667 -0.4027
    8CHTO   C60 3184   5.842   9.233   0.933  0.3437 -0.7651 -0.1885
    8CHTO  H117 3185   5.755   9.294   0.907  0.6572 -1.1868 -2.2777
    8CHTO   C62 3186   5.926   9.233   0.817 -0.5897 -0.0322 -0.0385
    8CHTO  H119 3187   5.964   9.337   0.809  0.7787 -0.3587  1.9521
    8CHTO   O43 3188   6.040   9.153   0.835  0.1567  0.5097 -0.4227
    8CHTO  H101 3189   6.009   9.069   0.862 -0.4830  1.5038  2.1378
    8CHTO   C66 3190   5.842   9.189   0.683  0.8775 -0.6271 -0.0111
    8CHTO  H123 3191   5.749   9.246   0.681  0.7078 -0.9026  0.0830
    8CHTO   N12 3192   5.912   9.225   0.557 -0.1104  0.1744 -0.0924
    8CHTO  H110 3193   5.931   9.331   0.563  0.6081 -0.0218  1.3344
    8CHTO  H111 3194   6.009   9.176   0.561  0.7855  1.9390  0.0636
    8CHTO   C69 3195   5.805   9.042   0.702  0.5137  1.2090  0.4013
    8CHTO  H126 3196   5.891   8.974   0.712 -0.1524 -0.1889 -2.6820
    8CHTO   O41 3197   5.715   9.034   0.832 -0.9426  0.9716  0.0182
    8CHTO   C64 3198   5.787   9.087   0.959 -0.0199 -0.0601  0.3483
    8CHTO  H121 3199   5.871   9.025   0.996 -0.6471 -0.0806  1.7629
    8CHTO   C71 3200   5.677   9.089   1.078 -0.5890  0.9674  0.0417
    8CHTO   O47 3201   5.593   9.201   1.072  1.1267 -0.0427 -0.0097
    8CHTO  H104 3202   5.511   9.184   1.116  2.1749 -0.8029  1.7140
    8CHTO   O34 3203   5.719   8.992   0.575 -0.0290  0.4222 -0.4494
    8CHTO   C49 3204   5.594   8.918   0.567 -0.6792  0.0823 -1.3251
    8CHTO   H91 3205   5.610   8.827   0.625 -1.3070  0.2269 -0.9158
    8CHTO   C47 3206   5.564   8.880   0.424  0.5282  0.4419 -0.2443
    8CHTO   H89 3207   5.466   8.830   0.431  0.2770  0.8722 -0.6265
    8CHTO   O33 3208   5.664   8.782   0.384 -0.3332 -0.3400  0.4511
    8CHTO   H70 3209   5.736   8.821   0.338 -1.4922  0.5978 -0.6127
    8CHTO   C45 3210   5.552   9.016   0.331 -0.4758 -0.0563 -0.1460
    8CHTO   H87 3211   5.656   9.039   0.306 -0.4024 -1.1277 -0.8593
    8CHTO    N8 3212   5.485   8.980   0.199  0.0145 -0.3132 -0.3057
    8CHTO   H75 3213   5.444   8.880   0.206  0.2865 -0.5384 -1.7894
    8CHTO   H76 3214   5.400   9.047   0.193  0.6332  1.0205  3.9663
    8CHTO   C43 3215   5.485   9.129   0.424 -0.0863  0.8077 -0.5030
    8CHTO   H85 3216   5.569   9.180   0.472 -0.7145 -0.3724  1.8994
    8CHTO   O29 3217   5.399   9.075   0.521  0.0763 -0.0879  0.2354
    8CHTO   C50 3218   5.474   9.001   0.621  0.3754  0.2534 -0.3224
    8CHTO   H92 3219   5.507   9.071   0.698  0.3112 -0.9570  0.8275
    8CHTO   C54 3220   5.378   8.913   0.697  0.3689 -0.4033  0.3354
    8CHTO   O36 3221   5.435   8.851   0.813 -0.1429  0.2017  0.2440
    8CHTO   H72 3222   5.365   8.794   0.840 -0.7936 -0.2573 -2.2542
    8CHTO   O27 3223   5.435   9.230   0.342 -0.6506 -0.1174  0.5791
    8CHTO   C37 3224   5.390   9.357   0.380  0.3011 -0.2963 -0.1560
    8CHTO   H79 3225   5.374   9.365   0.488  3.6941 -1.2658  0.4937
    8CHTO   C38 3226   5.505   9.464   0.353  0.1176  0.4537  0.0379
    8CHTO   H80 3227   5.541   9.452   0.250  0.3723  0.6262  0.1060
    8CHTO   O31 3228   5.623   9.445   0.438 -0.6384  0.0314 -0.0348
    8CHTO   H68 3229   5.667   9.371   0.403  0.5061  0.8874 -0.4334
    8CHTO   C39 3230   5.458   9.609   0.383 -0.1634  0.1273  0.6362
    8CHTO   H81 3231   5.439   9.608   0.490 -1.7856 -0.2645  0.3536
    8CHTO    N7 3232   5.557   9.717   0.349  0.4122 -0.1295  0.2449
    8CHTO   H73 3233   5.644   9.674   0.302 -0.2337 -1.3557  0.1676
    8CHTO   H74 3234   5.518   9.796   0.286  0.0073  1.4644  2.4487
    8CHTO   C40 3235   5.327   9.637   0.299  0.2842  0.2375 -0.3930
    8CHTO   H82 3236   5.351   9.644   0.193 -1.5027  1.4504 -0.7543
    8CHTO   O26 3237   5.229   9.535   0.325  0.1132  0.0001  0.0573
    8CHTO   C41 3238   5.263   9.399   0.299  0.0909 -0.1262 -0.1863
    8CHTO   H83 3239   5.291   9.391   0.193  3.2892  0.6679  0.5350
    8CHTO   C52 3240   5.133   9.312   0.323 -0.0723  0.1445  0.2230
    8CHTO   O35 3241   5.158   9.171   0.313  0.8719  0.0528  0.5245
    8CHTO   H71 3242   5.219   9.148   0.381 -0.4029  1.7990  2.3358
    8CHTO   O28 3243   5.267   9.761   0.339 -0.7216 -0.6759 -0.2637
    8CHTO   C42 3244   5.239   9.861   0.232 -0.1486  0.3043  0.0099
    8CHTO   H84 3245   5.160   9.912   0.287 -1.5282 -1.3723 -0.3550
    8CHTO   C44 3246   5.163   9.813   0.099 -0.0396  0.0931 -0.6400
    8CHTO   H86 3247   5.227   9.745   0.044 -1.4898 -0.5362 -1.5820
    8CHTO   O32 3248   5.053   9.739   0.156  0.2828  0.1929  0.1833
    8CHTO   H69 3249   5.053   9.650   0.127  0.6962  0.1276  0.3937
    8CHTO   C48 3250   5.125   9.934   0.001 -0.6658 -0.6913  0.2294
    8CHTO   H90 3251   5.046   9.994   0.047 -0.5471 -0.3182 -0.0450
    8CHTO    N9 3252   5.059   9.887  -0.130  0.4663 -0.5637 -0.2097
    8CHTO   H77 3253   4.989   9.964  -0.158  0.6194 -0.5979 -0.6831
    8CHTO   H78 3254   5.001   9.801  -0.101 -0.4464  0.3838  0.8304
    8CHTO   C51 3255   5.260  10.015  -0.025 -0.0147 -0.1332 -0.6362
    8CHTO   H93 3256   5.334   9.944  -0.062  1.0244 -0.5547  2.1858
    8CHTO   O30 3257   5.304  10.073   0.099 -0.0242 -0.0486 -0.2493
    8CHTO   C46 3258   5.356   9.962   0.202  0.0380 -0.6215  0.0028
    8CHTO   H88 3259   5.443   9.916   0.155  1.2061  1.9215 -0.3701
    8CHTO   C53 3260   5.396  10.044   0.324  0.0565 -0.8245  0.8333
    8CHTO   O72 3261   5.506  10.128   0.300 -0.1817  0.4677  0.0985
    8CHTO  H199 3262   5.575  10.073   0.265  1.3532  1.0232  2.1606
    8CHTO   O22 3263   5.233  10.129  -0.111 -0.0340  0.1367  0.4772
    8CHTO   C31 3264   5.342  10.206  -0.197 -0.1344  0.9758  0.2245
    8CHTO   H59 3265   5.286  10.283  -0.254 -1.2749 -1.1036 -1.5095
    8CHTO   C29 3266   5.444  10.274  -0.112 -0.4874 -0.6313  0.2134
    8CHTO   H57 3267   5.490  10.200  -0.045  0.9066 -0.4621 -0.5360
    8CHTO   O21 3268   5.376  10.369  -0.025  0.0463 -0.4052  0.0446
    8CHTO   H37 3269   5.339  10.442  -0.071  0.5935  0.8753  1.6188
    8CHTO   C27 3270   5.561  10.345  -0.194  0.4762 -0.0650  0.6837
    8CHTO   H55 3271   5.522  10.422  -0.263  0.9632 -0.4187  0.0147
    8CHTO    N5 3272   5.663  10.413  -0.108 -0.0602  0.0490  0.2364
    8CHTO   H43 3273   5.693  10.335  -0.040  2.3312  1.3865  0.7570
    8CHTO   H44 3274   5.618  10.492  -0.051  0.2785 -0.0185  0.5941
    8CHTO   C25 3275   5.612  10.240  -0.297  0.3630 -0.3637  0.1182
    8CHTO   H53 3276   5.654  10.156  -0.239  3.2385  1.7731  1.2612
    8CHTO   O17 3277   5.501  10.189  -0.377 -0.3685 -1.0558 -0.0262
    8CHTO   C32 3278   5.398  10.117  -0.312 -0.2622 -0.6135  0.0302
    8CHTO   H60 3279   5.431  10.022  -0.270  1.2229  0.8081  2.1132
    8CHTO   C36 3280   5.286  10.071  -0.413 -0.1000  0.1981 -0.4235
    8CHTO   O25 3281   5.212  10.174  -0.470 -0.3807  0.2326 -0.0953
    8CHTO   H40 3282   5.240  10.167  -0.559  0.5956 -1.4846  0.3326
    8CHTO   O15 3283   5.731  10.295  -0.397 -0.0273 -0.1581 -0.5932
    8CHTO   C19 3284   5.869  10.267  -0.442 -0.4960  0.0887  0.0083
    8CHTO   H47 3285   5.867  10.257  -0.552 -1.8676 -1.3847  0.1510
    8CHTO   C20 3286   5.970  10.383  -0.403 -0.6143  0.6069  0.4384
    8CHTO   H48 3287   5.975  10.396  -0.294 -0.0076 -0.5812  0.5646
    8CHTO   O19 3288   5.919  10.509  -0.457 -0.1961 -0.6744  0.0388
    8CHTO   H35 3289   5.834  10.522  -0.419  0.6265  0.1077  1.6472
    8CHTO   C21 3290   6.114  10.358  -0.456  0.5311  0.8872  0.3328
    8CHTO   H49 3291   6.116  10.365  -0.565  0.1209 -1.3651  0.1633
    8CHTO    N4 3292   6.221  10.449  -0.416 -0.4931  0.0189  0.3978
    8CHTO   H41 3293   6.291  10.469  -0.496 -0.8478  2.9986  0.7772
    8CHTO   H42 3294   6.177  10.544  -0.390 -0.8093 -0.4958  1.8186
    8CHTO   C22 3295   6.159  10.204  -0.428 -0.1094 -0.0428 -0.2805
    8CHTO   H50 3296   6.200  10.195  -0.328  2.2015  2.3054 -0.9656
    8CHTO   O14 3297   6.056  10.110  -0.461 -0.4054 -0.4091 -0.6288
    8CHTO   C23 3298   5.930  10.137  -0.391  0.6325  0.1376 -0.5983
    8CHTO   H51 3299   5.943  10.139  -0.282  0.9292  0.3290 -0.6376
    8CHTO   C34 3300   5.833  10.026  -0.423 -0.1444  0.3815 -0.3354
    8CHTO   O23 3301   5.868   9.913  -0.351 -0.4018 -0.0524 -0.4023
    8CHTO   H38 3302   5.800   9.849  -0.362 -0.7109  0.4371 -1.3513
    8CHTO   O16 3303   6.260  10.171  -0.523 -0.1342  0.0135 -0.0849
    8CHTO   C24 3304   6.381  10.083  -0.458  0.2766  0.2006  0.0719
    8CHTO   H52 3305   6.362  10.056  -0.354  2.8772 -0.5230  0.3896
    8CHTO   C26 3306   6.517  10.154  -0.466 -0.8133 -0.9887 -0.7387
    8CHTO   H54 3307   6.529  10.196  -0.568 -0.1493  0.2101 -0.1721
    8CHTO   O20 3308   6.524  10.262  -0.370 -0.5750  0.1759 -0.1214
    8CHTO   H36 3309   6.477  10.332  -0.411  0.9750  0.2534 -1.8275
    8CHTO   C30 3310   6.631  10.057  -0.431 -0.6216 -0.2986  0.2366
    8CHTO   H58 3311   6.645  10.059  -0.322  2.2015 -2.1017 -0.0387
    8CHTO    N6 3312   6.759  10.121  -0.481  0.6034  0.0791 -0.9512
    8CHTO   H45 3313   6.836  10.140  -0.408 -1.7804 -1.8939  2.2117
    8CHTO   H46 3314   6.734  10.213  -0.533 -0.4199  1.3160  1.6301
    8CHTO   C33 3315   6.620   9.911  -0.482 -0.3632 -0.0435 -0.1307
    8CHTO   H61 3316   6.659   9.904  -0.585 -0.6699  0.7681 -0.3104
    8CHTO   O18 3317   6.485   9.864  -0.473 -0.1705 -0.5023  0.1299
    8CHTO   C28 3318   6.388   9.951  -0.536  0.6700  0.7401 -0.1737
    8CHTO   H56 3319   6.411   9.970  -0.640 -1.1997  0.4016 -0.6604
    8CHTO   C35 3320   6.263   9.877  -0.535 -0.3266 -0.3631  0.4789
    8CHTO   O24 3321   6.280   9.756  -0.609 -0.1920 -0.3244 -0.0373
    8CHTO   H39 3322   6.218   9.687  -0.615  1.2670 -1.8337  1.5937
    8CHTO    O9 3323   6.710   9.833  -0.403 -0.4021  0.1332  0.0184
    8CHTO   C13 3324   6.725   9.693  -0.446 -0.0931  0.1768 -0.8692
    8CHTO   H26 3325   6.708   9.688  -0.556  1.4014 -0.6168 -1.0797
    8CHTO   C11 3326   6.616   9.606  -0.367  0.5364  0.3756 -0.1215
    8CHTO   H24 3327   6.518   9.631  -0.409  1.6558  2.4466 -1.5526
    8CHTO    O8 3328   6.607   9.642  -0.229 -0.1394  0.9071 -0.3666
    8CHTO    H3 3329   6.566   9.727  -0.225 -1.5799  0.2417 -0.6779
    8CHTO    C9 3330   6.658   9.462  -0.389  0.4874  0.1865 -0.0153
    8CHTO   H22 3331   6.676   9.452  -0.497  0.8265 -0.7064  0.1225
    8CHTO    N2 3332   6.554   9.351  -0.371 -0.4891 -0.8192 -0.3826
    8CHTO   H10 3333   6.529   9.297  -0.461 -1.8626  0.1951 -0.6286
    8CHTO   H11 3334   6.465   9.385  -0.321 -1.3323 -2.2173 -0.9229
    8CHTO    C7 3335   6.794   9.442  -0.305 -0.2517 -0.6181 -0.0512
    8CHTO   H20 3336   6.847   9.368  -0.368  0.9495 -0.9082  1.2680
    8CHTO    O4 3337   6.885   9.563  -0.299  0.1127 -0.0173  0.4670
    8CHTO   C14 3338   6.872   9.646  -0.414 -0.2464 -0.0679  0.6360
    8CHTO   H27 3339   6.902   9.592  -0.506 -0.7835  0.9017 -0.1096
    8CHTO   C18 3340   6.978   9.758  -0.398  0.2384 -0.3509 -0.8727
    8CHTO   O13 3341   7.116   9.713  -0.386  0.2906 -0.5858 -0.2275
    8CHTO    H7 3342   7.180   9.773  -0.353 -0.4128  0.6185 -1.0135
    8CHTO    O2 3343   6.778   9.371  -0.157  0.3119 -0.3977 -0.3440
    8CHTO    C1 3344   6.891   9.294  -0.112 -0.7567 -0.2389 -0.1715
    8CHTO   H14 3345   6.888   9.298  -0.001  0.6240  0.7584 -0.1532
    8CHTO    C2 3346   7.034   9.340  -0.149  0.8614 -0.7275  0.9457
    8CHTO   H15 3347   7.045   9.346  -0.259 -1.4453  1.2079  0.7790
    8CHTO    O6 3348   7.047   9.480  -0.097  0.1572 -0.1696 -0.4654
    8CHTO    H1 3349   6.991   9.492  -0.024 -1.2760  0.7335 -1.6879
    8CHTO    C3 3350   7.141   9.243  -0.084 -0.8455  0.5100  0.9994
    8CHTO   H16 3351   7.125   9.241   0.025 -2.1620 -0.1072  0.8035
    8CHTO    N1 3352   7.285   9.292  -0.097 -0.5484 -0.1015 -0.4723
    8CHTO    H8 3353   7.290   9.365  -0.176 -0.0577  0.6070  0.2151
    8CHTO    H9 3354   7.312   9.340  -0.005 -0.9997 -0.4505 -0.1554
    8CHTO    C4 3355   7.122   9.096  -0.133  0.6667 -0.3648 -0.2325
    8CHTO   H17 3356   7.141   9.096  -0.241  0.4765  0.8866 -0.2773
    8CHTO    O1 3357   6.983   9.053  -0.125  0.1236  0.3648  0.1688
    8CHTO    C5 3358   6.884   9.145  -0.172 -0.4298 -0.3639 -0.0018
    8CHTO   H18 3359   6.900   9.156  -0.279  0.2842  2.9381  0.3738
    8CHTO   C16 3360   6.755   9.062  -0.142  0.6854 -0.3142  0.1789
    8CHTO   O11 3361   6.737   9.042  -0.004  0.1773 -0.0824 -0.0641
    8CHTO    H5 3362   6.810   8.994   0.031 -0.3474 -0.7191  0.1814
    8CHTO    O3 3363   7.200   8.998  -0.059 -0.0362 -0.3721  0.3030
    8CHTO    C6 3364   7.203   8.868  -0.125 -1.1827 -0.3723  0.1981
    8CHTO   H19 3365   7.116   8.844  -0.185 -2.0724  1.3539  0.7392
    8CHTO    C8 3366   7.329   8.850  -0.206 -0.0821 -0.6883  0.4374
    8CHTO   H21 3367   7.408   8.902  -0.152  0.3325  0.2387 -1.0291
    8CHTO    O7 3368   7.314   8.919  -0.335  0.1009 -0.5112 -0.4513
    8CHTO    H2 3369   7.228   8.901  -0.370 -1.4093 -1.0754  3.2295
    8CHTO   C12 3370   7.369   8.704  -0.240 -0.3505 -0.0907 -0.0740
    8CHTO   H25 3371   7.298   8.658  -0.312  1.2085 -2.3069 -0.2552
    8CHTO    N3 3372   7.504   8.698  -0.307 -0.0262  0.8678 -0.1188
    8CHTO   H12 3373   7.530   8.594  -0.313 -0.7700  0.7183 -0.8271
    8CHTO   H13 3374   7.579   8.742  -0.242 -0.8473  1.7631  0.2410
    8CHTO   C15 3375   7.368   8.619  -0.108 -0.9023  0.3178 -0.5307
    8CHTO   H28 3376   7.440   8.664  -0.040 -0.9702  0.5549 -0.6108
    8CHTO   O10 3377   7.381   8.492  -0.120 -0.0350  0.2084 -1.0582
    8CHTO    H4 3378   7.465   8.468  -0.087 -0.2327 -1.1320 -1.4851
    8CHTO    O5 3379   7.239   8.624  -0.054 -0.0918 -0.2305  0.5972
    8CHTO   C10 3380   7.208   8.760  -0.011 -0.4725 -0.7623 -0.6911
    8CHTO   H23 3381   7.282   8.790   0.063 -0.3817  0.5572 -1.3043
    8CHTO   C17 3382   7.075   8.759   0.069 -0.6857 -0.4142  0.2932
    8CHTO   O12 3383   7.100   8.688   0.191  0.1352 -0.4880 -0.0064
    8CHTO    H6 3384   7.032   8.683   0.255  0.4107 -1.5616  0.2190
    9CHTO  H203 3385   7.062   5.396   5.551 -0.0570  1.4906  0.2378
    9CHTO   O82 3386   7.136   5.341   5.567 -0.3280  0.8321 -0.6921
    9CHTO  C123 3387   7.236   5.355   5.470 -0.1561  0.1538  0.2847
    9CHTO  H227 3388   7.317   5.417   5.511 -0.7514 -0.0366  1.7496
    9CHTO   O77 3389   7.281   5.215   5.455 -0.2539 -0.2962  0.1794
    9CHTO  C118 3390   7.387   5.193   5.361  0.2039 -0.1837  0.6487
    9CHTO  H222 3391   7.479   5.233   5.406 -0.1835 -0.3933  1.6452
    9CHTO  C125 3392   7.409   5.043   5.345 -0.2216  0.6267 -0.0207
    9CHTO   O84 3393   7.297   4.974   5.293 -0.4996 -0.2452  0.2543
    9CHTO  H205 3394   7.220   4.977   5.347  0.4818 -0.4696  1.7034
    9CHTO  C114 3395   7.370   5.257   5.218  0.5129 -0.3768 -0.4030
    9CHTO  H218 3396   7.290   5.204   5.167 -0.1131 -0.7464  0.9244
    9CHTO  C116 3397   7.326   5.410   5.234 -0.1712 -0.1796 -1.2147
    9CHTO  H220 3398   7.411   5.457   5.287 -0.8610 -0.0400 -0.2142
    9CHTO   O79 3399   7.301   5.462   5.099  0.1115 -0.0951  0.7618
    9CHTO  H201 3400   7.309   5.555   5.100 -0.8997  0.0904 -2.7188
    9CHTO  C120 3401   7.197   5.406   5.330 -0.4176 -0.6126  0.2019
    9CHTO  H224 3402   7.129   5.335   5.279 -0.4096 -0.9898  0.7122
    9CHTO   N21 3403   7.144   5.548   5.339 -0.3101  1.0332 -0.4975
    9CHTO  H211 3404   7.039   5.548   5.363 -0.3955 -1.8752 -0.6904
    9CHTO  H212 3405   7.154   5.597   5.244  0.5423 -1.6192 -1.8283
    9CHTO   O75 3406   7.499   5.249   5.150  0.4605 -0.3686  0.0933
    9CHTO  C112 3407   7.478   5.173   5.009  0.0768  0.1889  0.8696
    9CHTO  H216 3408   7.380   5.211   4.978  0.7853  1.9564  0.7199
    9CHTO   O73 3409   7.473   5.032   5.041  0.8148  0.5971  0.6626
    9CHTO  C113 3410   7.453   4.942   4.928  0.3307 -0.1211 -0.1353
    9CHTO  H217 3411   7.363   4.978   4.875 -0.0325 -0.2253  0.4017
    9CHTO  C124 3412   7.435   4.794   4.972  0.2297  0.5765 -0.6387
    9CHTO   O83 3413   7.376   4.694   4.885 -0.0035 -0.5951 -0.0623
    9CHTO  H204 3414   7.403   4.607   4.907  0.7370 -0.1400  0.8322
    9CHTO  C109 3415   7.578   4.959   4.835 -0.8738 -0.1137 -0.4422
    9CHTO  H213 3416   7.664   4.923   4.894 -1.7572 -1.1011  0.2708
    9CHTO  C110 3417   7.597   5.103   4.787  0.4290 -0.3357  0.8277
    9CHTO  H214 3418   7.514   5.124   4.719  1.3738  0.9821  0.0584
    9CHTO   O78 3419   7.717   5.112   4.713 -0.8395  0.2206  0.2583
    9CHTO  H200 3420   7.791   5.088   4.765 -1.6924 -0.1685  1.2971
    9CHTO  C111 3421   7.591   5.205   4.905 -0.6302 -0.6737 -0.0446
    9CHTO  H215 3422   7.682   5.191   4.965  1.4584  0.5970 -2.8065
    9CHTO   N19 3423   7.589   5.346   4.869  0.5257  0.3354 -0.2555
    9CHTO  H207 3424   7.507   5.370   4.803  0.8793  0.1588 -0.7644
    9CHTO  H208 3425   7.583   5.409   4.956  2.0612 -2.4559  1.9505
    9CHTO   O74 3426   7.551   4.876   4.721  0.6090 -0.0144  0.0673
    9CHTO  C115 3427   7.687   4.828   4.628  0.6113 -1.1919  0.2781
    9CHTO  H219 3428   7.772   4.896   4.631  0.8238 -1.4618  0.3556
    9CHTO   O76 3429   7.752   4.684   4.681 -0.2521  0.0804 -0.0166
    9CHTO  C122 3430   7.662   4.576   4.666 -0.4317 -0.0565 -0.3084
    9CHTO  H226 3431   7.566   4.599   4.712 -0.7951  0.2237 -1.2023
    9CHTO  C126 3432   7.720   4.440   4.735  0.3743 -0.1962 -0.2701
    9CHTO   O85 3433   7.709   4.436   4.881  0.0450 -0.2083  0.2021
    9CHTO  H206 3434   7.766   4.500   4.918 -2.3464  2.2313 -0.1450
    9CHTO  C121 3435   7.626   4.553   4.516 -0.7547  0.0638  0.9071
    9CHTO  H225 3436   7.725   4.544   4.465 -2.2074  0.5301 -2.1002
    9CHTO   O81 3437   7.547   4.440   4.496  0.2408 -0.3438 -0.2438
    9CHTO  H202 3438   7.465   4.446   4.449  0.5070 -1.8914 -0.9507
    9CHTO  C119 3439   7.555   4.686   4.460 -0.2586  0.6045 -0.6908
    9CHTO  H223 3440   7.545   4.674   4.352 -0.2095 -2.8147 -0.3627
    9CHTO  C117 3441   7.647   4.815   4.479  0.7792  0.4883 -0.4432
    9CHTO  H221 3442   7.598   4.908   4.451  1.3551  0.5819 -1.1508
    9CHTO   N20 3443   7.774   4.813   4.390 -0.0529  0.5180 -0.7483
    9CHTO  H209 3444   7.788   4.717   4.342  0.2587  0.1753  0.0071
    9CHTO  H210 3445   7.862   4.847   4.442  0.4195 -0.2919 -1.0080
    9CHTO   O80 3446   7.390   4.707   4.518  0.1648  0.2303 -0.4533
    9CHTO  C103 3447   7.293   4.835   4.442  0.1791  0.0789  0.3507
    9CHTO  H190 3448   7.317   4.936   4.475  2.3677  0.6524 -2.7700
    9CHTO  C101 3449   7.299   4.844   4.289  0.1613  0.3864 -0.1814
    9CHTO  H188 3450   7.276   4.742   4.258 -0.9083  0.2556  0.9875
    9CHTO   O68 3451   7.442   4.883   4.229  0.0296 -0.2236 -0.8628
    9CHTO  H168 3452   7.500   4.811   4.214  0.3159 -0.0654 -0.5480
    9CHTO   C99 3453   7.180   4.949   4.238  0.2785 -0.1923 -0.2883
    9CHTO  H186 3454   7.200   5.054   4.268 -0.9132 -0.2792  0.8493
    9CHTO   N17 3455   7.173   4.970   4.089  0.1427 -0.1997 -0.5754
    9CHTO  H174 3456   7.079   4.938   4.046 -1.2339  0.9443  1.5111
    9CHTO  H175 3457   7.195   5.073   4.067 -2.0222  0.4499  0.1402
    9CHTO   C97 3458   7.047   4.917   4.306  0.3104 -0.0278  0.2869
    9CHTO  H184 3459   7.023   4.816   4.268  2.9620 -0.1666 -1.0783
    9CHTO   O64 3460   7.064   4.919   4.449  0.3840 -0.7724  0.2875
    9CHTO  C104 3461   7.143   4.808   4.489  0.0502  0.1168  0.3358
    9CHTO  H191 3462   7.110   4.714   4.444 -0.1934 -0.0594  0.8837
    9CHTO  C108 3463   7.131   4.790   4.641 -0.0038  0.0514  0.0460
    9CHTO   O71 3464   7.169   4.905   4.713 -0.3765 -0.4635  0.0850
    9CHTO  H171 3465   7.133   4.983   4.675  0.3313 -0.9059 -1.5257
    9CHTO   O62 3466   6.956   5.023   4.286  0.2149 -0.3161  0.0525
    9CHTO   C91 3467   6.824   4.991   4.231 -0.1074 -0.6706 -0.5281
    9CHTO  H178 3468   6.846   4.921   4.150 -0.2692 -0.4908 -0.7316
    9CHTO   C92 3469   6.773   5.122   4.166  0.0698  0.4741  0.3101
    9CHTO  H179 3470   6.860   5.169   4.118 -1.2142  1.5093 -1.0551
    9CHTO   O66 3471   6.689   5.078   4.058 -0.0667 -0.2798 -0.0091
    9CHTO  H166 3472   6.615   5.029   4.087  0.1211 -0.1651  0.6912
    9CHTO   C93 3473   6.692   5.223   4.254  0.1222  0.4877  0.0129
    9CHTO  H180 3474   6.634   5.290   4.188  2.4354  1.3208 -1.2195
    9CHTO   N16 3475   6.779   5.316   4.336 -0.4046 -0.0088 -0.1340
    9CHTO  H172 3476   6.862   5.257   4.372  1.4560  0.9435 -2.6937
    9CHTO  H173 3477   6.814   5.400   4.277 -3.3908  1.1027 -0.4055
    9CHTO   C94 3478   6.592   5.146   4.343  0.3533 -0.3110  0.6417
    9CHTO  H181 3479   6.614   5.160   4.449  0.4581 -0.4824  0.6435
    9CHTO   O61 3480   6.588   5.004   4.320 -0.0640  0.3782  0.3388
    9CHTO   C95 3481   6.712   4.932   4.336 -0.2321  0.0336 -0.0525
    9CHTO  H182 3482   6.747   4.951   4.437  1.5237 -0.1109 -0.6050
    9CHTO  C106 3483   6.671   4.782   4.322  0.1907 -0.6723  0.6226
    9CHTO   O69 3484   6.782   4.691   4.314  0.2779  0.1792  0.2142
    9CHTO  H169 3485   6.765   4.603   4.342 -1.8839  0.4471 -0.1322
    9CHTO   O63 3486   6.455   5.191   4.313  0.5050  0.0738  0.1418
    9CHTO   C96 3487   6.344   5.187   4.448 -0.0676 -0.6673  0.4805
    9CHTO  H183 3488   6.396   5.236   4.530 -0.2535  0.0953  0.1387
    9CHTO   C98 3489   6.298   5.047   4.477 -0.1860  0.4225 -0.1163
    9CHTO  H185 3490   6.264   4.991   4.388  0.4602  0.9592 -0.7127
    9CHTO   O67 3491   6.410   4.974   4.534  0.7588  0.4786 -0.1381
    9CHTO  H167 3492   6.412   4.882   4.518 -4.1463  0.2376 -0.1147
    9CHTO  C102 3493   6.180   5.043   4.591 -0.1160  0.1564  0.4972
    9CHTO  H189 3494   6.224   5.065   4.689 -1.0674  0.0345  0.9542
    9CHTO   N18 3495   6.116   4.908   4.608 -0.2743 -0.3761  0.3576
    9CHTO  H176 3496   6.189   4.830   4.603  0.4813  0.3812 -0.6125
    9CHTO  H177 3497   6.048   4.891   4.526  0.6197 -1.2139 -0.2079
    9CHTO  C105 3498   6.070   5.149   4.571  0.2301  0.3196 -0.2050
    9CHTO  H192 3499   6.013   5.120   4.483  0.4091  1.0728 -0.5713
    9CHTO   O65 3500   6.134   5.271   4.532  0.5400  0.3207 -0.7905
    9CHTO  C100 3501   6.227   5.285   4.423 -0.3420 -0.2055  0.4520
    9CHTO  H187 3502   6.175   5.253   4.331  1.1482  0.1810 -0.5427
    9CHTO  C107 3503   6.253   5.439   4.404  0.4112  0.5154  0.1945
    9CHTO   O70 3504   6.128   5.508   4.392 -0.2103  0.1781  0.1546
    9CHTO  H170 3505   6.086   5.500   4.476 -0.5588 -2.6270 -0.2249
    9CHTO   O57 3506   5.970   5.166   4.707 -0.1616  0.1250 -0.2028
    9CHTO   C85 3507   5.842   5.230   4.709 -0.7450 -0.5248 -0.3632
    9CHTO  H157 3508   5.777   5.160   4.653 -0.3201  0.5920 -2.2873
    9CHTO   C83 3509   5.844   5.365   4.626  0.3444  0.6570 -0.7154
    9CHTO  H155 3510   5.863   5.336   4.522  1.0118  0.3761 -0.5188
    9CHTO   O56 3511   5.950   5.447   4.675  0.1939  0.7347  0.2324
    9CHTO  H135 3512   6.008   5.464   4.604 -0.0081 -0.7100 -0.2918
    9CHTO   C81 3513   5.709   5.441   4.646  0.0299  0.4573 -0.2253
    9CHTO  H153 3514   5.633   5.370   4.614  0.7936 -1.5463  2.2339
    9CHTO   N14 3515   5.694   5.556   4.554  0.3952  0.3111  0.0826
    9CHTO  H141 3516   5.609   5.619   4.570 -0.1133 -0.0363 -1.2568
    9CHTO  H142 3517   5.783   5.616   4.553  0.8456 -0.3643 -0.9960
    9CHTO   C79 3518   5.677   5.467   4.803 -0.7413  0.1651  0.2494
    9CHTO  H151 3519   5.574   5.503   4.809 -0.8000 -0.1675  1.2960
    9CHTO   O52 3520   5.681   5.342   4.874  0.3241 -0.5189  0.1278
    9CHTO   C86 3521   5.791   5.250   4.857 -0.3962 -0.1883 -0.7192
    9CHTO  H158 3522   5.880   5.294   4.908  0.3426  0.1706 -2.2933
    9CHTO   C90 3523   5.757   5.127   4.937 -0.9362 -0.0106  0.4081
    9CHTO   O60 3524   5.624   5.080   4.916 -0.4643  0.4720  0.1425
    9CHTO  H138 3525   5.623   4.997   4.960  0.6456  0.8238  0.8538
    9CHTO   O50 3526   5.760   5.561   4.860  0.1363 -0.1089 -0.0312
    9CHTO   C73 3527   5.790   5.663   4.952 -0.0713  0.1983  0.3230
    9CHTO  H145 3528   5.710   5.681   5.025 -1.1661 -0.1078 -0.7800
    9CHTO   C74 3529   5.817   5.790   4.863  0.1992 -0.1072  0.5854
    9CHTO  H146 3530   5.731   5.819   4.802  0.3683  0.6079  0.6805
    9CHTO   O54 3531   5.838   5.903   4.960 -0.5786 -0.0052 -0.0066
    9CHTO  H133 3532   5.757   5.944   4.982  0.1705  0.4573  2.0660
    9CHTO   C75 3533   5.942   5.764   4.772  0.0451 -0.0657  0.0897
    9CHTO  H147 3534   5.923   5.681   4.702  0.4119 -0.8205  0.8657
    9CHTO   N13 3535   5.976   5.880   4.689  0.0761 -0.4734 -0.0493
    9CHTO  H139 3536   5.964   5.967   4.753  1.1319 -0.6388  0.3803
    9CHTO  H140 3537   6.082   5.887   4.670  0.3345  3.7498  2.2677
    9CHTO   C76 3538   6.066   5.708   4.858 -0.1571 -0.0920  0.5576
    9CHTO  H148 3539   6.104   5.789   4.920 -0.4477  0.2338  0.3097
    9CHTO   O49 3540   6.026   5.601   4.944 -0.1375  0.1764 -0.0076
    9CHTO   C77 3541   5.921   5.626   5.031 -0.3548  0.4170  0.1082
    9CHTO  H149 3542   5.949   5.699   5.107 -1.2414 -0.2529  1.0956
    9CHTO   C88 3543   5.895   5.497   5.106  0.1495 -0.4779 -0.0170
    9CHTO   O58 3544   6.007   5.476   5.215  0.2902  0.2582 -0.3868
    9CHTO  H136 3545   5.995   5.527   5.293  1.6199  0.3264 -0.2118
    9CHTO   O51 3546   6.180   5.649   4.745 -0.1918 -0.1311  0.1952
    9CHTO   C78 3547   6.324   5.675   4.764  0.1536  0.2916  0.7173
    9CHTO  H150 3548   6.333   5.726   4.862 -4.3097  2.6185  0.0111
    9CHTO   C80 3549   6.375   5.772   4.656 -0.3219 -0.0382 -0.0234
    9CHTO  H152 3550   6.344   5.731   4.558  0.0543 -2.6068  0.8808
    9CHTO   O55 3551   6.311   5.900   4.679 -0.4033 -0.6653 -0.2107
    9CHTO  H134 3552   6.298   5.945   4.597 -0.3127 -0.5021 -0.1352
    9CHTO   C84 3553   6.534   5.790   4.649 -0.0312  0.3065 -0.4342
    9CHTO  H156 3554   6.572   5.841   4.738  0.5575 -0.4278 -0.2549
    9CHTO   N15 3555   6.583   5.872   4.534 -0.1432 -0.0776 -0.1642
    9CHTO  H143 3556   6.556   5.835   4.437  0.4542 -0.4421 -0.1867
    9CHTO  H144 3557   6.545   5.971   4.549  1.0384  0.0985  1.8344
    9CHTO   C87 3558   6.600   5.654   4.660 -0.7983  0.0325 -0.2477
    9CHTO  H159 3559   6.617   5.605   4.565  0.4356  1.3125 -0.7158
    9CHTO   O53 3560   6.530   5.558   4.773  0.2464  0.5948  0.2786
    9CHTO   C82 3561   6.395   5.535   4.756 -0.0124  0.4090  0.6763
    9CHTO  H154 3562   6.380   5.489   4.659  1.6153 -1.8459  1.4337
    9CHTO   C89 3563   6.343   5.434   4.861  0.2730 -0.3151  0.5868
    9CHTO   O59 3564   6.390   5.302   4.838 -1.0153 -0.2253 -0.5393
    9CHTO  H137 3565   6.446   5.280   4.910  0.0948 -1.8948 -1.8909
    9CHTO   O45 3566   6.769   5.682   4.712 -0.0429  0.2210  0.1114
    9CHTO   C67 3567   6.826   5.559   4.770  0.2498 -0.2808 -0.2958
    9CHTO  H124 3568   6.749   5.529   4.841  0.7939  0.0560  0.4418
    9CHTO   C65 3569   6.851   5.438   4.676 -0.5765  0.2053 -0.3790
    9CHTO  H122 3570   6.866   5.490   4.581  2.0368  0.4695  0.1564
    9CHTO   O44 3571   6.723   5.366   4.668  0.0424  0.5908 -0.1795
    9CHTO  H102 3572   6.738   5.275   4.689 -0.7313  0.0460 -1.9869
    9CHTO   C63 3573   6.984   5.353   4.709  0.5253  0.2658 -0.3543
    9CHTO  H120 3574   7.076   5.400   4.676  2.6838 -2.6234  1.3583
    9CHTO   N11 3575   6.998   5.233   4.635 -0.0569 -0.3990 -0.2058
    9CHTO  H108 3576   6.903   5.188   4.613 -0.7033  0.5076  0.7065
    9CHTO  H109 3577   7.048   5.153   4.686 -1.3376  0.1875  2.0244
    9CHTO   C61 3578   7.000   5.340   4.871 -0.0498 -0.1127 -0.1831
    9CHTO  H118 3579   7.105   5.306   4.880 -0.1849 -0.8874 -1.4043
    9CHTO   O40 3580   6.986   5.464   4.937 -0.5016 -0.1640 -0.4736
    9CHTO   C68 3581   6.952   5.589   4.861 -0.5559  0.1770  0.4412
    9CHTO  H125 3582   7.043   5.623   4.807  0.0129 -2.5336 -0.4057
    9CHTO   C72 3583   6.920   5.696   4.976  0.4873  0.0813 -0.0125
    9CHTO   O48 3584   6.858   5.823   4.945  0.4641 -0.5223  0.6154
    9CHTO  H105 3585   6.782   5.795   4.899 -0.4946  0.9824  1.2401
    9CHTO   O38 3586   6.907   5.243   4.924  0.3196 -0.0701  1.0941
    9CHTO   C55 3587   6.905   5.201   5.061 -0.7440  0.0348 -0.5144
    9CHTO  H112 3588   6.949   5.277   5.128  0.2551 -0.4261 -0.6340
    9CHTO   C56 3589   6.970   5.057   5.084  0.5663 -0.4060  0.1004
    9CHTO  H113 3590   6.935   4.991   5.003  1.9532 -1.2946  0.2143
    9CHTO   O42 3591   7.105   5.061   5.044  0.6587 -0.2751 -0.3127
    9CHTO  H100 3592   7.115   5.103   4.961  3.5999  3.0990  1.6160
    9CHTO   C57 3593   6.947   4.995   5.228 -0.4297 -0.3364  0.4224
    9CHTO  H114 3594   7.015   5.044   5.298 -0.7095  1.0187 -0.2381
    9CHTO   N10 3595   6.985   4.853   5.233 -0.1480  0.1561 -0.5567
    9CHTO  H106 3596   6.901   4.787   5.217  0.2640 -0.1750 -1.3899
    9CHTO  H107 3597   7.042   4.819   5.318 -1.5459  1.9830  1.1711
    9CHTO   C58 3598   6.795   5.017   5.268  0.0805  0.5367 -0.1215
    9CHTO  H115 3599   6.730   4.944   5.216  0.1275  1.3060 -1.2741
    9CHTO   O37 3600   6.750   5.148   5.242 -0.3628 -0.0452  0.2436
    9CHTO   C59 3601   6.758   5.192   5.107  0.4428 -0.4826 -0.2929
    9CHTO  H116 3602   6.698   5.134   5.037 -0.9765 -1.0054  1.3262
    9CHTO   C70 3603   6.698   5.340   5.105 -0.3799  0.0547  0.2516
    9CHTO   O46 3604   6.768   5.436   5.179 -0.4526 -0.1304 -0.4271
    9CHTO  H103 3605   6.837   5.466   5.123 -1.7510  0.8111 -1.5574
    9CHTO   O39 3606   6.785   4.997   5.440 -0.0416  0.4677  0.1908
    9CHTO   C60 3607   6.649   4.987   5.488 -0.1092  0.1492 -0.2650
    9CHTO  H117 3608   6.598   5.065   5.432 -0.6952 -0.1257 -0.1112
    9CHTO   C62 3609   6.580   4.855   5.458 -0.3519  0.3067 -0.4467
    9CHTO  H119 3610   6.581   4.852   5.347 -2.2611  0.2667 -0.4927
    9CHTO   O43 3611   6.665   4.747   5.499 -0.3437 -0.1217 -0.2475
    9CHTO  H101 3612   6.619   4.670   5.472  2.6453 -1.5313 -1.6378
    9CHTO   C66 3613   6.430   4.845   5.524  0.2258  0.2636  0.3403
    9CHTO  H123 3614   6.366   4.933   5.513 -0.0830 -0.0173 -0.1171
    9CHTO   N12 3615   6.352   4.736   5.469  1.0119  0.3316 -1.0688
    9CHTO  H110 3616   6.261   4.776   5.425  0.4337  0.5334  0.2843
    9CHTO  H111 3617   6.320   4.669   5.548  1.4714  0.3399 -0.8751
    9CHTO   C69 3618   6.451   4.849   5.674 -0.1652  0.0075  0.5625
    9CHTO  H126 3619   6.531   4.778   5.701 -0.4634 -0.4734  0.1743
    9CHTO   O41 3620   6.491   4.995   5.712 -0.0623  0.8916  0.3879
    9CHTO   C64 3621   6.639   5.026   5.639  0.1293  0.8694 -0.2156
    9CHTO  H121 3622   6.723   4.970   5.685 -1.9415 -2.8668 -0.8370
    9CHTO   C71 3623   6.648   5.183   5.651 -0.1201 -0.3256  0.4832
    9CHTO   O47 3624   6.683   5.224   5.785  0.1213 -0.1197 -0.6430
    9CHTO  H104 3625   6.704   5.315   5.792 -2.1827  0.3608  0.3216
    9CHTO   O34 3626   6.308   4.808   5.760  0.5675 -0.4268  0.7269
    9CHTO   C49 3627   6.229   4.775   5.891  0.5745 -0.1881 -0.2807
    9CHTO   H91 3628   6.129   4.818   5.888 -0.1704 -1.7079  1.6305
    9CHTO   C47 3629   6.303   4.846   6.008 -0.1044  0.2715  1.0453
    9CHTO   H89 3630   6.217   4.862   6.077 -0.0115  4.2429  0.3722
    9CHTO   O33 3631   6.356   4.975   5.967 -0.4303  0.1857  0.7079
    9CHTO   H70 3632   6.283   5.034   5.969 -0.7088 -0.1493  0.6269
    9CHTO   C45 3633   6.423   4.760   6.075 -0.3536  0.8667 -0.0876
    9CHTO   H87 3634   6.507   4.829   6.057  1.0496 -0.0158  2.7715
    9CHTO    N8 3635   6.408   4.736   6.222  0.3749  0.7517 -0.0648
    9CHTO   H75 3636   6.375   4.633   6.228  0.0757  0.6491 -2.7647
    9CHTO   H76 3637   6.499   4.745   6.279 -0.7774  2.1321  1.6056
    9CHTO   C43 3638   6.456   4.635   5.986  0.1494  0.0068 -0.4708
    9CHTO   H85 3639   6.487   4.668   5.886  1.2298 -0.0400 -0.1596
    9CHTO   O29 3640   6.336   4.556   5.982  0.2433 -1.4857 -0.1793
    9CHTO   C50 3641   6.224   4.621   5.910 -0.6687  1.0211  0.2048
    9CHTO   H92 3642   6.219   4.580   5.808 -1.5905 -0.0206  0.6548
    9CHTO   C54 3643   6.095   4.558   5.976  0.0994 -0.1036  0.1195
    9CHTO   O36 3644   6.094   4.413   5.999 -0.1884 -0.0132  0.0075
    9CHTO   H72 3645   6.152   4.401   6.071 -1.3815  1.2812  1.2054
    9CHTO   O27 3646   6.567   4.555   6.039  0.0338 -0.1563  0.1258
    9CHTO   C37 3647   6.706   4.569   6.011  0.8012  0.6323  0.0995
    9CHTO   H79 3648   6.758   4.479   6.047  1.1040  0.1811 -1.4653
    9CHTO   C38 3649   6.738   4.584   5.854  0.1169  0.4250  0.3662
    9CHTO   H80 3650   6.666   4.653   5.807 -0.9679 -0.2556  1.0008
    9CHTO   O31 3651   6.727   4.454   5.787 -0.0834  0.8813  0.4176
    9CHTO   H68 3652   6.745   4.469   5.696 -0.6823 -0.0043  0.1452
    9CHTO   C39 3653   6.883   4.643   5.833 -0.5754 -0.3618  0.5832
    9CHTO   H81 3654   6.957   4.566   5.859 -0.3858 -0.1477  0.6827
    9CHTO    N7 3655   6.922   4.662   5.687  0.3101  0.1314  0.8282
    9CHTO   H73 3656   6.983   4.585   5.645 -1.8132 -1.2173  0.1237
    9CHTO   H74 3657   6.962   4.762   5.676  1.2462 -0.4454 -1.2520
    9CHTO   C40 3658   6.899   4.774   5.917 -0.0204 -0.0898  0.7117
    9CHTO   H82 3659   6.816   4.838   5.886 -0.5442 -1.5473 -1.0113
    9CHTO   O26 3660   6.892   4.737   6.052 -0.9379 -0.2301 -0.5381
    9CHTO   C41 3661   6.755   4.691   6.096 -0.0086  0.5568  0.4119
    9CHTO   H83 3662   6.683   4.772   6.077 -0.2165  0.2186 -0.2393
    9CHTO   C52 3663   6.757   4.668   6.250  0.1230  0.0195 -0.4882
    9CHTO   O35 3664   6.883   4.588   6.301 -0.1112  0.0359 -0.0109
    9CHTO   H71 3665   6.947   4.592   6.233 -1.2497 -1.1533 -1.1831
    9CHTO   O28 3666   7.025   4.841   5.898 -1.0186 -0.3993 -0.3240
    9CHTO   C42 3667   7.060   4.979   5.932 -0.0363  0.2321 -0.2725
    9CHTO   H84 3668   7.167   4.984   5.913  0.5045 -0.1423  2.5277
    9CHTO   C44 3669   7.042   5.027   6.078  0.0061 -0.0107 -0.5465
    9CHTO   H86 3670   6.940   5.010   6.113 -0.7080  1.2985 -1.9423
    9CHTO   O32 3671   7.112   4.934   6.167  0.1859  0.2722 -0.0379
    9CHTO   H69 3672   7.065   4.903   6.242  2.6185  0.3504  1.5508
    9CHTO   C48 3673   7.081   5.178   6.097  0.3458 -0.1200  0.3411
    9CHTO   H90 3674   7.186   5.192   6.071  0.6050  2.0346  2.3928
    9CHTO    N9 3675   7.070   5.228   6.238  0.3078  0.1107 -0.1964
    9CHTO   H77 3676   6.985   5.171   6.273 -0.6371  1.2557 -0.5960
    9CHTO   H78 3677   7.037   5.331   6.236  1.4979  0.4789 -1.1052
    9CHTO   C51 3678   6.995   5.263   5.992  0.7750 -0.3081  0.1805
    9CHTO   H93 3679   6.888   5.251   6.008  0.4782  0.1611 -1.3347
    9CHTO   O30 3680   7.038   5.222   5.862  0.2208  0.2934 -0.0095
    9CHTO   C46 3681   6.989   5.081   5.833 -0.2046  0.3619 -0.3217
    9CHTO   H88 3682   6.883   5.076   5.859 -0.0307  0.0499  0.3079
    9CHTO   C53 3683   7.016   5.041   5.683 -0.1848  0.5389  0.3920
    9CHTO   O72 3684   7.153   5.039   5.662 -0.1177 -0.0741  0.2431
    9CHTO  H199 3685   7.180   5.126   5.641  0.4673  0.1719  1.9222
    9CHTO   O22 3686   7.026   5.401   6.009  0.5793 -0.7045 -0.2086
    9CHTO   C31 3687   6.932   5.505   5.958  0.4225  0.5327 -0.2865
    9CHTO   H59 3688   6.973   5.603   5.990  2.4285  0.2032 -1.7205
    9CHTO   C29 3689   6.933   5.509   5.806 -0.1319  0.7230  1.1911
    9CHTO   H57 3690   6.914   5.408   5.769 -0.7221  1.2557  0.0195
    9CHTO   O21 3691   7.072   5.542   5.777  0.4747  0.5887  0.4804
    9CHTO   H37 3692   7.079   5.546   5.683 -1.5163 -2.1756  0.1492
    9CHTO   C27 3693   6.826   5.607   5.744  0.3619  0.1305 -0.3021
    9CHTO   H55 3694   6.855   5.708   5.778  0.7067  0.7857 -2.4587
    9CHTO    N5 3695   6.827   5.604   5.595 -0.7030 -0.0086  0.1072
    9CHTO   H43 3696   6.732   5.646   5.564 -0.2646  1.4493  0.7215
    9CHTO   H44 3697   6.865   5.518   5.542 -0.8145  0.8455 -1.3808
    9CHTO   C25 3698   6.690   5.564   5.815 -0.4058  1.0535  0.1958
    9CHTO   H53 3699   6.668   5.459   5.790  0.1665  0.6629  1.2900
    9CHTO   O17 3700   6.689   5.577   5.954 -0.0109  0.3969 -0.4080
    9CHTO   C32 3701   6.789   5.493   6.017  0.0228  0.4269  0.9849
    9CHTO   H60 3702   6.762   5.388   6.004 -0.1290  0.6292 -0.3298
    9CHTO   C36 3703   6.796   5.529   6.166 -0.4991  0.7649 -0.6117
    9CHTO   O25 3704   6.672   5.519   6.238  0.4533  0.1405  0.1421
    9CHTO   H40 3705   6.659   5.429   6.261 -1.4744  0.4634  0.3631
    9CHTO   O15 3706   6.559   5.630   5.769 -0.0718  0.1205  0.0293
    9CHTO   C19 3707   6.436   5.607   5.694 -0.4870 -0.1635 -0.3687
    9CHTO   H47 3708   6.396   5.710   5.690  0.1145  0.1493  1.4036
    9CHTO   C20 3709   6.450   5.546   5.558 -0.4069  0.6523  0.1585
    9CHTO   H48 3710   6.502   5.449   5.560 -1.1569  0.2717  1.5460
    9CHTO   O19 3711   6.526   5.636   5.475  0.2227  0.3237  0.3478
    9CHTO   H35 3712   6.614   5.636   5.508 -0.7441  2.3969  3.0943
    9CHTO   C21 3713   6.313   5.521   5.487 -0.6247 -0.7335 -0.0631
    9CHTO   H49 3714   6.263   5.617   5.479  1.6114  0.4103 -0.8689
    9CHTO    N4 3715   6.314   5.460   5.348 -0.0965  0.3114  0.3168
    9CHTO   H41 3716   6.409   5.461   5.297 -0.1162  1.7873  0.2820
    9CHTO   H42 3717   6.244   5.495   5.275 -0.0902  0.1794  0.2470
    9CHTO   C22 3718   6.220   5.440   5.575  0.0636 -0.0386 -0.2886
    9CHTO   H50 3719   6.254   5.337   5.578 -0.3656 -0.2546 -2.2447
    9CHTO   O14 3720   6.214   5.498   5.709 -0.2325 -0.0712 -0.0891
    9CHTO   C23 3721   6.342   5.524   5.779 -0.1581 -0.1687 -0.8225
    9CHTO   H51 3722   6.385   5.426   5.806 -2.9820 -0.9683  0.9137
    9CHTO   C34 3723   6.288   5.608   5.897 -0.1498  0.0026  0.2817
    9CHTO   O23 3724   6.386   5.636   6.003 -0.1449  0.0697  0.0879
    9CHTO   H38 3725   6.347   5.696   6.064  0.2247 -0.7110  1.1012
    9CHTO   O16 3726   6.077   5.447   5.536 -0.6808  0.3286 -0.0169
    9CHTO   C24 3727   6.005   5.312   5.562 -0.2206 -0.1424 -0.2347
    9CHTO   H52 3728   6.057   5.249   5.634  1.1044 -0.7536 -1.7088
    9CHTO   C26 3729   5.983   5.231   5.432 -0.3108  0.1785 -0.4529
    9CHTO   H54 3730   5.932   5.298   5.360  0.5048  1.3063  0.0041
    9CHTO   O20 3731   6.114   5.180   5.386 -0.2647  0.6435  0.3931
    9CHTO   H36 3732   6.112   5.150   5.298 -0.2330  1.3208  0.1651
    9CHTO   C30 3733   5.890   5.103   5.452  0.8787  0.3799 -0.0287
    9CHTO   H58 3734   5.945   5.026   5.508 -1.0113 -0.2725  0.9364
    9CHTO    N6 3735   5.846   5.043   5.318  0.1092 -0.5140 -0.3503
    9CHTO   H45 3736   5.913   5.064   5.235  0.9451  0.4921  0.5759
    9CHTO   H46 3737   5.745   5.066   5.291  0.9650  2.3333 -1.2339
    9CHTO   C33 3738   5.770   5.134   5.542  0.2329 -0.0175 -0.3547
    9CHTO   H61 3739   5.696   5.191   5.484 -0.4289  0.2854  0.7736
    9CHTO   O18 3740   5.812   5.217   5.662 -0.3916 -0.2387 -0.2668
    9CHTO   C28 3741   5.866   5.348   5.624 -0.5153 -0.3980 -0.2261
    9CHTO   H56 3742   5.805   5.409   5.558  0.6110  0.1582 -0.7629
    9CHTO   C35 3743   5.883   5.427   5.755  0.3119  0.6540 -0.4315
    9CHTO   O24 3744   5.759   5.474   5.808  0.1624 -0.1854  0.0139
    9CHTO   H39 3745   5.702   5.406   5.839 -0.4446  0.7825  1.0265
    9CHTO    O9 3746   5.703   5.018   5.588  0.2237  0.3252  0.5912
    9CHTO   C13 3747   5.518   5.001   5.564 -0.3347 -0.2569 -0.6371
    9CHTO   H26 3748   5.501   5.009   5.455 -1.5634  0.2470 -0.4094
    9CHTO   C11 3749   5.438   5.114   5.642 -0.1085 -0.2536  0.0589
    9CHTO   H24 3750   5.397   5.166   5.554  0.3987 -2.1799 -1.3606
    9CHTO    O8 3751   5.524   5.199   5.718  0.3240  0.4137  0.5092
    9CHTO    H3 3752   5.590   5.145   5.757 -1.2453 -0.7942  1.5348
    9CHTO    C9 3753   5.322   5.055   5.724 -0.0747 -0.0898  0.4652
    9CHTO   H22 3754   5.257   5.005   5.651  0.0318  0.6506 -0.1398
    9CHTO    N2 3755   5.239   5.150   5.802  0.3544 -0.1645 -0.2064
    9CHTO   H10 3756   5.166   5.184   5.730 -0.5458 -1.4884  0.0510
    9CHTO   H11 3757   5.184   5.099   5.880 -0.5130  2.2145  0.7748
    9CHTO    C7 3758   5.386   4.946   5.823  0.3749  0.1646 -0.9347
    9CHTO   H20 3759   5.306   4.890   5.876  1.8906  0.6593  1.9506
    9CHTO    O4 3760   5.459   4.850   5.748 -0.2135  0.3280 -1.1444
    9CHTO   C14 3761   5.467   4.861   5.605 -0.1738 -0.3979  0.5056
    9CHTO   H27 3762   5.371   4.834   5.557  0.6121 -1.5791 -0.4333
    9CHTO   C18 3763   5.567   4.754   5.547  0.1812 -0.1766  0.3775
    9CHTO   O13 3764   5.524   4.620   5.572 -0.6465  0.4558 -0.2071
    9CHTO    H7 3765   5.539   4.577   5.490 -2.3691  0.2581 -0.4291
    9CHTO    O2 3766   5.492   5.019   5.924 -0.3653 -0.2890  0.8905
    9CHTO    C1 3767   5.539   4.931   6.025 -0.2043  0.3184 -0.5639
    9CHTO   H14 3768   5.546   4.827   5.987  1.7091  0.3021 -0.2381
    9CHTO    C2 3769   5.442   4.931   6.155 -0.6718  0.8467 -0.6300
    9CHTO   H15 3770   5.422   5.036   6.179 -1.5258  1.0860 -2.2700
    9CHTO    O6 3771   5.312   4.888   6.113  0.1877 -0.1694 -0.1761
    9CHTO    H1 3772   5.308   4.796   6.132  0.2124  0.0985  1.1270
    9CHTO    C3 3773   5.512   4.845   6.270 -1.1166 -0.4493 -0.5571
    9CHTO   H16 3774   5.519   4.736   6.257 -2.5278 -0.8046  1.4440
    9CHTO    N1 3775   5.432   4.854   6.398  0.7318 -0.6270 -1.0439
    9CHTO    H8 3776   5.327   4.833   6.381  0.7894  0.4807 -2.9628
    9CHTO    H9 3777   5.449   4.950   6.445 -1.2293  0.1308 -1.8194
    9CHTO    C4 3778   5.666   4.897   6.296  0.0609 -0.3139  0.2032
    9CHTO   H17 3779   5.657   4.993   6.347 -0.3273  0.4206 -1.2214
    9CHTO    O1 3780   5.740   4.901   6.170  0.2133  0.1595 -0.7478
    9CHTO    C5 3781   5.681   4.969   6.061  0.2678  0.2895  0.5534
    9CHTO   H18 3782   5.673   5.077   6.079  0.5147  0.0308  2.2545
    9CHTO   C16 3783   5.776   4.942   5.940 -0.0992 -0.5813  0.4942
    9CHTO   O11 3784   5.910   4.986   5.951  0.1763 -0.0117  0.4012
    9CHTO    H5 3785   5.920   5.059   5.893 -1.7809 -0.3979 -0.4410
    9CHTO    O3 3786   5.731   4.797   6.371 -0.1432 -0.3244 -0.0349
    9CHTO    C6 3787   5.845   4.833   6.457 -0.0302 -0.2729  1.0863
    9CHTO   H19 3788   5.892   4.928   6.429  0.6558 -0.2910  2.1191
    9CHTO    C8 3789   5.797   4.841   6.604 -0.3820 -0.8706 -0.6434
    9CHTO   H21 3790   5.739   4.753   6.632 -0.6545 -0.7416 -0.8025
    9CHTO    O7 3791   5.709   4.954   6.612  0.3693  0.2601  0.1749
    9CHTO    H2 3792   5.674   4.961   6.699  1.1963  2.8555  0.3321
    9CHTO   C12 3793   5.915   4.850   6.711  0.5383  0.7976 -0.7191
    9CHTO   H25 3794   5.952   4.955   6.722 -0.0107  1.0161 -0.9373
    9CHTO    N3 3795   5.852   4.826   6.846  0.3731 -0.1806 -0.1387
    9CHTO   H12 3796   5.799   4.732   6.849 -1.4986  0.6490 -3.7715
    9CHTO   H13 3797   5.930   4.824   6.921 -0.7425 -0.0310  1.0385
    9CHTO   C15 3798   6.036   4.758   6.668 -1.3012 -0.1779 -0.2666
    9CHTO   H28 3799   6.028   4.655   6.704  0.3124  0.5372  2.2405
    9CHTO   O10 3800   6.152   4.806   6.727 -0.4205  0.4578 -0.0850
    9CHTO    H4 3801   6.161   4.776   6.815  0.4164 -1.1146 -0.6840
    9CHTO    O5 3802   6.060   4.783   6.529 -0.0839  0.9782 -0.6032
    9CHTO   C10 3803   5.956   4.728   6.451  0.1506  0.2758  0.4376
    9CHTO   H23 3804   5.933   4.628   6.487  2.4204  0.0294  1.3172
    9CHTO   C17 3805   6.009   4.701   6.314  0.6542 -0.0017 -1.1224
    9CHTO   O12 3806   6.078   4.819   6.265  0.4071  0.5906  0.0607
    9CHTO    H6 3807   6.164   4.799   6.233  0.5685 -1.2094  1.5377
   10CHTO  H203 3808   6.025   7.084  -2.163 -1.6035  0.9300 -0.1074
   10CHTO   O82 3809   5.985   7.004  -2.135 -0.5456  0.5534  0.3599
   10CHTO  C123 3810   5.852   7.023  -2.093  0.0613  0.8314  0.0323
   10CHTO  H227 3811   5.813   7.118  -2.131 -0.2276  1.5378  2.0408
   10CHTO   O77 3812   5.785   6.907  -2.154 -0.0767  0.6199 -0.1434
   10CHTO  C118 3813   5.642   6.899  -2.135 -0.2380  0.1005  0.0701
   10CHTO  H222 3814   5.589   6.988  -2.172  1.0403 -0.1201 -2.3843
   10CHTO  C125 3815   5.600   6.773  -2.225 -0.2906  0.6492 -0.5158
   10CHTO   O84 3816   5.454   6.772  -2.228 -0.2949  0.7933 -0.4286
   10CHTO  H205 3817   5.419   6.789  -2.313 -1.0425 -0.6941 -0.4333
   10CHTO  C114 3818   5.615   6.893  -1.983  0.5027 -0.2352 -0.1527
   10CHTO  H218 3819   5.653   6.800  -1.941  3.4110  1.5512  1.2956
   10CHTO  C116 3820   5.683   7.012  -1.902  0.4149  0.1437 -0.1173
   10CHTO  H220 3821   5.640   7.108  -1.938  1.6988  0.1369 -1.7286
   10CHTO   O79 3822   5.647   6.992  -1.761 -0.1975  0.2943  0.1818
   10CHTO  H201 3823   5.666   6.903  -1.742  0.7779  0.2332 -1.0046
   10CHTO  C120 3824   5.840   7.016  -1.934  0.2308 -0.6535 -0.0738
   10CHTO  H224 3825   5.877   6.917  -1.901  1.1740 -0.4637 -0.5379
   10CHTO   N21 3826   5.910   7.116  -1.848  0.0204 -0.5882  0.2544
   10CHTO  H211 3827   5.846   7.200  -1.826  0.8756 -0.4926  2.4401
   10CHTO  H212 3828   5.967   7.076  -1.765  2.8916  0.2369 -1.2360
   10CHTO   O75 3829   5.476   6.891  -1.978  0.0293  0.7100 -0.4588
   10CHTO  C112 3830   5.406   6.783  -1.858 -0.6737  0.0249 -0.8665
   10CHTO  H216 3831   5.445   6.824  -1.764 -0.7509  2.4050 -1.8217
   10CHTO   O73 3832   5.455   6.651  -1.884 -0.4094  0.0173  0.1380
   10CHTO  C113 3833   5.423   6.558  -1.779 -0.0033 -0.1729  0.4792
   10CHTO  H217 3834   5.467   6.578  -1.680  1.1675 -1.8496  0.3081
   10CHTO  C124 3835   5.481   6.418  -1.821 -0.0296  0.0509  0.0284
   10CHTO   O83 3836   5.494   6.315  -1.721 -0.4094 -0.3233  0.2703
   10CHTO  H204 3837   5.408   6.280  -1.709 -0.3907 -0.1565  0.9055
   10CHTO  C109 3838   5.270   6.549  -1.769 -0.2247  0.0159 -0.5806
   10CHTO  H213 3839   5.236   6.497  -1.859 -0.8829 -2.8307  1.2400
   10CHTO  C110 3840   5.211   6.692  -1.753  0.1262 -0.3172  0.0610
   10CHTO  H214 3841   5.241   6.727  -1.655 -0.7427  3.0708 -0.8288
   10CHTO   O78 3842   5.068   6.685  -1.735  0.6150 -0.4786 -0.1665
   10CHTO  H200 3843   5.047   6.632  -1.661 -0.4951  1.4097  0.9101
   10CHTO  C111 3844   5.252   6.789  -1.863 -0.4857 -0.3152  0.5173
   10CHTO  H215 3845   5.212   6.758  -1.960 -0.1738 -2.1966  0.9613
   10CHTO   N19 3846   5.202   6.931  -1.844 -0.2859 -0.1030  0.3428
   10CHTO  H207 3847   5.104   6.939  -1.799 -1.1132 -1.5041 -1.1658
   10CHTO  H208 3848   5.224   6.987  -1.934 -0.7491 -0.2422  0.1421
   10CHTO   O74 3849   5.226   6.469  -1.652  0.1624 -0.8833 -0.6648
   10CHTO  C115 3850   5.142   6.343  -1.669 -0.3585  0.5813 -0.5553
   10CHTO  H219 3851   5.114   6.330  -1.774  1.7689 -0.6662 -1.0007
   10CHTO   O76 3852   5.220   6.214  -1.642  0.4915 -0.8168  0.3350
   10CHTO  C122 3853   5.241   6.178  -1.506  0.1816 -0.0410 -0.6206
   10CHTO  H226 3854   5.313   6.249  -1.465 -0.4640  0.8382 -0.9956
   10CHTO  C126 3855   5.312   6.040  -1.494 -0.3746  0.2228 -0.2299
   10CHTO   O85 3856   5.255   5.924  -1.554 -0.2108 -0.6859  0.1648
   10CHTO  H206 3857   5.196   5.951  -1.622  0.1270  0.2109  0.2154
   10CHTO  C121 3858   5.105   6.186  -1.422  0.2865  0.3915 -0.1866
   10CHTO  H225 3859   5.093   6.079  -1.391 -1.0576  1.4825  3.3663
   10CHTO   O81 3860   5.131   6.269  -1.304 -0.2984  0.8299  0.2640
   10CHTO  H202 3861   5.069   6.249  -1.237  0.0178 -1.3135 -0.0426
   10CHTO  C119 3862   4.979   6.227  -1.502  0.6204  1.2228 -1.0425
   10CHTO  H223 3863   4.958   6.147  -1.573 -1.9603  0.4173  0.5672
   10CHTO  C117 3864   5.010   6.365  -1.582 -0.0090  0.6483  0.2992
   10CHTO  H221 3865   5.016   6.453  -1.518 -1.7895  0.7604  0.3315
   10CHTO   N20 3866   4.887   6.390  -1.669 -0.6269  0.1960  0.1877
   10CHTO  H209 3867   4.885   6.332  -1.760 -0.1316 -0.2788  0.4835
   10CHTO  H210 3868   4.895   6.491  -1.706  0.4308 -0.3399 -1.0632
   10CHTO   O80 3869   4.856   6.221  -1.417 -0.0601  0.0964  0.1253
   10CHTO  C103 3870   4.769   6.088  -1.400  0.2902 -0.5281 -0.1251
   10CHTO  H190 3871   4.713   6.067  -1.491  1.5176 -0.8961 -0.8061
   10CHTO  C101 3872   4.842   5.960  -1.341  0.4067  0.7586 -0.0926
   10CHTO  H188 3873   4.882   5.984  -1.243  0.0580 -0.8611  0.4637
   10CHTO   O68 3874   4.947   5.906  -1.440  0.6224  0.7655 -0.0068
   10CHTO  H168 3875   4.947   5.812  -1.438 -1.6424  0.7252 -0.9857
   10CHTO   C99 3876   4.725   5.846  -1.316 -0.4372 -0.2810 -0.1392
   10CHTO  H186 3877   4.654   5.843  -1.402 -2.5677  0.2675  1.5688
   10CHTO   N17 3878   4.774   5.709  -1.279 -0.4447  0.3153  0.1044
   10CHTO  H174 3879   4.697   5.636  -1.300 -0.8341  0.7977 -0.1480
   10CHTO  H175 3880   4.806   5.697  -1.177  2.5848 -2.2489 -1.0428
   10CHTO   C97 3881   4.638   5.904  -1.200  0.9681 -0.6244  0.8688
   10CHTO  H184 3882   4.698   5.927  -1.111  0.7510  1.3091  0.5561
   10CHTO   O64 3883   4.574   6.027  -1.258  0.1518  0.0440  0.3038
   10CHTO  C104 3884   4.670   6.128  -1.289  0.3457  0.4213 -1.1882
   10CHTO  H191 3885   4.726   6.152  -1.198  0.3495  2.8433 -1.8143
   10CHTO  C108 3886   4.588   6.253  -1.328 -0.0851 -0.0179  0.9226
   10CHTO   O71 3887   4.532   6.310  -1.212  0.6483 -0.3179  0.3038
   10CHTO  H171 3888   4.597   6.365  -1.173  2.9318 -2.1995 -0.7009
   10CHTO   O62 3889   4.527   5.821  -1.166  0.2490 -0.1578  0.5393
   10CHTO   C91 3890   4.444   5.858  -1.057  0.4361  0.2756 -0.2305
   10CHTO  H178 3891   4.483   5.955  -1.026  3.8293 -0.4830 -1.8839
   10CHTO   C92 3892   4.449   5.759  -0.935  0.2494 -0.2651 -0.8958
   10CHTO  H179 3893   4.418   5.660  -0.972 -1.7759 -0.0997  0.2856
   10CHTO   O66 3894   4.583   5.751  -0.894 -0.2066  0.6301  0.0164
   10CHTO  H166 3895   4.627   5.681  -0.939  0.4611  0.9459  0.1616
   10CHTO   C93 3896   4.371   5.814  -0.811  0.2433 -0.2693  1.0042
   10CHTO  H180 3897   4.437   5.886  -0.761  0.7049 -0.4054  0.6052
   10CHTO   N16 3898   4.344   5.713  -0.708 -0.3209 -0.4699 -0.5763
   10CHTO  H172 3899   4.345   5.776  -0.620 -0.3094 -0.6308 -0.4614
   10CHTO  H173 3900   4.244   5.674  -0.717 -0.3241 -0.2897 -1.3564
   10CHTO   C94 3901   4.243   5.887  -0.855  0.2471 -0.1268 -0.2443
   10CHTO  H181 3902   4.156   5.821  -0.865 -0.1809  0.4375 -0.2744
   10CHTO   O61 3903   4.243   5.954  -0.982 -0.0535 -0.0065  0.0780
   10CHTO   C95 3904   4.295   5.879  -1.093  0.2202  0.2213  0.4195
   10CHTO  H182 3905   4.236   5.788  -1.105  1.0796 -0.6263  2.2722
   10CHTO  C106 3906   4.251   5.962  -1.226  0.3860  0.3304 -0.0421
   10CHTO   O69 3907   4.108   5.961  -1.258 -0.4707  0.3220 -0.3251
   10CHTO  H169 3908   4.090   5.879  -1.300  0.8304  0.1839 -0.6322
   10CHTO   O63 3909   4.208   5.991  -0.746 -0.1198 -0.3433 -0.3147
   10CHTO   C96 3910   4.268   6.137  -0.769  0.2582 -0.4835 -0.0902
   10CHTO  H183 3911   4.328   6.140  -0.860  0.9738  1.2991  0.4166
   10CHTO   C98 3912   4.368   6.160  -0.652 -0.5893  0.5243  0.2650
   10CHTO  H185 3913   4.434   6.074  -0.633  2.0433  2.1963 -0.9816
   10CHTO   O67 3914   4.455   6.257  -0.699  0.1737 -0.3544 -0.2143
   10CHTO  H167 3915   4.526   6.221  -0.747 -0.0749 -0.0044 -0.8517
   10CHTO  C102 3916   4.301   6.202  -0.518 -0.7114 -0.1342 -0.3881
   10CHTO  H189 3917   4.379   6.263  -0.471  1.2012 -1.9903 -1.0409
   10CHTO   N18 3918   4.261   6.101  -0.416 -0.1892 -0.3994  0.5347
   10CHTO  H176 3919   4.344   6.034  -0.399  0.1646  0.1049  0.8005
   10CHTO  H177 3920   4.176   6.042  -0.449 -0.3997  0.0717  0.2211
   10CHTO  C105 3921   4.186   6.305  -0.542  0.0183 -0.2075  0.1124
   10CHTO  H192 3922   4.093   6.258  -0.512 -0.2488  0.5031  0.4172
   10CHTO   O65 3923   4.180   6.354  -0.678  0.0727  0.0463  0.1446
   10CHTO  C100 3924   4.152   6.250  -0.777  0.9674  0.3134  0.2006
   10CHTO  H187 3925   4.057   6.200  -0.754  1.0184  0.6029  1.0314
   10CHTO  C107 3926   4.140   6.326  -0.913  0.0186 -0.0264 -0.5131
   10CHTO   O70 3927   4.096   6.240  -1.018 -0.4138 -0.5093  0.2499
   10CHTO  H170 3928   4.004   6.227  -1.027 -0.0513 -2.7482 -0.3337
   10CHTO   O57 3929   4.208   6.438  -0.435 -0.4319  0.0008  0.5778
   10CHTO   C85 3930   4.180   6.575  -0.456  0.1605  0.0183 -0.4379
   10CHTO  H157 3931   4.082   6.571  -0.508  0.2907  2.0759 -0.9090
   10CHTO   C83 3932   4.278   6.636  -0.555 -0.1347  0.5462 -0.3952
   10CHTO  H155 3933   4.274   6.583  -0.650  0.9586  0.3006 -0.3162
   10CHTO   O56 3934   4.416   6.621  -0.509  0.1564 -0.5774 -0.3191
   10CHTO  H135 3935   4.481   6.648  -0.571  0.7240 -1.2401 -0.0244
   10CHTO   C81 3936   4.237   6.783  -0.585 -0.1575  0.8285 -0.0126
   10CHTO  H153 3937   4.136   6.771  -0.625  0.8993 -0.2083 -2.4303
   10CHTO   N14 3938   4.315   6.841  -0.691 -0.6389  0.1302 -0.2880
   10CHTO  H141 3939   4.352   6.930  -0.644  1.9670 -0.9496 -0.2179
   10CHTO  H142 3940   4.253   6.868  -0.774 -0.4862 -1.4637 -0.9237
   10CHTO   C79 3941   4.224   6.871  -0.448 -0.4379 -0.0943 -0.3850
   10CHTO  H151 3942   4.173   6.962  -0.482  1.2806  0.8042 -0.6011
   10CHTO   O52 3943   4.138   6.804  -0.348  0.3950  0.3138 -0.7003
   10CHTO   C86 3944   4.173   6.663  -0.326  0.1036  1.0219 -0.5383
   10CHTO  H158 3945   4.267   6.655  -0.268 -0.9468 -2.0268  0.8552
   10CHTO   C90 3946   4.062   6.596  -0.235 -0.0261 -0.5001  0.1232
   10CHTO   O60 3947   4.097   6.603  -0.093 -0.2059 -1.0568  0.3067
   10CHTO  H138 3948   4.123   6.520  -0.058  0.4861 -1.2657 -0.7000
   10CHTO   O50 3949   4.360   6.915  -0.403  0.4769  0.2446 -0.3783
   10CHTO   C73 3950   4.493   6.899  -0.363  0.3396 -0.1654  0.4172
   10CHTO  H145 3951   4.550   6.838  -0.434 -0.5391  0.1492 -0.5764
   10CHTO   C74 3952   4.494   6.823  -0.220 -0.6160 -0.3137  0.0737
   10CHTO  H146 3953   4.449   6.727  -0.247  1.9080 -1.8408  1.0751
   10CHTO   O54 3954   4.626   6.777  -0.176  0.1658 -0.3930 -0.0784
   10CHTO  H133 3955   4.643   6.770  -0.084  2.0380  0.3374 -0.3352
   10CHTO   C75 3956   4.411   6.916  -0.119 -0.1218  0.4307 -0.3529
   10CHTO  H147 3957   4.313   6.933  -0.167  0.1991 -0.6463 -1.4198
   10CHTO   N13 3958   4.392   6.840   0.011  0.5027  0.2760 -0.7689
   10CHTO  H139 3959   4.486   6.813   0.058  0.0321 -0.9640 -0.5022
   10CHTO  H140 3960   4.333   6.753  -0.015 -1.7821  1.0015  1.7877
   10CHTO   C76 3961   4.496   7.053  -0.109 -0.3447  0.2036 -0.2388
   10CHTO  H148 3962   4.592   7.039  -0.058 -0.4779  1.6276  0.4215
   10CHTO   O49 3963   4.514   7.122  -0.242  0.4007 -0.4342 -0.1287
   10CHTO   C77 3964   4.567   7.040  -0.343 -0.8946 -0.2463  0.4471
   10CHTO  H149 3965   4.674   7.020  -0.336 -0.9895 -0.6438  0.8325
   10CHTO   C88 3966   4.556   7.121  -0.477 -0.0166  0.5633  0.0491
   10CHTO   O58 3967   4.621   7.242  -0.489  0.1833  0.1667  0.2513
   10CHTO  H136 3968   4.715   7.235  -0.492  0.1735 -1.6452  2.5871
   10CHTO   O51 3969   4.408   7.156  -0.025  0.4847  0.5773 -0.4813
   10CHTO   C78 3970   4.494   7.259   0.040  1.0328  0.0020  0.0387
   10CHTO  H150 3971   4.594   7.263  -0.008  0.1399 -1.1777 -1.9672
   10CHTO   C80 3972   4.506   7.237   0.190  0.3634  0.5565 -0.3665
   10CHTO  H152 3973   4.404   7.218   0.230 -0.6186  0.3719 -2.8107
   10CHTO   O55 3974   4.559   7.104   0.211  0.0151  0.1554  0.1056
   10CHTO  H134 3975   4.609   7.083   0.288  1.2902 -1.1426 -1.0637
   10CHTO   C84 3976   4.589   7.353   0.264 -0.3494 -0.2680  1.0318
   10CHTO  H156 3977   4.688   7.353   0.220 -1.2347 -0.8457 -1.0197
   10CHTO   N15 3978   4.598   7.326   0.410 -0.3718  0.2969 -0.2209
   10CHTO  H143 3979   4.662   7.244   0.435  0.2993  0.8292 -0.1555
   10CHTO  H144 3980   4.623   7.410   0.471  1.0728 -0.2868 -0.0014
   10CHTO   C87 3981   4.507   7.481   0.226 -0.5285  0.1654  0.1184
   10CHTO  H159 3982   4.415   7.496   0.281 -2.5245  0.1168 -3.0860
   10CHTO   O53 3983   4.492   7.493   0.087 -0.6217  0.7901 -0.1376
   10CHTO   C82 3984   4.423   7.391   0.018  0.1034 -0.1484  0.0408
   10CHTO  H154 3985   4.322   7.390   0.059 -0.2504 -0.7602 -0.8354
   10CHTO   C89 3986   4.407   7.427  -0.131 -0.1050 -0.1809 -0.0491
   10CHTO   O59 3987   4.527   7.419  -0.209 -0.0699  0.1958  0.3748
   10CHTO  H137 3988   4.544   7.509  -0.228  1.1110  0.1413  1.0941
   10CHTO   O45 3989   4.601   7.611   0.271  0.2099  0.3893  0.0291
   10CHTO   C67 3990   4.524   7.727   0.312  0.3195  0.1334 -0.0868
   10CHTO  H124 3991   4.425   7.721   0.267  0.2970 -0.7402  0.0707
   10CHTO   C65 3992   4.517   7.740   0.466 -0.0375 -0.3316 -0.5735
   10CHTO  H122 3993   4.476   7.652   0.515  2.0315  0.1441  2.1382
   10CHTO   O44 3994   4.428   7.846   0.511  0.0668 -0.5361 -0.4858
   10CHTO  H102 3995   4.406   7.902   0.439  0.2825  0.1813 -0.0000
   10CHTO   C63 3996   4.660   7.744   0.530  0.3065 -0.0796  0.5179
   10CHTO  H120 3997   4.717   7.663   0.484 -1.7014  0.0934 -2.4580
   10CHTO   N11 3998   4.675   7.736   0.678 -0.3182  0.6734  0.7712
   10CHTO  H108 3999   4.780   7.757   0.683 -0.4410  1.4911  0.0185
   10CHTO  H109 4000   4.621   7.820   0.715 -0.4851  0.7319  0.3972
   10CHTO   C61 4001   4.733   7.874   0.473 -0.4263 -0.7129 -0.0549
   10CHTO  H118 4002   4.841   7.859   0.484  0.0424  1.8504 -0.8084
   10CHTO   O40 4003   4.715   7.892   0.331  0.3301  0.4100  0.1281
   10CHTO   C68 4004   4.597   7.853   0.255 -0.5047 -0.2697 -0.1486
   10CHTO  H125 4005   4.634   7.825   0.154 -2.6096 -0.2125 -0.9634
   10CHTO   C72 4006   4.515   7.984   0.233  0.1076  0.3111  0.8377
   10CHTO   O48 4007   4.406   7.950   0.159  0.0156  0.7056  0.2571
   10CHTO  H105 4008   4.421   7.929   0.069  2.9866 -0.7743  1.0500
   10CHTO   O38 4009   4.685   8.000   0.535 -0.3387  0.7622 -0.0068
   10CHTO   C55 4010   4.775   8.112   0.536 -0.0545 -0.1106 -0.2425
   10CHTO  H112 4011   4.856   8.098   0.462 -2.0376 -0.7962 -2.3442
   10CHTO   C56 4012   4.835   8.117   0.687 -0.2697 -0.0592  0.7919
   10CHTO  H113 4013   4.760   8.138   0.764 -0.1480 -0.1755  0.9417
   10CHTO   O42 4014   4.899   7.990   0.721  0.2972  0.0440  0.5103
   10CHTO  H100 4015   4.859   7.961   0.800 -1.4437  0.2087 -0.2769
   10CHTO   C57 4016   4.940   8.234   0.701  1.0801 -0.5112 -0.2329
   10CHTO  H114 4017   5.023   8.218   0.633  0.3693 -0.4132 -1.1260
   10CHTO   N10 4018   5.004   8.252   0.837  0.0771 -0.2787 -0.3860
   10CHTO  H106 4019   4.939   8.306   0.904  0.8021 -0.7864  0.7324
   10CHTO  H107 4020   5.036   8.158   0.878 -0.6126 -0.4923 -0.3361
   10CHTO   C58 4021   4.881   8.368   0.659 -0.3926 -0.1027  0.5376
   10CHTO  H115 4022   4.802   8.405   0.728 -0.3597 -0.5039  0.7916
   10CHTO   O37 4023   4.831   8.354   0.525  0.1375 -0.6065  0.1440
   10CHTO   C59 4024   4.718   8.256   0.507 -0.6781  0.0120  0.0758
   10CHTO  H116 4025   4.636   8.286   0.572 -1.2475  0.3169 -0.7711
   10CHTO   C70 4026   4.687   8.271   0.355  0.4763 -0.2948  0.4824
   10CHTO   O46 4027   4.648   8.403   0.311  0.1633  0.1538  0.3210
   10CHTO  H103 4028   4.686   8.463   0.373 -0.8961 -0.9799  2.1332
   10CHTO   O39 4029   4.997   8.481   0.635 -0.0620 -0.0773  0.3607
   10CHTO   C60 4030   4.973   8.622   0.674 -0.4373 -0.0155 -0.0658
   10CHTO  H117 4031   4.874   8.658   0.648 -1.6306 -3.2106 -0.1609
   10CHTO   C62 4032   4.974   8.624   0.833 -0.5505 -0.4366  0.4620
   10CHTO  H119 4033   4.904   8.545   0.868 -2.4110  1.0229  0.0821
   10CHTO   O43 4034   5.104   8.585   0.885  0.4930  0.3429  0.1898
   10CHTO  H101 4035   5.104   8.549   0.972  1.0680  1.0367  0.4812
   10CHTO   C66 4036   4.931   8.771   0.888 -0.5353 -0.0833  0.6356
   10CHTO  H123 4037   4.831   8.787   0.848 -0.3824 -1.0907 -0.1705
   10CHTO   N12 4038   4.920   8.781   1.035  0.1671  0.8150 -0.3306
   10CHTO  H110 4039   5.008   8.755   1.091  0.9515 -0.3605 -2.0927
   10CHTO  H111 4040   4.837   8.716   1.061  0.8011  0.1357 -0.0074
   10CHTO   C69 4041   5.027   8.878   0.832 -0.0385 -0.5158  0.2729
   10CHTO  H126 4042   5.130   8.868   0.873  0.1884  0.3352 -0.0703
   10CHTO   O41 4043   5.033   8.873   0.681  0.6241 -0.1459  0.0869
   10CHTO   C64 4044   5.074   8.725   0.618 -0.2868 -0.1856 -0.6845
   10CHTO  H121 4045   5.178   8.702   0.649 -0.3870 -1.6206 -1.4087
   10CHTO   C71 4046   5.064   8.712   0.463 -0.3760 -0.2921 -0.2321
   10CHTO   O47 4047   5.133   8.809   0.392 -0.2629 -0.4418 -0.2728
   10CHTO  H104 4048   5.217   8.783   0.358 -0.1802 -2.3706  1.2973
   10CHTO   O34 4049   4.984   9.015   0.865  0.0632  0.0327 -0.3461
   10CHTO   C49 4050   5.084   9.149   0.914  0.2051  0.1026  0.0726
   10CHTO   H91 4051   5.174   9.100   0.952  0.4986 -1.4252 -2.4734
   10CHTO   C47 4052   4.998   9.228   1.018  0.8030  0.0888  0.1462
   10CHTO   H89 4053   5.058   9.312   1.060 -1.1114  2.1735 -1.1463
   10CHTO   O33 4054   4.960   9.137   1.116  0.4280  0.0930 -0.3880
   10CHTO   H70 4055   5.023   9.147   1.184 -1.0808  2.9456  0.6412
   10CHTO   C45 4056   4.872   9.293   0.940 -0.2234 -0.3397 -0.5223
   10CHTO   H87 4057   4.814   9.217   0.885  2.3890 -2.8033 -0.0118
   10CHTO    N8 4058   4.784   9.367   1.037  0.5029  0.0821 -0.5136
   10CHTO   H75 4059   4.684   9.330   1.018  0.3806  0.0573  0.1834
   10CHTO   H76 4060   4.785   9.475   1.028 -1.2092 -0.1358 -4.6435
   10CHTO   C43 4061   4.926   9.385   0.822 -0.2788 -0.0026  0.1067
   10CHTO   H85 4062   4.839   9.427   0.772 -0.7339 -2.3282 -1.1345
   10CHTO   O29 4063   4.998   9.301   0.729  0.0742 -0.4584 -0.4966
   10CHTO   C50 4064   5.113   9.234   0.791 -0.4120  0.2630  0.1402
   10CHTO   H92 4065   5.157   9.170   0.713  1.7222  1.6353  0.1637
   10CHTO   C54 4066   5.239   9.320   0.808  0.3007  0.7147  0.0730
   10CHTO   O36 4067   5.275   9.364   0.675 -0.2760 -0.2461  0.1366
   10CHTO   H72 4068   5.276   9.458   0.683 -0.5917 -0.1689 -0.6717
   10CHTO   O27 4069   5.005   9.499   0.867  0.2406 -0.2355  0.2426
   10CHTO   C37 4070   5.054   9.605   0.785 -0.1546 -0.4429  0.8951
   10CHTO   H79 4071   5.160   9.591   0.757 -0.5414 -2.2289  0.2395
   10CHTO   C38 4072   4.972   9.622   0.660  0.1159  0.1188 -0.2207
   10CHTO   H80 4073   4.865   9.623   0.688 -0.6217  2.2800 -2.8928
   10CHTO   O31 4074   5.005   9.513   0.567  0.2756 -0.4938 -0.1935
   10CHTO   H68 4075   5.096   9.494   0.554 -0.1542 -2.8985  0.0483
   10CHTO   C39 4076   4.994   9.758   0.585 -0.4079 -0.1003  0.6082
   10CHTO   H81 4077   5.084   9.745   0.525 -0.5862  0.9991  0.0848
   10CHTO    N7 4078   4.885   9.797   0.485 -0.2031 -0.0292 -0.2579
   10CHTO   H73 4079   4.808   9.861   0.525  0.0274 -1.8133  3.2420
   10CHTO   H74 4080   4.930   9.832   0.394  1.5677  2.2249  1.4072
   10CHTO   C40 4081   5.019   9.884   0.676  0.1529  0.4930  1.1385
   10CHTO   H82 4082   4.922   9.930   0.698  0.3692  2.7060 -2.1965
   10CHTO   O26 4083   5.094   9.855   0.795  0.1861  0.0876 -0.1672
   10CHTO   C41 4084   5.041   9.737   0.874  0.0025 -0.0527  0.4327
   10CHTO   H83 4085   4.935   9.750   0.898 -0.5865 -1.1722 -1.4549
   10CHTO   C52 4086   5.124   9.728   1.004  0.0481  0.4604  0.3745
   10CHTO   O35 4087   5.142   9.852   1.075 -0.4591  0.0429  0.0398
   10CHTO   H71 4088   5.234   9.846   1.086 -0.5419  0.6268  1.0690
   10CHTO   O28 4089   5.101   9.979   0.609  0.4467 -0.3016  0.1395
   10CHTO   C42 4090   5.082  10.126   0.590 -0.2559 -0.1547  0.2384
   10CHTO   H84 4091   4.987  10.142   0.640  0.0280 -0.0334  0.7388
   10CHTO   C44 4092   5.060  10.177   0.447 -0.2669  0.1638  1.1685
   10CHTO   H86 4093   5.148  10.156   0.386 -1.9242 -0.8226 -0.9819
   10CHTO   O32 4094   4.959  10.096   0.393 -0.0203  0.0179  0.1690
   10CHTO   H69 4095   4.939  10.122   0.306 -0.6081 -0.1508  0.2452
   10CHTO   C48 4096   5.034  10.331   0.434 -0.9242 -0.6963  0.6186
   10CHTO   H90 4097   4.941  10.343   0.489 -2.9958  0.3605 -2.9498
   10CHTO    N9 4098   5.001  10.377   0.293  0.1744 -0.3240  0.1100
   10CHTO   H77 4099   5.070  10.453   0.259  0.3303 -1.0852 -1.3510
   10CHTO   H78 4100   4.994  10.298   0.219 -1.2014 -0.1823  0.0830
   10CHTO   C51 4101   5.159  10.403   0.512 -0.0769  0.3688  0.6775
   10CHTO   H93 4102   5.248  10.377   0.454 -1.4821  0.4694 -1.5374
   10CHTO   O30 4103   5.166  10.355   0.644  0.1798 -0.5561  0.0249
   10CHTO   C46 4104   5.190  10.212   0.660  0.2116  0.3205  0.2628
   10CHTO   H88 4105   5.283  10.189   0.607  0.4899 -0.1693  0.9676
   10CHTO   C53 4106   5.194  10.181   0.811 -0.4483 -0.3215 -0.4796
   10CHTO   O72 4107   5.295  10.262   0.867  0.0809 -0.1617  0.1241
   10CHTO  H199 4108   5.275  10.271   0.958  1.4705 -2.8114  0.7471
   10CHTO   O22 4109   5.143  10.547   0.521 -0.1907 -0.0128  0.4142
   10CHTO   C31 4110   5.263  10.622   0.568  0.0743  0.2666 -0.4168
   10CHTO   H59 4111   5.335  10.546   0.605  0.4559  0.8084 -0.0495
   10CHTO   C29 4112   5.336  10.699   0.455 -0.5739  0.2694  0.5038
   10CHTO   H57 4113   5.265  10.767   0.407 -2.2866 -0.4994  1.8607
   10CHTO   O21 4114   5.383  10.606   0.355 -0.5157  0.2223 -0.2663
   10CHTO   H37 4115   5.307  10.567   0.318 -1.3165 -0.0556  1.5872
   10CHTO   C27 4116   5.451  10.789   0.507 -0.5007  0.4462 -0.2152
   10CHTO   H55 4117   5.530  10.732   0.558 -0.2248  1.4451  0.5151
   10CHTO    N5 4118   5.514  10.881   0.407 -0.1414  0.1303 -0.1280
   10CHTO   H43 4119   5.439  10.941   0.358 -2.8109 -0.5335  2.9786
   10CHTO   H44 4120   5.573  10.820   0.339  0.7648 -0.8009  1.4570
   10CHTO   C25 4121   5.388  10.878   0.620 -0.5899  0.0067 -0.1657
   10CHTO   H53 4122   5.302  10.938   0.586 -0.7077  0.3448  0.6907
   10CHTO   O17 4123   5.346  10.790   0.731  0.3624 -0.2319 -0.4981
   10CHTO   C32 4124   5.236  10.713   0.693  0.0641 -0.0460  0.2832
   10CHTO   H60 4125   5.164  10.789   0.665  0.9311  0.8607  0.4717
   10CHTO   C36 4126   5.159  10.646   0.802 -0.9637  0.5308  0.2848
   10CHTO   O25 4127   5.113  10.725   0.908  0.4198 -0.0787 -0.5615
   10CHTO   H40 4128   5.184  10.754   0.962  1.9058 -0.7048 -2.1325
   10CHTO   O15 4129   5.508  10.973   0.686 -0.5497  0.2394  0.1433
   10CHTO   C19 4130   5.465  11.110   0.707  0.0109 -1.1025 -0.1372
   10CHTO   H47 4131   5.407  11.142   0.619  0.1744 -0.4072  0.0051
   10CHTO   C20 4132   5.363  11.131   0.831 -0.5378 -0.2395  0.5915
   10CHTO   H48 4133   5.397  11.082   0.924 -1.3074 -0.8071  0.5793
   10CHTO   O19 4134   5.247  11.056   0.799 -0.1179 -0.4538 -0.2161
   10CHTO   H35 4135   5.273  10.979   0.754 -0.0926  0.3818 -1.6605
   10CHTO   C21 4136   5.331  11.291   0.851  0.4312 -0.3751 -0.1258
   10CHTO   H49 4137   5.289  11.335   0.760  0.2201 -1.9741 -0.8185
   10CHTO    N4 4138   5.243  11.318   0.965  0.2931  0.5161 -0.2027
   10CHTO   H41 4139   5.145  11.340   0.925  0.2125 -0.8887 -0.8373
   10CHTO   H42 4140   5.278  11.415   0.997 -1.7854  1.4456 -0.7225
   10CHTO   C22 4141   5.469  11.366   0.860  0.0284 -0.4134 -0.3290
   10CHTO   H50 4142   5.529  11.325   0.941  1.5963 -2.1218 -2.3013
   10CHTO   O14 4143   5.540  11.349   0.737 -0.7037 -0.0182  0.4777
   10CHTO   C23 4144   5.586  11.213   0.731 -0.3345 -0.7272  0.0864
   10CHTO   H51 4145   5.644  11.189   0.821  0.5201 -1.2185 -0.5946
   10CHTO   C34 4146   5.698  11.213   0.625  0.4870  0.3513 -0.0984
   10CHTO   O23 4147   5.638  11.221   0.496 -0.1871  0.4791 -0.9033
   10CHTO   H38 4148   5.598  11.141   0.466  0.3443 -0.4805  0.8959
   10CHTO   O16 4149   5.456  11.510   0.877  0.3338 -0.0760 -0.4316
   10CHTO   C24 4150   5.572  11.579   0.953  0.6066 -0.0178  0.0029
   10CHTO   H52 4151   5.665  11.522   0.954  1.3328  1.1620  1.8785
   10CHTO   C26 4152   5.528  11.611   1.102 -0.2404  0.5634  0.2696
   10CHTO   H54 4153   5.428  11.659   1.097 -0.9412 -1.0721 -1.4296
   10CHTO   O20 4154   5.517  11.485   1.172  0.1565 -0.3197  0.1296
   10CHTO   H36 4155   5.476  11.511   1.253  0.5482 -1.6779  0.7729
   10CHTO   C30 4156   5.623  11.718   1.177 -0.0009  0.6513  0.0349
   10CHTO   H58 4157   5.718  11.663   1.185  1.2543  2.3252 -2.7014
   10CHTO    N6 4158   5.573  11.756   1.309 -0.0996 -0.3930  0.1539
   10CHTO   H45 4159   5.645  11.802   1.376 -0.1300  0.3008 -0.2934
   10CHTO   H46 4160   5.477  11.804   1.312 -0.6106 -1.0970 -3.2647
   10CHTO   C33 4161   5.652  11.836   1.080  0.3029  0.2168 -0.0450
   10CHTO   H61 4162   5.562  11.899   1.077 -0.2131 -0.5631 -2.2443
   10CHTO   O18 4163   5.687  11.795   0.949 -0.2320  0.8166  0.3597
   10CHTO   C28 4164   5.598  11.706   0.875 -0.7183  0.5864  0.2169
   10CHTO   H56 4165   5.509  11.766   0.861 -0.0534  1.1823 -1.6572
   10CHTO   C35 4166   5.669  11.683   0.739  0.6672  0.1172  0.1453
   10CHTO   O24 4167   5.576  11.628   0.648  0.2169 -0.3079  0.0878
   10CHTO   H39 4168   5.548  11.540   0.665  1.5516 -0.9311 -0.8379
   10CHTO    O9 4169   5.752  11.919   1.137  0.2253 -0.2897 -0.3031
   10CHTO   C13 4170   5.713  12.063   1.191 -0.3839 -0.3131  0.1326
   10CHTO   H26 4171   5.621  12.054   1.253 -0.2927  1.3892  0.5361
   10CHTO   C11 4172   5.692  12.162   1.070 -0.2850 -0.0074  0.5708
   10CHTO   H24 4173   5.600  12.128   1.019 -0.5485  2.4903 -0.6619
   10CHTO    O8 4174   5.806  12.166   0.984  0.0430  0.6828 -0.3007
   10CHTO    H3 4175   5.808  12.089   0.930  1.4279  1.5170 -1.4752
   10CHTO    C9 4176   5.662  12.300   1.141 -0.7400  0.7505  0.1305
   10CHTO   H22 4177   5.573  12.283   1.204 -0.1708  0.0399  0.7517
   10CHTO    N2 4178   5.625  12.400   1.034  0.3050 -0.5264  0.2195
   10CHTO   H10 4179   5.570  12.348   0.956  1.8923 -2.4895  0.3866
   10CHTO   H11 4180   5.568  12.481   1.077  0.4583 -1.0931  1.5183
   10CHTO    C7 4181   5.780  12.340   1.233  0.0006 -0.3875 -0.0159
   10CHTO   H20 4182   5.729  12.369   1.327 -2.4790  0.1083 -1.4593
   10CHTO    O4 4183   5.883  12.239   1.260  0.3416  0.3508  0.2873
   10CHTO   C14 4184   5.828  12.107   1.294  0.7690 -0.1094  0.1860
   10CHTO   H27 4185   5.779  12.115   1.392 -0.8155 -0.8806 -0.5308
   10CHTO   C18 4186   5.937  11.990   1.306 -0.6830 -0.1428 -0.0050
   10CHTO   O13 4187   6.049  12.029   1.387 -0.2677 -0.4476  0.2362
   10CHTO    H7 4188   6.087  12.113   1.367 -0.4603 -0.8111 -1.7615
   10CHTO    O2 4189   5.858  12.482   1.181 -0.6725 -0.0301  0.3041
   10CHTO    C1 4190   5.881  12.582   1.282 -0.0924 -0.3388  0.8675
   10CHTO   H14 4191   5.853  12.547   1.384  0.9773  1.5439  1.8438
   10CHTO    C2 4192   5.801  12.713   1.256 -0.4651  0.2665 -0.1270
   10CHTO   H15 4193   5.841  12.740   1.157 -2.7933  2.1477 -0.5836
   10CHTO    O6 4194   5.667  12.676   1.235 -0.4385 -0.0134 -0.2382
   10CHTO    H1 4195   5.636  12.684   1.147 -1.8260  1.2024  0.3249
   10CHTO    C3 4196   5.831  12.825   1.368  0.1666 -0.3369  0.6903
   10CHTO   H16 4197   5.790  12.788   1.463 -1.6134  1.9275  0.8341
   10CHTO    N1 4198   5.769  12.951   1.318  0.0246  0.2729  0.0718
   10CHTO    H8 4199   5.720  12.995   1.404  0.2962 -2.8237  1.8892
   10CHTO    H9 4200   5.693  12.927   1.245  0.9647 -0.6366 -0.6214
   10CHTO    C4 4201   5.984  12.841   1.398 -0.3493 -0.1416  0.4742
   10CHTO   H17 4202   6.033  12.901   1.321 -0.8489 -0.4763 -0.1178
   10CHTO    O1 4203   6.048  12.717   1.413  0.0796  0.3865 -0.7243
   10CHTO    C5 4204   6.031  12.629   1.301 -0.7282  0.5844 -0.2727
   10CHTO   H18 4205   6.066  12.679   1.210  0.1210  2.8091  1.2528
   10CHTO   C16 4206   6.130  12.512   1.329  0.5137 -0.7652  0.0081
   10CHTO   O11 4207   6.142  12.436   1.213  0.0558  0.6671  0.0042
   10CHTO    H5 4208   6.156  12.489   1.137 -0.6398 -0.8263 -1.1825
   10CHTO    O3 4209   5.997  12.889   1.530  0.2815 -0.1062 -0.1397
   10CHTO    C6 4210   6.119  12.957   1.559  0.0800  0.5083 -1.0053
   10CHTO   H19 4211   6.196  12.959   1.482 -0.2540  0.4950 -1.3379
   10CHTO    C8 4212   6.092  13.102   1.599 -0.1177  0.0656 -0.2023
   10CHTO   H21 4213   6.033  13.098   1.690  0.1604 -2.2358 -0.0883
   10CHTO    O7 4214   6.019  13.168   1.498  0.6126 -0.1175  0.0162
   10CHTO    H2 4215   6.053  13.151   1.412 -0.6037 -0.3658 -0.4189
   10CHTO   C12 4216   6.231  13.174   1.636  0.5991 -0.0048 -0.0227
   10CHTO   H25 4217   6.286  13.172   1.539 -0.7308  0.3125 -0.7839
   10CHTO    N3 4218   6.212  13.317   1.675 -0.2008 -0.3203 -0.1516
   10CHTO   H12 4219   6.300  13.364   1.717 -1.1629  0.5650  0.9103
   10CHTO   H13 4220   6.186  13.369   1.584  3.3575  0.1000 -0.9985
   10CHTO   C15 4221   6.310  13.089   1.743 -0.0618 -0.1873  0.1288
   10CHTO   H28 4222   6.271  13.101   1.844 -1.7163 -0.9355 -0.4106
   10CHTO   O10 4223   6.463  13.132   1.729  0.2526 -0.9356  0.0760
   10CHTO    H4 4224   6.468  13.226   1.731  0.7168 -0.9413 -0.8143
   10CHTO    O5 4225   6.313  12.953   1.713  0.3435  0.2092  0.6356
   10CHTO   C10 4226   6.183  12.886   1.686  0.9138 -0.3720 -0.1254
   10CHTO   H23 4227   6.119  12.903   1.772  2.5134 -1.5911  1.3441
   10CHTO   C17 4228   6.210  12.738   1.671  0.1569  0.3684  0.2840
   10CHTO   O12 4229   6.303  12.709   1.561  0.2833 -0.0459  1.0169
   10CHTO    H6 4230   6.391  12.691   1.588  0.7951  1.4799  0.4119
   11CHTO  H203 4231   7.500   6.652   2.423  0.7550 -3.6515  1.6758
   11CHTO   O82 4232   7.472   6.599   2.350 -0.1995 -1.1488  0.1567
   11CHTO  C123 4233   7.331   6.596   2.352  0.8818  0.1577  0.7448
   11CHTO  H227 4234   7.286   6.695   2.335 -0.4433 -0.5281  0.1439
   11CHTO   O77 4235   7.307   6.504   2.246  0.0438 -0.5698 -0.1116
   11CHTO  C118 4236   7.171   6.493   2.195 -0.1460  0.3922  0.6133
   11CHTO  H222 4237   7.151   6.592   2.153 -1.5208 -0.3645 -0.5796
   11CHTO  C125 4238   7.183   6.387   2.076 -0.3669 -0.4871 -0.5564
   11CHTO   O84 4239   7.242   6.445   1.961 -0.3577  0.5046 -0.1475
   11CHTO  H205 4240   7.335   6.459   1.971 -0.2606 -0.4418  0.3242
   11CHTO  C114 4241   7.070   6.455   2.311 -0.6370  0.0949 -0.4586
   11CHTO  H218 4242   7.066   6.347   2.323 -0.4596  0.0290 -0.9956
   11CHTO  C116 4243   7.102   6.517   2.450 -0.3966 -0.7057  0.1310
   11CHTO  H220 4244   7.049   6.614   2.448  0.7751 -0.0844 -1.0098
   11CHTO   O79 4245   7.038   6.450   2.555  0.3237  0.2980 -0.2710
   11CHTO  H201 4246   7.101   6.420   2.618 -0.2639 -0.4177 -0.0240
   11CHTO  C120 4247   7.258   6.536   2.482 -0.0425 -0.1180 -0.1157
   11CHTO  H224 4248   7.306   6.438   2.501  1.2745  0.5766  0.1984
   11CHTO   N21 4249   7.279   6.620   2.603  0.4620  0.6882 -0.9152
   11CHTO  H211 4250   7.201   6.694   2.617  1.0802  0.9517  1.3735
   11CHTO  H212 4251   7.297   6.563   2.693 -0.9050  1.2540 -0.2687
   11CHTO   O75 4252   6.948   6.507   2.260 -0.1601  0.3238 -0.1220
   11CHTO  C112 4253   6.831   6.381   2.240  0.0219  0.2166 -0.0172
   11CHTO  H216 4254   6.850   6.297   2.308 -2.4531 -0.8729 -0.6579
   11CHTO   O73 4255   6.845   6.340   2.104  0.2064 -0.0088 -0.1234
   11CHTO  C113 4256   6.760   6.234   2.068  0.0611 -0.9696  0.8605
   11CHTO  H217 4257   6.779   6.149   2.137 -0.7042 -0.9709  1.0672
   11CHTO  C124 4258   6.797   6.193   1.924 -0.5137 -0.1875  0.4712
   11CHTO   O83 4259   6.737   6.069   1.882  0.3764  0.6009 -0.2511
   11CHTO  H204 4260   6.800   6.009   1.847  1.5704  1.7381 -0.1170
   11CHTO  C109 4261   6.608   6.287   2.075 -0.2867  0.5162 -0.5997
   11CHTO  H213 4262   6.599   6.365   1.998 -1.0281 -1.9494 -3.0996
   11CHTO  C110 4263   6.581   6.354   2.218 -0.2171  0.1252  0.0235
   11CHTO  H214 4264   6.554   6.276   2.289 -0.6382 -0.6419 -0.9586
   11CHTO   O78 4265   6.466   6.438   2.214 -0.4629  0.4012  0.5358
   11CHTO  H200 4266   6.433   6.433   2.126 -0.0002  1.8121  0.2701
   11CHTO  C111 4267   6.695   6.445   2.276 -0.0581  0.1439 -1.3688
   11CHTO  H215 4268   6.692   6.540   2.220 -1.0024  0.2925 -1.0640
   11CHTO   N19 4269   6.690   6.472   2.424 -0.6882  0.4028  0.3848
   11CHTO  H207 4270   6.586   6.480   2.454 -0.5417 -0.5014  1.1472
   11CHTO  H208 4271   6.720   6.385   2.479  2.0646  1.9193  1.3984
   11CHTO   O74 4272   6.505   6.182   2.047 -0.1173 -0.4195  0.1247
   11CHTO  C115 4273   6.444   6.182   1.913  0.3788  1.0513 -0.3046
   11CHTO  H219 4274   6.518   6.199   1.835  0.3726 -1.0367 -0.7906
   11CHTO   O76 4275   6.401   6.032   1.873  0.0090 -0.3128  0.0652
   11CHTO  C122 4276   6.302   5.980   1.960 -0.3372 -0.2288 -0.2559
   11CHTO  H226 4277   6.354   5.961   2.053  3.1969  2.5237 -1.5662
   11CHTO  C126 4278   6.245   5.846   1.902 -0.1279  0.2958  0.1463
   11CHTO   O85 4279   6.349   5.739   1.890  0.0481  0.0852 -0.0920
   11CHTO  H206 4280   6.417   5.775   1.836 -0.4280  1.8127  0.4326
   11CHTO  C121 4281   6.179   6.079   1.987 -0.1269 -0.0206 -0.5611
   11CHTO  H225 4282   6.087   6.024   1.959 -1.4976  2.3207 -0.8677
   11CHTO   O81 4283   6.169   6.109   2.123 -0.3459  0.1189  0.1508
   11CHTO  H202 4284   6.249   6.095   2.169 -0.5496 -0.0934  0.4457
   11CHTO  C119 4285   6.189   6.204   1.899 -0.0792 -1.0392  0.0735
   11CHTO  H223 4286   6.198   6.169   1.796 -0.5174 -0.5130 -0.1479
   11CHTO  C117 4287   6.323   6.284   1.915  0.3758  0.1990  0.0892
   11CHTO  H221 4288   6.340   6.339   2.008  1.7334  1.6415 -0.9815
   11CHTO   N20 4289   6.330   6.390   1.805  0.2997  0.2901 -0.5445
   11CHTO  H209 4290   6.434   6.413   1.788  0.1931 -0.3755 -2.2023
   11CHTO  H210 4291   6.282   6.483   1.829  0.6491  0.1825  0.6178
   11CHTO   O80 4292   6.057   6.292   1.884 -0.5503 -0.2540  0.0517
   11CHTO  C103 4293   5.985   6.352   2.011  0.0783 -0.2002 -1.2540
   11CHTO  H190 4294   5.965   6.269   2.078  0.4860 -0.2305 -1.1654
   11CHTO  C101 4295   6.064   6.465   2.089  0.0979  0.6893  0.5184
   11CHTO  H188 4296   6.113   6.536   2.021  0.8191  1.2826  1.6460
   11CHTO   O68 4297   6.176   6.394   2.171  0.1674 -0.3109 -0.5100
   11CHTO  H168 4298   6.249   6.381   2.113 -0.6570 -0.0550 -1.6187
   11CHTO   C99 4299   5.960   6.552   2.169  0.1893  0.2881 -0.0181
   11CHTO  H186 4300   5.924   6.485   2.251  4.2461  0.1610  1.7737
   11CHTO   N17 4301   6.030   6.658   2.242 -0.5999 -0.2497  0.2052
   11CHTO  H174 4302   6.132   6.624   2.260 -0.4587  0.3818  0.6267
   11CHTO  H175 4303   5.978   6.674   2.336  3.6164 -1.9890  2.9999
   11CHTO   C97 4304   5.831   6.595   2.097 -1.0741 -0.4569  0.1409
   11CHTO  H184 4305   5.859   6.661   2.014  1.2400 -0.1557  1.1189
   11CHTO   O64 4306   5.767   6.476   2.054  0.1081 -0.0847  0.3940
   11CHTO  C104 4307   5.843   6.406   1.958  0.2931  1.1430  0.0470
   11CHTO  H191 4308   5.861   6.455   1.862 -1.9564 -1.2930 -1.7021
   11CHTO  C108 4309   5.756   6.283   1.927 -0.2066 -0.0019 -0.6641
   11CHTO   O71 4310   5.643   6.324   1.850 -0.5585 -0.2759 -0.1628
   11CHTO  H171 4311   5.645   6.289   1.763 -0.2542  1.2247 -0.7690
   11CHTO   O62 4312   5.738   6.650   2.193 -0.4474  0.0624  0.1973
   11CHTO   C91 4313   5.623   6.732   2.157  0.3204 -0.4857 -0.5252
   11CHTO  H178 4314   5.561   6.672   2.089 -0.9579  0.8837 -0.5971
   11CHTO   C92 4315   5.676   6.865   2.084 -0.2638 -0.1155  0.3535
   11CHTO  H179 4316   5.761   6.843   2.019  0.1831 -2.0116  1.5393
   11CHTO   O66 4317   5.572   6.915   1.997  0.1720  0.1733  0.0366
   11CHTO  H166 4318   5.542   6.845   1.943 -0.9582  0.4668  0.2811
   11CHTO   C93 4319   5.711   6.979   2.191  0.3453  0.0278 -0.6315
   11CHTO  H180 4320   5.724   7.066   2.124 -1.7818  1.1702  0.3668
   11CHTO   N16 4321   5.838   6.974   2.260  0.2991 -0.3383  0.2533
   11CHTO  H172 4322   5.867   7.069   2.302 -0.4846  0.3886 -0.8115
   11CHTO  H173 4323   5.920   6.932   2.203 -0.7377 -2.9598  0.6506
   11CHTO   C94 4324   5.590   7.005   2.289  0.1340 -0.2023  0.0453
   11CHTO  H181 4325   5.618   6.991   2.393  0.1288  0.5003  0.1476
   11CHTO   O61 4326   5.494   6.906   2.281  0.4048  0.2678  0.2658
   11CHTO   C95 4327   5.533   6.773   2.284  0.2454  0.6346  0.4182
   11CHTO  H182 4328   5.595   6.757   2.373  2.8891  1.7761 -1.1592
   11CHTO  C106 4329   5.402   6.688   2.286 -0.6960 -0.4711  0.7368
   11CHTO   O69 4330   5.431   6.560   2.341  0.0382 -0.4808 -1.0938
   11CHTO  H169 4331   5.479   6.511   2.278  1.9448  1.4704 -1.2210
   11CHTO   O63 4332   5.511   7.144   2.265  0.3933  0.3494 -0.6505
   11CHTO   C96 4333   5.542   7.258   2.352  0.0131 -0.0205  0.5061
   11CHTO  H183 4334   5.550   7.214   2.451 -0.0819  1.5330  1.2208
   11CHTO   C98 4335   5.429   7.373   2.349 -0.4721 -0.3938 -0.7532
   11CHTO  H185 4336   5.336   7.330   2.389 -1.1149 -0.3093 -2.1400
   11CHTO   O67 4337   5.467   7.482   2.442  0.5821  0.4257  0.4730
   11CHTO  H167 4338   5.413   7.559   2.438 -0.3401 -0.3331 -2.1203
   11CHTO  C102 4339   5.408   7.442   2.207  0.4532  0.3661  0.4728
   11CHTO  H189 4340   5.339   7.526   2.221  0.4144  0.5119 -0.5661
   11CHTO   N18 4341   5.343   7.364   2.094  0.3823  0.2090  0.3762
   11CHTO  H176 4342   5.407   7.344   2.010 -0.3462  1.1622 -0.4160
   11CHTO  H177 4343   5.331   7.266   2.138  1.5658  0.1704  0.6193
   11CHTO  C105 4344   5.549   7.501   2.155  0.5933  0.4792 -0.2830
   11CHTO  H192 4345   5.572   7.467   2.054  1.0635  1.2168 -0.4209
   11CHTO   O65 4346   5.661   7.471   2.235 -0.0574 -0.3692 -0.5011
   11CHTO  C100 4347   5.679   7.333   2.286  0.1740 -0.1978  0.0100
   11CHTO  H187 4348   5.710   7.274   2.199  1.2550 -0.5525  0.6207
   11CHTO  C107 4349   5.796   7.328   2.380  0.3146 -0.1246  0.4510
   11CHTO   O70 4350   5.759   7.366   2.513 -0.0828  0.3766  0.0302
   11CHTO  H170 4351   5.702   7.297   2.542  0.5081 -0.7679 -1.4441
   11CHTO   O57 4352   5.515   7.660   2.155 -0.0908  0.8577 -0.3016
   11CHTO   C85 4353   5.571   7.759   2.070  0.3174 -0.3458 -0.7510
   11CHTO  H157 4354   5.534   7.850   2.123  0.0427 -1.1582  0.4535
   11CHTO   C83 4355   5.507   7.765   1.934 -0.3763 -0.0353  0.3714
   11CHTO  H155 4356   5.399   7.776   1.949 -0.2167 -0.4161  1.9781
   11CHTO   O56 4357   5.525   7.636   1.865 -0.0319 -0.3292  0.2377
   11CHTO  H135 4358   5.471   7.567   1.899 -1.2311  0.1732 -0.6364
   11CHTO   C81 4359   5.562   7.889   1.850 -0.2177  0.5495 -0.6934
   11CHTO  H153 4360   5.547   7.980   1.908 -0.9356 -0.7689  1.2247
   11CHTO   N14 4361   5.487   7.910   1.723  0.0551 -0.4288  0.2286
   11CHTO  H141 4362   5.518   7.989   1.658 -2.1804 -1.6942 -2.4862
   11CHTO  H142 4363   5.384   7.926   1.749  0.1215 -1.1336  0.9253
   11CHTO   C79 4364   5.716   7.878   1.831  0.1201  0.3226 -0.6170
   11CHTO  H151 4365   5.750   7.974   1.793  1.0208 -0.3069 -1.4091
   11CHTO   O52 4366   5.778   7.864   1.967  0.5119 -0.2834 -0.5131
   11CHTO   C86 4367   5.729   7.762   2.047 -0.7539 -0.1081 -0.3706
   11CHTO  H158 4368   5.758   7.668   1.996  0.0908  0.2130 -0.4882
   11CHTO   C90 4369   5.811   7.763   2.181  0.0127  0.5183 -0.1620
   11CHTO   O60 4370   5.774   7.868   2.273  0.0364 -0.5786  0.6688
   11CHTO  H138 4371   5.707   7.826   2.323 -0.3876 -1.4822 -0.6238
   11CHTO   O50 4372   5.767   7.774   1.745 -0.0133 -0.6949 -0.0831
   11CHTO   C73 4373   5.854   7.777   1.629 -0.4620  0.0817  0.2373
   11CHTO  H145 4374   5.914   7.870   1.631 -0.2558 -0.0027 -1.6294
   11CHTO   C74 4375   5.776   7.763   1.494  0.4038 -0.0469  0.0862
   11CHTO  H146 4376   5.708   7.849   1.492  1.2399  0.5960 -1.1789
   11CHTO   O54 4377   5.877   7.786   1.393  0.0002 -0.1341 -0.3961
   11CHTO  H133 4378   5.876   7.877   1.369  2.5101 -0.3333 -1.3098
   11CHTO   C75 4379   5.702   7.626   1.485 -0.1946  0.1876 -0.0574
   11CHTO  H147 4380   5.615   7.630   1.552  1.3063  1.0876  1.8843
   11CHTO   N13 4381   5.643   7.592   1.348  0.2192  0.3016  0.0476
   11CHTO  H139 4382   5.535   7.592   1.358  0.2558 -1.4997  0.6432
   11CHTO  H140 4383   5.660   7.492   1.312 -0.7953  0.4708 -0.9354
   11CHTO   C76 4384   5.793   7.508   1.537  0.0353 -0.2212  0.0089
   11CHTO  H148 4385   5.861   7.490   1.454 -1.3829  1.4804 -1.5587
   11CHTO   O49 4386   5.878   7.538   1.654  0.0840 -0.5801 -0.0805
   11CHTO   C77 4387   5.951   7.662   1.642 -0.5237  0.5088 -0.5872
   11CHTO  H149 4388   6.026   7.671   1.564  0.6157 -0.7653  0.3262
   11CHTO   C88 4389   6.030   7.664   1.766 -0.2636 -0.1987  0.3326
   11CHTO   O58 4390   6.134   7.781   1.785 -0.6472  0.0594 -0.2362
   11CHTO  H136 4391   6.158   7.784   1.876 -1.3473  2.3841 -0.0992
   11CHTO   O51 4392   5.706   7.395   1.566  0.4058  0.1392 -0.6105
   11CHTO   C78 4393   5.768   7.269   1.591 -0.2252  0.7447  0.3509
   11CHTO  H150 4394   5.873   7.284   1.622  1.2360 -1.4776 -3.1406
   11CHTO   C80 4395   5.774   7.184   1.461 -0.5461 -0.6416 -0.2695
   11CHTO  H152 4396   5.676   7.194   1.410 -0.9563  2.0870  0.9660
   11CHTO   O55 4397   5.862   7.253   1.368  0.0637  0.0654  0.1385
   11CHTO  H134 4398   5.839   7.235   1.279  0.0961  0.8529 -0.0395
   11CHTO   C84 4399   5.824   7.035   1.482  0.0336  0.0960 -0.0506
   11CHTO  H156 4400   5.931   7.037   1.504 -0.0252 -0.6269  0.3292
   11CHTO   N15 4401   5.802   6.951   1.358  0.0729 -0.0374  0.3350
   11CHTO  H143 4402   5.825   6.849   1.382 -1.2514 -1.0413 -2.4495
   11CHTO  H144 4403   5.699   6.961   1.331  0.2111  1.7910  0.3976
   11CHTO   C87 4404   5.758   6.971   1.613 -0.2058 -0.1975 -0.2531
   11CHTO  H159 4405   5.655   6.949   1.587 -0.1703  1.8904 -2.3257
   11CHTO   O53 4406   5.750   7.061   1.719  0.3408  0.2629 -0.8531
   11CHTO   C82 4407   5.691   7.187   1.694  0.0861 -0.3938  0.1238
   11CHTO  H154 4408   5.593   7.175   1.649  0.3045 -0.2595 -0.3937
   11CHTO   C89 4409   5.670   7.258   1.831 -0.1133  0.0109  0.3173
   11CHTO   O59 4410   5.567   7.197   1.910 -0.0837 -0.3599  0.0708
   11CHTO  H137 4411   5.600   7.147   1.982 -1.7093  0.8636  1.6892
   11CHTO   O45 4412   5.832   6.823   1.659  0.4782  0.0976  0.5918
   11CHTO   C67 4413   5.975   6.832   1.686 -0.0881 -0.4323  0.3649
   11CHTO  H124 4414   6.019   6.874   1.596 -1.2043 -0.9815 -0.4381
   11CHTO   C65 4415   6.010   6.923   1.810  0.2539 -0.0405 -0.2232
   11CHTO  H122 4416   5.920   6.928   1.871 -0.3056  3.3687 -1.2282
   11CHTO   O44 4417   6.030   7.056   1.759 -0.0510 -0.6340 -0.5069
   11CHTO  H102 4418   6.118   7.077   1.781 -0.9162  3.9292 -0.8756
   11CHTO   C63 4419   6.118   6.848   1.894 -0.0730 -0.0151  0.3082
   11CHTO  H120 4420   6.072   6.766   1.949  1.0879 -1.0446 -0.2299
   11CHTO   N11 4421   6.166   6.924   2.012  0.1725 -0.0167  0.0982
   11CHTO  H108 4422   6.238   6.997   1.980 -0.0815  0.2533  0.1427
   11CHTO  H109 4423   6.212   6.867   2.090 -0.2278 -0.2852  0.1382
   11CHTO   C61 4424   6.231   6.797   1.800  0.0933  0.5350 -0.4217
   11CHTO  H118 4425   6.313   6.744   1.850  0.8826 -0.6164 -2.8637
   11CHTO   O40 4426   6.182   6.703   1.698 -0.7236  0.2777 -0.0086
   11CHTO   C68 4427   6.038   6.686   1.690  0.1101  0.2396  0.0607
   11CHTO  H125 4428   6.006   6.631   1.781  0.5027 -0.0468  0.0259
   11CHTO   C72 4429   6.000   6.597   1.562 -0.1495 -0.1825  0.1888
   11CHTO   O48 4430   6.048   6.465   1.554  0.0561  0.3518 -0.2343
   11CHTO  H105 4431   6.140   6.469   1.533  0.4623  0.8527  1.5373
   11CHTO   O38 4432   6.289   6.909   1.726  0.4026  0.4166 -0.2211
   11CHTO   C55 4433   6.431   6.917   1.713  0.3249 -0.4905  0.4515
   11CHTO  H112 4434   6.477   6.818   1.728  0.3802 -0.7409 -1.2962
   11CHTO   C56 4435   6.499   7.030   1.797  0.0421 -0.2931 -0.3595
   11CHTO  H113 4436   6.453   7.126   1.768 -3.2626 -0.9827  2.2965
   11CHTO   O42 4437   6.459   7.022   1.938  0.1258  0.2707 -0.0731
   11CHTO  H100 4438   6.508   7.084   1.988 -0.0301  2.3400 -2.3864
   11CHTO   C57 4439   6.651   7.032   1.772  0.7628  0.3633 -0.1512
   11CHTO  H114 4440   6.689   6.936   1.806 -1.5250 -0.2982  0.5932
   11CHTO   N10 4441   6.734   7.138   1.828 -0.4135 -0.2054 -0.3993
   11CHTO  H106 4442   6.832   7.098   1.853 -0.2862  0.9170  0.9697
   11CHTO  H107 4443   6.689   7.171   1.921 -0.5878  0.3924 -0.6929
   11CHTO   C58 4444   6.672   7.032   1.617 -0.3027 -0.8452  0.2340
   11CHTO  H115 4445   6.651   7.132   1.575  0.6803 -0.1748  1.3380
   11CHTO   O37 4446   6.598   6.930   1.539 -0.2315 -0.4010  0.4366
   11CHTO   C59 4447   6.459   6.946   1.564 -0.4563 -0.1204  0.1773
   11CHTO  H116 4448   6.432   7.047   1.535 -0.0244  0.0360  0.3277
   11CHTO   C70 4449   6.398   6.850   1.457  0.8188  0.1757 -0.4670
   11CHTO   O46 4450   6.262   6.875   1.411  0.5243  0.1730 -0.4947
   11CHTO  H103 4451   6.250   6.817   1.338 -0.8266 -0.6408  0.3413
   11CHTO   O39 4452   6.835   6.994   1.586 -0.0569 -0.4541  0.8896
   11CHTO   C60 4453   6.879   7.038   1.458  0.2252  0.8213 -0.2034
   11CHTO  H117 4454   6.797   7.081   1.401  0.2324  0.4592 -0.4920
   11CHTO   C62 4455   6.967   7.161   1.486  0.8033 -0.0447  0.3661
   11CHTO  H119 4456   6.899   7.240   1.525  0.6777  1.7687 -3.2921
   11CHTO   O43 4457   7.068   7.133   1.586 -0.1114  0.3090 -0.3923
   11CHTO  H101 4458   7.029   7.124   1.671 -0.7616 -0.3053 -0.7448
   11CHTO   C66 4459   7.026   7.222   1.347  0.0448  0.0792 -0.1429
   11CHTO  H123 4460   6.941   7.258   1.288  0.7593  0.8380 -0.7061
   11CHTO   N12 4461   7.107   7.343   1.364  0.4597 -0.2183 -0.3554
   11CHTO  H110 4462   7.080   7.421   1.293  0.3070  0.3881  0.3683
   11CHTO  H111 4463   7.213   7.326   1.358  0.3653 -0.8199 -0.3074
   11CHTO   C69 4464   7.098   7.106   1.269  0.7001 -0.0481 -0.1939
   11CHTO  H126 4465   7.175   7.073   1.341  0.3368 -0.0009  0.2197
   11CHTO   O41 4466   6.980   6.984   1.239  0.5080 -0.0753  0.5303
   11CHTO   C64 4467   6.944   6.927   1.367  0.4955 -0.6739 -0.2636
   11CHTO  H121 4468   7.029   6.873   1.414 -0.2348 -0.5114  1.2974
   11CHTO   C71 4469   6.830   6.825   1.335 -0.0200 -0.0686  0.9236
   11CHTO   O47 4470   6.859   6.692   1.284  0.3652  0.2486 -0.1028
   11CHTO  H104 4471   6.910   6.697   1.205 -0.2674  0.9931 -0.4680
   11CHTO   O34 4472   7.164   7.149   1.145 -0.1695 -0.4270 -0.3405
   11CHTO   C49 4473   7.287   7.077   1.101 -0.1588  0.6653 -0.3183
   11CHTO   H91 4474   7.369   7.107   1.165 -1.9812  1.8732  1.5100
   11CHTO   C47 4475   7.323   7.130   0.962  0.3129 -0.1443  0.0597
   11CHTO   H89 4476   7.421   7.081   0.941 -0.5328 -2.2552  0.8386
   11CHTO   O33 4477   7.345   7.269   0.974  0.4479 -0.3014  0.1003
   11CHTO   H70 4478   7.268   7.322   0.962  2.1986  2.2000 -0.5914
   11CHTO   C45 4479   7.194   7.093   0.865  0.3918 -0.0435 -0.1983
   11CHTO   H87 4480   7.131   7.183   0.868  1.8317  0.9510  0.9606
   11CHTO    N8 4481   7.250   7.086   0.725  0.4360  0.1252  0.1459
   11CHTO   H75 4482   7.313   6.999   0.715 -0.3660 -0.6847  1.9263
   11CHTO   H76 4483   7.316   7.170   0.712 -0.0830  0.2887 -1.6632
   11CHTO   C43 4484   7.101   6.976   0.924 -0.8455 -0.0387  0.4373
   11CHTO   H85 4485   7.039   7.025   0.999  0.5633 -0.3949  1.8516
   11CHTO   O29 4486   7.189   6.876   0.981  0.2425 -0.0073 -0.1917
   11CHTO   C50 4487   7.276   6.919   1.090  0.1087  0.2866  0.3039
   11CHTO   H92 4488   7.234   6.889   1.187 -0.3806 -0.0441 -0.0137
   11CHTO   C54 4489   7.413   6.841   1.080 -0.2993 -0.0911  0.0800
   11CHTO   O36 4490   7.397   6.698   1.090  0.1767 -0.2152 -0.0856
   11CHTO   H72 4491   7.354   6.685   1.172  0.1480  0.5959  0.0374
   11CHTO   O27 4492   7.011   6.930   0.820 -0.1521 -0.1537 -0.4298
   11CHTO   C37 4493   6.899   6.840   0.787  0.4439  0.2814  0.6765
   11CHTO   H79 4494   6.917   6.739   0.827  0.2363 -0.0727 -0.1129
   11CHTO   C38 4495   6.765   6.890   0.852  0.1653  0.8015  0.5098
   11CHTO   H80 4496   6.737   6.985   0.804 -1.7738 -0.4619 -0.9446
   11CHTO   O31 4497   6.792   6.904   0.991  0.2974  0.1518 -0.5167
   11CHTO   H68 4498   6.715   6.897   1.044  0.8103 -0.6823  0.1265
   11CHTO   C39 4499   6.654   6.784   0.810 -0.0398 -0.2215 -0.0896
   11CHTO   H81 4500   6.684   6.688   0.853 -0.5107  0.6251  2.2094
   11CHTO    N7 4501   6.523   6.826   0.867  0.0142 -0.3952  0.3900
   11CHTO   H73 4502   6.533   6.819   0.974 -0.2266 -3.4543  0.2440
   11CHTO   H74 4503   6.453   6.751   0.834  2.2342 -3.2379  1.9818
   11CHTO   C40 4504   6.641   6.779   0.653  0.1768  0.6483 -0.2620
   11CHTO   H82 4505   6.594   6.869   0.612 -2.4619 -0.3814  0.4173
   11CHTO   O26 4506   6.771   6.746   0.592 -0.2656  0.0404 -0.4549
   11CHTO   C41 4507   6.887   6.821   0.628  0.4404  0.3219 -0.1990
   11CHTO   H83 4508   6.869   6.917   0.578  1.1314  0.7848  0.4321
   11CHTO   C52 4509   7.013   6.756   0.569  0.1542 -0.5769 -0.7179
   11CHTO   O35 4510   7.039   6.614   0.652 -0.2819  0.1120  0.0763
   11CHTO   H71 4511   7.120   6.578   0.619  0.0068  0.8346 -0.0152
   11CHTO   O28 4512   6.555   6.669   0.606 -0.2433 -0.6239 -0.1451
   11CHTO   C42 4513   6.522   6.635   0.464  0.0037  0.7167 -0.2304
   11CHTO   H84 4514   6.606   6.672   0.405  1.3621 -0.4632  0.9273
   11CHTO   C44 4515   6.399   6.715   0.419  0.3075  0.0937 -0.1319
   11CHTO   H86 4516   6.318   6.699   0.490  0.7451 -0.4568  0.2391
   11CHTO   O32 4517   6.430   6.859   0.431 -0.0587 -0.0606 -0.3224
   11CHTO   H69 4518   6.494   6.876   0.365  0.3377 -0.0062  0.0751
   11CHTO   C48 4519   6.366   6.680   0.272  0.1220  0.6802  0.0246
   11CHTO   H90 4520   6.420   6.732   0.192 -3.1803  0.1039 -2.6747
   11CHTO    N9 4521   6.228   6.729   0.226  0.1364  0.0425  0.3150
   11CHTO   H77 4522   6.221   6.835   0.245 -0.7168  0.3234 -1.5229
   11CHTO   H78 4523   6.203   6.708   0.123 -0.5039 -2.2848  0.9137
   11CHTO   C51 4524   6.359   6.520   0.249 -0.1505  0.3586  0.7688
   11CHTO   H93 4525   6.276   6.484   0.310 -2.5102  1.9206 -1.4014
   11CHTO   O30 4526   6.488   6.463   0.277  0.6661 -0.3413  0.4232
   11CHTO   C46 4527   6.511   6.483   0.433 -0.5077 -1.1343  0.2791
   11CHTO   H88 4528   6.429   6.438   0.491  0.3434 -0.3819  2.1060
   11CHTO   C53 4529   6.639   6.416   0.481 -0.0833  0.3648  0.2087
   11CHTO   O72 4530   6.633   6.274   0.473 -0.6573 -0.3479 -0.0188
   11CHTO  H199 4531   6.601   6.253   0.387 -2.9120 -0.6457  0.8644
   11CHTO   O22 4532   6.332   6.486   0.106  0.3417  0.2084 -0.1500
   11CHTO   C31 4533   6.213   6.403   0.072  0.0264 -0.9951  0.4432
   11CHTO   H59 4534   6.143   6.411   0.158 -0.2001 -3.1484  0.4842
   11CHTO   C29 4535   6.136   6.439  -0.054 -0.0182  0.3616  0.0662
   11CHTO   H57 4536   6.203   6.437  -0.141  0.6004 -0.0943  0.5479
   11CHTO   O21 4537   6.103   6.576  -0.046  0.2608 -0.6546  0.9522
   11CHTO   H37 4538   6.020   6.592  -0.086  0.4430  1.1486  1.2332
   11CHTO   C27 4539   6.010   6.347  -0.070 -0.3467 -0.7076  0.4268
   11CHTO   H55 4540   5.942   6.375   0.012 -0.8581  1.4345 -0.6840
   11CHTO    N5 4541   5.940   6.383  -0.199  0.1443  0.0139 -0.2906
   11CHTO   H43 4542   5.895   6.481  -0.188 -0.4247 -0.1840 -0.7859
   11CHTO   H44 4543   6.009   6.389  -0.283 -0.8907  1.0396 -1.0839
   11CHTO   C25 4544   6.048   6.195  -0.061  0.5822  0.5565  0.8217
   11CHTO   H53 4545   6.109   6.165  -0.147 -1.0536  2.7350 -1.1465
   11CHTO   O17 4546   6.123   6.178   0.056  0.2779  0.3147 -0.1030
   11CHTO   C32 4547   6.246   6.252   0.065 -0.0978 -0.5537  0.4175
   11CHTO   H60 4548   6.299   6.234  -0.028 -1.5785 -0.7409 -0.4033
   11CHTO   C36 4549   6.324   6.201   0.185  0.8634 -0.3450 -0.0612
   11CHTO   O25 4550   6.467   6.200   0.170  0.0722 -0.1563  0.4539
   11CHTO   H40 4551   6.507   6.158   0.243  0.8972 -2.3788 -1.2344
   11CHTO   O15 4552   5.912   6.111  -0.053 -0.0056 -0.1321 -0.1935
   11CHTO   C19 4553   5.867   5.971  -0.073  0.6624  0.1691  0.1922
   11CHTO   H47 4554   5.957   5.915  -0.045  0.9801  1.6069  2.1200
   11CHTO   C20 4555   5.735   5.933   0.011  0.4654  0.4391  0.1706
   11CHTO   H48 4556   5.651   5.999  -0.013 -0.9090 -0.6251  1.9520
   11CHTO   O19 4557   5.771   5.969   0.142 -0.5591  0.3026  0.3870
   11CHTO   H35 4558   5.838   5.908   0.166 -0.7748  0.2301  0.7961
   11CHTO   C21 4559   5.695   5.784  -0.007  0.6406 -0.2049 -0.0246
   11CHTO   H49 4560   5.776   5.723   0.032 -0.5945 -1.7826  0.1505
   11CHTO    N4 4561   5.573   5.735   0.066 -0.0340  0.2074 -0.0620
   11CHTO   H41 4562   5.515   5.665   0.008  0.3305 -0.4373  0.3507
   11CHTO   H42 4563   5.583   5.705   0.170 -0.0560  0.1681 -0.0718
   11CHTO   C22 4564   5.682   5.755  -0.161 -0.1324  0.1892  0.2459
   11CHTO   H50 4565   5.602   5.805  -0.215  0.4955 -1.6089 -2.4474
   11CHTO   O14 4566   5.807   5.790  -0.228  0.2316 -0.5069  0.0364
   11CHTO   C23 4567   5.843   5.931  -0.218 -0.2334 -0.6582 -0.2063
   11CHTO   H51 4568   5.774   6.000  -0.269 -0.1290 -1.1018 -0.9538
   11CHTO   C34 4569   5.968   5.941  -0.309 -0.4705  0.2260  0.3960
   11CHTO   O23 4570   5.961   5.872  -0.432  0.4530  0.2142 -0.3498
   11CHTO   H38 4571   5.948   5.780  -0.421 -3.1054  0.7998  1.2138
   11CHTO   O16 4572   5.663   5.613  -0.190 -0.0615 -0.0174  0.1078
   11CHTO   C24 4573   5.609   5.566  -0.352 -0.4017  0.5339  0.0756
   11CHTO   H52 4574   5.599   5.653  -0.417  1.4356  0.7473  0.0712
   11CHTO   C26 4575   5.479   5.489  -0.343  0.4909  0.1370  0.8181
   11CHTO   H54 4576   5.490   5.408  -0.269 -1.5883 -1.2201 -0.3335
   11CHTO   O20 4577   5.381   5.579  -0.291 -0.4656  0.0053  0.5528
   11CHTO   H36 4578   5.305   5.525  -0.282  0.2635 -1.2303 -0.6007
   11CHTO   C30 4579   5.436   5.443  -0.486  0.7774  0.3057 -0.2710
   11CHTO   H58 4580   5.431   5.529  -0.554  1.1500  0.4430 -0.1259
   11CHTO    N6 4581   5.299   5.383  -0.478 -0.3544  0.2508  0.0346
   11CHTO   H45 4582   5.219   5.451  -0.453 -0.3709  0.1871  0.1600
   11CHTO   H46 4583   5.263   5.313  -0.552 -0.5060 -0.2911  0.6100
   11CHTO   C33 4584   5.540   5.342  -0.541  0.0303 -0.1595  0.1176
   11CHTO   H61 4585   5.544   5.257  -0.471 -2.0082 -0.3621  0.0014
   11CHTO   O18 4586   5.664   5.407  -0.533  0.3590 -0.1105 -0.7274
   11CHTO   C28 4587   5.716   5.463  -0.412  0.0341 -0.0037  0.5642
   11CHTO   H56 4588   5.728   5.385  -0.337 -0.6921  2.1177  2.9700
   11CHTO   C35 4589   5.852   5.529  -0.433 -0.3765  0.3142 -0.3521
   11CHTO   O24 4590   5.863   5.603  -0.556  0.1719  0.2541 -0.6043
   11CHTO   H39 4591   5.840   5.693  -0.545  0.1249  0.1161  0.4439
   11CHTO    O9 4592   5.523   5.280  -0.668  0.0026  0.3632 -0.0747
   11CHTO   C13 4593   5.453   5.373  -0.783 -0.3754 -0.3550  0.2685
   11CHTO   H26 4594   5.366   5.423  -0.737  0.7648  1.5143  0.4683
   11CHTO   C11 4595   5.420   5.295  -0.915 -0.2333 -0.3327 -0.0251
   11CHTO   H24 4596   5.352   5.214  -0.884  0.6852 -1.0447  0.1810
   11CHTO    O8 4597   5.543   5.227  -0.954  0.2709 -0.4108  0.0053
   11CHTO    H3 4598   5.525   5.141  -0.986  2.1551 -0.0592 -2.0766
   11CHTO    C9 4599   5.363   5.379  -1.032 -0.9280  0.9720  0.0966
   11CHTO   H22 4600   5.269   5.416  -0.988 -0.3630  0.9058  1.3879
   11CHTO    N2 4601   5.316   5.295  -1.150 -0.5702 -0.2069  0.0360
   11CHTO   H10 4602   5.264   5.207  -1.113 -0.5892  0.0007  0.5152
   11CHTO   H11 4603   5.263   5.356  -1.221 -0.8246 -0.0565  0.3488
   11CHTO    C7 4604   5.454   5.498  -1.058 -0.1355 -0.1020 -0.1787
   11CHTO   H20 4605   5.398   5.578  -1.111 -0.3704  0.1459  0.4457
   11CHTO    O4 4606   5.507   5.573  -0.953  0.6138 -0.2256 -0.4477
   11CHTO   C14 4607   5.538   5.505  -0.832  0.1133  0.2470  0.0148
   11CHTO   H27 4608   5.525   5.591  -0.763  0.9483 -1.1400  1.9348
   11CHTO   C18 4609   5.686   5.488  -0.842  0.7808  0.0887 -0.3307
   11CHTO   O13 4610   5.753   5.609  -0.871 -0.4062 -0.5264 -0.2010
   11CHTO    H7 4611   5.774   5.652  -0.790 -1.7840  0.4422 -0.3525
   11CHTO    O2 4612   5.578   5.448  -1.153  0.0365 -0.4625 -0.0001
   11CHTO    C1 4613   5.649   5.549  -1.225  0.2780  0.1872  0.0944
   11CHTO   H14 4614   5.681   5.623  -1.149 -1.1392 -0.1677  1.0360
   11CHTO    C2 4615   5.575   5.627  -1.346  0.0609 -0.0200 -0.1598
   11CHTO   H15 4616   5.530   5.553  -1.414  2.0798  0.8305 -2.5008
   11CHTO    O6 4617   5.481   5.725  -1.291  0.0715  0.4127 -0.6195
   11CHTO    H1 4618   5.419   5.751  -1.357 -0.3116 -2.2295 -1.3807
   11CHTO    C3 4619   5.673   5.715  -1.439  0.2404 -0.1487 -0.0809
   11CHTO   H16 4620   5.708   5.801  -1.380 -1.0603 -0.6841  1.4850
   11CHTO    N1 4621   5.608   5.767  -1.569  0.5502 -0.1474  0.7572
   11CHTO    H8 4622   5.527   5.702  -1.601 -0.6030  1.4746  0.3466
   11CHTO    H9 4623   5.545   5.850  -1.542 -0.4408  0.2106 -2.4166
   11CHTO    C4 4624   5.805   5.636  -1.476  0.2560 -0.6335 -0.4092
   11CHTO   H17 4625   5.787   5.565  -1.557 -3.1573  0.1303 -0.4013
   11CHTO    O1 4626   5.859   5.561  -1.369  0.7374 -0.6425 -0.7672
   11CHTO    C5 4627   5.781   5.482  -1.282  0.0964  0.4338  0.7307
   11CHTO   H18 4628   5.754   5.390  -1.334  1.5868 -2.0468  4.1902
   11CHTO   C16 4629   5.864   5.443  -1.155  0.2887 -0.4589 -0.4072
   11CHTO   O11 4630   5.934   5.322  -1.181  0.0796 -0.1147 -0.1472
   11CHTO    H5 4631   5.875   5.249  -1.186  1.4530 -1.2454 -0.1576
   11CHTO    O3 4632   5.913   5.716  -1.514  0.2248 -0.7289 -0.4361
   11CHTO    C6 4633   6.014   5.659  -1.610 -0.5496  0.0033  0.4566
   11CHTO   H19 4634   6.008   5.551  -1.622 -1.4393 -0.1332  1.9717
   11CHTO    C8 4635   5.990   5.724  -1.750 -0.0804 -0.1519 -0.0732
   11CHTO   H21 4636   5.982   5.831  -1.736 -5.0555 -0.5180  1.0226
   11CHTO    O7 4637   5.851   5.685  -1.782 -0.3533  0.0665  0.1536
   11CHTO    H2 4638   5.798   5.759  -1.758 -0.2083  0.8316 -1.7636
   11CHTO   C12 4639   6.097   5.676  -1.858 -0.6749  0.2391  0.0636
   11CHTO   H25 4640   6.089   5.565  -1.866 -0.8568  0.2065  0.7012
   11CHTO    N3 4641   6.074   5.739  -1.989  0.4446 -0.0001 -0.1188
   11CHTO   H12 4642   6.085   5.695  -2.087  0.0742  0.4220 -0.3561
   11CHTO   H13 4643   6.117   5.838  -1.981  0.3737  0.0837 -0.7413
   11CHTO   C15 4644   6.241   5.707  -1.797 -0.3078 -0.7148  0.6788
   11CHTO   H28 4645   6.255   5.814  -1.781  1.4572 -1.0159  1.2601
   11CHTO   O10 4646   6.369   5.640  -1.877  1.0991 -0.3375 -0.2528
   11CHTO    H4 4647   6.388   5.689  -1.955 -0.8442  2.4048  0.8807
   11CHTO    O5 4648   6.250   5.636  -1.675 -0.0425 -0.5508 -0.1425
   11CHTO   C10 4649   6.162   5.687  -1.565 -0.3238  0.0799  0.3281
   11CHTO   H23 4650   6.172   5.795  -1.553  0.4783  0.0732 -0.2018
   11CHTO   C17 4651   6.203   5.626  -1.428 -0.0135 -0.4312  0.1268
   11CHTO   O12 4652   6.183   5.478  -1.432 -0.6753  0.3719  0.3890
   11CHTO    H6 4653   6.091   5.462  -1.432 -0.3013 -1.8892  0.2882
   12CHTO  H203 4654   5.847  12.564   6.403 -0.5831  1.0550  0.3587
   12CHTO   O82 4655   5.902  12.541   6.475  0.0009 -0.1847 -0.4505
   12CHTO  C123 4656   5.830  12.444   6.545  0.0702 -0.5506 -0.2795
   12CHTO  H227 4657   5.725  12.443   6.512 -0.0803  0.0790  0.1640
   12CHTO   O77 4658   5.896  12.318   6.503 -0.0595 -0.1972 -0.4291
   12CHTO  C118 4659   5.830  12.199   6.551 -0.6669 -0.4898 -0.0324
   12CHTO  H222 4660   5.724  12.191   6.519 -0.3586 -0.9861 -0.9457
   12CHTO  C125 4661   5.917  12.081   6.498  0.1319  0.6268 -0.4896
   12CHTO   O84 4662   6.051  12.066   6.556  0.4756  0.4039  0.1848
   12CHTO  H205 4663   6.082  11.989   6.513 -1.1212 -1.2783  1.9180
   12CHTO  C114 4664   5.838  12.197   6.703 -0.6479  0.5805 -0.0077
   12CHTO  H218 4665   5.943  12.195   6.734 -0.7435  0.7214  0.3225
   12CHTO  C116 4666   5.779  12.331   6.771 -0.8197  0.5554  0.4252
   12CHTO  H220 4667   5.669  12.336   6.762 -1.0094 -0.5576  2.0460
   12CHTO   O79 4668   5.806  12.329   6.911 -0.3979  0.6052 -0.6632
   12CHTO  H201 4669   5.744  12.264   6.938 -0.0003  0.2960 -0.5059
   12CHTO  C120 4670   5.851  12.457   6.702  0.0481 -0.0949  0.5967
   12CHTO  H224 4671   5.954  12.442   6.740  1.2424  3.3594 -1.1096
   12CHTO   N21 4672   5.788  12.579   6.763 -0.1117  0.2354  0.4278
   12CHTO  H211 4673   5.833  12.612   6.856 -1.6846 -1.0827  1.6877
   12CHTO  H212 4674   5.787  12.661   6.693  2.1630  0.9588  1.1760
   12CHTO   O75 4675   5.772  12.073   6.734 -0.4350  0.1869 -0.4738
   12CHTO  C112 4676   5.846  12.001   6.875  0.3369 -0.1171 -0.1192
   12CHTO  H216 4677   5.825  12.062   6.964 -0.5061  2.0916 -1.7982
   12CHTO   O73 4678   5.988  11.988   6.850  0.8905  0.2506 -0.0897
   12CHTO  C113 4679   6.062  11.915   6.953 -0.4964 -0.0332  0.3424
   12CHTO  H217 4680   6.053  11.964   7.052 -3.7185 -0.9535  0.5664
   12CHTO  C124 4681   6.211  11.920   6.928 -0.1811  0.0349 -0.3402
   12CHTO   O83 4682   6.259  11.890   6.803  0.0368 -0.5442 -0.2734
   12CHTO  H204 4683   6.343  11.852   6.821 -0.5707 -0.6119  2.5564
   12CHTO  C109 4684   6.008  11.770   6.969  0.0308 -0.4313  0.2839
   12CHTO  H213 4685   6.017  11.722   6.870 -2.1914  0.8238 -0.5502
   12CHTO  C110 4686   5.858  11.776   7.015  0.6721 -0.4220  0.4137
   12CHTO  H214 4687   5.846  11.818   7.115  0.0135 -0.4526  0.3508
   12CHTO   O78 4688   5.808  11.645   7.029  0.4990  0.1681 -0.6601
   12CHTO  H200 4689   5.733  11.647   7.085  0.6551 -0.4406 -0.4206
   12CHTO  C111 4690   5.780  11.858   6.906  0.2360  0.5363 -0.0798
   12CHTO  H215 4691   5.797  11.801   6.813  0.8776 -0.8645  0.8595
   12CHTO   N19 4692   5.632  11.877   6.926 -0.2273 -0.2526  0.2762
   12CHTO  H207 4693   5.582  11.808   6.860 -3.2578  1.6398  0.4819
   12CHTO  H208 4694   5.608  11.849   7.028  0.7775  2.4160  1.2979
   12CHTO   O74 4695   6.090  11.695   7.063 -0.1210 -0.2176  0.0226
   12CHTO  C115 4696   6.186  11.557   7.002 -0.6941 -0.2395  0.3049
   12CHTO  H219 4697   6.229  11.578   6.903 -2.2592 -1.0163 -0.5490
   12CHTO   O76 4698   6.309  11.534   7.087 -0.1471 -0.2523 -0.2854
   12CHTO  C122 4699   6.263  11.513   7.221 -0.8083 -0.0555  0.5260
   12CHTO  H226 4700   6.227  11.609   7.259 -0.7004 -1.0598  3.3282
   12CHTO  C126 4701   6.394  11.492   7.296 -0.2364 -0.1707 -0.5542
   12CHTO   O85 4702   6.378  11.473   7.436 -0.5999 -0.3446  0.1794
   12CHTO  H206 4703   6.324  11.544   7.465 -2.6643 -0.9036 -2.1242
   12CHTO  C121 4704   6.154  11.399   7.233 -0.0872  0.2302  0.0774
   12CHTO  H225 4705   6.201  11.332   7.309  0.5104  0.1555 -0.3546
   12CHTO   O81 4706   6.041  11.454   7.296  0.4095 -1.0212  0.2371
   12CHTO  H202 4707   5.986  11.506   7.240  1.6769  1.3729  1.1221
   12CHTO  C119 4708   6.124  11.324   7.094 -0.3596 -0.1591  0.3704
   12CHTO  H223 4709   6.211  11.262   7.069 -1.4426 -1.9516  0.9402
   12CHTO  C117 4710   6.090  11.434   6.987  0.3275  0.7111 -0.8071
   12CHTO  H221 4711   5.994  11.480   7.009  0.1870 -0.9000  2.2055
   12CHTO   N20 4712   6.090  11.377   6.848 -0.1076  0.5629 -0.2024
   12CHTO  H209 4713   6.035  11.284   6.847  0.3286  0.3115 -0.8324
   12CHTO  H210 4714   6.028  11.448   6.796 -0.7804 -0.8012 -1.2709
   12CHTO   O80 4715   6.010  11.204   7.087  0.2322 -0.6043 -0.4192
   12CHTO  C103 4716   6.034  11.077   7.161  0.1354 -0.2212  0.1261
   12CHTO  H190 4717   6.140  11.069   7.186  0.3661  0.8781 -0.4772
   12CHTO  C101 4718   5.952  11.044   7.289  0.0679 -0.9138 -0.4149
   12CHTO  H188 4719   5.845  11.057   7.271 -0.2934 -2.3281  0.6424
   12CHTO   O68 4720   6.000  11.155   7.388 -0.5115 -0.5682 -0.4305
   12CHTO  H168 4721   5.960  11.150   7.473 -2.1837 -0.7455 -1.2198
   12CHTO   C99 4722   5.981  10.894   7.336 -0.0777  1.3048 -0.2711
   12CHTO  H186 4723   6.089  10.886   7.361 -0.3237  1.8983  1.0287
   12CHTO   N17 4724   5.895  10.853   7.456  0.2209 -0.0688  0.7601
   12CHTO  H174 4725   5.914  10.749   7.481 -0.1179 -0.0546  1.0795
   12CHTO  H175 4726   5.795  10.861   7.415  0.8960 -1.6375 -1.3098
   12CHTO   C97 4727   5.949  10.797   7.221  1.0384  0.9514  0.2407
   12CHTO  H184 4728   5.841  10.785   7.208  0.7325  1.8931  1.8045
   12CHTO   O64 4729   6.020  10.832   7.101  0.4322 -0.1095  0.5272
   12CHTO  C104 4730   6.001  10.965   7.057 -0.1985 -0.5203  0.0797
   12CHTO  H191 4731   5.898  10.974   7.020 -1.1898 -3.6408  1.8112
   12CHTO  C108 4732   6.098  10.987   6.942 -0.2495  0.3997 -0.0906
   12CHTO   O71 4733   6.059  10.930   6.819 -0.4397 -0.2947 -0.7973
   12CHTO  H171 4734   5.971  10.958   6.804 -0.3098  0.2152 -0.6046
   12CHTO   O62 4735   6.020  10.668   7.237  0.2812 -0.1339 -0.4312
   12CHTO   C91 4736   5.950  10.538   7.231 -0.6099 -0.1709  0.3063
   12CHTO  H178 4737   5.852  10.541   7.279 -0.5765  1.1957  0.2944
   12CHTO   C92 4738   6.033  10.449   7.322  1.0637 -0.1893 -0.5205
   12CHTO  H179 4739   6.137  10.465   7.292  1.0272  3.5431  1.0949
   12CHTO   O66 4740   6.019  10.512   7.455  0.5299 -0.8743 -0.4615
   12CHTO  H166 4741   5.927  10.518   7.473  0.5736  1.3459 -0.7839
   12CHTO   C93 4742   5.995  10.292   7.320  0.2202  0.4824 -0.3133
   12CHTO  H180 4743   5.908  10.279   7.386  0.1128 -1.6862 -0.8510
   12CHTO   N16 4744   6.107  10.219   7.384  0.2608  0.5325  0.5101
   12CHTO  H172 4745   6.186  10.185   7.318  1.3944  0.1798  2.0240
   12CHTO  H173 4746   6.060  10.139   7.438 -1.9018  1.0966 -0.4680
   12CHTO   C94 4747   5.955  10.234   7.177  0.3213 -0.1481  0.3994
   12CHTO  H181 4748   6.041  10.197   7.121 -0.9070  1.8551 -2.9354
   12CHTO   O61 4749   5.889  10.336   7.103  0.0638  0.6275  0.0618
   12CHTO   C95 4750   5.936  10.467   7.090 -0.2275  0.2540  0.0055
   12CHTO  H182 4751   6.033  10.472   7.040 -0.8493 -1.5700 -1.4380
   12CHTO  C106 4752   5.850  10.547   6.988  1.0514  0.2278 -0.0477
   12CHTO   O69 4753   5.717  10.541   7.035  0.8784  0.5101 -0.0762
   12CHTO  H169 4754   5.667  10.605   6.988  0.8567  1.1325  0.7920
   12CHTO   O63 4755   5.847  10.118   7.187 -0.3595 -0.1995  0.3800
   12CHTO   C96 4756   5.882   9.990   7.284 -0.6910  0.4290 -0.3193
   12CHTO  H183 4757   5.925  10.029   7.376  0.1526 -1.1147 -0.0378
   12CHTO   C98 4758   5.980   9.874   7.242  0.0133 -0.4210  0.1497
   12CHTO  H185 4759   5.937   9.822   7.155 -1.1178 -1.3791  1.2649
   12CHTO   O67 4760   6.104   9.926   7.200  0.4570  0.1647  0.0235
   12CHTO  H167 4761   6.143   9.967   7.276 -1.1261 -0.0155  0.9381
   12CHTO  C102 4762   5.998   9.760   7.355  0.2251 -0.4868  0.4764
   12CHTO  H189 4763   6.058   9.811   7.432 -1.4764  2.8859 -0.3190
   12CHTO   N18 4764   6.072   9.633   7.320  0.1710 -0.2044 -0.5065
   12CHTO  H176 4765   6.177   9.654   7.309 -0.0523  0.8929 -0.5911
   12CHTO  H177 4766   6.032   9.597   7.226 -0.3807 -1.4580  0.1951
   12CHTO  C105 4767   5.864   9.729   7.422 -0.6414 -0.2593  0.1615
   12CHTO  H192 4768   5.814   9.643   7.376  0.2348 -1.3890  1.2573
   12CHTO   O65 4769   5.770   9.828   7.434 -0.5311  0.3539 -0.3952
   12CHTO  C100 4770   5.746   9.922   7.325 -0.1147 -0.7675 -0.5385
   12CHTO  H187 4771   5.701   9.865   7.243 -2.1413  1.0571 -0.7460
   12CHTO  C107 4772   5.634  10.011   7.381 -0.1575 -0.5771 -0.2569
   12CHTO   O70 4773   5.509   9.948   7.411 -0.1800 -0.3288  0.0499
   12CHTO  H170 4774   5.446  10.009   7.447 -0.9561 -1.7243  1.1142
   12CHTO   O57 4775   5.886   9.678   7.579 -0.8412  0.2366  0.2550
   12CHTO   C85 4776   5.858   9.546   7.632  0.1836 -0.0865 -0.5659
   12CHTO  H157 4777   5.912   9.474   7.567  1.9773  0.4804  0.2555
   12CHTO   C83 4778   5.708   9.520   7.609  0.5669  0.5235 -0.7024
   12CHTO  H155 4779   5.703   9.511   7.500  1.5150 -1.3623 -0.6185
   12CHTO   O56 4780   5.614   9.614   7.662  0.0502  0.4612  0.4633
   12CHTO  H135 4781   5.525   9.592   7.645 -0.5175  2.7492  0.3812
   12CHTO   C81 4782   5.684   9.376   7.665 -1.0456 -0.1075  0.0386
   12CHTO  H153 4783   5.759   9.313   7.617 -1.0980 -0.3494  0.2732
   12CHTO   N14 4784   5.548   9.313   7.649  0.3843  0.0413 -0.0668
   12CHTO  H141 4785   5.541   9.278   7.548  0.6805 -2.5737  0.7699
   12CHTO  H142 4786   5.522   9.235   7.717  0.3336 -0.3258 -0.5086
   12CHTO   C79 4787   5.717   9.377   7.823  0.0734  0.4686 -0.3587
   12CHTO  H151 4788   5.705   9.275   7.859 -2.4581  0.9451  0.2113
   12CHTO   O52 4789   5.855   9.406   7.847  0.3243  0.1527  0.2668
   12CHTO   C86 4790   5.899   9.528   7.789  0.4395 -0.5306  0.3647
   12CHTO  H158 4791   5.855   9.616   7.842 -0.1203 -1.0762  0.8098
   12CHTO   C90 4792   6.052   9.541   7.794 -0.0679 -0.1383 -0.6541
   12CHTO   O60 4793   6.116   9.437   7.715 -0.2870  0.2467 -0.2973
   12CHTO  H138 4794   6.080   9.354   7.740 -2.2622  1.1796  0.0488
   12CHTO   O50 4795   5.646   9.484   7.892  0.2603 -0.0559 -0.2213
   12CHTO   C73 4796   5.571   9.505   8.018  0.5612  0.0076 -0.0800
   12CHTO  H145 4797   5.480   9.444   8.012  0.4065 -0.0564  2.4369
   12CHTO   C74 4798   5.541   9.659   8.030 -0.3597  0.0201  0.4272
   12CHTO  H146 4799   5.504   9.701   7.936  2.0381  1.7486  0.2165
   12CHTO   O54 4800   5.438   9.677   8.131  0.0184  0.3443  0.1112
   12CHTO  H133 4801   5.402   9.763   8.132  0.9712  0.7778 -1.0367
   12CHTO   C75 4802   5.670   9.742   8.076  0.7186  0.0301 -0.5750
   12CHTO  H147 4803   5.737   9.750   7.989  0.0178 -0.5596 -1.1805
   12CHTO   N13 4804   5.643   9.882   8.111 -0.4608 -0.7648 -0.3775
   12CHTO  H139 4805   5.578   9.892   8.197  0.6578  4.5743  0.0293
   12CHTO  H140 4806   5.617   9.944   8.027  0.1290 -1.1435 -0.8416
   12CHTO   C76 4807   5.751   9.665   8.189 -0.0550 -0.0361 -0.3203
   12CHTO  H148 4808   5.691   9.674   8.279 -0.6373 -1.4135 -0.5549
   12CHTO   O49 4809   5.768   9.527   8.156  0.5575 -0.2188  0.5728
   12CHTO   C77 4810   5.649   9.458   8.145  0.6270 -0.1395  0.0693
   12CHTO  H149 4811   5.588   9.471   8.235 -0.8593 -0.4865 -0.8824
   12CHTO   C88 4812   5.678   9.308   8.153  0.0741 -0.1739 -0.1794
   12CHTO   O58 4813   5.581   9.248   8.200 -0.2513  0.3828  0.7495
   12CHTO  H136 4814   5.518   9.255   8.130  0.7524 -1.6444 -0.4071
   12CHTO   O51 4815   5.894   9.731   8.194 -0.2577  0.4129 -0.4916
   12CHTO   C78 4816   6.021   9.650   8.254 -0.3877 -0.5207  0.2053
   12CHTO  H150 4817   6.028   9.547   8.215 -0.2796 -0.5172  0.2153
   12CHTO   C80 4818   6.002   9.648   8.406  0.2744  0.2682  0.0179
   12CHTO  H152 4819   5.984   9.751   8.442 -0.3807 -0.7402  2.7588
   12CHTO   O55 4820   5.891   9.561   8.437 -0.5531  0.1654 -0.1492
   12CHTO  H134 4821   5.914   9.472   8.418  1.1189  0.5132  0.2302
   12CHTO   C84 4822   6.129   9.597   8.490 -0.2043 -0.1113  0.1099
   12CHTO  H156 4823   6.142   9.490   8.474  3.5673  0.1644  0.9372
   12CHTO   N15 4824   6.121   9.633   8.636  0.6572  0.7609  0.2721
   12CHTO  H143 4825   6.084   9.551   8.694 -1.1110  0.6186 -1.0091
   12CHTO  H144 4826   6.060   9.720   8.653  0.6468  0.3706  2.3509
   12CHTO   C87 4827   6.257   9.662   8.428 -0.0163  0.2661 -0.5219
   12CHTO  H159 4828   6.256   9.767   8.458 -2.6125  0.1566 -0.1341
   12CHTO   O53 4829   6.254   9.651   8.276 -0.7829  0.0121 -0.1366
   12CHTO   C82 4830   6.148   9.736   8.223 -0.2636  0.3326  0.1314
   12CHTO  H154 4831   6.130   9.831   8.274  0.1483  0.0912  0.7387
   12CHTO   C89 4832   6.162   9.769   8.071  0.3715 -0.1942 -0.1080
   12CHTO   O59 4833   6.280   9.835   8.029  0.0280 -0.1234 -0.0903
   12CHTO  H137 4834   6.256   9.902   7.969 -0.9203  0.2715  0.7281
   12CHTO   O45 4835   6.389   9.603   8.479  0.1856 -0.3570 -0.2153
   12CHTO   C67 4836   6.446   9.479   8.451  0.3481  0.5731  0.6956
   12CHTO  H124 4837   6.366   9.410   8.422  0.3800 -0.6803  3.4484
   12CHTO   C65 4838   6.543   9.490   8.335 -0.1969  0.3631  0.1354
   12CHTO  H122 4839   6.491   9.554   8.263  0.1166 -0.9486 -1.3038
   12CHTO   O44 4840   6.554   9.354   8.279 -0.4325 -0.5570  0.4443
   12CHTO  H102 4841   6.627   9.314   8.321 -0.5920  0.8911  2.1725
   12CHTO   C63 4842   6.672   9.574   8.382  0.1184 -0.0045 -0.2097
   12CHTO  H120 4843   6.635   9.667   8.425  0.8342  0.6352 -0.9650
   12CHTO   N11 4844   6.759   9.614   8.269 -0.1683 -0.1226  0.4689
   12CHTO  H108 4845   6.823   9.699   8.276  3.2773 -2.2840 -3.1202
   12CHTO  H109 4846   6.699   9.610   8.181 -0.0134 -0.6233  0.3820
   12CHTO   C61 4847   6.746   9.491   8.492  0.1379 -0.9743  0.2412
   12CHTO  H118 4848   6.828   9.551   8.533 -0.7290 -1.2219  2.4695
   12CHTO   O40 4849   6.651   9.460   8.607 -0.5476  0.1825 -0.3564
   12CHTO   C68 4850   6.515   9.424   8.582  0.2557  0.3573 -0.0376
   12CHTO  H125 4851   6.456   9.467   8.666  0.9762 -2.5318  2.0537
   12CHTO   C72 4852   6.495   9.270   8.598  0.1965  0.5222  0.4136
   12CHTO   O48 4853   6.538   9.211   8.720  0.6442  0.4896 -0.2044
   12CHTO  H105 4854   6.631   9.217   8.731  0.7554 -1.4157  0.1139
   12CHTO   O38 4855   6.811   9.373   8.441  0.4795  0.0990 -0.0218
   12CHTO   C55 4856   6.921   9.308   8.508  0.0148  0.3031 -0.3034
   12CHTO  H112 4857   6.899   9.311   8.615  1.7278 -1.1149  0.1084
   12CHTO   C56 4858   7.064   9.382   8.471  0.5170 -0.5293 -0.6234
   12CHTO  H113 4859   7.068   9.409   8.365 -0.8415  2.5886  0.0614
   12CHTO   O42 4860   7.059   9.512   8.534 -0.6741  0.4084 -0.1045
   12CHTO  H100 4861   7.006   9.572   8.484  2.8393  1.8348 -2.2595
   12CHTO   C57 4862   7.190   9.305   8.525 -1.0152 -0.0898  0.5056
   12CHTO  H114 4863   7.189   9.301   8.633 -0.7098 -0.7932  0.4898
   12CHTO   N10 4864   7.315   9.368   8.476 -0.2708 -0.1876  0.5379
   12CHTO  H106 4865   7.292   9.433   8.393 -1.8037 -1.2157  0.1445
   12CHTO  H107 4866   7.386   9.414   8.543  0.3473  0.2609 -0.4116
   12CHTO   C58 4867   7.188   9.156   8.482 -0.3801 -0.2764 -0.0945
   12CHTO  H115 4868   7.210   9.145   8.373 -1.7734 -1.0236 -0.3214
   12CHTO   O37 4869   7.057   9.099   8.521 -0.1471  0.1124  0.0820
   12CHTO   C59 4870   6.935   9.159   8.461 -0.3358 -0.2103 -0.2937
   12CHTO  H116 4871   6.950   9.157   8.354 -1.2234 -4.9825 -0.4410
   12CHTO   C70 4872   6.811   9.074   8.503  0.6077 -0.3161 -0.2563
   12CHTO   O46 4873   6.795   9.030   8.637 -0.0177  0.6792 -0.4381
   12CHTO  H103 4874   6.854   8.957   8.643 -1.3269 -0.3699 -0.2600
   12CHTO   O39 4875   7.290   9.068   8.573  0.1157 -0.7499  0.3636
   12CHTO   C60 4876   7.352   8.952   8.514 -0.2758  0.0735 -0.5087
   12CHTO  H117 4877   7.283   8.893   8.453 -3.4882  2.3512  0.8028
   12CHTO   C62 4878   7.465   9.002   8.425  0.8873  0.0285  0.0282
   12CHTO  H119 4879   7.411   9.049   8.340 -0.6791 -2.7791 -0.6104
   12CHTO   O43 4880   7.551   9.100   8.489  0.2596  0.5308  0.1555
   12CHTO  H101 4881   7.570   9.176   8.437 -0.2018 -0.6413 -1.7820
   12CHTO   C66 4882   7.546   8.872   8.364 -0.3972  0.3447 -0.2077
   12CHTO  H123 4883   7.473   8.794   8.340 -0.9057  0.5695  0.6053
   12CHTO   N12 4884   7.631   8.905   8.251 -0.2550  0.5172 -0.0172
   12CHTO  H110 4885   7.696   8.826   8.218 -0.6954  0.5661 -1.0217
   12CHTO  H111 4886   7.578   8.946   8.167  1.0148 -1.2860 -1.7407
   12CHTO   C69 4887   7.619   8.812   8.488 -0.4128  0.0631 -0.0826
   12CHTO  H126 4888   7.690   8.885   8.532  0.0373  0.7400 -1.8685
   12CHTO   O41 4889   7.522   8.763   8.596 -0.3668  0.1580 -0.3703
   12CHTO   C64 4890   7.402   8.862   8.632  0.1490  0.7996  0.3078
   12CHTO  H121 4891   7.442   8.928   8.712  0.7397 -0.5662  1.1662
   12CHTO   C71 4892   7.289   8.770   8.682 -0.1547 -0.1723 -0.7063
   12CHTO   O47 4893   7.266   8.809   8.819 -0.6908  0.1484 -0.2033
   12CHTO  H104 4894   7.275   8.738   8.880 -1.3239 -0.5218 -0.8774
   12CHTO   O34 4895   7.697   8.691   8.452  0.2938  0.0143 -0.2399
   12CHTO   C49 4896   7.807   8.594   8.458  0.0356  0.4661  0.5368
   12CHTO   H91 4897   7.896   8.657   8.447  1.4809 -1.6717 -0.1652
   12CHTO   C47 4898   7.797   8.492   8.346  0.2883  0.4108 -1.1303
   12CHTO   H89 4899   7.890   8.433   8.355  1.4100  2.2708 -0.1781
   12CHTO   O33 4900   7.807   8.568   8.227 -0.1189 -0.3347 -0.4395
   12CHTO   H70 4901   7.857   8.525   8.160  0.2653  0.5815 -0.7477
   12CHTO   C45 4902   7.660   8.414   8.359 -0.1299  0.7122  0.3267
   12CHTO   H87 4903   7.581   8.460   8.298  0.1631  1.1139  0.2538
   12CHTO    N8 4904   7.688   8.279   8.305 -0.2437  0.3141  0.0464
   12CHTO   H75 4905   7.668   8.198   8.374  0.5306  0.2022  0.1375
   12CHTO   H76 4906   7.633   8.275   8.212 -1.9748 -2.1149  1.1013
   12CHTO   C43 4907   7.602   8.410   8.517 -0.0295 -0.6895 -0.1938
   12CHTO   H85 4908   7.560   8.510   8.526  3.0470  0.7959 -1.8199
   12CHTO   O29 4909   7.718   8.396   8.604 -0.5453  0.1856  0.6768
   12CHTO   C50 4910   7.804   8.513   8.593 -0.0108 -0.2398  0.1288
   12CHTO   H92 4911   7.779   8.581   8.676  3.3629  0.7747  0.3706
   12CHTO   C54 4912   7.944   8.465   8.630  0.1142 -0.6404  0.4256
   12CHTO   O36 4913   7.962   8.419   8.765  0.1216  0.4032  0.1632
   12CHTO   H72 4914   8.053   8.407   8.786 -0.0376 -1.3169 -0.0967
   12CHTO   O27 4915   7.504   8.308   8.536  0.4465 -0.2077 -0.2765
   12CHTO   C37 4916   7.377   8.311   8.612  0.0911  0.2004 -0.0665
   12CHTO   H79 4917   7.343   8.206   8.611 -0.5714  0.4143 -0.9326
   12CHTO   C38 4918   7.402   8.361   8.758 -0.3764 -0.3477 -1.2055
   12CHTO   H80 4919   7.440   8.464   8.749 -0.7829 -0.1075 -0.2143
   12CHTO   O31 4920   7.507   8.282   8.812  0.2788 -0.1509 -0.7404
   12CHTO   H68 4921   7.592   8.295   8.776 -0.6222  0.1256 -2.8707
   12CHTO   C39 4922   7.269   8.348   8.845  0.5475  0.8319 -0.0519
   12CHTO   H81 4923   7.242   8.243   8.842 -1.6795  1.3169  1.9104
   12CHTO    N7 4924   7.278   8.406   8.987 -0.4365  0.9693 -0.1245
   12CHTO   H73 4925   7.291   8.513   8.986 -0.7547  1.0283  1.1148
   12CHTO   H74 4926   7.191   8.372   9.041 -0.6134  0.6198 -0.6241
   12CHTO   C40 4927   7.155   8.426   8.764  0.1847  0.7755 -0.3205
   12CHTO   H82 4928   7.170   8.534   8.769 -0.7468  0.9121 -0.3045
   12CHTO   O26 4929   7.144   8.378   8.624 -0.2249 -0.5000  0.9546
   12CHTO   C41 4930   7.265   8.396   8.543  0.9722  0.4683 -0.4087
   12CHTO   H83 4931   7.299   8.500   8.531 -0.6458  1.0481 -0.1205
   12CHTO   C52 4932   7.223   8.334   8.413  0.4117 -0.5878 -0.3845
   12CHTO   O35 4933   7.330   8.346   8.291  0.2620 -0.3150  0.1259
   12CHTO   H71 4934   7.399   8.404   8.315 -0.7898  1.7436 -1.6585
   12CHTO   O28 4935   7.019   8.406   8.812  0.1882 -0.2983  0.1055
   12CHTO   C42 4936   6.899   8.472   8.754  0.8227  0.2496  0.3004
   12CHTO   H84 4937   6.826   8.435   8.827  2.1049  1.2759  2.1400
   12CHTO   C44 4938   6.849   8.423   8.615 -0.7717  0.5427  0.2931
   12CHTO   H86 4939   6.935   8.424   8.549  0.0712 -2.2265  1.2790
   12CHTO   O32 4940   6.810   8.288   8.632 -0.3427  0.1121 -0.0276
   12CHTO   H69 4941   6.721   8.279   8.661 -0.4313  0.1204 -0.2994
   12CHTO   C48 4942   6.748   8.519   8.538  0.6189 -0.4879 -0.3142
   12CHTO   H90 4943   6.649   8.503   8.580  0.2272  1.3056 -0.5334
   12CHTO    N9 4944   6.733   8.487   8.394 -0.6997 -0.0589 -0.1924
   12CHTO   H77 4945   6.640   8.523   8.352 -0.0183  1.4127 -0.4525
   12CHTO   H78 4946   6.760   8.385   8.371 -1.9264 -0.0984 -1.4986
   12CHTO   C51 4947   6.784   8.667   8.567 -0.0158 -0.0040  0.1215
   12CHTO   H93 4948   6.877   8.688   8.514  0.1505  2.5594  1.3454
   12CHTO   O30 4949   6.799   8.688   8.708  0.0159  0.2600 -0.3006
   12CHTO   C46 4950   6.904   8.632   8.767 -0.0177 -0.6423  0.8821
   12CHTO   H88 4951   6.990   8.673   8.714 -2.0106  1.6001 -0.7505
   12CHTO   C53 4952   6.904   8.678   8.917  0.6043 -0.3563  0.3578
   12CHTO   O72 4953   7.036   8.660   8.981  0.6942  0.1460  0.3017
   12CHTO  H199 4954   7.045   8.736   9.036 -2.1705 -0.4635  1.7263
   12CHTO   O22 4955   6.680   8.762   8.525  0.1392 -0.1795 -0.4481
   12CHTO   C31 4956   6.529   8.759   8.523 -0.2055 -0.9821 -0.6939
   12CHTO   H59 4957   6.504   8.654   8.501  0.0674 -1.1875 -0.0634
   12CHTO   C29 4958   6.460   8.805   8.656  0.0696  1.1093  1.5400
   12CHTO   H57 4959   6.511   8.900   8.678 -0.9608  2.2473 -0.7624
   12CHTO   O21 4960   6.494   8.708   8.758 -0.0919  0.5305  0.2869
   12CHTO   H37 4961   6.585   8.695   8.774 -0.3159  1.0875  2.0815
   12CHTO   C27 4962   6.307   8.838   8.639  0.2807 -0.3373  0.0713
   12CHTO   H55 4963   6.248   8.746   8.628  0.2103 -0.4398  1.1984
   12CHTO    N5 4964   6.251   8.902   8.763  0.1703  0.5933 -1.1817
   12CHTO   H43 4965   6.196   8.847   8.838  3.2570  0.0495  0.7871
   12CHTO   H44 4966   6.332   8.943   8.822  0.8964 -1.8161 -0.4274
   12CHTO   C25 4967   6.282   8.930   8.518  0.0327  0.0684 -0.8794
   12CHTO   H53 4968   6.326   9.030   8.530 -0.2482  0.5111 -3.2787
   12CHTO   O17 4969   6.332   8.860   8.398  0.2012 -0.1577 -0.2225
   12CHTO   C32 4970   6.473   8.842   8.401 -0.1253 -0.6100  0.2497
   12CHTO   H60 4971   6.521   8.939   8.404 -1.1403 -0.0549 -0.9260
   12CHTO   C36 4972   6.521   8.782   8.264  0.0110 -0.0678  0.0436
   12CHTO   O25 4973   6.453   8.857   8.167  0.3799 -0.2887  0.4398
   12CHTO   H40 4974   6.467   8.815   8.084 -1.7767  0.4950 -0.3291
   12CHTO   O15 4975   6.127   8.973   8.496 -0.5817  0.2160  0.0354
   12CHTO   C19 4976   6.068   9.024   8.380 -0.4252 -0.4077 -0.2833
   12CHTO   H47 4977   5.969   9.063   8.411 -0.6096  1.8119 -3.3895
   12CHTO   C20 4978   6.136   9.150   8.315 -0.8632  0.2590 -0.0949
   12CHTO   H48 4979   6.239   9.125   8.285 -1.4197 -2.2295 -0.0200
   12CHTO   O19 4980   6.143   9.248   8.415 -0.5532  0.1046 -0.5596
   12CHTO   H35 4981   6.192   9.204   8.482 -0.6796 -0.7390 -1.0276
   12CHTO   C21 4982   6.058   9.202   8.188 -0.2412 -0.0929  0.0926
   12CHTO   H49 4983   5.957   9.234   8.213 -0.1929  0.2800 -0.1800
   12CHTO    N4 4984   6.117   9.314   8.117  0.2557  0.9452  0.3215
   12CHTO   H41 4985   6.129   9.298   8.010 -0.0478 -2.1824  0.7295
   12CHTO   H42 4986   6.057   9.402   8.136 -0.2280  0.7101 -0.1006
   12CHTO   C22 4987   6.032   9.083   8.091 -0.1486  0.4938 -0.8435
   12CHTO   H50 4988   6.128   9.044   8.057 -0.5235 -1.3576  0.1675
   12CHTO   O14 4989   5.961   8.974   8.159 -0.1037 -0.0009  0.2550
   12CHTO   C23 4990   6.043   8.918   8.264 -0.4111  0.0859 -0.1071
   12CHTO   H51 4991   6.136   8.876   8.222 -0.5095  1.1095 -1.3794
   12CHTO   C34 4992   5.973   8.793   8.323  0.1186 -0.3743 -0.6527
   12CHTO   O23 4993   5.849   8.838   8.379  0.5339 -1.0724 -0.1796
   12CHTO   H38 4994   5.793   8.765   8.397 -1.4579  0.8989  1.9658
   12CHTO   O16 4995   5.944   9.104   7.975  0.5754 -0.2168  0.2331
   12CHTO   C24 4996   5.966   8.994   7.846 -0.1978  0.0369 -0.6847
   12CHTO   H52 4997   6.024   8.906   7.873  0.1713 -0.2236 -2.2522
   12CHTO   C26 4998   6.024   9.062   7.721 -0.2549  0.3567 -0.0851
   12CHTO   H54 4999   5.967   9.154   7.700 -0.8213  0.1777  0.6476
   12CHTO   O20 5000   6.162   9.110   7.742  0.8843 -0.5282 -0.7003
   12CHTO   H36 5001   6.161   9.173   7.812  2.5641 -0.1807 -0.9834
   12CHTO   C30 5002   6.016   8.969   7.597  0.2901  0.2653  0.7407
   12CHTO   H58 5003   6.087   8.885   7.604  1.7062  1.1456 -2.1483
   12CHTO    N6 5004   6.064   9.038   7.473 -0.2690  0.1564  0.5809
   12CHTO   H45 5005   6.060   9.145   7.484 -0.2099  0.0006  2.2492
   12CHTO   H46 5006   6.167   9.011   7.454 -0.5821 -0.3289 -0.5089
   12CHTO   C33 5007   5.877   8.911   7.582 -0.2207  0.4906 -0.0236
   12CHTO   H61 5008   5.806   8.992   7.557  2.0740  2.0652 -1.6270
   12CHTO   O18 5009   5.828   8.851   7.699  0.0150  0.2912 -0.5821
   12CHTO   C28 5010   5.824   8.945   7.812 -0.2790 -0.6281 -0.3730
   12CHTO   H56 5011   5.763   9.030   7.780 -0.1036  0.3977  1.9405
   12CHTO   C35 5012   5.747   8.878   7.926 -0.8253  0.2718  0.2548
   12CHTO   O24 5013   5.605   8.855   7.896 -0.0927  0.0180  0.2880
   12CHTO   H39 5014   5.586   8.789   7.960  1.2283 -0.1679  0.5072
   12CHTO    O9 5015   5.876   8.818   7.476 -0.1710 -0.7579  0.3397
   12CHTO   C13 5016   5.957   8.683   7.493 -0.0884  0.7421 -0.4590
   12CHTO   H26 5017   6.021   8.691   7.584  0.3358 -0.4352 -0.6494
   12CHTO   C11 5018   6.043   8.651   7.363  0.0183  0.0966 -0.0598
   12CHTO   H24 5019   6.113   8.735   7.351 -0.2291  0.0605 -1.8625
   12CHTO    O8 5020   5.963   8.640   7.242 -0.2890  0.6602  0.4057
   12CHTO    H3 5021   6.004   8.681   7.168  1.0398  2.1552  1.9165
   12CHTO    C9 5022   6.121   8.524   7.405  0.3931  0.5950 -0.0069
   12CHTO   H22 5023   6.179   8.553   7.493  1.6974  0.1133 -0.6986
   12CHTO    N2 5024   6.220   8.477   7.298 -0.1841 -0.0691  0.6581
   12CHTO   H10 5025   6.219   8.530   7.203  1.0854  0.3193  0.8480
   12CHTO   H11 5026   6.206   8.372   7.281  2.4405 -0.2450 -0.7563
   12CHTO    C7 5027   6.020   8.406   7.441  0.5202 -0.8837 -0.8657
   12CHTO   H20 5028   6.090   8.331   7.483  0.8294 -0.1410 -0.0351
   12CHTO    O4 5029   5.927   8.448   7.540  0.4382  0.3354  0.7884
   12CHTO   C14 5030   5.854   8.572   7.538  0.6213 -0.3869 -0.2134
   12CHTO   H27 5031   5.825   8.590   7.644  1.1437 -1.3551  0.0959
   12CHTO   C18 5032   5.722   8.554   7.461 -0.1702 -0.1077 -1.1039
   12CHTO   O13 5033   5.625   8.460   7.516  0.5233 -0.1865  0.4327
   12CHTO    H7 5034   5.609   8.402   7.445 -1.1717  1.2440 -0.3802
   12CHTO    O2 5035   5.947   8.335   7.312  0.5563 -1.2018 -0.2442
   12CHTO    C1 5036   5.932   8.188   7.325 -0.9511  0.2246 -0.6143
   12CHTO   H14 5037   5.913   8.153   7.428 -0.8158  1.1804 -0.2613
   12CHTO    C2 5038   6.073   8.110   7.281  0.0216 -0.5374 -1.0171
   12CHTO   H15 5039   6.099   8.153   7.183 -2.2683 -0.4391 -1.6179
   12CHTO    O6 5040   6.178   8.138   7.379 -0.0009  0.3608 -0.1551
   12CHTO    H1 5041   6.256   8.122   7.331  0.2794 -2.2924  1.0351
   12CHTO    C3 5042   6.060   7.959   7.259  0.8840  0.5998 -0.4064
   12CHTO   H16 5043   6.030   7.925   7.359  1.0735 -2.0382 -1.2013
   12CHTO    N1 5044   6.180   7.883   7.215 -0.5442 -0.3694 -0.1555
   12CHTO    H8 5045   6.248   7.956   7.175 -0.9299 -0.4331 -0.9290
   12CHTO    H9 5046   6.222   7.833   7.302 -3.4437 -2.0147  0.3964
   12CHTO    C4 5047   5.942   7.926   7.161  0.1015  0.0179  0.1094
   12CHTO   H17 5048   5.961   7.969   7.063  3.1051 -0.7200  0.3326
   12CHTO    O1 5049   5.821   7.993   7.210  0.3113  0.1802  0.1384
   12CHTO    C5 5050   5.835   8.138   7.222  0.1249 -0.2969  0.1574
   12CHTO   H18 5051   5.865   8.174   7.124  0.6257 -2.5181 -0.5372
   12CHTO   C16 5052   5.692   8.194   7.256  0.2759 -0.5434 -0.6680
   12CHTO   O11 5053   5.614   8.179   7.139 -0.4217 -0.4760 -0.0373
   12CHTO    H5 5054   5.603   8.264   7.102  0.8704 -0.2024  0.1678
   12CHTO    O3 5055   5.914   7.784   7.149 -0.3379  0.7071 -0.8004
   12CHTO    C6 5056   5.872   7.717   7.022 -0.9952 -0.0070  0.5387
   12CHTO   H19 5057   5.843   7.793   6.949  1.6064 -1.2036 -1.8096
   12CHTO    C8 5058   5.994   7.629   6.971 -0.8845 -0.4868  0.4486
   12CHTO   H21 5059   6.020   7.567   7.057 -2.2867 -2.1923 -0.3298
   12CHTO    O7 5060   6.109   7.716   6.933 -0.4279  0.1731 -0.1433
   12CHTO    H2 5061   6.195   7.686   6.953 -0.5774 -0.7538 -0.8371
   12CHTO   C12 5062   5.960   7.518   6.855  1.2524 -0.1602 -0.8693
   12CHTO   H25 5063   5.947   7.574   6.760 -1.2678  0.3294 -0.2771
   12CHTO    N3 5064   6.073   7.414   6.844 -0.6832 -0.0191  0.4729
   12CHTO   H12 5065   6.168   7.453   6.810 -1.2519 -0.2593 -1.4634
   12CHTO   H13 5066   6.034   7.323   6.801 -2.4784  2.3616 -3.2523
   12CHTO   C15 5067   5.824   7.451   6.895  0.0688 -0.2430 -0.4402
   12CHTO   H28 5068   5.836   7.384   6.980  2.4213 -2.2700 -2.2968
   12CHTO   O10 5069   5.756   7.380   6.783 -0.0215 -0.0989  0.0916
   12CHTO    H4 5070   5.689   7.322   6.814 -0.4944  1.2940  1.7420
   12CHTO    O5 5071   5.720   7.552   6.921 -0.2263 -0.8171 -0.5752
   12CHTO   C10 5072   5.749   7.622   7.042 -0.4677  0.1065 -0.7338
   12CHTO   H23 5073   5.771   7.556   7.125 -2.5831 -0.0775 -0.2862
   12CHTO   C17 5074   5.621   7.694   7.095 -0.3021  0.5332  0.0850
   12CHTO   O12 5075   5.562   7.778   6.996 -0.6241 -0.1264  0.0724
   12CHTO    H6 5076   5.494   7.822   7.043 -0.8871 -0.3733 -0.0785
   13CHTO  H203 5077   7.115   5.221   3.333 -0.9300 -1.9333 -0.9260
   13CHTO   O82 5078   7.104   5.248   3.244 -0.5532 -0.1311 -0.4380
   13CHTO  C123 5079   7.003   5.345   3.241  0.2082  0.3728  0.6121
   13CHTO  H227 5080   6.954   5.347   3.339 -2.6592 -1.2245 -0.7109
   13CHTO   O77 5081   7.070   5.467   3.194 -0.1303  0.6153 -0.1027
   13CHTO  C118 5082   6.979   5.577   3.191 -0.4173  0.4380  0.6848
   13CHTO  H222 5083   6.936   5.595   3.291  1.3650  0.9014  1.3759
   13CHTO  C125 5084   7.064   5.700   3.159  0.4081 -0.2240  0.6197
   13CHTO   O84 5085   7.163   5.729   3.255  0.6536 -0.5045 -0.2222
   13CHTO  H205 5086   7.200   5.813   3.239 -1.5762  0.6108  0.2303
   13CHTO  C114 5087   6.870   5.551   3.082  0.2478  0.6043  0.1372
   13CHTO  H218 5088   6.913   5.515   2.988 -2.4082 -0.2870 -0.8002
   13CHTO  C116 5089   6.791   5.418   3.118  0.7962  0.3757 -0.2126
   13CHTO  H220 5090   6.742   5.442   3.214 -0.2364 -0.9386 -0.3937
   13CHTO   O79 5091   6.690   5.397   3.022  0.0692  0.1061  0.2169
   13CHTO  H201 5092   6.626   5.337   3.054 -0.9707  0.2691 -1.5017
   13CHTO  C120 5093   6.891   5.297   3.139  0.0818 -0.2153  0.3444
   13CHTO  H224 5094   6.937   5.263   3.043  1.8077 -0.4596  1.2337
   13CHTO   N21 5095   6.821   5.178   3.199 -0.3058 -0.2372 -0.1438
   13CHTO  H211 5096   6.731   5.164   3.140 -0.1352 -1.2532 -0.1685
   13CHTO  H212 5097   6.810   5.182   3.306 -0.0157  0.1371 -0.1271
   13CHTO   O75 5098   6.786   5.676   3.068 -0.4888  0.0191  0.3199
   13CHTO  C112 5099   6.699   5.726   3.209 -0.9351  0.0728 -0.3171
   13CHTO  H216 5100   6.770   5.714   3.293 -0.7136 -0.5273 -0.5865
   13CHTO   O73 5101   6.591   5.631   3.227  0.3077  0.2595 -0.2063
   13CHTO  C113 5102   6.525   5.671   3.350  0.7676  0.1802  0.2657
   13CHTO  H217 5103   6.605   5.675   3.427  2.2073  1.4409 -1.2797
   13CHTO  C124 5104   6.433   5.553   3.395  1.0053 -0.3915 -0.0931
   13CHTO   O83 5105   6.496   5.424   3.403  0.5239 -0.6675 -0.0620
   13CHTO  H204 5106   6.433   5.362   3.434 -0.0328  0.5617  1.3015
   13CHTO  C109 5107   6.456   5.810   3.343  0.5711 -0.6728  0.0774
   13CHTO  H213 5108   6.385   5.801   3.259  0.4387 -0.8232  0.2063
   13CHTO  C110 5109   6.569   5.912   3.322  0.1109  0.3707  0.0121
   13CHTO  H214 5110   6.628   5.904   3.413  0.1459 -2.4366 -0.2032
   13CHTO   O78 5111   6.525   6.045   3.297 -0.5699 -0.0682  0.4768
   13CHTO  H200 5112   6.518   6.087   3.381  0.5883 -1.9397  1.5457
   13CHTO  C111 5113   6.659   5.870   3.202 -0.5811  0.4519 -0.0289
   13CHTO  H215 5114   6.602   5.884   3.109  0.8620  0.3116 -0.9442
   13CHTO   N19 5115   6.784   5.958   3.185  0.2479 -0.1119  0.2871
   13CHTO  H207 5116   6.777   6.001   3.086 -2.5576  0.7152  0.8239
   13CHTO  H208 5117   6.769   6.038   3.256 -3.3987 -1.4582  1.0968
   13CHTO   O74 5118   6.385   5.832   3.469 -0.4875  0.3651  0.4452
   13CHTO  C115 5119   6.236   5.882   3.464 -0.0201  0.3273  0.0344
   13CHTO  H219 5120   6.209   5.922   3.366 -0.7199 -1.4195 -0.4925
   13CHTO   O76 5121   6.128   5.755   3.492  0.0100 -0.3918 -0.5211
   13CHTO  C122 5122   6.104   5.745   3.630 -0.3270  0.4182 -0.9817
   13CHTO  H226 5123   6.205   5.715   3.658 -1.9001 -2.8539  1.5456
   13CHTO  C126 5124   6.015   5.618   3.654  0.1471 -0.2167  0.6876
   13CHTO   O85 5125   6.006   5.581   3.791  0.1795 -0.1779  0.2173
   13CHTO  H206 5126   5.949   5.646   3.828 -1.0359 -0.2422 -1.4775
   13CHTO  C121 5127   6.042   5.873   3.699  0.3830 -0.5848 -0.0790
   13CHTO  H225 5128   5.934   5.851   3.716 -0.1207  1.6249 -0.3178
   13CHTO   O81 5129   6.097   5.905   3.828 -0.7395 -0.4273  0.8087
   13CHTO  H202 5130   6.056   5.857   3.898  1.0115 -0.9572  1.5174
   13CHTO  C119 5131   6.060   5.999   3.605  0.6298  0.4544 -0.5618
   13CHTO  H223 5132   6.010   5.974   3.511  1.8775 -0.5561 -0.9601
   13CHTO  C117 5133   6.215   6.004   3.561  1.0246 -0.2597  0.2810
   13CHTO  H221 5134   6.295   5.993   3.634  1.8374 -0.0556 -0.5691
   13CHTO   N20 5135   6.243   6.135   3.491  0.0355 -0.3613 -0.0825
   13CHTO  H209 5136   6.273   6.204   3.568  1.8450  0.2493 -1.3058
   13CHTO  H210 5137   6.308   6.138   3.405  0.8342  0.3632  0.5400
   13CHTO   O80 5138   5.979   6.138   3.653  0.5416 -0.2782 -0.0069
   13CHTO  C103 5139   5.831   6.150   3.639 -0.3162 -0.5363 -0.2621
   13CHTO  H190 5140   5.807   6.256   3.632  1.5509 -0.0227  0.6060
   13CHTO  C101 5141   5.759   6.077   3.522  0.4369 -0.4350 -0.3529
   13CHTO  H188 5142   5.789   5.972   3.531  2.1216  0.1663  1.3802
   13CHTO   O68 5143   5.812   6.124   3.400  0.5905 -0.6062  0.0237
   13CHTO  H168 5144   5.897   6.090   3.380  0.2881 -1.0697 -0.4669
   13CHTO   C99 5145   5.600   6.091   3.539 -0.0691 -0.2719  0.1312
   13CHTO  H186 5146   5.575   6.199   3.539  0.4683 -0.1004 -2.4844
   13CHTO   N17 5147   5.523   6.016   3.433  0.1112  0.2193 -0.4504
   13CHTO  H174 5148   5.420   6.010   3.465  0.8208  1.1963  2.1702
   13CHTO  H175 5149   5.570   5.919   3.436 -2.7641 -1.2033  0.6839
   13CHTO   C97 5150   5.556   6.041   3.678  0.0871 -0.8325 -0.4564
   13CHTO  H184 5151   5.572   5.933   3.691  0.7896 -0.6854 -0.0982
   13CHTO   O64 5152   5.629   6.122   3.773  0.6230 -0.8032 -0.7235
   13CHTO  C104 5153   5.772   6.101   3.768 -0.2036  0.0920 -0.1722
   13CHTO  H191 5154   5.804   5.999   3.790  0.9863  0.7222  1.1579
   13CHTO  C108 5155   5.825   6.187   3.885 -0.0371 -0.6693 -0.1308
   13CHTO   O71 5156   5.772   6.324   3.887 -0.2516 -0.1281  0.7427
   13CHTO  H171 5157   5.809   6.380   3.953 -0.1523  1.2564 -0.4668
   13CHTO   O62 5158   5.416   6.067   3.709  0.1843  0.3931  0.3086
   13CHTO   C91 5159   5.351   5.983   3.811 -0.2247 -0.1291 -0.4568
   13CHTO  H178 5160   5.428   5.924   3.861  0.5617  2.2111  1.1410
   13CHTO   C92 5161   5.261   5.886   3.727 -0.7214 -0.1745 -0.4680
   13CHTO  H179 5162   5.204   5.942   3.652 -0.4164 -0.5194 -0.9538
   13CHTO   O66 5163   5.335   5.811   3.639 -0.0714 -0.5159 -0.0479
   13CHTO  H166 5164   5.317   5.720   3.650  0.9616 -0.6467  0.6764
   13CHTO   C93 5165   5.159   5.802   3.813  0.4313 -0.6429 -0.8953
   13CHTO  H180 5166   5.229   5.737   3.868 -2.1658 -1.3881  1.6774
   13CHTO   N16 5167   5.069   5.719   3.732  0.2109  0.2850  0.3295
   13CHTO  H172 5168   5.109   5.620   3.717  2.3487  1.4280 -1.9061
   13CHTO  H173 5169   4.976   5.715   3.786  0.2878  1.1560  0.5374
   13CHTO   C94 5170   5.083   5.895   3.915  0.5533  0.4861  0.4623
   13CHTO  H181 5171   5.019   5.966   3.863 -2.9066 -2.7494  0.0213
   13CHTO   O61 5172   5.174   5.972   3.999  0.0451  0.3825 -0.1160
   13CHTO   C95 5173   5.263   6.063   3.923  0.2505  0.3745  0.4861
   13CHTO  H182 5174   5.199   6.129   3.864  0.4293  0.0199 -0.1114
   13CHTO  C106 5175   5.362   6.151   4.009 -0.2507  0.2204  0.3773
   13CHTO   O69 5176   5.286   6.214   4.108  0.9842 -0.4866  0.4276
   13CHTO  H169 5177   5.341   6.248   4.176 -0.7792  0.9402  1.1784
   13CHTO   O63 5178   4.984   5.804   4.034 -0.4699  0.1101  0.5469
   13CHTO   C96 5179   4.905   5.881   4.127  0.0476  0.2356  0.2045
   13CHTO  H183 5180   4.876   5.974   4.078 -1.0530 -0.8202 -1.1743
   13CHTO   C98 5181   4.980   5.913   4.263 -0.2929 -0.2967  0.1486
   13CHTO  H185 5182   5.082   5.951   4.249  0.4073 -1.2948  2.3508
   13CHTO   O67 5183   4.909   6.019   4.329  0.1340 -0.6560  0.4593
   13CHTO  H167 5184   4.945   6.099   4.298 -2.3584 -0.0073 -0.9359
   13CHTO  C102 5185   4.980   5.790   4.364  0.1875  0.8278 -0.8585
   13CHTO  H189 5186   5.018   5.829   4.460  1.1630  1.0293 -1.3222
   13CHTO   N18 5187   5.071   5.675   4.325  0.0581 -0.2877 -0.3802
   13CHTO  H176 5188   5.016   5.582   4.321 -1.0755  0.4306 -2.1136
   13CHTO  H177 5189   5.113   5.693   4.227 -1.8340 -1.7854 -1.5031
   13CHTO  C105 5190   4.836   5.737   4.388  0.4628  0.4081 -0.0156
   13CHTO  H192 5191   4.834   5.628   4.387  0.8664  0.4022 -0.4941
   13CHTO   O65 5192   4.734   5.776   4.297 -0.0212  0.2748  0.0429
   13CHTO  C100 5193   4.775   5.790   4.155 -0.6617  0.4293  0.2765
   13CHTO  H187 5194   4.788   5.693   4.105 -0.7298 -0.6050  2.1979
   13CHTO  C107 5195   4.644   5.836   4.087  0.6857 -0.8023 -0.2366
   13CHTO   O70 5196   4.654   5.954   4.010  0.5467 -0.1965 -0.0556
   13CHTO  H170 5197   4.690   6.025   4.061  0.4554  2.0361 -3.0072
   13CHTO   O57 5198   4.805   5.788   4.530 -0.4869 -0.1743 -0.5245
   13CHTO   C85 5199   4.843   5.705   4.641 -1.0248 -0.0276 -0.5433
   13CHTO  H157 5200   4.943   5.666   4.611 -0.8950 -1.7749  2.0345
   13CHTO   C83 5201   4.751   5.577   4.656  0.1302  0.8322 -0.0219
   13CHTO  H155 5202   4.761   5.515   4.566  1.4148 -0.4089  0.9556
   13CHTO   O56 5203   4.621   5.630   4.658 -0.2771  0.1204  0.0866
   13CHTO  H135 5204   4.564   5.556   4.647  1.4833 -1.6374  2.5460
   13CHTO   C81 5205   4.791   5.501   4.783  0.1489  0.0787  0.8479
   13CHTO  H153 5206   4.895   5.470   4.772  0.3543  1.4817 -1.5088
   13CHTO   N14 5207   4.728   5.369   4.794 -0.3069 -0.9406  0.3647
   13CHTO  H141 5208   4.745   5.325   4.889 -0.7172 -1.9042  0.0004
   13CHTO  H142 5209   4.766   5.302   4.720 -2.6220 -1.5945 -0.2794
   13CHTO   C79 5210   4.780   5.595   4.912 -0.3730 -0.5448  0.0921
   13CHTO  H151 5211   4.813   5.537   4.999  0.6341 -1.6155 -0.9832
   13CHTO   O52 5212   4.882   5.699   4.905 -0.3621  0.6238  0.5416
   13CHTO   C86 5213   4.851   5.782   4.789 -0.3438 -0.0716  0.2240
   13CHTO  H158 5214   4.752   5.827   4.809 -0.6164  0.0206 -1.3017
   13CHTO   C90 5215   4.953   5.896   4.788  0.1738 -0.1244  0.0079
   13CHTO   O60 5216   4.923   6.008   4.709  0.3607  0.2563  0.1869
   13CHTO  H138 5217   4.979   6.082   4.723 -1.6016  1.3634  2.5795
   13CHTO   O50 5218   4.652   5.653   4.939 -0.2315  0.4961 -0.2680
   13CHTO   C73 5219   4.548   5.690   5.028  0.0331  0.2619  0.7079
   13CHTO  H145 5220   4.452   5.665   4.981  0.6995 -2.4696  0.6794
   13CHTO   C74 5221   4.552   5.835   5.069 -0.8719 -0.1120  0.6611
   13CHTO  H146 5222   4.543   5.891   4.975 -2.8370 -1.9036 -0.2549
   13CHTO   O54 5223   4.428   5.858   5.142  0.0542 -0.3520  0.1104
   13CHTO  H133 5224   4.374   5.923   5.103  1.8079  1.5867  0.8271
   13CHTO   C75 5225   4.683   5.870   5.147 -0.0402  0.1899  0.4672
   13CHTO  H147 5226   4.768   5.855   5.078  0.3953  1.4312  0.7153
   13CHTO   N13 5227   4.682   6.006   5.201 -0.0155  0.0826 -0.0513
   13CHTO  H139 5228   4.749   6.073   5.150 -1.4767  3.4529  2.2891
   13CHTO  H140 5229   4.584   6.051   5.190 -0.8795 -1.6590  0.2372
   13CHTO   C76 5230   4.712   5.762   5.265 -0.9461 -0.6503  0.3936
   13CHTO  H148 5231   4.675   5.792   5.363 -0.0483  1.5713  0.0761
   13CHTO   O49 5232   4.673   5.625   5.231  0.4135 -0.2249 -0.1305
   13CHTO   C77 5233   4.548   5.604   5.161  0.5808  0.1852 -0.2316
   13CHTO  H149 5234   4.472   5.645   5.226  0.6183  1.3530 -0.9080
   13CHTO   C88 5235   4.528   5.452   5.140 -0.0383  0.2921  0.9961
   13CHTO   O58 5236   4.412   5.407   5.042  0.3937 -0.4495 -0.5230
   13CHTO  H136 5237   4.437   5.440   4.958  1.7206  4.1342  1.5676
   13CHTO   O51 5238   4.853   5.726   5.277 -0.1693 -0.3497  0.2321
   13CHTO   C78 5239   4.929   5.760   5.434 -0.1478  0.2708  0.4421
   13CHTO  H150 5240   4.851   5.756   5.513  0.1183 -1.9187  0.6361
   13CHTO   C80 5241   4.983   5.897   5.433  0.0931  0.3337  0.4782
   13CHTO  H152 5242   5.035   5.915   5.336  1.0952 -2.8042  0.3856
   13CHTO   O55 5243   4.879   5.998   5.446 -0.4840 -0.2388 -0.1498
   13CHTO  H134 5244   4.868   6.030   5.533 -1.4843  1.1311 -0.7591
   13CHTO   C84 5245   5.102   5.918   5.541  0.3201 -0.3690 -0.0496
   13CHTO  H156 5246   5.053   5.935   5.637  0.3290 -0.9669  0.0654
   13CHTO   N15 5247   5.185   6.043   5.524  1.0039  0.0915 -0.0955
   13CHTO  H143 5248   5.282   6.022   5.486  1.1432  1.2942 -0.4097
   13CHTO  H144 5249   5.139   6.113   5.457  1.8934  0.4935 -0.2903
   13CHTO   C87 5250   5.191   5.794   5.554 -0.0848 -0.1650 -0.9367
   13CHTO  H159 5251   5.240   5.778   5.458  3.6446  0.5471  0.7604
   13CHTO   O53 5252   5.095   5.662   5.582 -0.5070  0.0651 -0.0624
   13CHTO   C82 5253   5.026   5.641   5.459 -0.0286  0.1421  0.1998
   13CHTO  H154 5254   5.082   5.634   5.366  0.4956  1.3635  0.4188
   13CHTO   C89 5255   4.947   5.512   5.479  0.4648 -0.0302 -0.0967
   13CHTO   O59 5256   4.890   5.461   5.358  0.1039 -0.0905  0.2485
   13CHTO  H137 5257   4.953   5.438   5.292 -1.2449  0.4226 -1.2356
   13CHTO   O45 5258   5.294   5.802   5.678  0.3288  0.6227 -0.0781
   13CHTO   C67 5259   5.432   5.815   5.645  0.4598  0.4982 -0.7000
   13CHTO  H124 5260   5.442   5.834   5.538 -2.9751  0.2770 -1.1175
   13CHTO   C65 5261   5.496   5.928   5.732  0.2859  0.0129  0.2985
   13CHTO  H122 5262   5.424   5.959   5.808 -0.0584  1.5488 -0.6208
   13CHTO   O44 5263   5.510   6.036   5.636 -0.0977 -0.3214 -0.2375
   13CHTO  H102 5264   5.582   6.091   5.659 -0.8028  0.0222  1.1741
   13CHTO   C63 5265   5.630   5.884   5.800 -0.4101  0.3811  0.6800
   13CHTO  H120 5266   5.603   5.806   5.872  1.0502 -0.8483 -0.0593
   13CHTO   N11 5267   5.694   5.992   5.878  0.1297  0.0290  0.2780
   13CHTO  H108 5268   5.722   6.070   5.810 -1.0506  0.5462  0.3799
   13CHTO  H109 5269   5.768   5.956   5.946  1.3808  1.9473 -0.0222
   13CHTO   C61 5270   5.722   5.809   5.700 -0.3744  0.0918 -0.1533
   13CHTO  H118 5271   5.791   5.753   5.765 -0.9051 -0.2930  0.0826
   13CHTO   O40 5272   5.645   5.707   5.625  0.6066 -0.3055  0.1428
   13CHTO   C68 5273   5.505   5.684   5.666 -0.2869  0.4454  0.2221
   13CHTO  H125 5274   5.505   5.643   5.770  2.6034 -2.1558 -0.7253
   13CHTO   C72 5275   5.457   5.568   5.576 -0.8186  0.2449  0.6534
   13CHTO   O48 5276   5.327   5.518   5.616  0.2776  0.0275  0.5819
   13CHTO  H105 5277   5.293   5.452   5.559 -0.7827  0.1636  1.0362
   13CHTO   O38 5278   5.785   5.898   5.603 -0.5731 -0.0673  0.3542
   13CHTO   C55 5279   5.900   5.836   5.538  0.2637  0.8027 -0.2441
   13CHTO  H112 5280   5.903   5.726   5.547 -0.1704  0.8456  0.5112
   13CHTO   C56 5281   6.025   5.905   5.592  0.2143 -0.3966 -0.0508
   13CHTO  H113 5282   6.005   6.013   5.594  0.8249 -0.2927  0.6986
   13CHTO   O42 5283   6.055   5.868   5.726 -0.1584  0.1449 -0.4892
   13CHTO  H100 5284   5.979   5.850   5.778  2.0381 -0.4150  2.6979
   13CHTO   C57 5285   6.157   5.887   5.501 -0.1700 -0.8658 -0.0494
   13CHTO  H114 5286   6.192   5.789   5.530 -0.5060 -0.6960  0.9285
   13CHTO   N10 5287   6.269   5.978   5.542 -0.5571 -0.3765 -0.1332
   13CHTO  H106 5288   6.367   5.936   5.524  0.8821  1.7867  2.2692
   13CHTO  H107 5289   6.259   6.077   5.500 -1.6196  0.1480  1.3376
   13CHTO   C58 5290   6.119   5.895   5.350 -0.3932  0.6573  0.1571
   13CHTO  H115 5291   6.093   6.000   5.325  1.7364  1.0830 -0.4062
   13CHTO   O37 5292   6.003   5.820   5.328  0.6792  0.1543  0.1670
   13CHTO   C59 5293   5.879   5.862   5.389 -0.2415  0.7666  0.4315
   13CHTO  H116 5294   5.860   5.967   5.365 -0.7151  0.6442  0.2656
   13CHTO   C70 5295   5.754   5.787   5.332  0.1065 -0.4178  0.5422
   13CHTO   O46 5296   5.701   5.836   5.209  0.0175 -0.5076  0.2183
   13CHTO  H103 5297   5.674   5.768   5.150 -0.0641 -0.4601  0.2012
   13CHTO   O39 5298   6.237   5.833   5.263  0.2729  0.7516  0.1047
   13CHTO   C60 5299   6.337   5.925   5.215 -0.8915 -0.1516 -0.3809
   13CHTO  H117 5300   6.329   6.023   5.260  2.1481 -0.9281  2.0285
   13CHTO   C62 5301   6.485   5.869   5.238 -0.3434 -0.7463 -0.1337
   13CHTO  H119 5302   6.505   5.875   5.347  1.7929  1.9087 -0.6128
   13CHTO   O43 5303   6.495   5.735   5.192  0.1634  0.1359 -0.0017
   13CHTO  H101 5304   6.461   5.731   5.104 -3.2718 -1.3130  1.3390
   13CHTO   C66 5305   6.581   5.983   5.174  0.2440 -0.2566 -0.1584
   13CHTO  H123 5306   6.545   6.080   5.210  1.5467  0.4547 -0.7175
   13CHTO   N12 5307   6.725   5.965   5.213  0.0633 -0.5011  0.0528
   13CHTO  H110 5308   6.784   6.024   5.145  0.1316  0.7365  1.1567
   13CHTO  H111 5309   6.738   5.988   5.318  1.6103 -2.4908  0.3204
   13CHTO   C69 5310   6.562   5.985   5.021 -0.8835  0.3517  0.0934
   13CHTO  H126 5311   6.577   5.889   4.968 -0.9838  0.6555 -0.4880
   13CHTO   O41 5312   6.428   6.026   4.989 -0.2682 -0.2054  0.5094
   13CHTO   C64 5313   6.321   5.941   5.058  0.2781 -0.3477  0.2387
   13CHTO  H121 5314   6.317   5.835   5.026 -0.3867  0.2587 -1.7645
   13CHTO   C71 5315   6.190   6.018   5.040  0.2079 -0.3338  0.5199
   13CHTO   O47 5316   6.161   6.018   4.899 -0.0297  0.2764 -0.2701
   13CHTO  H104 5317   6.069   6.037   4.896  0.0458  0.8059  0.5470
   13CHTO   O34 5318   6.660   6.082   4.945  0.1427  0.0010  0.0590
   13CHTO   C49 5319   6.685   6.220   4.877  0.0822 -0.3600  0.6537
   13CHTO   H91 5320   6.747   6.187   4.793  0.0136 -2.1090  1.2626
   13CHTO   C47 5321   6.767   6.299   4.982  0.6737  0.3320 -0.1186
   13CHTO   H89 5322   6.811   6.386   4.930  2.8418  0.8709  2.5197
   13CHTO   O33 5323   6.879   6.217   5.033 -0.0467 -0.4346  0.0298
   13CHTO   H70 5324   6.851   6.143   5.084 -3.9502  0.6549 -0.3317
   13CHTO   C45 5325   6.674   6.351   5.104  0.1432  0.0237 -0.3193
   13CHTO   H87 5326   6.688   6.282   5.188 -0.0136 -1.0714 -1.1765
   13CHTO    N8 5327   6.735   6.479   5.146 -0.1158  0.3221 -0.1414
   13CHTO   H75 5328   6.840   6.467   5.170 -0.1620 -1.8815 -0.8972
   13CHTO   H76 5329   6.733   6.553   5.067  0.0129  1.5921  1.0204
   13CHTO   C43 5330   6.518   6.362   5.063  0.5210 -0.3986  0.8456
   13CHTO   H85 5331   6.486   6.263   5.095  2.7793 -1.0332  1.2728
   13CHTO   O29 5332   6.496   6.387   4.929 -0.1766 -0.0272  0.0839
   13CHTO   C50 5333   6.550   6.296   4.836 -0.4398 -0.4155 -0.9944
   13CHTO   H92 5334   6.470   6.226   4.809  0.6507 -1.5094 -1.4562
   13CHTO   C54 5335   6.572   6.382   4.703  0.5342  0.0043 -0.0004
   13CHTO   O36 5336   6.579   6.301   4.585 -0.3033  0.0531  0.5326
   13CHTO   H72 5337   6.501   6.277   4.539  0.8522 -1.4416 -0.7088
   13CHTO   O27 5338   6.443   6.448   5.146 -0.3581  1.0515  0.0378
   13CHTO   C37 5339   6.323   6.447   5.228 -0.4283  0.4396  0.3016
   13CHTO   H79 5340   6.296   6.550   5.257  0.8178  0.4253  1.5716
   13CHTO   C38 5341   6.205   6.386   5.155 -0.4894 -0.3005  0.1778
   13CHTO   H80 5342   6.233   6.287   5.114 -2.8118 -0.5930 -0.7592
   13CHTO   O31 5343   6.176   6.470   5.042 -0.0766  0.9074  0.5792
   13CHTO   H68 5344   6.148   6.552   5.079 -2.5112  0.3758 -0.0193
   13CHTO   C39 5345   6.069   6.383   5.235  0.4168  0.5556  0.1622
   13CHTO   H81 5346   6.033   6.486   5.238 -0.4990  0.2289  0.4863
   13CHTO    N7 5347   5.955   6.299   5.180  0.3772 -0.3602 -0.0657
   13CHTO   H73 5348   5.873   6.362   5.150  2.1572  1.4590 -1.2240
   13CHTO   H74 5349   6.001   6.244   5.099  1.5179 -0.2530  0.4945
   13CHTO   C40 5350   6.104   6.334   5.383  0.0744  0.1070  0.3374
   13CHTO   H82 5351   6.107   6.226   5.380 -2.1604  0.0106  0.5995
   13CHTO   O26 5352   6.221   6.395   5.438 -0.4865 -0.1657  0.3549
   13CHTO   C41 5353   6.342   6.371   5.358  0.1458 -0.1651  0.0243
   13CHTO   H83 5354   6.348   6.268   5.320 -2.9339 -1.0816  1.8747
   13CHTO   C52 5355   6.475   6.412   5.435  0.6309 -0.0127  1.0454
   13CHTO   O35 5356   6.484   6.330   5.551  0.1739  0.5527 -0.2938
   13CHTO   H71 5357   6.412   6.351   5.608  1.3595 -2.4195  2.4259
   13CHTO   O28 5358   5.991   6.374   5.471  0.5596  0.6049 -0.0469
   13CHTO   C42 5359   5.981   6.462   5.588 -0.1590 -0.3035 -0.6944
   13CHTO   H84 5360   5.876   6.448   5.614  0.0195  0.7613  0.6563
   13CHTO   C44 5361   6.010   6.616   5.570  0.8098  0.6158 -0.1769
   13CHTO   H86 5362   6.118   6.630   5.563  0.7825  0.1987 -1.6051
   13CHTO   O32 5363   5.953   6.642   5.445  0.2859  0.3283  0.0772
   13CHTO   H69 5364   5.861   6.631   5.458  0.0644  0.7511 -1.0367
   13CHTO   C48 5365   5.949   6.683   5.698  0.0487  0.4277 -0.5998
   13CHTO   H90 5366   5.847   6.645   5.710  1.0163 -1.5633  1.8166
   13CHTO    N9 5367   5.938   6.830   5.678 -0.5487 -0.0819  0.2083
   13CHTO   H77 5368   5.896   6.843   5.580 -1.5708 -1.9052  0.3840
   13CHTO   H78 5369   5.869   6.870   5.751 -1.6928 -0.7331 -0.5091
   13CHTO   C51 5370   6.038   6.641   5.824 -0.1950 -0.2465  0.0515
   13CHTO   H93 5371   6.142   6.672   5.817  0.7301 -3.1927  0.3948
   13CHTO   O30 5372   6.027   6.509   5.837  0.0878 -0.1016  0.1621
   13CHTO   C46 5373   6.059   6.415   5.709 -0.3090  0.0432 -0.2247
   13CHTO   H88 5374   6.167   6.421   5.691 -0.2356  1.5501  0.6000
   13CHTO   C53 5375   6.033   6.270   5.730 -0.1894 -0.2093 -0.1588
   13CHTO   O72 5376   6.141   6.229   5.817 -0.5022 -0.2769  0.7591
   13CHTO  H199 5377   6.223   6.232   5.771 -0.9315  1.3901  0.0555
   13CHTO   O22 5378   5.986   6.696   5.945 -0.1297  0.7269  0.0096
   13CHTO   C31 5379   6.044   6.645   6.072 -0.7420 -0.0038 -0.3352
   13CHTO   H59 5380   6.091   6.546   6.049 -1.7352 -0.9583  1.6551
   13CHTO   C29 5381   6.157   6.736   6.131  0.7136  0.4640  0.4344
   13CHTO   H57 5382   6.123   6.841   6.139  1.8922  0.9564 -0.8456
   13CHTO   O21 5383   6.270   6.739   6.044  0.3289  0.4041 -0.1861
   13CHTO   H37 5384   6.254   6.751   5.953 -0.3949 -0.2110 -0.1433
   13CHTO   C27 5385   6.198   6.687   6.274  0.1041 -0.1532 -0.4956
   13CHTO   H55 5386   6.249   6.589   6.272 -2.4562 -1.5461  0.0759
   13CHTO    N5 5387   6.282   6.784   6.341  0.0423 -0.2324  0.3129
   13CHTO   H43 5388   6.378   6.784   6.291 -0.5474 -2.6386 -0.9049
   13CHTO   H44 5389   6.231   6.879   6.352 -0.7712 -0.6961  0.5335
   13CHTO   C25 5390   6.067   6.676   6.363 -0.0324 -0.6095  0.1030
   13CHTO   H53 5391   6.014   6.772   6.375  0.8215 -0.1775  0.4859
   13CHTO   O17 5392   5.981   6.576   6.298  0.0633 -0.5442 -0.2738
   13CHTO   C32 5393   5.934   6.613   6.168  0.3535  0.5000 -0.0441
   13CHTO   H60 5394   5.868   6.699   6.172 -1.1747 -0.6333 -0.1409
   13CHTO   C36 5395   5.847   6.498   6.117  0.9104 -0.0447  0.7758
   13CHTO   O25 5396   5.712   6.519   6.162 -0.6004  0.2855  0.4065
   13CHTO   H40 5397   5.669   6.570   6.096  0.5093 -1.0275 -1.3993
   13CHTO   O15 5398   6.099   6.628   6.524 -0.2764 -0.1046 -0.0643
   13CHTO   C19 5399   6.003   6.684   6.620  0.2816  0.6002  0.2667
   13CHTO   H47 5400   6.036   6.641   6.716 -0.2264 -0.6382 -0.1104
   13CHTO   C20 5401   6.016   6.840   6.629 -0.3281  0.0259 -0.1272
   13CHTO   H48 5402   5.986   6.885   6.533 -1.9007 -1.2448 -0.2548
   13CHTO   O19 5403   6.159   6.873   6.654  0.1924 -0.0210  0.1162
   13CHTO   H35 5404   6.216   6.829   6.594  1.2206  1.6442 -0.1388
   13CHTO   C21 5405   5.917   6.902   6.733  0.4278  0.3841  0.1551
   13CHTO   H49 5406   5.950   6.869   6.831 -0.5958  0.3813  0.5009
   13CHTO    N4 5407   5.915   7.048   6.736 -0.1204 -0.3523  0.8191
   13CHTO   H41 5408   5.864   7.098   6.818 -2.3346  1.5650 -1.6011
   13CHTO   H42 5409   6.012   7.093   6.720  0.8164 -2.6244 -0.0644
   13CHTO   C22 5410   5.779   6.838   6.719  0.2885 -0.4801 -0.3784
   13CHTO   H50 5411   5.740   6.882   6.627  0.0930 -0.6996 -0.4011
   13CHTO   O14 5412   5.771   6.696   6.704 -0.2700  0.3387  0.0973
   13CHTO   C23 5413   5.857   6.638   6.602  0.0628 -0.4105 -0.6372
   13CHTO   H51 5414   5.818   6.658   6.501 -1.0843 -0.0307 -0.1342
   13CHTO   C34 5415   5.846   6.483   6.622 -0.3350 -0.2410 -0.3608
   13CHTO   O23 5416   5.794   6.419   6.505 -0.2837  0.2883 -0.1504
   13CHTO   H38 5417   5.719   6.455   6.464  0.6086  0.6953 -1.4490
   13CHTO   O16 5418   5.689   6.867   6.829  0.0533  0.3260  0.3432
   13CHTO   C24 5419   5.536   6.877   6.778  0.5769  0.2406 -0.2204
   13CHTO   H52 5420   5.520   6.837   6.677 -0.6131 -1.0163  0.4413
   13CHTO   C26 5421   5.483   7.021   6.779  0.0269  0.4092 -0.4570
   13CHTO   H54 5422   5.509   7.067   6.877  1.5505  1.8253 -1.4961
   13CHTO   O20 5423   5.545   7.099   6.678 -0.2754  0.0968 -0.6101
   13CHTO   H36 5424   5.543   7.191   6.698 -0.3193 -0.3771  1.7309
   13CHTO   C30 5425   5.330   7.031   6.765 -0.2665  0.5948  0.5785
   13CHTO   H58 5426   5.302   7.015   6.660 -0.5263 -0.5669  0.8187
   13CHTO    N6 5427   5.285   7.168   6.798 -0.0482  0.2380 -0.0435
   13CHTO   H45 5428   5.276   7.182   6.905  0.0475  0.7580 -0.0998
   13CHTO   H46 5429   5.185   7.175   6.757 -0.7478 -1.3630  1.3611
   13CHTO   C33 5430   5.253   6.933   6.848  0.5495  0.0687 -0.5694
   13CHTO   H61 5431   5.246   6.963   6.954 -0.4980  2.2015 -1.2182
   13CHTO   O18 5432   5.319   6.805   6.835  0.0662 -0.3680  0.2080
   13CHTO   C28 5433   5.456   6.789   6.871 -0.0731  0.1046  0.0582
   13CHTO   H56 5434   5.477   6.820   6.973 -0.2097 -3.2674  1.1599
   13CHTO   C35 5435   5.482   6.640   6.868 -0.1811 -0.0457 -0.2215
   13CHTO   O24 5436   5.495   6.587   6.738  0.1914  0.0542  0.2641
   13CHTO   H39 5437   5.582   6.553   6.728  0.1901 -1.2385  3.9397
   13CHTO    O9 5438   5.113   6.925   6.803 -0.4496 -0.1898 -0.1292
   13CHTO   C13 5439   5.023   6.870   6.892 -0.4233  0.0048 -0.3222
   13CHTO   H26 5440   5.050   6.892   6.997  0.4954  1.0372 -0.7663
   13CHTO   C11 5441   5.025   6.716   6.863 -0.0026 -0.3144 -0.4227
   13CHTO   H24 5442   5.127   6.686   6.893 -0.8208 -0.1541  2.6605
   13CHTO    O8 5443   5.000   6.699   6.720 -0.1771 -0.3206 -0.2172
   13CHTO    H3 5444   4.927   6.642   6.704 -0.1828 -1.3015  2.9046
   13CHTO    C9 5445   4.919   6.649   6.950 -0.1253 -0.2642  0.8038
   13CHTO   H22 5446   4.955   6.672   7.052  0.3072 -0.9160  0.8039
   13CHTO    N2 5447   4.925   6.499   6.944 -0.1757  0.2228 -0.3263
   13CHTO   H10 5448   5.031   6.477   6.947 -0.4319 -1.2675 -1.8526
   13CHTO   H11 5449   4.875   6.464   6.855 -2.6374  0.1789  1.0441
   13CHTO    C7 5450   4.771   6.698   6.913  1.1637  0.5054 -1.4293
   13CHTO   H20 5451   4.711   6.665   7.001 -0.4751  1.4411 -2.1658
   13CHTO    O4 5452   4.767   6.844   6.915 -0.1153  0.1967 -0.5083
   13CHTO   C14 5453   4.878   6.927   6.883 -0.6758  0.0883  0.0152
   13CHTO   H27 5454   4.872   7.015   6.951 -2.7512  0.7675 -0.9853
   13CHTO   C18 5455   4.848   6.988   6.739 -0.0788  0.5409 -0.0409
   13CHTO   O13 5456   4.946   7.080   6.679 -0.1599  0.3346  0.3910
   13CHTO    H7 5457   4.988   7.124   6.750  0.4796  1.8452 -0.9162
   13CHTO    O2 5458   4.700   6.636   6.771 -0.6180 -0.6371  0.5953
   13CHTO    C1 5459   4.558   6.655   6.740  0.1808 -0.8228 -0.2621
   13CHTO   H14 5460   4.547   6.756   6.695 -1.3133 -0.2238  1.4453
   13CHTO    C2 5461   4.445   6.636   6.856 -0.4211  0.5162  0.2241
   13CHTO   H15 5462   4.472   6.545   6.912 -2.2334  0.1146  0.4676
   13CHTO    O6 5463   4.441   6.752   6.944  0.3140 -0.5879 -0.2826
   13CHTO    H1 5464   4.435   6.734   7.036  2.8753  1.0241  0.2218
   13CHTO    C3 5465   4.297   6.613   6.795 -0.4285  0.6699  0.2536
   13CHTO   H16 5466   4.258   6.707   6.754 -2.4645  0.1269  0.8677
   13CHTO    N1 5467   4.199   6.566   6.898  0.1252 -1.0768  0.5099
   13CHTO    H8 5468   4.095   6.562   6.868 -0.2585 -3.1230  2.0608
   13CHTO    H9 5469   4.232   6.473   6.941  3.2753  0.0254  0.5962
   13CHTO    C4 5470   4.302   6.512   6.676  0.7747 -0.6133  0.2945
   13CHTO   H17 5471   4.345   6.418   6.711 -0.5186 -0.9997  0.8425
   13CHTO    O1 5472   4.390   6.574   6.577 -0.2673  0.2416  0.2691
   13CHTO    C5 5473   4.529   6.564   6.609  0.0409 -0.0916  0.4806
   13CHTO   H18 5474   4.565   6.462   6.622  1.5189  0.2294 -0.8472
   13CHTO   C16 5475   4.604   6.627   6.484 -0.3966  0.0092 -0.1498
   13CHTO   O11 5476   4.590   6.551   6.368 -0.0898  0.2120 -0.3755
   13CHTO    H5 5477   4.628   6.467   6.380  0.0895  0.2610 -0.6068
   13CHTO    O3 5478   4.178   6.496   6.601 -0.1168 -0.0953 -0.2078
   13CHTO    C6 5479   4.179   6.373   6.508 -0.6981 -1.2223  1.1413
   13CHTO   H19 5480   4.280   6.342   6.485 -1.5575 -3.7142  0.6435
   13CHTO    C8 5481   4.114   6.245   6.574 -0.1773 -0.0440 -0.4734
   13CHTO   H21 5482   4.020   6.273   6.622 -0.3235  0.5835 -1.1209
   13CHTO    O7 5483   4.210   6.197   6.670 -0.1975  0.0580  0.1070
   13CHTO    H2 5484   4.181   6.114   6.702 -0.6218 -0.3558 -1.3083
   13CHTO   C12 5485   4.070   6.127   6.475 -0.0058 -0.0395  0.5610
   13CHTO   H25 5486   4.160   6.066   6.452 -0.1494  0.3865 -1.1718
   13CHTO    N3 5487   3.981   6.033   6.542 -0.6813 -0.2312 -0.5172
   13CHTO   H12 5488   4.019   5.932   6.543  0.4171  0.1752  0.2855
   13CHTO   H13 5489   3.877   6.048   6.519 -0.7488 -1.2888 -0.9537
   13CHTO   C15 5490   4.014   6.192   6.340 -0.6851  0.2371 -0.3286
   13CHTO   H28 5491   3.914   6.231   6.356 -0.8162 -0.2118 -0.0208
   13CHTO   O10 5492   4.020   6.103   6.228  0.1807  0.2081 -0.2575
   13CHTO    H4 5493   4.081   6.033   6.240  1.4979  1.2378 -0.8936
   13CHTO    O5 5494   4.095   6.296   6.283  0.0863  0.2042  0.0686
   13CHTO   C10 5495   4.109   6.409   6.371 -0.2452 -0.2298  0.4109
   13CHTO   H23 5496   4.009   6.452   6.379 -0.3127  0.2785 -2.7826
   13CHTO   C17 5497   4.186   6.512   6.285 -0.1002  0.0972  0.0339
   13CHTO   O12 5498   4.173   6.646   6.338  0.1764 -0.3326  0.5027
   13CHTO    H6 5499   4.189   6.709   6.270 -1.0936  0.4258  0.8808
   14CHTO  H203 5500   5.313   6.204   4.534 -0.4525  3.8412  0.3946
   14CHTO   O82 5501   5.283   6.185   4.621  0.5432 -0.1730 -0.0230
   14CHTO  C123 5502   5.359   6.075   4.674 -0.4798  0.5621  0.1292
   14CHTO  H227 5503   5.461   6.114   4.691  0.2568 -0.1311 -2.4307
   14CHTO   O77 5504   5.302   6.048   4.799 -0.1159  0.0394  0.2487
   14CHTO  C118 5505   5.372   5.960   4.892  0.0495  0.0192  1.2137
   14CHTO  H222 5506   5.479   5.987   4.888 -0.2228  0.7741 -1.5525
   14CHTO  C125 5507   5.309   5.987   5.042 -0.0376 -0.0168 -0.9719
   14CHTO   O84 5508   5.175   5.938   5.066 -0.4168 -0.7193 -0.1481
   14CHTO  H205 5509   5.127   5.995   5.123  2.2542  1.9061 -0.4087
   14CHTO  C114 5510   5.368   5.819   4.828  0.0584 -0.6748 -0.7920
   14CHTO  H218 5511   5.263   5.791   4.825 -0.1682  0.3181 -3.7011
   14CHTO  C116 5512   5.416   5.820   4.680 -0.7611 -0.5017 -0.5080
   14CHTO  H220 5513   5.527   5.820   4.683 -0.7688  0.9998  1.0574
   14CHTO   O79 5514   5.380   5.692   4.629  0.8526  0.3352 -0.0311
   14CHTO  H201 5515   5.391   5.702   4.536 -4.0620 -1.2111 -0.9504
   14CHTO  C120 5516   5.356   5.935   4.594 -0.4102 -0.4481  0.1585
   14CHTO  H224 5517   5.250   5.908   4.577 -0.7773  1.1736 -0.2386
   14CHTO   N21 5518   5.421   5.940   4.459  0.0474 -0.0434 -0.3509
   14CHTO  H211 5519   5.345   5.966   4.387  0.4767  1.0763 -0.4069
   14CHTO  H212 5520   5.501   6.013   4.463 -0.4445  0.4647  0.4951
   14CHTO   O75 5521   5.447   5.748   4.921  0.0426  0.3794 -0.1133
   14CHTO  C112 5522   5.391   5.590   4.970  0.3201 -0.2579  0.1336
   14CHTO  H216 5523   5.475   5.533   5.012 -1.0607 -0.4105  2.8288
   14CHTO   O73 5524   5.336   5.522   4.857 -0.3388  0.4411 -0.2627
   14CHTO  C113 5525   5.301   5.380   4.876 -0.0483 -0.0960 -0.1433
   14CHTO  H217 5526   5.395   5.331   4.912 -1.2074 -1.0538  1.6775
   14CHTO  C124 5527   5.260   5.314   4.743 -0.2452 -0.1315 -0.1095
   14CHTO   O83 5528   5.362   5.329   4.642 -0.4343 -1.1622 -0.0346
   14CHTO  H204 5529   5.341   5.412   4.605  1.4042 -0.5121  0.3649
   14CHTO  C109 5530   5.188   5.360   4.978 -0.0335 -0.5601  0.3063
   14CHTO  H213 5531   5.094   5.399   4.936 -0.2652  0.5789  1.8352
   14CHTO  C110 5532   5.217   5.450   5.105 -0.5312 -0.3276 -0.4767
   14CHTO  H214 5533   5.280   5.397   5.176  0.1409 -1.5706 -1.9686
   14CHTO   O78 5534   5.089   5.468   5.170 -0.1092  0.3946 -0.2363
   14CHTO  H200 5535   5.044   5.388   5.191 -0.3770  0.5715 -0.1297
   14CHTO  C111 5536   5.277   5.592   5.083  0.3253 -0.1045  0.3620
   14CHTO  H215 5537   5.200   5.656   5.037  0.1512 -2.9564 -3.5782
   14CHTO   N19 5538   5.330   5.650   5.204  0.1513  0.2445 -0.0943
   14CHTO  H207 5539   5.427   5.627   5.247  0.5777  3.3595  0.7434
   14CHTO  H208 5540   5.258   5.672   5.282 -0.4412 -2.4038  0.1437
   14CHTO   O74 5541   5.174   5.223   5.013 -0.0953 -0.3161 -0.1434
   14CHTO  C115 5542   5.034   5.141   4.943 -0.3730 -0.6199  0.1091
   14CHTO  H219 5543   4.974   5.205   4.877  0.7448 -0.3353 -0.6457
   14CHTO   O76 5544   5.081   5.008   4.847 -0.4087 -0.0752 -0.1578
   14CHTO  C122 5545   4.976   4.930   4.793  0.1193 -0.3035 -1.0840
   14CHTO  H226 5546   5.024   4.848   4.739  2.2912  0.9869 -1.1613
   14CHTO  C126 5547   4.899   5.008   4.677 -0.2582  0.0146 -0.3229
   14CHTO   O85 5548   4.979   5.052   4.569  0.4998 -0.4681 -0.0695
   14CHTO  H206 5549   4.933   5.100   4.503  0.1437 -1.9259 -0.9102
   14CHTO  C121 5550   4.864   4.893   4.902  0.7937 -0.6181  0.1165
   14CHTO  H225 5551   4.782   4.853   4.840  1.2408 -2.9289  0.9688
   14CHTO   O81 5552   4.921   4.802   4.997 -0.1011 -0.0772  0.3028
   14CHTO  H202 5553   4.960   4.724   4.962  2.5675 -0.0842  3.0878
   14CHTO  C119 5554   4.815   5.021   4.976  0.4881  0.4579  0.4579
   14CHTO  H223 5555   4.768   5.093   4.910 -0.2101  0.7986  1.3167
   14CHTO  C117 5556   4.931   5.094   5.057 -0.3084  0.4450  0.3689
   14CHTO  H221 5557   4.991   5.032   5.123  0.5736  1.8467  0.9066
   14CHTO   N20 5558   4.875   5.208   5.137  0.0934  0.4224  0.6851
   14CHTO  H209 5559   4.913   5.189   5.236 -0.1933 -1.9738  0.3680
   14CHTO  H210 5560   4.925   5.301   5.117  1.3354 -1.0792 -3.8965
   14CHTO   O80 5561   4.688   4.974   5.072  0.5485  0.6207  0.6526
   14CHTO  C103 5562   4.538   5.043   5.052  0.7977  0.3548 -0.1832
   14CHTO  H190 5563   4.540   5.150   5.034 -0.7575  0.1018 -2.0899
   14CHTO  C101 5564   4.447   4.985   4.939 -0.6633 -0.2767 -0.0370
   14CHTO  H188 5565   4.435   4.877   4.955  0.3974 -0.2666  0.8312
   14CHTO   O68 5566   4.531   4.995   4.812  0.7823  0.2604  0.2523
   14CHTO  H168 5567   4.485   5.045   4.747 -1.3005 -1.0819  0.6412
   14CHTO   C99 5568   4.310   5.065   4.950  0.3021  0.3422  0.6350
   14CHTO  H186 5569   4.329   5.174   4.940 -0.8615  0.4436 -0.5960
   14CHTO   N17 5570   4.206   5.016   4.846  0.6519  0.8959  0.3031
   14CHTO  H174 5571   4.108   5.001   4.889  0.2863 -0.6587 -0.9975
   14CHTO  H175 5572   4.194   5.088   4.767 -3.9779  2.3695  2.2157
   14CHTO   C97 5573   4.249   5.046   5.091 -0.7965 -0.1278  0.0054
   14CHTO  H184 5574   4.214   4.943   5.111 -2.1384  0.5695  1.3782
   14CHTO   O64 5575   4.342   5.091   5.188 -0.1685  0.1557 -0.6826
   14CHTO  C104 5576   4.467   5.020   5.189  0.3916  0.4236  0.1618
   14CHTO  H191 5577   4.454   4.913   5.208 -0.0802  0.1333 -1.7048
   14CHTO  C108 5578   4.556   5.065   5.310 -0.2474  0.2459  0.2760
   14CHTO   O71 5579   4.496   5.041   5.436 -0.0871 -0.1801 -0.1290
   14CHTO  H171 5580   4.507   4.952   5.464  1.4876  0.1057  0.2024
   14CHTO   O62 5581   4.123   5.121   5.102  0.3416 -0.7686 -0.1556
   14CHTO   C91 5582   4.067   5.177   5.221  0.7275  0.6013  0.1105
   14CHTO  H178 5583   4.069   5.116   5.311 -1.0811 -1.8564 -1.4792
   14CHTO   C92 5584   3.918   5.181   5.198  0.1320 -0.6395  0.2991
   14CHTO  H179 5585   3.880   5.081   5.172  1.2009 -0.5568 -1.7590
   14CHTO   O66 5586   3.851   5.226   5.317  0.0949 -0.1699 -0.0173
   14CHTO  H166 5587   3.786   5.291   5.300  0.5741 -0.1568 -1.8458
   14CHTO   C93 5588   3.879   5.277   5.080  0.1881  1.0602 -0.2250
   14CHTO  H180 5589   3.771   5.294   5.095 -0.6455 -3.0225 -1.1767
   14CHTO   N16 5590   3.873   5.216   4.945 -0.1245 -0.4655  0.1664
   14CHTO  H172 5591   3.812   5.127   4.946  0.6873 -1.0600 -1.4361
   14CHTO  H173 5592   3.976   5.188   4.928 -0.1404  0.1129 -0.9311
   14CHTO   C94 5593   3.972   5.409   5.072  0.3386 -0.2970  0.5742
   14CHTO  H181 5594   4.049   5.397   4.996 -1.4962 -0.6842 -1.2606
   14CHTO   O61 5595   4.038   5.432   5.199 -0.1171 -0.2555 -0.8673
   14CHTO   C95 5596   4.123   5.325   5.253  0.8633  0.7536 -0.5484
   14CHTO  H182 5597   4.223   5.336   5.210  0.7127  2.2493 -0.5172
   14CHTO  C106 5598   4.142   5.348   5.407 -0.0060  0.3708 -0.2076
   14CHTO   O69 5599   4.250   5.265   5.461 -0.5540  0.3087  0.1416
   14CHTO  H169 5600   4.218   5.242   5.546 -1.8603  0.0271 -0.4081
   14CHTO   O63 5601   3.881   5.533   5.045  0.0328  0.2230  0.3916
   14CHTO   C96 5602   3.937   5.642   4.941  0.0063  0.3810  0.5814
   14CHTO  H183 5603   3.878   5.733   4.958 -2.1225 -0.9895  0.6675
   14CHTO   C98 5604   3.913   5.579   4.800  0.7191  0.0253 -0.1870
   14CHTO  H185 5605   3.951   5.476   4.791 -0.4514 -0.5356  1.0726
   14CHTO   O67 5606   3.773   5.567   4.781  0.6397 -0.1437  0.7590
   14CHTO  H167 5607   3.736   5.481   4.784 -2.8113  1.2257  0.5726
   14CHTO  C102 5608   3.977   5.684   4.686  0.4552  0.5292  0.1285
   14CHTO  H189 5609   3.922   5.778   4.694 -0.7499 -0.3004  2.0109
   14CHTO   N18 5610   3.958   5.634   4.545  0.5598 -0.4451  0.0813
   14CHTO  H176 5611   4.050   5.614   4.493  0.2077 -2.6831  0.2898
   14CHTO  H177 5612   3.893   5.705   4.495  1.3770  1.3133  1.4508
   14CHTO  C105 5613   4.128   5.711   4.724 -0.9256 -0.9152  0.8383
   14CHTO  H192 5614   4.180   5.615   4.718 -2.4242 -1.7786  1.3738
   14CHTO   O65 5615   4.148   5.761   4.852 -0.2859  0.0593  0.7338
   14CHTO  C100 5616   4.096   5.669   4.957  0.3010  0.5654  0.3356
   14CHTO  H187 5617   4.143   5.571   4.940  2.9377  2.0264 -1.2591
   14CHTO  C107 5618   4.117   5.725   5.097 -0.1936  0.4031 -0.1126
   14CHTO   O70 5619   4.234   5.666   5.158  0.7835  0.1401 -0.2456
   14CHTO  H170 5620   4.306   5.723   5.179  0.2519  0.2766  1.3077
   14CHTO   O57 5621   4.189   5.810   4.631  0.1343 -0.6541  0.3693
   14CHTO   C85 5622   4.327   5.839   4.628 -0.0267  0.4239  0.8411
   14CHTO  H157 5623   4.379   5.751   4.672 -0.7381 -0.4056  0.0404
   14CHTO   C83 5624   4.370   5.962   4.712 -0.5859  0.9347 -0.4952
   14CHTO  H155 5625   4.344   5.942   4.816 -3.9236 -0.8612 -1.6312
   14CHTO   O56 5626   4.288   6.072   4.668  0.4363 -0.6837  0.3117
   14CHTO  H135 5627   4.330   6.153   4.691  0.0002 -0.0341 -1.1000
   14CHTO   C81 5628   4.524   5.991   4.698 -0.6230  0.5718  0.4358
   14CHTO  H153 5629   4.575   5.898   4.722  0.8418  1.6019  1.4833
   14CHTO   N14 5630   4.574   6.091   4.796  0.6712 -0.6925  0.1344
   14CHTO  H141 5631   4.507   6.123   4.874  2.2973 -0.3611  1.4070
   14CHTO  H142 5632   4.665   6.065   4.845  0.8170 -0.6788 -0.1308
   14CHTO   C79 5633   4.544   6.036   4.549  0.6024  0.7763 -0.3132
   14CHTO  H151 5634   4.650   6.039   4.527  0.8579  0.8569  0.8583
   14CHTO   O52 5635   4.506   5.914   4.468 -0.1863 -0.2183  0.1060
   14CHTO   C86 5636   4.370   5.861   4.475  0.5073 -0.3962 -0.3310
   14CHTO  H158 5637   4.303   5.939   4.433  0.6947 -1.2594 -2.2817
   14CHTO   C90 5638   4.338   5.738   4.394 -0.5395  0.7598 -0.1622
   14CHTO   O60 5639   4.430   5.631   4.407 -0.2973  0.0680  0.0642
   14CHTO  H138 5640   4.409   5.580   4.483  0.0437  3.5475  2.6443
   14CHTO   O50 5641   4.462   6.144   4.504 -0.4486  0.0480  0.1810
   14CHTO   C73 5642   4.407   6.263   4.446 -0.3003 -0.3432 -0.3665
   14CHTO  H145 5643   4.342   6.310   4.521 -1.0674 -0.8565 -0.7136
   14CHTO   C74 5644   4.331   6.224   4.318 -0.1335  0.7073 -0.1207
   14CHTO  H146 5645   4.268   6.141   4.354 -0.1766  1.7141  2.1574
   14CHTO   O54 5646   4.256   6.334   4.259 -0.4848  0.2116 -1.0184
   14CHTO  H133 5647   4.176   6.338   4.308  0.5791  0.2421  0.7785
   14CHTO   C75 5648   4.439   6.168   4.218 -0.6558 -0.2185 -0.6262
   14CHTO  H147 5649   4.493   6.082   4.259 -0.0377  0.9116  0.9574
   14CHTO   N13 5650   4.389   6.126   4.080 -0.2233 -0.1549  0.0838
   14CHTO  H139 5651   4.329   6.196   4.024 -2.4408  2.2061  5.0860
   14CHTO  H140 5652   4.458   6.064   4.025 -0.5712 -0.0838 -0.4339
   14CHTO   C76 5653   4.550   6.281   4.188  0.9127  0.4444 -0.8684
   14CHTO  H148 5654   4.491   6.366   4.155 -1.2618 -0.9098 -0.5644
   14CHTO   O49 5655   4.610   6.309   4.314  0.0706  0.0903 -0.0186
   14CHTO   C77 5656   4.521   6.368   4.415 -0.1595 -0.1363  0.4487
   14CHTO  H149 5657   4.469   6.458   4.384  1.3640  0.2595 -1.0344
   14CHTO   C88 5658   4.608   6.404   4.532 -0.1411  0.1319  0.1227
   14CHTO   O58 5659   4.554   6.473   4.625  0.0616 -0.8546  0.1798
   14CHTO  H136 5660   4.620   6.505   4.683  0.3057  0.7625 -0.9667
   14CHTO   O51 5661   4.668   6.232   4.110  0.0150 -0.3486  0.6991
   14CHTO   C78 5662   4.765   6.339   4.031  0.1468 -0.4012 -0.0666
   14CHTO  H150 5663   4.768   6.437   4.082  0.4478 -0.5040  0.1133
   14CHTO   C80 5664   4.715   6.360   3.883  0.3386 -0.2979  0.1973
   14CHTO  H152 5665   4.708   6.259   3.839 -0.1892 -0.3991  0.5168
   14CHTO   O55 5666   4.587   6.427   3.884  0.3243  0.3596 -0.3694
   14CHTO  H134 5667   4.531   6.391   3.817 -3.9402  1.1687  2.5477
   14CHTO   C84 5668   4.819   6.443   3.792 -0.2604  0.9355 -0.2744
   14CHTO  H156 5669   4.812   6.541   3.839  2.0043 -0.2895  2.7806
   14CHTO   N15 5670   4.771   6.455   3.655 -0.3102 -0.9473 -0.0834
   14CHTO  H143 5671   4.704   6.537   3.637  0.2517 -0.2888  0.7563
   14CHTO  H144 5672   4.859   6.465   3.594 -0.8938  0.1207 -0.7651
   14CHTO   C87 5673   4.957   6.376   3.790  0.2639 -0.1795  0.2445
   14CHTO  H159 5674   4.948   6.272   3.757 -0.7979  0.6555 -2.2911
   14CHTO   O53 5675   4.999   6.370   3.939 -0.3881 -0.5742  0.3193
   14CHTO   C82 5676   4.912   6.289   4.028  0.4054  0.3019  0.2614
   14CHTO  H154 5677   4.917   6.183   4.002 -1.3507  0.1838  0.3707
   14CHTO   C89 5678   4.958   6.300   4.176  0.4376 -0.1539 -0.2768
   14CHTO   O59 5679   4.929   6.425   4.248  0.1380  0.0144 -0.0067
   14CHTO  H137 5680   4.973   6.422   4.331  1.8522  0.0184 -0.8831
   14CHTO   O45 5681   5.067   6.474   3.713 -0.2275 -0.1111 -0.6203
   14CHTO   C67 5682   5.184   6.403   3.681  0.1559 -0.4362 -0.2734
   14CHTO  H124 5683   5.199   6.317   3.747  2.6994  1.1667  1.3498
   14CHTO   C65 5684   5.164   6.348   3.545 -0.4409  0.7644  0.0097
   14CHTO  H122 5685   5.060   6.319   3.532  0.1631 -0.8667 -1.5043
   14CHTO   O44 5686   5.225   6.223   3.524 -0.5296  0.2984 -0.0773
   14CHTO  H102 5687   5.170   6.150   3.543 -3.5189  2.3951 -0.2190
   14CHTO   C63 5688   5.178   6.454   3.427  0.5577  0.5070  0.9226
   14CHTO  H120 5689   5.107   6.535   3.441  0.5800  0.6081  0.4552
   14CHTO   N11 5690   5.126   6.407   3.295 -0.4338 -0.3336  0.1148
   14CHTO  H108 5691   5.094   6.306   3.306 -2.3280  0.2819  0.3905
   14CHTO  H109 5692   5.043   6.463   3.256  0.1359  0.5847  0.2063
   14CHTO   C61 5693   5.325   6.511   3.437  0.7082 -0.2644 -0.4099
   14CHTO  H118 5694   5.339   6.597   3.370  0.0414  0.7920  0.7810
   14CHTO   O40 5695   5.361   6.563   3.571  0.3996 -0.0005 -0.4025
   14CHTO   C68 5696   5.318   6.489   3.691  0.1689 -0.4822 -0.1048
   14CHTO  H125 5697   5.282   6.561   3.768  2.9125  0.1074  0.6718
   14CHTO   C72 5698   5.438   6.419   3.754  0.0925 -0.3892  0.6194
   14CHTO   O48 5699   5.555   6.502   3.763  0.1167  0.9339 -0.5595
   14CHTO  H105 5700   5.579   6.523   3.675  0.0176  2.1042 -0.3201
   14CHTO   O38 5701   5.427   6.411   3.397 -0.2332 -0.0712  0.0538
   14CHTO   C55 5702   5.506   6.438   3.283  0.5444  0.3981 -0.6204
   14CHTO  H112 5703   5.485   6.534   3.235  0.6661  0.4731 -0.5260
   14CHTO   C56 5704   5.511   6.312   3.178 -0.2518  0.5152  0.1748
   14CHTO  H113 5705   5.524   6.222   3.241 -1.7215 -0.9198 -1.5011
   14CHTO   O42 5706   5.381   6.290   3.117  0.2799  0.5544 -0.1278
   14CHTO  H100 5707   5.372   6.357   3.052  2.9117 -0.0877 -1.2022
   14CHTO   C57 5708   5.629   6.325   3.070 -0.4999 -0.6018  0.0885
   14CHTO  H114 5709   5.598   6.406   3.004 -0.2974 -0.4176  0.2213
   14CHTO   N10 5710   5.648   6.194   2.995 -0.1465  0.1334 -0.4146
   14CHTO  H106 5711   5.561   6.130   2.987 -0.2819  0.3722 -0.8593
   14CHTO  H107 5712   5.670   6.231   2.896 -3.0062  2.0820 -0.3766
   14CHTO   C58 5713   5.761   6.366   3.133  0.2755 -0.3284  0.0457
   14CHTO  H115 5714   5.804   6.283   3.194 -0.8299 -2.3532 -1.8522
   14CHTO   O37 5715   5.741   6.489   3.214 -0.0652  0.4497 -0.8025
   14CHTO   C59 5716   5.653   6.464   3.325 -0.2178  0.4279 -0.7572
   14CHTO  H116 5717   5.682   6.373   3.378 -0.6384 -0.8124 -2.6168
   14CHTO   C70 5718   5.657   6.590   3.412 -0.3698  0.6179  0.5182
   14CHTO   O46 5719   5.782   6.613   3.478  0.1104 -0.1553 -0.0919
   14CHTO  H103 5720   5.765   6.683   3.538 -1.8070 -0.2651 -0.4516
   14CHTO   O39 5721   5.880   6.425   3.024  0.1167  0.1246  0.4223
   14CHTO   C60 5722   6.021   6.418   3.047  0.3532 -0.7901  0.3442
   14CHTO  H117 5723   6.068   6.478   2.969 -0.0063  0.5597  1.1524
   14CHTO   C62 5724   6.072   6.490   3.177 -0.4260 -0.0194  0.2047
   14CHTO  H119 5725   6.020   6.588   3.173  1.4771  0.9440 -2.1719
   14CHTO   O43 5726   6.023   6.407   3.292 -0.1419  0.6360 -0.1921
   14CHTO  H101 5727   6.019   6.319   3.260  0.2910  0.1909  0.9630
   14CHTO   C66 5728   6.227   6.504   3.170  0.2181 -0.2150  0.1192
   14CHTO  H123 5729   6.256   6.564   3.083  1.2441  0.9541  1.2443
   14CHTO   N12 5730   6.277   6.585   3.283 -1.0304 -0.3862  0.2861
   14CHTO  H110 5731   6.345   6.653   3.235  0.6535 -2.9570 -1.0794
   14CHTO  H111 5732   6.197   6.626   3.344  0.5624 -0.5594  2.5283
   14CHTO   C69 5733   6.291   6.364   3.155 -0.0132 -0.8651  0.4281
   14CHTO  H126 5734   6.282   6.308   3.250 -0.1320 -1.1176  0.2687
   14CHTO   O41 5735   6.224   6.274   3.033  0.7240 -0.5944  0.0020
   14CHTO   C64 5736   6.079   6.280   3.037 -0.3262  0.3727  0.1718
   14CHTO  H121 5737   6.052   6.219   3.126 -0.4904  4.3533  3.0035
   14CHTO   C71 5738   6.021   6.206   2.911 -0.0074  0.4035  0.2252
   14CHTO   O47 5739   6.032   6.065   2.907  0.2880 -0.1587 -0.0383
   14CHTO  H104 5740   5.982   6.011   2.850  1.8143  0.4245 -1.9745
   14CHTO   O34 5741   6.464   6.365   3.127 -0.2370  0.0254  0.0960
   14CHTO   C49 5742   6.606   6.357   3.040 -0.3718  0.5661 -0.3188
   14CHTO   H91 5743   6.678   6.329   3.118 -0.8989  0.3760  0.1085
   14CHTO   C47 5744   6.631   6.494   2.985 -0.0585  0.0828 -0.3362
   14CHTO   H89 5745   6.735   6.488   2.945  0.4071  1.5325  0.6014
   14CHTO   O33 5746   6.631   6.583   3.099  0.0420 -0.7656  0.1363
   14CHTO   H70 5747   6.695   6.652   3.100 -0.8142  0.0501  0.0063
   14CHTO   C45 5748   6.520   6.536   2.878  0.0414 -0.8254 -0.0563
   14CHTO   H87 5749   6.430   6.577   2.926 -1.8670 -1.7046 -2.7598
   14CHTO    N8 5750   6.585   6.651   2.804 -0.6781 -0.3545 -0.0028
   14CHTO   H75 5751   6.505   6.691   2.743  0.4283  1.9803  0.0325
   14CHTO   H76 5752   6.660   6.616   2.735 -1.2110 -0.9836 -0.2714
   14CHTO   C43 5753   6.454   6.415   2.795  0.0903  0.4875 -0.5683
   14CHTO   H85 5754   6.365   6.390   2.853  0.9240 -0.6112  0.2567
   14CHTO   O29 5755   6.548   6.307   2.788 -0.9762  0.2195  0.5732
   14CHTO   C50 5756   6.602   6.259   2.916 -0.0927  0.1294  0.1145
   14CHTO   H92 5757   6.546   6.169   2.943  0.5118 -0.6411 -1.1474
   14CHTO   C54 5758   6.747   6.216   2.875  0.1747 -0.5342 -0.6719
   14CHTO   O36 5759   6.826   6.297   2.789  0.4913  0.1131 -0.8846
   14CHTO   H72 5760   6.912   6.259   2.788  0.6789  0.3662  2.1499
   14CHTO   O27 5761   6.402   6.451   2.660 -0.1812  1.0418 -0.2831
   14CHTO   C37 5762   6.282   6.450   2.588  0.6826  0.0190 -0.2475
   14CHTO   H79 5763   6.308   6.481   2.485  1.9246  0.5057  0.2013
   14CHTO   C38 5764   6.218   6.305   2.584 -0.0656  0.5823  0.2712
   14CHTO   H80 5765   6.210   6.258   2.683 -1.3554  0.2275  0.0043
   14CHTO   O31 5766   6.307   6.221   2.503 -0.2839  0.3815  0.4004
   14CHTO   H68 5767   6.382   6.194   2.553 -0.5001  2.0521  1.6710
   14CHTO   C39 5768   6.078   6.309   2.516 -0.3874  0.4047  0.3906
   14CHTO   H81 5769   6.094   6.343   2.414  0.9998  2.3770  1.2523
   14CHTO    N7 5770   6.012   6.177   2.504  0.2183 -0.6460  0.5734
   14CHTO   H73 5771   5.918   6.183   2.450  0.2831 -0.1293  0.5205
   14CHTO   H74 5772   6.073   6.092   2.476 -0.8445 -1.2133 -0.0672
   14CHTO   C40 5773   5.987   6.420   2.575  0.0439 -0.2689  0.4886
   14CHTO   H82 5774   5.952   6.397   2.676 -1.5407 -0.2411 -0.0551
   14CHTO   O26 5775   6.052   6.544   2.570 -0.1907 -0.0486 -0.6220
   14CHTO   C41 5776   6.179   6.542   2.644  0.4088  0.2711  0.4490
   14CHTO   H83 5777   6.149   6.507   2.744  0.8543  0.3370  0.6038
   14CHTO   C52 5778   6.217   6.689   2.643  0.2088 -0.2373 -0.6835
   14CHTO   O35 5779   6.138   6.786   2.726  0.4302 -0.3744  0.1556
   14CHTO   H71 5780   6.151   6.876   2.702  0.8169 -0.0668  1.4829
   14CHTO   O28 5781   5.862   6.437   2.505  0.0782 -0.3552 -1.3138
   14CHTO   C42 5782   5.751   6.506   2.565  0.6895 -1.0282 -0.1023
   14CHTO   H84 5783   5.683   6.506   2.480 -1.3101  2.5126  1.3888
   14CHTO   C44 5784   5.763   6.657   2.609 -0.1144 -0.4646 -0.2388
   14CHTO   H86 5785   5.834   6.668   2.691  0.0439  0.4767 -0.4826
   14CHTO   O32 5786   5.826   6.724   2.500  0.2452 -0.2941  0.5337
   14CHTO   H69 5787   5.915   6.752   2.509 -0.1611  0.4566  2.3806
   14CHTO   C48 5788   5.632   6.723   2.671 -0.1965  0.5156  0.3055
   14CHTO   H90 5789   5.558   6.731   2.591  0.7671  2.8862 -0.3983
   14CHTO    N9 5790   5.650   6.862   2.718  0.3647  0.7244 -0.7684
   14CHTO   H77 5791   5.724   6.866   2.796 -0.6104 -3.4922  0.5275
   14CHTO   H78 5792   5.688   6.930   2.643 -0.6241  0.2148 -1.7378
   14CHTO   C51 5793   5.570   6.634   2.779  0.3889  0.1598 -0.6688
   14CHTO   H93 5794   5.648   6.626   2.855  0.1994  0.9520 -0.3793
   14CHTO   O30 5795   5.538   6.508   2.719 -0.0141  0.3341 -0.4069
   14CHTO   C46 5796   5.669   6.423   2.682 -0.9501 -0.1460 -0.4868
   14CHTO   H88 5797   5.727   6.418   2.774 -0.9123 -1.1103 -0.5585
   14CHTO   C53 5798   5.628   6.285   2.635  0.1084  0.2225 -0.3565
   14CHTO   O72 5799   5.556   6.286   2.517 -0.2306  0.0790 -0.3061
   14CHTO  H199 5800   5.526   6.201   2.493  2.6662 -2.4499  4.2953
   14CHTO   O22 5801   5.449   6.690   2.836  0.0195 -0.0438 -0.4469
   14CHTO   C31 5802   5.420   6.713   2.980  0.5934 -0.8388 -1.1086
   14CHTO   H59 5803   5.457   6.626   3.038 -3.6779 -1.0659  1.4945
   14CHTO   C29 5804   5.493   6.833   3.038  0.2498  0.8434 -0.2190
   14CHTO   H57 5805   5.498   6.910   2.959  0.5578  0.0947 -0.9364
   14CHTO   O21 5806   5.631   6.800   3.049 -0.4649 -0.1705 -0.1813
   14CHTO   H37 5807   5.660   6.747   2.978 -3.2421 -2.0656  0.0244
   14CHTO   C27 5808   5.446   6.904   3.178 -0.7319  0.3670 -0.8323
   14CHTO   H55 5809   5.481   6.842   3.261 -2.3013  0.0451 -0.4093
   14CHTO    N5 5810   5.504   7.042   3.190 -0.0650 -0.1802 -0.1716
   14CHTO   H43 5811   5.434   7.118   3.221 -0.5975 -1.3885  1.6546
   14CHTO   H44 5812   5.597   7.038   3.245  0.3212  1.7674 -0.6299
   14CHTO   C25 5813   5.292   6.876   3.198 -0.2364 -0.1990  0.3126
   14CHTO   H53 5814   5.228   6.939   3.135 -0.1870 -1.9946 -1.5922
   14CHTO   O17 5815   5.269   6.734   3.155 -0.2010 -0.4177  0.0531
   14CHTO   C32 5816   5.271   6.719   3.016 -0.1053 -0.1811 -0.2344
   14CHTO   H60 5817   5.221   6.799   2.961 -0.8378  0.1900  0.9418
   14CHTO   C36 5818   5.206   6.581   2.983 -0.0494  0.1213 -0.5065
   14CHTO   O25 5819   5.060   6.596   2.980  0.0003  0.9046 -0.7445
   14CHTO   H40 5820   5.013   6.533   3.031  2.9605  1.1688  2.5158
   14CHTO   O15 5821   5.241   6.924   3.350  0.1120 -0.4769  0.5696
   14CHTO   C19 5822   5.249   6.887   3.493  0.2874  0.0858  0.1899
   14CHTO   H47 5823   5.250   6.777   3.489 -0.6837  0.0968 -0.6706
   14CHTO   C20 5824   5.372   6.945   3.562 -0.1612  0.1979 -0.5083
   14CHTO   H48 5825   5.371   7.055   3.558  1.8059  0.1699 -2.8324
   14CHTO   O19 5826   5.490   6.901   3.492  0.0744 -0.0904  0.0006
   14CHTO   H35 5827   5.557   6.966   3.498  0.5979 -0.5065 -1.2494
   14CHTO   C21 5828   5.376   6.896   3.714  0.0181  0.1984  0.0108
   14CHTO   H49 5829   5.377   6.787   3.713 -0.9230  0.1513  1.8003
   14CHTO    N4 5830   5.492   6.930   3.791  0.1741 -0.3776  0.0074
   14CHTO   H41 5831   5.557   7.003   3.745 -0.5737  0.7156  0.6685
   14CHTO   H42 5832   5.460   6.957   3.891 -2.0290 -1.7700 -0.2715
   14CHTO   C22 5833   5.240   6.927   3.785  0.2546  0.1155  1.0015
   14CHTO   H50 5834   5.242   7.035   3.804  1.3236  0.5565 -1.5087
   14CHTO   O14 5835   5.124   6.899   3.706 -0.3281 -0.3858 -0.3718
   14CHTO   C23 5836   5.117   6.929   3.566  0.7059 -0.7803  0.0386
   14CHTO   H51 5837   5.096   7.036   3.550  2.7268 -0.1921  1.2054
   14CHTO   C34 5838   5.000   6.857   3.500  0.1702 -0.3304 -0.3981
   14CHTO   O23 5839   4.989   6.718   3.534  0.2368 -0.0288 -1.0682
   14CHTO   H38 5840   4.936   6.706   3.610  2.5980  0.7525  0.7858
   14CHTO   O16 5841   5.208   6.859   3.909 -0.0755 -0.5476  0.1581
   14CHTO   C24 5842   5.112   6.942   4.018 -0.2145  0.2790  0.6012
   14CHTO   H52 5843   5.037   7.001   3.966 -0.0261 -0.1423 -0.1710
   14CHTO   C26 5844   5.193   7.037   4.108  0.8070  0.9137 -0.0945
   14CHTO   H54 5845   5.285   6.988   4.147  0.4086  0.8803  0.8364
   14CHTO   O20 5846   5.244   7.141   4.026 -0.5095 -0.2527  0.4685
   14CHTO   H36 5847   5.294   7.210   4.065 -2.2141  0.9173  0.6561
   14CHTO   C30 5848   5.113   7.090   4.236 -0.7830 -0.2821 -0.1848
   14CHTO   H58 5849   5.034   7.159   4.202  0.5431  0.7082 -1.3069
   14CHTO    N6 5850   5.202   7.168   4.327 -0.1758 -0.0327 -0.0793
   14CHTO   H45 5851   5.165   7.220   4.415 -0.4689  3.4434 -2.1516
   14CHTO   H46 5852   5.293   7.115   4.352  1.4690  3.3661  1.5084
   14CHTO   C33 5853   5.038   6.971   4.308 -0.8658  1.0736  0.3193
   14CHTO   H61 5854   5.107   6.896   4.350 -1.0009 -0.0151 -1.3588
   14CHTO   O18 5855   4.956   6.901   4.210 -0.0716 -0.2274  0.4930
   14CHTO   C28 5856   5.031   6.838   4.109 -0.3875  0.2629 -0.3796
   14CHTO   H56 5857   5.103   6.775   4.161  1.1185  1.4897 -0.9199
   14CHTO   C35 5858   4.944   6.749   4.012  0.4081 -0.4607  0.4567
   14CHTO   O24 5859   5.012   6.674   3.917 -0.4058 -0.7196  0.0359
   14CHTO   H39 5860   4.957   6.602   3.895  2.3950 -2.9075 -0.1793
   14CHTO    O9 5861   4.958   7.021   4.419 -0.0903 -0.2639 -0.5061
   14CHTO   C13 5862   4.921   6.912   4.526 -0.6535  0.4464 -0.9570
   14CHTO   H26 5863   4.940   6.814   4.478  1.2556  0.2752  0.0778
   14CHTO   C11 5864   4.772   6.931   4.582 -0.2315 -0.8022  0.3036
   14CHTO   H24 5865   4.712   6.901   4.495  0.5046  0.5833 -0.7036
   14CHTO    O8 5866   4.732   7.063   4.602  0.3179  0.0385  0.1380
   14CHTO    H3 5867   4.806   7.120   4.617 -0.1516  0.2762  1.6362
   14CHTO    C9 5868   4.745   6.835   4.703  0.6143  0.1070 -0.2864
   14CHTO   H22 5869   4.752   6.734   4.661 -1.4382 -0.2794  0.2714
   14CHTO    N2 5870   4.607   6.828   4.756 -0.4744 -0.4836 -0.3594
   14CHTO   H10 5871   4.583   6.919   4.809 -3.6669 -0.7231 -1.3101
   14CHTO   H11 5872   4.585   6.735   4.806 -0.6797 -0.2154  0.0521
   14CHTO    C7 5873   4.858   6.850   4.823  0.3149  0.0048 -0.3115
   14CHTO   H20 5874   4.851   6.754   4.878 -0.0876  1.0297  1.4533
   14CHTO    O4 5875   4.993   6.851   4.763  0.0426  0.1478 -0.4534
   14CHTO   C14 5876   5.022   6.925   4.645 -0.1951  0.1959 -0.5329
   14CHTO   H27 5877   5.120   6.891   4.607  0.1287 -0.1149  0.5496
   14CHTO   C18 5878   5.042   7.078   4.681 -0.5547  0.4578  0.2993
   14CHTO   O13 5879   5.160   7.089   4.757 -0.4707  0.3680 -0.3977
   14CHTO    H7 5880   5.199   7.172   4.734  0.2595  0.2078  0.2516
   14CHTO    O2 5881   4.842   6.985   4.914  0.3589  0.3840 -0.5616
   14CHTO    C1 5882   4.831   6.962   5.053  0.5089 -0.0632 -0.1789
   14CHTO   H14 5883   4.823   6.852   5.066 -1.0170  0.1485  0.7930
   14CHTO    C2 5884   4.696   7.031   5.112 -0.2877 -0.1963  0.1933
   14CHTO   H15 5885   4.700   7.138   5.089 -0.3541 -0.0524  0.8319
   14CHTO    O6 5886   4.580   6.975   5.044 -0.0347  0.4874  0.7346
   14CHTO    H1 5887   4.517   6.928   5.095 -1.1101  0.7310 -0.3492
   14CHTO    C3 5888   4.690   7.013   5.269 -0.6769 -0.1974  0.5516
   14CHTO   H16 5889   4.685   6.905   5.287  0.1293 -0.6167 -1.7196
   14CHTO    N1 5890   4.568   7.067   5.335  0.3595 -0.5199 -0.4585
   14CHTO    H8 5891   4.504   7.118   5.264 -0.6529  0.4882  1.1291
   14CHTO    H9 5892   4.514   6.993   5.392 -1.0799  1.9293  1.4590
   14CHTO    C4 5893   4.826   7.063   5.335  0.3351 -0.2358  0.2819
   14CHTO   H17 5894   4.829   7.172   5.331  1.6056 -0.2967 -0.6135
   14CHTO    O1 5895   4.942   6.995   5.274 -0.5318  0.1951 -0.4868
   14CHTO    C5 5896   4.958   7.011   5.130 -0.4097  0.2344 -0.7316
   14CHTO   H18 5897   4.971   7.118   5.113  0.5356 -0.0307 -1.7478
   14CHTO   C16 5898   5.081   6.933   5.083  0.3579  0.2068  0.1206
   14CHTO   O11 5899   5.187   6.982   5.158  0.1152  0.2334  0.2068
   14CHTO    H5 5900   5.264   6.989   5.106  0.9703 -0.7289  1.3185
   14CHTO    O3 5901   4.830   7.047   5.474 -0.2211  0.6264 -0.4577
   14CHTO    C6 5902   4.940   6.997   5.559 -0.1465 -0.7797  0.3907
   14CHTO   H19 5903   5.008   6.926   5.511  0.9090 -0.3468  1.2243
   14CHTO    C8 5904   5.036   7.108   5.614  0.1758 -0.1181 -0.0843
   14CHTO   H21 5905   4.977   7.169   5.683  1.0066  0.7545 -0.1278
   14CHTO    O7 5906   5.093   7.180   5.501  0.0186 -0.2045 -0.4635
   14CHTO    H2 5907   5.036   7.251   5.476 -0.1735 -0.2582 -0.1848
   14CHTO   C12 5908   5.152   7.041   5.704  0.3106 -0.0727  0.3656
   14CHTO   H25 5909   5.207   6.971   5.638  0.0308 -1.8325  1.9804
   14CHTO    N3 5910   5.247   7.139   5.766 -0.8138  0.5550  0.1775
   14CHTO   H12 5911   5.189   7.223   5.802 -0.2423  1.5584 -1.1748
   14CHTO   H13 5912   5.320   7.161   5.689  0.6922 -1.0734  1.1085
   14CHTO   C15 5913   5.080   6.951   5.812  0.0671 -0.1782 -0.0946
   14CHTO   H28 5914   5.029   7.013   5.886 -0.0522 -0.7561  0.3105
   14CHTO   O10 5915   5.158   6.837   5.887 -0.4215 -0.2377 -0.1923
   14CHTO    H4 5916   5.112   6.799   5.960 -2.4541 -1.6304 -2.1182
   14CHTO    O5 5917   4.991   6.870   5.747  0.3721 -1.3199 -0.2904
   14CHTO   C10 5918   4.878   6.926   5.679 -0.5150 -0.5726 -1.3853
   14CHTO   H23 5919   4.829   7.005   5.736  0.7758  0.6079 -1.9033
   14CHTO   C17 5920   4.771   6.822   5.657  0.1299  0.0055  0.2302
   14CHTO   O12 5921   4.649   6.881   5.608 -0.4874 -0.2439  0.2809
   14CHTO    H6 5922   4.631   6.851   5.521 -1.2942  2.0657 -0.3883
   15CHTO  H203 5923   5.390   5.816   4.014  3.1968  0.6156 -0.7278
   15CHTO   O82 5924   5.424   5.764   4.084  0.6793 -0.1328 -0.0081
   15CHTO  C123 5925   5.470   5.632   4.033 -0.5980 -0.5551  0.8305
   15CHTO  H227 5926   5.540   5.588   4.105  1.4840  0.7401 -0.3745
   15CHTO   O77 5927   5.354   5.547   4.023  0.5698  0.2580 -0.7256
   15CHTO  C118 5928   5.355   5.432   3.940  0.3268  0.2009 -0.2343
   15CHTO  H222 5929   5.411   5.353   3.991  0.7626  1.3145  1.0384
   15CHTO  C125 5930   5.203   5.391   3.913  0.0037 -0.0639  0.1694
   15CHTO   O84 5931   5.131   5.357   4.032 -0.6055  0.0211 -0.7701
   15CHTO  H205 5932   5.130   5.263   4.036 -1.6231 -0.0950 -3.2383
   15CHTO  C114 5933   5.431   5.450   3.805  0.2524  0.0360 -0.0170
   15CHTO  H218 5934   5.367   5.505   3.737 -0.4799 -1.0732 -0.2388
   15CHTO  C116 5935   5.570   5.518   3.812  0.2631 -0.8803  0.5478
   15CHTO  H220 5936   5.638   5.446   3.863  2.1208 -0.4341 -1.2618
   15CHTO   O79 5937   5.625   5.521   3.679 -0.2070 -0.1424  0.0803
   15CHTO  H201 5938   5.634   5.610   3.650  2.5810  0.3152  2.1223
   15CHTO  C120 5939   5.543   5.655   3.892 -0.9027  0.2691 -0.8360
   15CHTO  H224 5940   5.473   5.716   3.831 -0.7980 -0.3242 -1.5644
   15CHTO   N21 5941   5.674   5.722   3.915 -0.3203  0.1218 -0.0033
   15CHTO  H211 5942   5.726   5.654   3.981  1.5638 -0.4665 -2.0300
   15CHTO  H212 5943   5.724   5.748   3.823  0.0183  2.5085  0.8135
   15CHTO   O75 5944   5.427   5.318   3.750 -0.3551 -0.1682 -0.3073
   15CHTO  C112 5945   5.553   5.203   3.806  0.4223 -0.5672  0.7199
   15CHTO  H216 5946   5.572   5.227   3.912 -2.2061 -0.6281  1.2366
   15CHTO   O73 5947   5.674   5.207   3.726  0.4019  0.1392 -0.7499
   15CHTO  C113 5948   5.786   5.130   3.781  0.2142  0.5058  0.2910
   15CHTO  H217 5949   5.812   5.155   3.886  3.2903  0.9433 -0.5156
   15CHTO  C124 5950   5.911   5.157   3.708 -0.7915  0.1514 -0.1263
   15CHTO   O83 5951   5.960   5.287   3.721 -0.1387 -0.3613 -0.1728
   15CHTO  H204 5952   6.002   5.289   3.804  0.9164 -2.6008 -0.6054
   15CHTO  C109 5953   5.749   4.975   3.777  0.3396 -0.2706  0.3849
   15CHTO  H213 5954   5.747   4.951   3.670  1.5971  0.9678  0.0592
   15CHTO  C110 5955   5.612   4.949   3.843  0.3713 -0.3083  0.7874
   15CHTO  H214 5956   5.626   4.945   3.951 -0.3653 -0.4355  0.8834
   15CHTO   O78 5957   5.574   4.817   3.810 -0.1908  0.2024  0.2805
   15CHTO  H200 5958   5.501   4.781   3.857  0.8347 -2.0562  0.2158
   15CHTO  C111 5959   5.496   5.048   3.806  0.4176  0.1065 -0.5651
   15CHTO  H215 5960   5.463   5.025   3.703  1.2601 -0.0782 -0.7942
   15CHTO   N19 5961   5.375   5.040   3.889  0.0553  0.1696  0.3289
   15CHTO  H207 5962   5.316   5.130   3.890 -1.2960 -0.6925  0.0562
   15CHTO  H208 5963   5.318   4.948   3.892 -1.0218  0.8607  2.4765
   15CHTO   O74 5964   5.856   4.894   3.833 -0.4544 -0.0182 -0.1712
   15CHTO  C115 5965   5.895   4.768   3.759  0.2994  0.1130 -0.1879
   15CHTO  H219 5966   5.812   4.719   3.707  0.3945 -0.1801 -0.0688
   15CHTO   O76 5967   6.006   4.795   3.645  0.2910  0.3798 -0.3601
   15CHTO  C122 5968   6.059   4.682   3.571 -0.3161  0.3696 -0.1072
   15CHTO  H226 5969   6.153   4.721   3.533  0.9371 -1.3091  1.1661
   15CHTO  C126 5970   5.973   4.652   3.447  0.0610 -0.2141  0.0868
   15CHTO   O85 5971   5.858   4.583   3.488 -0.4177 -0.0667  0.4581
   15CHTO  H206 5972   5.864   4.492   3.466 -0.6044 -0.1051  0.5623
   15CHTO  C121 5973   6.094   4.561   3.673 -0.1502  0.4250 -1.4759
   15CHTO  H225 5974   6.113   4.464   3.621 -0.5642 -0.3723 -0.1651
   15CHTO   O81 5975   6.220   4.599   3.735  0.2584  0.2746 -0.4620
   15CHTO  H202 5976   6.241   4.555   3.816 -2.7188 -0.8180 -0.2408
   15CHTO  C119 5977   5.980   4.535   3.778  0.5946  0.1508  0.2118
   15CHTO  H223 5978   5.890   4.509   3.722  1.1458 -0.7239 -0.2739
   15CHTO  C117 5979   5.950   4.666   3.863  0.2539 -0.0737 -0.2044
   15CHTO  H221 5980   6.033   4.719   3.908  0.6041 -1.8242  1.2495
   15CHTO   N20 5981   5.853   4.638   3.974  0.6036 -0.1044  0.2304
   15CHTO  H209 5982   5.882   4.550   4.030  0.8380 -1.3401 -1.7612
   15CHTO  H210 5983   5.828   4.725   4.032 -0.4393 -0.4786  0.3624
   15CHTO   O80 5984   6.005   4.392   3.873  0.6347 -0.3249 -0.1875
   15CHTO  C103 5985   5.919   4.260   3.833  0.5508  0.2055 -0.0705
   15CHTO  H190 5986   5.948   4.169   3.885  2.8955  1.6574  1.2399
   15CHTO  C101 5987   5.761   4.282   3.863  0.8103 -0.0549  0.0062
   15CHTO  H188 5988   5.725   4.378   3.825  1.2455  1.4267  3.1498
   15CHTO   O68 5989   5.727   4.288   4.008 -0.6130 -0.5140  0.3087
   15CHTO  H168 5990   5.791   4.328   4.063  0.3981 -2.1626  0.3647
   15CHTO   C99 5991   5.674   4.171   3.786 -0.2192 -0.5824  0.9069
   15CHTO  H186 5992   5.711   4.074   3.826 -0.7721 -1.3288 -0.3726
   15CHTO   N17 5993   5.525   4.184   3.813 -0.1999  0.0239  0.5447
   15CHTO  H174 5994   5.492   4.112   3.886 -1.1971 -0.7223 -0.6165
   15CHTO  H175 5995   5.503   4.283   3.849  0.6245  0.6062 -0.5215
   15CHTO   C97 5996   5.710   4.174   3.632  0.0031  0.0422 -0.5790
   15CHTO  H184 5997   5.688   4.279   3.603 -1.6196 -0.4525 -1.2434
   15CHTO   O64 5998   5.849   4.144   3.626  0.5110 -0.1963 -0.0761
   15CHTO  C104 5999   5.936   4.243   3.678 -0.3362  0.0081 -0.1299
   15CHTO  H191 6000   5.912   4.334   3.623  2.8922  1.2069  0.3451
   15CHTO  C108 6001   6.081   4.212   3.640  0.1938 -0.2789  0.7770
   15CHTO   O71 6002   6.139   4.089   3.692 -0.1752 -0.3554  0.4029
   15CHTO  H171 6003   6.082   4.057   3.759  0.3935  0.7960  1.4699
   15CHTO   O62 6004   5.627   4.074   3.557 -0.2070  0.0856  0.2121
   15CHTO   C91 6005   5.514   4.118   3.476  0.4581  0.0599  0.4254
   15CHTO  H178 6006   5.497   4.222   3.502 -2.0846  0.1534 -1.3732
   15CHTO   C92 6007   5.378   4.042   3.511  0.2922 -0.3370  0.4590
   15CHTO  H179 6008   5.378   4.033   3.620  1.4626 -3.9520  0.2353
   15CHTO   O66 6009   5.262   4.128   3.470 -0.1415 -0.1945 -0.4810
   15CHTO  H166 6010   5.231   4.174   3.546  0.3579  2.1307 -1.6332
   15CHTO   C93 6011   5.359   3.901   3.445  0.6018 -0.5291 -0.5484
   15CHTO  H180 6012   5.255   3.872   3.462  0.1978 -0.3711 -2.6846
   15CHTO   N16 6013   5.421   3.781   3.513  0.1283 -0.3545  0.3156
   15CHTO  H172 6014   5.372   3.771   3.608 -1.8085 -0.0151 -0.6247
   15CHTO  H173 6015   5.527   3.795   3.525 -0.3630  2.1146  1.8945
   15CHTO   C94 6016   5.393   3.907   3.289  0.5622 -0.1150 -0.1946
   15CHTO  H181 6017   5.474   3.840   3.261 -0.9374 -1.7335 -0.6517
   15CHTO   O61 6018   5.434   4.041   3.245 -0.9975  0.1351 -0.0913
   15CHTO   C95 6019   5.532   4.109   3.319 -0.2009 -0.1868  0.1115
   15CHTO  H182 6020   5.627   4.056   3.310 -0.5026 -0.5149 -1.2265
   15CHTO  C106 6021   5.560   4.251   3.272  0.4087  0.3950 -0.6280
   15CHTO   O69 6022   5.621   4.263   3.145 -0.1470 -0.0893 -0.2275
   15CHTO  H169 6023   5.695   4.320   3.142 -0.7903  0.9146  1.9727
   15CHTO   O63 6024   5.268   3.872   3.205  0.7368  0.0089 -0.5707
   15CHTO   C96 6025   5.313   3.807   3.060 -0.1499  0.0189 -0.2258
   15CHTO  H183 6026   5.422   3.806   3.055 -0.2257 -1.2250 -2.0488
   15CHTO   C98 6027   5.254   3.894   2.950 -0.3157 -0.1371  0.9220
   15CHTO  H185 6028   5.148   3.914   2.973 -0.5522 -0.0063 -0.2599
   15CHTO   O67 6029   5.327   4.020   2.956  0.2465 -0.1038 -0.0855
   15CHTO  H167 6030   5.321   4.057   3.041  0.2336  1.9793 -0.9683
   15CHTO  C102 6031   5.267   3.828   2.809  0.0101 -0.0911  0.2298
   15CHTO  H189 6032   5.374   3.826   2.782 -0.2676 -1.5867 -0.8253
   15CHTO   N18 6033   5.204   3.903   2.696 -0.7226  0.2388 -0.3129
   15CHTO  H176 6034   5.192   4.009   2.717 -0.7026  0.8452 -3.1673
   15CHTO  H177 6035   5.249   3.881   2.600 -1.1039 -1.5327 -0.0993
   15CHTO  C105 6036   5.216   3.681   2.821 -0.6332  0.5479 -0.4743
   15CHTO  H192 6037   5.109   3.685   2.840 -0.3413  0.7232  1.2249
   15CHTO   O65 6038   5.285   3.604   2.917  0.0021 -0.4110 -0.1726
   15CHTO  C100 6039   5.261   3.658   3.054 -0.6532  0.1485 -0.4073
   15CHTO  H187 6040   5.154   3.672   3.076 -0.6328  2.5951 -1.7003
   15CHTO  C107 6041   5.319   3.558   3.156  0.3691  0.3664 -0.0471
   15CHTO   O70 6042   5.258   3.431   3.145 -0.0295 -0.0313  0.0950
   15CHTO  H170 6043   5.265   3.377   3.221 -1.0707 -0.1094  0.1493
   15CHTO   O57 6044   5.258   3.605   2.664  0.0166 -0.3304  0.2329
   15CHTO   C85 6045   5.201   3.477   2.641 -0.0811  0.5522 -0.3254
   15CHTO  H157 6046   5.121   3.467   2.718 -1.6138  1.4116 -1.7698
   15CHTO   C83 6047   5.311   3.371   2.668 -0.3858  1.0221 -0.2719
   15CHTO  H155 6048   5.344   3.375   2.772  0.0295 -0.1157 -0.3552
   15CHTO   O56 6049   5.417   3.388   2.576  0.1506  0.3018  0.3620
   15CHTO  H135 6050   5.461   3.469   2.593 -2.9938  1.8566  1.4351
   15CHTO   C81 6051   5.244   3.229   2.651  0.1377 -1.1159  0.2767
   15CHTO  H153 6052   5.157   3.218   2.715 -0.6348 -0.7440 -0.7043
   15CHTO   N14 6053   5.334   3.110   2.673 -0.8239 -0.4826 -1.0254
   15CHTO  H141 6054   5.271   3.023   2.681 -0.5098 -0.4504  2.8476
   15CHTO  H142 6055   5.387   3.123   2.765 -0.3454 -2.7997 -0.9244
   15CHTO   C79 6056   5.191   3.224   2.505 -0.0010 -0.3122  0.3925
   15CHTO  H151 6057   5.136   3.130   2.499  1.4321 -1.0910 -0.7947
   15CHTO   O52 6058   5.090   3.327   2.480 -0.4485 -0.1725  0.2363
   15CHTO   C86 6059   5.146   3.460   2.496  0.2206 -0.4264 -0.0172
   15CHTO  H158 6060   5.224   3.474   2.417  1.1876  0.8814  1.1407
   15CHTO   C90 6061   5.030   3.556   2.468 -0.7567 -0.3348 -0.1581
   15CHTO   O60 6062   5.078   3.687   2.426 -0.2401  0.2766  0.4966
   15CHTO  H138 6063   5.109   3.690   2.337 -1.2830  1.5410  0.1615
   15CHTO   O50 6064   5.292   3.230   2.401  0.4035  0.3446  0.0070
   15CHTO   C73 6065   5.299   3.217   2.258  0.0192 -0.4537  0.3636
   15CHTO  H145 6066   5.215   3.266   2.207 -0.0236  0.5366  1.3749
   15CHTO   C74 6067   5.284   3.068   2.225  0.2468  0.1503  0.1026
   15CHTO  H146 6068   5.185   3.044   2.267 -0.5581 -0.5146 -2.1237
   15CHTO   O54 6069   5.285   3.059   2.081  0.2286 -0.3736 -0.1609
   15CHTO  H133 6070   5.249   2.974   2.059  0.6767 -0.9917  1.4675
   15CHTO   C75 6071   5.401   2.996   2.295  0.5118 -0.3633 -0.8651
   15CHTO  H147 6072   5.394   3.013   2.403  0.0684 -2.5742 -0.5162
   15CHTO   N13 6073   5.392   2.852   2.282 -0.0044  0.5255 -0.2291
   15CHTO  H139 6074   5.291   2.815   2.278 -0.5056  1.7082  1.1718
   15CHTO  H140 6075   5.458   2.798   2.215 -0.0362  0.8394 -0.5133
   15CHTO   C76 6076   5.542   3.055   2.247  0.3233 -0.7911  0.3681
   15CHTO  H148 6077   5.545   3.040   2.139 -1.7904  1.0173  0.0358
   15CHTO   O49 6078   5.540   3.206   2.273  0.6322 -0.3436 -0.1925
   15CHTO   C77 6079   5.431   3.268   2.203  0.8873 -0.0793  0.0106
   15CHTO  H149 6080   5.444   3.239   2.098  3.6314  0.2387  0.2191
   15CHTO   C88 6081   5.438   3.422   2.211  0.3319 -0.2847 -0.2211
   15CHTO   O58 6082   5.560   3.487   2.133  0.3178 -0.0959 -0.7529
   15CHTO  H136 6083   5.636   3.440   2.162 -0.1445 -1.0024 -0.9925
   15CHTO   O51 6084   5.675   2.998   2.300  0.7532  0.1408  0.1347
   15CHTO   C78 6085   5.791   3.032   2.221 -0.5169  0.4483  0.3856
   15CHTO  H150 6086   5.763   3.108   2.145 -0.1907  0.2163  0.0311
   15CHTO   C80 6087   5.842   2.899   2.151 -0.6726 -0.7444 -0.1420
   15CHTO  H152 6088   5.833   2.817   2.225 -2.3882 -1.8530 -1.5080
   15CHTO   O55 6089   5.733   2.868   2.055 -0.4067  0.3135 -0.9270
   15CHTO  H134 6090   5.732   2.776   2.035  0.0773  0.1665 -0.2938
   15CHTO   C84 6091   5.989   2.915   2.086  0.0017 -0.6355  0.7321
   15CHTO  H156 6092   5.977   2.983   2.001 -1.4802  0.3715  1.7291
   15CHTO   N15 6093   6.038   2.786   2.031 -0.3426  0.4261 -0.2633
   15CHTO  H143 6094   6.131   2.743   2.062 -0.7164 -0.1417  0.0834
   15CHTO  H144 6095   5.963   2.710   2.037  0.4636 -0.3435  0.2694
   15CHTO   C87 6096   6.082   2.973   2.192 -0.2420  0.1381  0.1313
   15CHTO  H159 6097   6.087   2.903   2.275  1.0099  0.5032  0.3860
   15CHTO   O53 6098   6.026   3.113   2.237 -0.1504  0.2939  0.2429
   15CHTO   C82 6099   5.906   3.089   2.315 -0.6501 -0.6454 -0.2523
   15CHTO  H154 6100   5.926   3.015   2.393 -1.2784  0.9184  1.4082
   15CHTO   C89 6101   5.863   3.220   2.388 -0.1379 -0.8843 -0.4953
   15CHTO   O59 6102   5.744   3.220   2.477 -0.1030 -0.4530 -0.1243
   15CHTO  H137 6103   5.778   3.217   2.564 -0.1282 -0.2691 -0.1097
   15CHTO   O45 6104   6.235   2.999   2.143  0.0108 -0.1990  0.5757
   15CHTO   C67 6105   6.312   3.060   2.249 -0.7288 -0.0624 -0.2510
   15CHTO  H124 6106   6.250   3.130   2.303 -0.8873  0.2140 -0.7881
   15CHTO   C65 6107   6.366   2.944   2.346 -0.8071  0.3061  0.3604
   15CHTO  H122 6108   6.356   2.844   2.304 -1.0437 -0.0465  1.2556
   15CHTO   O44 6109   6.279   2.946   2.458 -0.1467  0.5702 -0.1211
   15CHTO  H102 6110   6.286   2.862   2.499 -1.2242  0.5058 -0.0672
   15CHTO   C63 6111   6.520   2.953   2.371  0.3004  0.1085 -0.1472
   15CHTO  H120 6112   6.574   2.923   2.281 -0.9603  2.2967 -1.6935
   15CHTO   N11 6113   6.575   2.854   2.467 -0.5718  0.3400 -0.2638
   15CHTO  H108 6114   6.529   2.759   2.449 -0.1793  0.5042 -2.1765
   15CHTO  H109 6115   6.555   2.885   2.568  1.3945  1.6888 -0.2751
   15CHTO   C61 6116   6.566   3.102   2.401  0.7235  0.1219  0.4829
   15CHTO  H118 6117   6.675   3.103   2.414  0.9564 -0.6359 -1.1764
   15CHTO   O40 6118   6.533   3.196   2.297  0.2702  0.7510  0.5546
   15CHTO   C68 6119   6.435   3.149   2.190 -0.2710 -0.3186  0.5556
   15CHTO  H125 6120   6.484   3.086   2.112  0.4485  1.1257 -0.1825
   15CHTO   C72 6121   6.379   3.275   2.112 -0.2424 -0.4245 -0.0360
   15CHTO   O48 6122   6.471   3.311   2.007  0.6870 -1.0071  0.4658
   15CHTO  H105 6123   6.433   3.382   1.959 -0.3610 -0.2061  2.4133
   15CHTO   O38 6124   6.498   3.150   2.517 -0.1169 -0.0681  0.0740
   15CHTO   C55 6125   6.521   3.287   2.559 -0.1723  0.3886  0.3547
   15CHTO  H112 6126   6.544   3.349   2.471  1.3733 -0.7777 -0.0771
   15CHTO   C56 6127   6.625   3.309   2.682 -0.0103  0.2440 -0.6187
   15CHTO  H113 6128   6.579   3.254   2.766  0.9091  1.9265  0.9984
   15CHTO   O42 6129   6.759   3.256   2.649 -0.5111 -0.3653  0.4873
   15CHTO  H100 6130   6.829   3.318   2.646 -0.3138 -0.6355 -3.5095
   15CHTO   C57 6131   6.634   3.463   2.719  0.1334  0.0147  0.5852
   15CHTO  H114 6132   6.665   3.518   2.630  1.5760 -0.5441  0.7228
   15CHTO   N10 6133   6.732   3.496   2.823 -0.3472 -0.5949 -0.0427
   15CHTO  H106 6134   6.740   3.604   2.821  4.5326 -0.8336 -0.4345
   15CHTO  H107 6135   6.697   3.464   2.920 -2.3007  2.2266  0.2280
   15CHTO   C58 6136   6.496   3.510   2.760  0.2555  0.2965 -0.4644
   15CHTO  H115 6137   6.468   3.456   2.852  2.2157 -0.6765 -0.4202
   15CHTO   O37 6138   6.401   3.483   2.657 -0.2436  0.1621 -0.0018
   15CHTO   C59 6139   6.385   3.346   2.605 -0.4417  0.4760 -0.0599
   15CHTO  H116 6140   6.348   3.283   2.685  0.9463 -0.5764 -0.2191
   15CHTO   C70 6141   6.277   3.351   2.495  0.3354  0.3507 -0.3694
   15CHTO   O46 6142   6.298   3.438   2.384  0.3562  0.5018  0.3806
   15CHTO  H103 6143   6.215   3.478   2.365 -0.5145 -1.4324  0.0153
   15CHTO   O39 6144   6.478   3.668   2.799  0.0431 -0.4344  0.1818
   15CHTO   C60 6145   6.403   3.688   2.921 -0.2201 -0.8810 -0.3238
   15CHTO  H117 6146   6.326   3.613   2.941 -1.9591  0.8175 -0.5339
   15CHTO   C62 6147   6.507   3.699   3.044 -0.2603  0.4324 -0.0319
   15CHTO  H119 6148   6.550   3.598   3.058 -2.3930 -0.3683  0.9022
   15CHTO   O43 6149   6.610   3.799   3.018  0.6159  0.5335 -0.3431
   15CHTO  H101 6150   6.619   3.824   2.928 -1.4365  0.4642 -0.5988
   15CHTO   C66 6151   6.409   3.728   3.175 -0.0912 -0.1224 -0.2135
   15CHTO  H123 6152   6.330   3.652   3.175  1.9376 -2.3936 -3.6256
   15CHTO   N12 6153   6.491   3.733   3.295 -0.4850  0.0202 -0.8832
   15CHTO  H110 6154   6.422   3.755   3.375  1.0389 -0.0265  0.4649
   15CHTO  H111 6155   6.527   3.634   3.319 -1.5662 -0.7199 -2.3068
   15CHTO   C69 6156   6.328   3.859   3.142  0.1529 -0.1099 -0.2754
   15CHTO  H126 6157   6.399   3.945   3.144 -0.1025  0.1160 -0.8072
   15CHTO   O41 6158   6.257   3.859   3.023 -0.7307 -0.4315  0.1259
   15CHTO   C64 6159   6.336   3.827   2.902 -0.1531 -0.0131  0.1908
   15CHTO  H121 6160   6.416   3.902   2.891  0.6911 -1.1320 -1.4095
   15CHTO   C71 6161   6.243   3.842   2.775  0.1261 -0.1494 -0.1563
   15CHTO   O47 6162   6.181   3.973   2.786  0.8009 -0.3321 -0.4235
   15CHTO  H104 6163   6.110   3.969   2.726  0.1188 -1.6453  0.4439
   15CHTO   O34 6164   6.231   3.877   3.243  0.3097 -0.4907  0.4593
   15CHTO   C49 6165   6.129   4.006   3.300 -0.7395  0.2210  0.1976
   15CHTO   H91 6166   6.194   4.070   3.359 -0.5481  0.2866 -0.0859
   15CHTO   C47 6167   6.022   3.942   3.393 -0.5477  0.7007 -0.2823
   15CHTO   H89 6168   5.969   4.031   3.432 -1.1157 -0.1325  0.8536
   15CHTO   O33 6169   6.093   3.873   3.497 -0.4593  0.2186  0.6275
   15CHTO   H70 6170   6.106   3.935   3.566  0.3242  1.2142 -0.3967
   15CHTO   C45 6171   5.917   3.851   3.313  0.8911  0.4703 -0.0559
   15CHTO   H87 6172   5.960   3.750   3.300 -2.6444 -1.4488  2.2058
   15CHTO    N8 6173   5.792   3.835   3.392 -0.5225  0.0340 -0.1890
   15CHTO   H75 6174   5.792   3.878   3.491 -1.1564  1.2005 -0.6867
   15CHTO   H76 6175   5.768   3.730   3.384  2.6622 -0.6431 -1.7480
   15CHTO   C43 6176   5.908   3.912   3.164  0.0451 -0.1207 -0.6159
   15CHTO   H85 6177   5.989   3.867   3.106  3.5023  3.0089  1.5145
   15CHTO   O29 6178   5.917   4.058   3.166  0.4737 -0.4367 -0.0551
   15CHTO   C50 6179   6.054   4.095   3.192  0.2359  0.5958 -0.1559
   15CHTO   H92 6180   6.119   4.094   3.103  1.9821  0.5204  1.0960
   15CHTO   C54 6181   6.047   4.246   3.221 -0.4343  0.2732 -0.2554
   15CHTO   O36 6182   5.938   4.276   3.319 -0.3363 -0.0529 -0.2376
   15CHTO   H72 6183   5.937   4.220   3.394  1.0906 -2.8538 -2.2356
   15CHTO   O27 6184   5.786   3.885   3.100 -0.2223 -0.2094  0.0298
   15CHTO   C37 6185   5.774   3.809   2.981 -0.7164 -0.3842  0.1706
   15CHTO   H79 6186   5.868   3.774   2.936 -2.6169 -0.3366 -4.0841
   15CHTO   C38 6187   5.707   3.676   3.020  0.8103 -0.6305 -0.3574
   15CHTO   H80 6188   5.612   3.697   3.071  0.1748 -1.4947 -1.1642
   15CHTO   O31 6189   5.790   3.606   3.115  0.5046 -0.1836  0.0053
   15CHTO   H68 6190   5.741   3.530   3.142 -0.5359  0.1079 -1.0473
   15CHTO   C39 6191   5.682   3.596   2.886  0.4798 -0.2233  0.3280
   15CHTO   H81 6192   5.781   3.571   2.849  1.0379 -0.6277  2.0798
   15CHTO    N7 6193   5.607   3.466   2.917  0.6612  0.6311 -0.3365
   15CHTO   H73 6194   5.589   3.451   3.023 -3.2034 -1.1825 -1.1534
   15CHTO   H74 6195   5.654   3.379   2.874 -2.4982 -0.9517 -0.7321
   15CHTO   C40 6196   5.596   3.683   2.783  0.2382 -0.2596  0.4678
   15CHTO   H82 6197   5.499   3.697   2.832 -0.1840  0.7400 -0.6510
   15CHTO   O26 6198   5.665   3.808   2.761 -0.0103 -0.3575 -0.1882
   15CHTO   C41 6199   5.692   3.889   2.878  0.3669 -0.0824 -0.1005
   15CHTO   H83 6200   5.604   3.928   2.931  1.1079 -1.2059  1.9820
   15CHTO   C52 6201   5.791   4.006   2.837 -0.1871  0.2124  0.6415
   15CHTO   O35 6202   5.749   4.127   2.906  0.4645  0.1033  0.0039
   15CHTO   H71 6203   5.788   4.196   2.855  1.3765  0.1243  0.7239
   15CHTO   O28 6204   5.563   3.613   2.661 -0.3605 -0.2575  0.2043
   15CHTO   C42 6205   5.639   3.626   2.535  0.3563  0.1809  0.1482
   15CHTO   H84 6206   5.611   3.538   2.476 -2.8552  0.7999  0.6354
   15CHTO   C44 6207   5.794   3.624   2.548 -0.1142  0.4661  0.4996
   15CHTO   H86 6208   5.824   3.708   2.610  1.7866  0.1228  0.0655
   15CHTO   O32 6209   5.825   3.497   2.604  0.0007  0.0429  0.1667
   15CHTO   H69 6210   5.763   3.474   2.670 -0.0505  1.0113  0.4652
   15CHTO   C48 6211   5.854   3.651   2.402  0.3113 -0.4188 -0.3500
   15CHTO   H90 6212   5.828   3.568   2.336 -0.4099 -1.4692  1.2284
   15CHTO    N9 6213   6.001   3.657   2.410 -0.1592  0.3413 -0.3109
   15CHTO   H77 6214   6.048   3.725   2.480 -0.8059  0.1933  0.2669
   15CHTO   H78 6215   6.059   3.567   2.393  1.4215  1.4279 -0.8787
   15CHTO   C51 6216   5.799   3.788   2.357 -0.2007  0.7779  0.3091
   15CHTO   H93 6217   5.822   3.867   2.428 -0.2974 -0.1918  1.4249
   15CHTO   O30 6218   5.657   3.767   2.338  0.2760 -0.1785  0.3958
   15CHTO   C46 6219   5.591   3.752   2.460 -0.7507 -0.9214  0.4550
   15CHTO   H88 6220   5.622   3.838   2.519  1.6553 -0.6455 -1.1206
   15CHTO   C53 6221   5.439   3.743   2.428  0.1826  0.8606  0.5285
   15CHTO   O72 6222   5.398   3.876   2.387  0.0001 -0.2834  0.4439
   15CHTO  H199 6223   5.304   3.878   2.380 -0.0602 -3.5351 -0.1686
   15CHTO   O22 6224   5.835   3.818   2.220 -0.0992  0.3683  0.1904
   15CHTO   C31 6225   5.816   3.954   2.164 -0.2173 -0.1937 -0.0629
   15CHTO   H59 6226   5.853   3.947   2.059  1.2080 -2.9379  0.5882
   15CHTO   C29 6227   5.666   4.000   2.154 -0.6660  0.1777  0.2379
   15CHTO   H57 6228   5.619   3.983   2.251 -0.2843 -1.8720  0.0864
   15CHTO   O21 6229   5.593   3.909   2.062  0.3706 -0.4267 -0.1046
   15CHTO   H37 6230   5.520   3.862   2.098  1.4410 -0.6815  1.8141
   15CHTO   C27 6231   5.656   4.153   2.113  0.3890  0.5910 -0.1397
   15CHTO   H55 6232   5.691   4.170   2.010  0.1121 -0.8962 -0.4965
   15CHTO    N5 6233   5.516   4.201   2.129 -0.0331 -0.0672  0.5062
   15CHTO   H43 6234   5.489   4.192   2.233  0.1441 -0.9852  0.4861
   15CHTO   H44 6235   5.502   4.303   2.097 -0.1247 -0.7826 -1.8342
   15CHTO   C25 6236   5.759   4.240   2.199 -0.8815 -0.0662  0.0434
   15CHTO   H53 6237   5.735   4.233   2.306  1.9899  0.3510  0.7594
   15CHTO   O17 6238   5.890   4.196   2.175  0.0951  0.0556 -0.3247
   15CHTO   C32 6239   5.907   4.066   2.233 -0.1323 -0.3554 -0.4817
   15CHTO   H60 6240   5.876   4.067   2.337  0.3061 -2.5629 -0.3016
   15CHTO   C36 6241   6.060   4.044   2.219 -0.2159 -0.6528 -1.0011
   15CHTO   O25 6242   6.127   4.137   2.302 -0.5821  0.8700  0.8885
   15CHTO   H40 6243   6.137   4.096   2.386 -0.9306 -1.3023 -0.0983
   15CHTO   O15 6244   5.762   4.375   2.151  0.2769 -0.4513 -0.2741
   15CHTO   C19 6245   5.788   4.511   2.192 -0.3919 -0.1135  0.1690
   15CHTO   H47 6246   5.828   4.559   2.101  1.8928 -0.6504  0.8435
   15CHTO   C20 6247   5.663   4.588   2.253  0.4607 -0.8670  0.0755
   15CHTO   H48 6248   5.609   4.527   2.326  2.2534 -2.9672 -0.2964
   15CHTO   O19 6249   5.579   4.597   2.137 -0.2788  0.0874 -0.1551
   15CHTO   H35 6250   5.512   4.661   2.151 -1.0167 -0.4894 -1.0081
   15CHTO   C21 6251   5.705   4.735   2.307 -0.5161  0.9283  0.4031
   15CHTO   H49 6252   5.745   4.792   2.223 -0.4524 -2.6909 -2.0900
   15CHTO    N4 6253   5.589   4.821   2.353 -0.0139  0.0125  0.5140
   15CHTO   H41 6254   5.502   4.794   2.294  0.6100  0.5187 -0.6591
   15CHTO   H42 6255   5.577   4.796   2.457  1.3946 -0.1750  0.6325
   15CHTO   C22 6256   5.829   4.715   2.405  0.0842  0.7261  0.0017
   15CHTO   H50 6257   5.798   4.648   2.485  1.5517  1.0027  0.8330
   15CHTO   O14 6258   5.939   4.657   2.336  0.0697 -0.0091  0.0069
   15CHTO   C23 6259   5.912   4.523   2.297  0.2484  0.0255 -0.2143
   15CHTO   H51 6260   5.902   4.454   2.382  0.0467 -0.2777 -0.4836
   15CHTO   C34 6261   6.042   4.463   2.236  0.9207 -0.1741  0.3553
   15CHTO   O23 6262   6.160   4.466   2.315 -0.3478 -0.1330 -0.0887
   15CHTO   H38 6263   6.147   4.427   2.400  2.3681 -1.1855 -0.1318
   15CHTO   O16 6264   5.877   4.840   2.463 -0.1099  0.7176 -0.1650
   15CHTO   C24 6265   5.951   4.828   2.620  0.4079  0.4775 -0.0979
   15CHTO   H52 6266   5.935   4.729   2.663 -0.7269  0.6649 -0.0727
   15CHTO   C26 6267   5.894   4.928   2.723 -0.3915 -0.4598 -0.2117
   15CHTO   H54 6268   5.914   5.030   2.686  0.7235 -0.4996  0.2647
   15CHTO   O20 6269   5.752   4.912   2.723  0.1140  0.1053  0.5870
   15CHTO   H36 6270   5.732   4.844   2.785 -0.2808 -1.0598 -0.7905
   15CHTO   C30 6271   5.954   4.916   2.865  0.3648  0.3087 -0.7164
   15CHTO   H58 6272   5.917   4.824   2.912 -2.5708  0.4616 -2.5921
   15CHTO    N6 6273   5.898   5.012   2.968 -0.1546  0.2885 -0.1354
   15CHTO   H45 6274   5.937   4.999   3.068 -0.3763 -2.0645 -0.3149
   15CHTO   H46 6275   5.894   5.117   2.945 -1.2792 -0.0015 -1.2959
   15CHTO   C33 6276   6.113   4.917   2.851 -1.4573 -0.1571 -0.4878
   15CHTO   H61 6277   6.149   5.019   2.831 -1.3969 -0.1806 -0.4943
   15CHTO   O18 6278   6.156   4.825   2.745  0.1406  0.1528  0.0764
   15CHTO   C28 6279   6.105   4.849   2.612  0.3914 -0.0265  0.3327
   15CHTO   H56 6280   6.121   4.954   2.590 -2.1540  0.6816  1.7187
   15CHTO   C35 6281   6.175   4.757   2.507 -0.0736 -0.1983  0.2259
   15CHTO   O24 6282   6.319   4.768   2.508 -0.1938  0.1595  0.1568
   15CHTO   H39 6283   6.352   4.684   2.531  1.0799  0.2636 -1.1825
   15CHTO    O9 6284   6.174   4.880   2.975  0.8085 -0.1822 -0.2843
   15CHTO   C13 6285   6.309   4.952   3.018 -0.0931 -0.3087  0.0876
   15CHTO   H26 6286   6.308   5.058   2.985 -0.2152 -0.0697  0.8531
   15CHTO   C11 6287   6.427   4.874   2.954 -0.1024  0.5570 -0.3679
   15CHTO   H24 6288   6.416   4.890   2.845 -0.5502  0.0971 -0.3896
   15CHTO    O8 6289   6.422   4.730   2.969 -0.3439 -0.3298  0.6879
   15CHTO    H3 6290   6.346   4.698   2.924 -0.4041  0.6776  0.0475
   15CHTO    C9 6291   6.560   4.939   3.007 -0.1331  0.0426  0.1107
   15CHTO   H22 6292   6.540   5.046   2.995  0.4791  0.0763 -0.6420
   15CHTO    N2 6293   6.680   4.913   2.927 -0.3437 -0.2592  0.6125
   15CHTO   H10 6294   6.776   4.920   2.977  0.0087 -1.2702  0.1037
   15CHTO   H11 6295   6.672   4.819   2.874 -2.1387 -0.0881  0.5633
   15CHTO    C7 6296   6.562   4.916   3.162 -0.3962 -0.4046  0.1376
   15CHTO   H20 6297   6.648   4.977   3.196 -2.0688  2.5598 -0.7239
   15CHTO    O4 6298   6.451   4.975   3.225  0.7372  0.1819  0.2543
   15CHTO   C14 6299   6.322   4.964   3.173 -0.1491 -0.1987 -0.1783
   15CHTO   H27 6300   6.288   5.067   3.199 -3.4478 -0.8903 -1.5529
   15CHTO   C18 6301   6.233   4.868   3.258  0.2192 -0.5177  0.4976
   15CHTO   O13 6302   6.242   4.735   3.216 -0.3144 -0.0211  0.4225
   15CHTO    H7 6303   6.173   4.720   3.153  0.1270  1.3099 -0.4039
   15CHTO    O2 6304   6.581   4.765   3.208 -0.0268 -0.3796  0.2012
   15CHTO    C1 6305   6.708   4.727   3.246  0.2284  0.0995 -0.7389
   15CHTO   H14 6306   6.776   4.806   3.208 -1.5213  1.0420 -1.9744
   15CHTO    C2 6307   6.743   4.594   3.176 -0.7463  0.5048 -0.6655
   15CHTO   H15 6308   6.676   4.517   3.214  1.9619 -2.5699 -1.8540
   15CHTO    O6 6309   6.732   4.614   3.036  0.2579  0.2348  0.3323
   15CHTO    H1 6310   6.738   4.532   2.990  1.5668  0.7552 -0.4353
   15CHTO    C3 6311   6.898   4.552   3.208  0.3135  0.1793  0.2444
   15CHTO   H16 6312   6.962   4.636   3.177  0.2887 -0.5967 -1.9306
   15CHTO    N1 6313   6.954   4.433   3.135  0.2138 -0.5997 -0.2068
   15CHTO    H8 6314   6.913   4.348   3.187  0.3462  0.5295  1.8077
   15CHTO    H9 6315   6.926   4.442   3.032  0.9736  0.1262 -0.3585
   15CHTO    C4 6316   6.913   4.547   3.364 -0.7105 -0.4860  0.0072
   15CHTO   H17 6317   6.866   4.456   3.399 -1.7491  1.2841  3.4806
   15CHTO    O1 6318   6.861   4.674   3.427 -0.8278 -0.3747 -0.2832
   15CHTO    C5 6319   6.724   4.712   3.399  0.0812  0.2034 -0.6287
   15CHTO   H18 6320   6.663   4.633   3.441  0.7011  1.1328  2.1398
   15CHTO   C16 6321   6.696   4.844   3.470 -0.4513 -0.2184 -0.4717
   15CHTO   O11 6322   6.554   4.860   3.488 -0.0311 -0.3162 -0.3380
   15CHTO    H5 6323   6.533   4.951   3.478  2.0761  0.2728  0.3185
   15CHTO    O3 6324   7.054   4.557   3.404  0.3952  0.0528 -0.0323
   15CHTO    C6 6325   7.076   4.479   3.533  0.0281 -0.5087  0.4667
   15CHTO   H19 6326   6.984   4.465   3.590  0.2465  0.2451  1.0176
   15CHTO    C8 6327   7.136   4.339   3.504  0.9870 -0.7408 -0.3599
   15CHTO   H21 6328   7.233   4.356   3.457  0.5461  0.6325 -0.8012
   15CHTO    O7 6329   7.038   4.268   3.425 -0.0396  0.1085 -0.3166
   15CHTO    H2 6330   6.966   4.230   3.472  0.6476 -2.9129 -1.5809
   15CHTO   C12 6331   7.174   4.266   3.634 -1.0471 -0.1490  0.5084
   15CHTO   H25 6332   7.083   4.255   3.696 -1.1161  0.9320  0.6110
   15CHTO    N3 6333   7.222   4.130   3.624 -0.3038 -0.4731 -0.3520
   15CHTO   H12 6334   7.272   4.094   3.713  3.6068 -0.2798 -2.4035
   15CHTO   H13 6335   7.282   4.106   3.538 -1.1884 -1.6222 -0.6543
   15CHTO   C15 6336   7.273   4.364   3.723 -0.2759  0.3536 -0.0161
   15CHTO   H28 6337   7.367   4.383   3.671 -1.1831  1.3154 -1.3633
   15CHTO   O10 6338   7.300   4.304   3.881 -0.1318  0.0635 -0.0666
   15CHTO    H4 6339   7.371   4.243   3.874  0.1123  0.5776 -2.4419
   15CHTO    O5 6340   7.193   4.479   3.744  0.4777  0.0808 -0.1856
   15CHTO   C10 6341   7.172   4.559   3.625  0.0035  0.4380 -0.0093
   15CHTO   H23 6342   7.274   4.567   3.587  0.5778 -1.3886  1.0346
   15CHTO   C17 6343   7.126   4.693   3.671  0.4462 -0.0130 -0.5788
   15CHTO   O12 6344   7.226   4.758   3.750 -0.3284 -0.5260  0.3141
   15CHTO    H6 6345   7.286   4.807   3.696 -0.4310 -0.0930  0.5931
   16CHTO  H203 6346   5.147   4.363   2.483  0.5576 -0.5833  0.7014
   16CHTO   O82 6347   5.230   4.399   2.459  0.2110  0.1392  0.5834
   16CHTO  C123 6348   5.318   4.416   2.567  0.5280  0.4722 -0.1351
   16CHTO  H227 6349   5.269   4.383   2.659 -1.7216  1.0607 -1.0745
   16CHTO   O77 6350   5.422   4.330   2.513  0.0505  0.2451 -0.6537
   16CHTO  C118 6351   5.522   4.314   2.618 -0.4591 -0.0842  0.4172
   16CHTO  H222 6352   5.466   4.268   2.700  0.8462 -1.2661  0.6664
   16CHTO  C125 6353   5.630   4.218   2.561  0.0140  0.3861 -0.3632
   16CHTO   O84 6354   5.565   4.097   2.520  0.2755 -0.2692 -0.0057
   16CHTO  H205 6355   5.620   4.022   2.536  2.7638  1.6870  0.9451
   16CHTO  C114 6356   5.589   4.444   2.656 -0.0538 -0.5583  0.4271
   16CHTO  H218 6357   5.660   4.474   2.579 -1.7311  1.8099 -0.2563
   16CHTO  C116 6358   5.498   4.562   2.678  0.0041  0.5662  0.7261
   16CHTO  H220 6359   5.469   4.558   2.785  0.5138 -0.1500  0.8410
   16CHTO   O79 6360   5.580   4.682   2.673 -0.3231 -0.2640  0.3323
   16CHTO  H201 6361   5.547   4.757   2.718 -0.8197 -0.4137  0.2154
   16CHTO  C120 6362   5.370   4.565   2.576 -0.4967  0.0468  0.0329
   16CHTO  H224 6363   5.405   4.600   2.477 -1.2347 -2.3548 -1.1098
   16CHTO   N21 6364   5.259   4.652   2.634 -0.2679  0.0168  0.2163
   16CHTO  H211 6365   5.294   4.746   2.674  2.3949 -1.3178  1.1274
   16CHTO  H212 6366   5.168   4.671   2.579 -0.0556  2.0115  0.5139
   16CHTO   O75 6367   5.664   4.417   2.775 -0.2457  0.1312  0.5676
   16CHTO  C112 6368   5.813   4.472   2.784  0.3690  0.0381 -0.2669
   16CHTO  H216 6369   5.812   4.565   2.725  3.2819 -0.2552 -0.8413
   16CHTO   O73 6370   5.898   4.379   2.724  0.1956 -0.3977  0.1900
   16CHTO  C113 6371   6.037   4.405   2.727 -0.0090 -0.6929  0.7587
   16CHTO  H217 6372   6.049   4.485   2.651  1.5402 -1.6148  0.0037
   16CHTO  C124 6373   6.110   4.286   2.666 -0.1075  0.2269  0.7181
   16CHTO   O83 6374   6.061   4.270   2.537  0.0025  0.1930  0.2225
   16CHTO  H204 6375   6.118   4.201   2.507 -0.9763 -0.7256  0.4274
   16CHTO  C109 6376   6.079   4.412   2.873 -0.0836 -0.4255 -0.1400
   16CHTO  H213 6377   6.052   4.317   2.922 -0.0405 -1.1570 -1.5214
   16CHTO  C110 6378   6.006   4.530   2.941  0.9578 -0.8659  1.0943
   16CHTO  H214 6379   6.030   4.618   2.882 -1.3586 -0.8904  0.0501
   16CHTO   O78 6380   6.063   4.544   3.076 -0.1416 -0.3026  0.3657
   16CHTO  H200 6381   6.016   4.478   3.124  0.4339 -0.3417  0.8723
   16CHTO  C111 6382   5.853   4.496   2.933 -0.5612 -0.5495 -0.1307
   16CHTO  H215 6383   5.842   4.398   2.982  2.7874 -0.4993  0.8508
   16CHTO   N19 6384   5.764   4.600   2.997  0.5386  0.1035 -0.2455
   16CHTO  H207 6385   5.752   4.675   2.920 -0.5342 -0.9009 -1.0690
   16CHTO  H208 6386   5.674   4.551   3.028  0.5064 -0.2406 -0.8668
   16CHTO   O74 6387   6.230   4.444   2.877 -0.4021  0.3746  0.1873
   16CHTO  C115 6388   6.319   4.314   2.913  0.5345 -0.8216 -0.4721
   16CHTO  H219 6389   6.262   4.237   2.965  0.2557 -0.0238  0.4240
   16CHTO   O76 6390   6.375   4.240   2.790  0.0992 -0.5121 -0.0246
   16CHTO  C122 6391   6.522   4.243   2.761 -0.4187  0.0091 -0.8057
   16CHTO  H226 6392   6.541   4.345   2.725 -0.2923  0.0694 -0.5701
   16CHTO  C126 6393   6.551   4.151   2.647 -0.3612 -0.0889  0.5285
   16CHTO   O85 6394   6.504   4.016   2.677 -0.4902 -0.1081  0.2143
   16CHTO  H206 6395   6.566   3.973   2.733 -0.9632  2.7461  3.0546
   16CHTO  C121 6396   6.615   4.218   2.887 -0.5737  0.4042 -0.6880
   16CHTO  H225 6397   6.658   4.116   2.892 -1.1475  0.2312  1.3066
   16CHTO   O81 6398   6.732   4.301   2.879 -0.1486 -0.2305  0.0128
   16CHTO  H202 6399   6.713   4.390   2.902 -1.1914 -0.4351 -0.0261
   16CHTO  C119 6400   6.545   4.251   3.023  0.5319 -0.2621  0.5473
   16CHTO  H223 6401   6.481   4.164   3.035  1.1988 -0.4240  3.2817
   16CHTO  C117 6402   6.442   4.365   3.002 -0.2027  0.2002  0.0369
   16CHTO  H221 6403   6.477   4.455   2.951 -0.8155  0.7616  0.5898
   16CHTO   N20 6404   6.387   4.411   3.133  0.1022  0.1785 -0.4274
   16CHTO  H209 6405   6.289   4.369   3.152 -0.3742  1.9579  1.1836
   16CHTO  H210 6406   6.455   4.409   3.217 -0.6896 -0.0023  0.2168
   16CHTO   O80 6407   6.647   4.240   3.158 -0.4184  0.2749  0.0348
   16CHTO  C103 6408   6.684   4.102   3.224 -0.3942  0.5562  0.2008
   16CHTO  H190 6409   6.636   4.014   3.181 -0.4173  0.0302  1.2957
   16CHTO  C101 6410   6.833   4.063   3.215 -0.0222  0.3495  0.5236
   16CHTO  H188 6411   6.890   4.146   3.256  2.1748 -0.1883 -1.2973
   16CHTO   O68 6412   6.872   4.062   3.065  0.1794 -0.5745 -0.0381
   16CHTO  H168 6413   6.965   4.052   3.050  0.4448  1.8177 -0.0920
   16CHTO   C99 6414   6.872   3.932   3.290  0.1582  0.2894 -0.2533
   16CHTO  H186 6415   6.823   3.849   3.235 -1.6924  1.2931 -0.1421
   16CHTO   N17 6416   7.015   3.901   3.278 -0.0796  0.2936 -0.6536
   16CHTO  H174 6417   7.042   3.809   3.327  0.3147  0.7293 -0.0439
   16CHTO  H175 6418   7.075   3.914   3.190  0.4091 -1.6022 -0.6075
   16CHTO   C97 6419   6.815   3.936   3.436 -0.5124 -0.1982 -0.4770
   16CHTO  H184 6420   6.877   4.010   3.489 -1.7990  0.6167 -0.0873
   16CHTO   O64 6421   6.676   3.980   3.431 -0.1747  0.1222 -0.9321
   16CHTO  C104 6422   6.648   4.109   3.375 -0.0285  0.4797  0.2305
   16CHTO  H191 6423   6.712   4.184   3.421  1.2859  0.6988 -1.9146
   16CHTO  C108 6424   6.506   4.154   3.403  0.0300  0.0313 -0.3497
   16CHTO   O71 6425   6.469   4.132   3.539  1.1219 -0.4445  0.1331
   16CHTO  H171 6426   6.382   4.160   3.560  2.2442  3.1727  0.2574
   16CHTO   O62 6427   6.817   3.805   3.499 -0.0703 -0.6900 -0.2463
   16CHTO   C91 6428   6.833   3.804   3.643 -0.8375  0.2170 -0.4880
   16CHTO  H178 6429   6.912   3.877   3.658 -1.0132  0.3504 -0.2069
   16CHTO   C92 6430   6.885   3.659   3.678 -0.6158  0.1308 -0.2119
   16CHTO  H179 6431   6.963   3.637   3.604 -0.1004 -0.7592  0.5861
   16CHTO   O66 6432   6.955   3.657   3.807 -0.1472  0.2580  0.3969
   16CHTO  H166 6433   7.007   3.580   3.822  1.1647  1.3671  1.8412
   16CHTO   C93 6434   6.771   3.560   3.700  0.5858  0.1384 -0.5979
   16CHTO  H180 6435   6.805   3.482   3.770 -3.1574 -1.4728 -0.4329
   16CHTO   N16 6436   6.736   3.478   3.580  0.8299  0.5825  0.3764
   16CHTO  H172 6437   6.667   3.518   3.507  0.0750 -2.6976 -0.7921
   16CHTO  H173 6438   6.703   3.386   3.626 -2.2329  1.7047  0.5714
   16CHTO   C94 6439   6.646   3.619   3.760 -0.8082 -0.1882 -0.4531
   16CHTO  H181 6440   6.568   3.633   3.686 -0.2599  1.1897 -0.7940
   16CHTO   O61 6441   6.668   3.748   3.826 -0.0602  0.7454  0.3281
   16CHTO   C95 6442   6.698   3.851   3.730 -0.2400 -0.2129  0.3510
   16CHTO  H182 6443   6.618   3.851   3.655 -1.3593 -2.4532  1.5095
   16CHTO  C106 6444   6.729   3.986   3.799 -0.0372  0.8101  0.7581
   16CHTO   O69 6445   6.741   4.103   3.717  0.1242 -0.8078  0.2081
   16CHTO  H169 6446   6.787   4.086   3.638  0.7011  0.5420  0.2351
   16CHTO   O63 6447   6.584   3.513   3.882  0.2949 -0.8458  0.8899
   16CHTO   C96 6448   6.433   3.551   3.896  0.6480 -0.1656 -0.1606
   16CHTO  H183 6449   6.377   3.522   3.807  0.9852 -0.6187 -0.2233
   16CHTO   C98 6450   6.393   3.706   3.923 -0.6657  0.2386  0.2000
   16CHTO  H185 6451   6.455   3.772   3.860 -0.7143 -0.2784 -0.4005
   16CHTO   O67 6452   6.263   3.724   3.868 -0.4490 -0.0627  0.1543
   16CHTO  H167 6453   6.269   3.726   3.774 -1.0785  3.6630  0.1122
   16CHTO  C102 6454   6.392   3.754   4.081  0.2670 -0.1475  0.0206
   16CHTO  H189 6455   6.339   3.850   4.087 -2.1512 -1.4490  0.1075
   16CHTO   N18 6456   6.526   3.785   4.133  0.3787 -0.4836 -0.3340
   16CHTO  H176 6457   6.581   3.692   4.124  1.5585  0.2784 -1.1204
   16CHTO  H177 6458   6.576   3.866   4.082 -0.6264  0.3381 -0.0231
   16CHTO  C105 6459   6.313   3.651   4.164 -0.1174 -0.0684 -0.3401
   16CHTO  H192 6460   6.374   3.610   4.245  0.0901  2.9550  1.1380
   16CHTO   O65 6461   6.271   3.533   4.094 -0.4888  0.9167  0.3378
   16CHTO  C100 6462   6.380   3.466   4.021 -0.0218 -0.1519  0.0673
   16CHTO  H187 6463   6.467   3.464   4.088 -0.5477 -0.4896  0.7550
   16CHTO  C107 6464   6.345   3.324   3.981  0.1152 -0.3379  0.0390
   16CHTO   O70 6465   6.456   3.234   3.954 -0.1814 -0.8502  0.1682
   16CHTO  H170 6466   6.429   3.145   3.966  1.1385 -0.9569  2.5428
   16CHTO   O57 6467   6.194   3.741   4.254 -0.7867  0.1660 -0.3840
   16CHTO   C85 6468   6.103   3.838   4.197  0.3549  0.1911 -0.2070
   16CHTO  H157 6469   6.121   3.833   4.088 -1.4880 -0.9146 -0.4780
   16CHTO   C83 6470   6.139   3.982   4.242  0.2952 -0.0669 -0.1627
   16CHTO  H155 6471   6.242   4.009   4.219  0.0708 -0.7710 -2.1342
   16CHTO   O56 6472   6.133   3.990   4.385 -0.1460 -0.2780 -0.2064
   16CHTO  H135 6473   6.213   3.969   4.428  0.7511  1.6397 -0.8829
   16CHTO   C81 6474   6.048   4.083   4.169 -0.6336  0.0816  0.3820
   16CHTO  H153 6475   6.054   4.072   4.061 -0.9466  0.6145  0.3020
   16CHTO   N14 6476   6.106   4.224   4.187 -0.2051  0.0903 -0.2140
   16CHTO  H141 6477   6.170   4.250   4.106  0.8207 -0.4680  0.4015
   16CHTO  H142 6478   6.168   4.222   4.275 -1.7056 -1.7446  0.8376
   16CHTO   C79 6479   5.900   4.051   4.214  0.2549  0.1689 -0.5473
   16CHTO  H151 6480   5.836   4.108   4.147  0.1797  1.7486  0.8542
   16CHTO   O52 6481   5.869   3.911   4.179  0.4262  0.1653  0.4258
   16CHTO   C86 6482   5.950   3.813   4.235  0.3894  0.5687  0.2000
   16CHTO  H158 6483   5.926   3.823   4.343 -2.1645 -0.8981 -0.1936
   16CHTO   C90 6484   5.907   3.669   4.185  0.1242  0.6449  0.2584
   16CHTO   O60 6485   5.988   3.574   4.248  0.0029 -0.5206 -0.0170
   16CHTO  H138 6486   5.990   3.482   4.229 -0.3272 -1.1534  2.7630
   16CHTO   O50 6487   5.856   4.085   4.343 -0.3070 -0.8793 -0.1290
   16CHTO   C73 6488   5.805   4.098   4.471 -0.0844 -0.6867 -0.1482
   16CHTO  H145 6489   5.885   4.073   4.543 -0.5596  2.0375  1.4408
   16CHTO   C74 6490   5.681   4.008   4.485  0.0706 -0.0145 -0.0059
   16CHTO  H146 6491   5.711   3.908   4.454 -0.2598 -0.3670  0.7811
   16CHTO   O54 6492   5.648   4.002   4.624  0.1550 -0.0604  0.0419
   16CHTO  H133 6493   5.620   3.915   4.644 -1.1234 -0.0251 -1.4931
   16CHTO   C75 6494   5.563   4.068   4.389  0.0871  0.5332  0.2440
   16CHTO  H147 6495   5.603   4.077   4.287  0.2388  2.4402  0.4662
   16CHTO   N13 6496   5.444   3.976   4.384  0.3233 -0.5677  0.5775
   16CHTO  H139 6497   5.451   3.899   4.459  2.8209 -0.8321  0.0868
   16CHTO  H140 6498   5.430   3.948   4.280 -1.5156  0.0929  0.6208
   16CHTO   C76 6499   5.532   4.213   4.426 -0.1592  0.3148  0.4308
   16CHTO  H148 6500   5.477   4.209   4.521 -0.4292  1.7585  0.3580
   16CHTO   O49 6501   5.647   4.298   4.433 -0.2285 -0.0343  0.1304
   16CHTO   C77 6502   5.762   4.244   4.497 -0.5331  0.1792  0.4179
   16CHTO  H149 6503   5.737   4.247   4.603 -0.4080  2.0226  0.4142
   16CHTO   C88 6504   5.873   4.346   4.466  0.4640  0.0828 -0.4556
   16CHTO   O58 6505   5.879   4.413   4.325 -0.5187 -0.4581  0.0581
   16CHTO  H136 6506   5.803   4.466   4.314  0.8409  1.3046 -1.0774
   16CHTO   O51 6507   5.435   4.272   4.302  0.5579  0.0043  0.1532
   16CHTO   C78 6508   5.380   4.425   4.353 -0.2218  0.0240 -0.1653
   16CHTO  H150 6509   5.463   4.480   4.403 -0.0688 -1.2107  0.9471
   16CHTO   C80 6510   5.262   4.417   4.453 -0.4646  0.3217  0.2375
   16CHTO  H152 6511   5.180   4.362   4.402  2.5904  0.3282 -5.1294
   16CHTO   O55 6512   5.291   4.335   4.567 -0.7741  0.4298 -0.2677
   16CHTO  H134 6513   5.319   4.252   4.534  0.0241  0.6591 -0.1638
   16CHTO   C84 6514   5.211   4.561   4.494  0.0009 -0.0887 -0.1718
   16CHTO  H156 6515   5.291   4.604   4.554 -0.9046  2.0548 -0.4500
   16CHTO   N15 6516   5.093   4.570   4.584 -0.1248 -0.3878  0.4412
   16CHTO  H143 6517   5.116   4.540   4.684 -0.7617 -0.4264  0.5788
   16CHTO  H144 6518   5.039   4.662   4.588 -1.0071 -0.8675 -0.1565
   16CHTO   C87 6519   5.193   4.650   4.370  0.5100  0.1755 -0.1548
   16CHTO  H159 6520   5.101   4.627   4.316 -1.2521  1.2362  2.2740
   16CHTO   O53 6521   5.317   4.646   4.268  0.2332  0.0486 -0.1836
   16CHTO   C82 6522   5.344   4.511   4.230 -0.3102  0.2310 -0.0145
   16CHTO  H154 6523   5.265   4.458   4.177  1.1956 -1.0960 -0.9809
   16CHTO   C89 6524   5.469   4.513   4.135  0.2347  0.6900  0.0717
   16CHTO   O59 6525   5.442   4.608   4.038  0.8273 -0.3502 -0.5766
   16CHTO  H137 6526   5.356   4.592   4.004  0.3503  1.6297 -0.3826
   16CHTO   O45 6527   5.167   4.816   4.422 -0.0084  0.2067 -0.0604
   16CHTO   C67 6528   5.281   4.907   4.413  0.4811  0.0067 -0.3411
   16CHTO  H124 6529   5.366   4.859   4.366 -0.0673 -2.6727  1.2840
   16CHTO   C65 6530   5.250   5.033   4.318 -0.3779  0.1151 -0.1036
   16CHTO  H122 6531   5.145   5.056   4.336 -0.6637 -2.2682  1.4585
   16CHTO   O44 6532   5.268   4.981   4.182  0.2361 -0.2777  0.1027
   16CHTO  H102 6533   5.189   4.947   4.145 -0.5726 -1.6337  2.8980
   16CHTO   C63 6534   5.324   5.165   4.365  0.5212  0.7148  0.0417
   16CHTO  H120 6535   5.267   5.206   4.449  2.4199  1.4572  1.0013
   16CHTO   N11 6536   5.322   5.272   4.266  0.3078 -0.0540 -0.1218
   16CHTO  H108 6537   5.385   5.353   4.299 -1.1308  1.9668 -2.1542
   16CHTO  H109 6538   5.229   5.313   4.232 -1.2360  0.0596  3.9386
   16CHTO   C61 6539   5.467   5.131   4.412 -0.9056  0.1600  0.5180
   16CHTO  H118 6540   5.512   5.221   4.456 -1.7242  0.6342  0.3715
   16CHTO   O40 6541   5.464   5.032   4.517 -0.2826 -0.5387 -0.2300
   16CHTO   C68 6542   5.337   4.963   4.546  0.5566  0.8021  0.2442
   16CHTO  H125 6543   5.268   5.036   4.593 -1.2318 -1.4307  1.1969
   16CHTO   C72 6544   5.349   4.851   4.649 -0.4699 -0.2234 -0.4111
   16CHTO   O48 6545   5.419   4.890   4.765  0.0359 -0.5184  0.2506
   16CHTO  H105 6546   5.431   4.982   4.778  2.0222 -1.0098  2.2458
   16CHTO   O38 6547   5.546   5.087   4.299  0.3654  0.6471 -0.0860
   16CHTO   C55 6548   5.691   5.074   4.319 -0.2408 -0.6036  0.7352
   16CHTO  H112 6549   5.727   5.075   4.423 -1.7514  1.5791  1.2946
   16CHTO   C56 6550   5.755   5.196   4.236  1.4240  0.8569  0.3283
   16CHTO  H113 6551   5.700   5.184   4.141  3.2378  0.5666 -0.7123
   16CHTO   O42 6552   5.720   5.321   4.293 -0.2710 -0.7038  0.3355
   16CHTO  H100 6553   5.755   5.331   4.380 -1.0627 -1.0409  0.6961
   16CHTO   C57 6554   5.911   5.186   4.221  0.1901 -0.2216  0.1150
   16CHTO  H114 6555   5.956   5.221   4.314  0.8333  0.4310 -0.4293
   16CHTO   N10 6556   5.971   5.279   4.125  1.1374  0.1060  0.3296
   16CHTO  H106 6557   5.913   5.303   4.037  0.4993  0.5574  0.8621
   16CHTO  H107 6558   5.999   5.373   4.172  2.0052 -0.6548  1.3746
   16CHTO   C58 6559   5.958   5.039   4.187  0.2902 -0.6205  0.4209
   16CHTO  H115 6560   5.928   5.021   4.082 -0.9583 -0.7678  0.7898
   16CHTO   O37 6561   5.889   4.940   4.272  0.1862 -0.2419 -0.2968
   16CHTO   C59 6562   5.746   4.938   4.263 -0.3208 -0.1678 -0.0431
   16CHTO  H116 6563   5.719   4.917   4.159  0.9448  0.6222 -0.5439
   16CHTO   C70 6564   5.705   4.815   4.344  0.0050  0.0145 -0.1273
   16CHTO   O46 6565   5.743   4.691   4.289 -0.1170 -0.1250 -0.0854
   16CHTO  H103 6566   5.716   4.676   4.200 -2.0073 -0.6572  0.5533
   16CHTO   O39 6567   6.137   5.017   4.197 -0.7231  0.4538 -0.0661
   16CHTO   C60 6568   6.189   4.933   4.099  0.4304 -0.9083  0.4677
   16CHTO  H117 6569   6.112   4.874   4.048  0.1991  1.0925 -1.5631
   16CHTO   C62 6570   6.241   5.018   3.983  0.0511  0.4864 -0.4831
   16CHTO  H119 6571   6.156   5.068   3.933 -2.2447 -0.9191  1.9221
   16CHTO   O43 6572   6.341   5.107   4.037 -0.3847 -0.0763 -0.4047
   16CHTO  H101 6573   6.423   5.085   3.998 -0.4870  0.5672 -0.9966
   16CHTO   C66 6574   6.302   4.916   3.873 -0.0685  0.1959 -0.2773
   16CHTO  H123 6575   6.221   4.848   3.843  0.4850 -0.7147  0.2827
   16CHTO   N12 6576   6.329   4.984   3.750 -0.6804 -0.1482 -0.3268
   16CHTO  H110 6577   6.387   4.919   3.686  0.1850  0.9664 -0.6855
   16CHTO  H111 6578   6.245   5.025   3.696 -0.6792 -0.4608 -0.5621
   16CHTO   C69 6579   6.417   4.832   3.926 -0.2146  0.0733  0.2133
   16CHTO  H126 6580   6.487   4.906   3.970 -2.1861  2.4968 -0.5852
   16CHTO   O41 6581   6.370   4.744   4.060  0.4284 -0.3217 -0.4456
   16CHTO   C64 6582   6.292   4.832   4.167  0.1661  0.5571 -0.6047
   16CHTO  H121 6583   6.368   4.895   4.218 -0.7275  1.2920 -0.1694
   16CHTO   C71 6584   6.214   4.752   4.270  0.0764  0.0998 -0.5654
   16CHTO   O47 6585   6.143   4.651   4.203  0.1036 -0.1628 -0.3928
   16CHTO  H104 6586   6.051   4.649   4.222  0.4788  2.1927  1.9935
   16CHTO   O34 6587   6.481   4.733   3.823 -0.4675  0.6873 -0.0161
   16CHTO   C49 6588   6.618   4.662   3.818 -0.7844  0.0815  0.1041
   16CHTO   H91 6589   6.670   4.715   3.737 -0.1671 -0.6488  0.0163
   16CHTO   C47 6590   6.604   4.511   3.783 -0.6426 -0.1439 -0.2280
   16CHTO   H89 6591   6.699   4.460   3.761  0.4799  3.5853 -4.9408
   16CHTO   O33 6592   6.527   4.519   3.661 -0.3328  0.0277  0.1865
   16CHTO   H70 6593   6.499   4.438   3.622  1.6873  0.3559 -2.1041
   16CHTO   C45 6594   6.525   4.444   3.906  0.5359  0.9282  0.0647
   16CHTO   H87 6595   6.431   4.498   3.920  0.8833  1.7304 -0.7127
   16CHTO    N8 6596   6.493   4.300   3.894 -0.0113 -0.4508  0.0844
   16CHTO   H75 6597   6.574   4.232   3.915 -1.0723 -0.9388  2.7874
   16CHTO   H76 6598   6.447   4.282   3.798  1.3718 -2.0914 -0.3020
   16CHTO   C43 6599   6.595   4.467   4.049 -0.2731  0.2162 -0.7410
   16CHTO   H85 6600   6.524   4.433   4.124  0.5826 -1.7990 -0.8171
   16CHTO   O29 6601   6.639   4.607   4.068 -0.2397  0.1176  0.3131
   16CHTO   C50 6602   6.696   4.671   3.952  0.0775  0.5286  0.2726
   16CHTO   H92 6603   6.709   4.780   3.962 -2.4397  1.0489 -1.7405
   16CHTO   C54 6604   6.846   4.635   3.934 -0.1672  0.8922 -0.3350
   16CHTO   O36 6605   6.936   4.706   4.024  0.4915 -0.7278  0.6350
   16CHTO   H72 6606   6.914   4.701   4.115 -2.1657  1.5389  0.1955
   16CHTO   O27 6607   6.713   4.386   4.056  0.4641  0.2797 -0.1218
   16CHTO   C37 6608   6.791   4.305   4.148 -0.3410 -0.5511 -0.0637
   16CHTO   H79 6609   6.867   4.369   4.194 -0.4585  0.8983 -1.8201
   16CHTO   C38 6610   6.707   4.234   4.254 -0.2269 -0.5992 -0.4099
   16CHTO   H80 6611   6.623   4.182   4.206 -1.3531 -0.8579  1.7838
   16CHTO   O31 6612   6.645   4.338   4.339  0.5064 -0.3179  0.1280
   16CHTO   H68 6613   6.682   4.342   4.425  1.2340 -1.0430 -0.1410
   16CHTO   C39 6614   6.792   4.133   4.340 -0.0937  0.0062  0.7510
   16CHTO   H81 6615   6.865   4.182   4.404  0.0879 -0.0382  0.5768
   16CHTO    N7 6616   6.713   4.053   4.437  0.4191 -0.4893  0.5076
   16CHTO   H73 6617   6.792   3.997   4.485  0.9409  0.8552  1.2409
   16CHTO   H74 6618   6.643   3.984   4.394 -1.3899  1.7252 -0.2105
   16CHTO   C40 6619   6.868   4.042   4.250 -0.0276  0.5247 -0.3397
   16CHTO   H82 6620   6.805   3.969   4.200  0.6345  0.2948 -0.8457
   16CHTO   O26 6621   6.945   4.109   4.152  0.7986 -0.2982 -0.3578
   16CHTO   C41 6622   6.864   4.193   4.060 -0.6365 -0.1221  0.0802
   16CHTO   H83 6623   6.784   4.131   4.016 -2.7478  1.5613  1.4101
   16CHTO   C52 6624   6.953   4.249   3.948  0.7401  0.7172 -0.6015
   16CHTO   O35 6625   7.052   4.347   4.008 -0.9731 -0.0024 -0.7414
   16CHTO   H71 6626   7.060   4.422   3.953  1.8934  1.4335  1.4859
   16CHTO   O28 6627   6.981   3.976   4.311 -0.2415  0.1070 -0.1722
   16CHTO   C42 6628   6.993   3.826   4.313 -0.7764  0.1294 -0.3390
   16CHTO   H84 6629   7.098   3.818   4.285 -0.6606  2.2095 -0.5480
   16CHTO   C44 6630   6.914   3.729   4.213 -0.0135  0.4986 -0.1953
   16CHTO   H86 6631   6.809   3.756   4.226 -0.2626 -0.3191 -0.5062
   16CHTO   O32 6632   6.972   3.769   4.089 -0.1954  0.1052 -0.5736
   16CHTO   H69 6633   6.960   3.861   4.073 -2.7362 -0.3325 -1.4511
   16CHTO   C48 6634   6.929   3.577   4.236  0.8046 -0.5826  0.7736
   16CHTO   H90 6635   7.030   3.550   4.205  0.9637  1.7425 -0.8254
   16CHTO    N9 6636   6.833   3.496   4.154 -0.8006  0.0275  0.4431
   16CHTO   H77 6637   6.804   3.561   4.073 -0.4516  1.7117  1.6393
   16CHTO   H78 6638   6.745   3.465   4.208 -1.2494  0.3875 -0.0791
   16CHTO   C51 6639   6.918   3.549   4.385 -0.6605 -0.1758 -1.1373
   16CHTO   H93 6640   6.820   3.583   4.418 -0.1907  0.4215 -0.3184
   16CHTO   O30 6641   7.025   3.628   4.450 -0.3247  0.2152  0.7171
   16CHTO   C46 6642   6.981   3.772   4.460  0.8661 -0.3380 -0.1832
   16CHTO   H88 6643   6.885   3.776   4.510  1.1167 -0.0127  0.2784
   16CHTO   C53 6644   7.075   3.840   4.563 -0.1040 -0.9624 -0.1593
   16CHTO   O72 6645   7.038   3.974   4.603  0.3684  0.3756  0.1654
   16CHTO  H199 6646   6.991   4.027   4.541 -1.0328  1.6395  2.2162
   16CHTO   O22 6647   6.949   3.411   4.418 -0.1788 -0.1062  0.0293
   16CHTO   C31 6648   6.880   3.354   4.537  0.4369 -0.7115  0.0874
   16CHTO   H59 6649   6.923   3.253   4.554 -1.6286 -1.4062  1.2992
   16CHTO   C29 6650   6.910   3.441   4.665  0.7665 -0.7944 -0.0021
   16CHTO   H57 6651   6.885   3.545   4.639  1.2613 -1.2293 -2.3322
   16CHTO   O21 6652   7.050   3.444   4.697  0.2837 -0.6485  0.5566
   16CHTO   H37 6653   7.085   3.488   4.622  0.2861  1.7436  1.8955
   16CHTO   C27 6654   6.818   3.398   4.787 -0.0656  0.3514  0.0080
   16CHTO   H55 6655   6.835   3.293   4.815 -1.7538  0.0564 -0.0576
   16CHTO    N5 6656   6.835   3.486   4.908 -0.3434 -0.2859  0.2522
   16CHTO   H43 6657   6.939   3.471   4.931 -0.0543  1.1493 -0.0877
   16CHTO   H44 6658   6.770   3.455   4.989 -0.3206 -0.1379  0.3265
   16CHTO   C25 6659   6.674   3.384   4.742 -0.0689 -0.0782 -0.1279
   16CHTO   H53 6660   6.628   3.481   4.718  0.1664 -0.0006 -0.2729
   16CHTO   O17 6661   6.667   3.297   4.629  0.1186  0.4821 -0.5640
   16CHTO   C32 6662   6.732   3.334   4.509  0.4797  0.3811  0.3465
   16CHTO   H60 6663   6.682   3.424   4.473 -0.9211 -0.5909 -0.1896
   16CHTO   C36 6664   6.717   3.222   4.401 -0.1825 -0.7003 -0.4254
   16CHTO   O25 6665   6.586   3.219   4.341 -0.2295 -0.0159 -0.2792
   16CHTO   H40 6666   6.592   3.179   4.257  0.5504 -0.9225  0.1987
   16CHTO   O15 6667   6.573   3.319   4.840  0.3414 -0.7458 -0.1894
   16CHTO   C19 6668   6.481   3.330   4.955 -0.1601  0.4599  0.1368
   16CHTO   H47 6669   6.536   3.391   5.028  1.4057 -0.0709 -0.5700
   16CHTO   C20 6670   6.352   3.402   4.921  0.0442 -0.1591 -0.5800
   16CHTO   H48 6671   6.302   3.355   4.835  0.1330  0.3151 -0.8921
   16CHTO   O19 6672   6.386   3.534   4.883 -0.1749 -0.2743  0.2711
   16CHTO   H35 6673   6.310   3.574   4.844  0.5103 -0.5506 -1.4173
   16CHTO   C21 6674   6.259   3.405   5.041  0.9541  0.1216  0.0992
   16CHTO   H49 6675   6.302   3.469   5.118  0.8844 -0.4556  0.6193
   16CHTO    N4 6676   6.124   3.456   5.010  0.6362  0.5688  0.1128
   16CHTO   H41 6677   6.096   3.462   4.906  0.5022 -0.9463  0.0558
   16CHTO   H42 6678   6.108   3.551   5.059  1.9302  0.6754  0.3573
   16CHTO   C22 6679   6.244   3.261   5.104 -0.7435  0.8039 -0.4302
   16CHTO   H50 6680   6.185   3.199   5.036 -1.3413  0.4854  0.3626
   16CHTO   O14 6681   6.377   3.203   5.137 -0.0811  0.1508 -0.2261
   16CHTO   C23 6682   6.460   3.195   5.022  0.5165  0.2198 -0.3544
   16CHTO   H51 6683   6.416   3.125   4.950 -1.8993  2.1127 -0.7786
   16CHTO   C34 6684   6.581   3.116   5.069  0.3498 -0.5578 -0.2366
   16CHTO   O23 6685   6.680   3.079   4.975 -0.2132  0.1945  0.0875
   16CHTO   H38 6686   6.767   3.114   4.986  0.0494 -0.8119  1.2655
   16CHTO   O16 6687   6.172   3.255   5.233 -0.0276  0.1159  0.6315
   16CHTO   C24 6688   6.146   3.113   5.281  0.3623 -0.2753  0.9996
   16CHTO   H52 6689   6.206   3.042   5.224 -1.3630  0.2173 -1.5570
   16CHTO   C26 6690   5.992   3.097   5.255  0.3773 -0.0776  0.3067
   16CHTO   H54 6691   5.941   3.185   5.299  1.3152  0.5847  0.0872
   16CHTO   O20 6692   5.966   3.096   5.114  0.4718 -0.5759 -0.3836
   16CHTO   H36 6693   5.920   3.174   5.090 -0.0263 -1.1414 -1.2974
   16CHTO   C30 6694   5.950   2.965   5.326 -0.4370  0.1208  0.2727
   16CHTO   H58 6695   6.006   2.878   5.287 -0.0425 -1.5748  4.3129
   16CHTO    N6 6696   5.801   2.936   5.315 -0.0292  0.0909 -0.0049
   16CHTO   H45 6697   5.745   2.935   5.407 -1.7089  0.4458 -0.9972
   16CHTO   H46 6698   5.777   2.848   5.258  1.8786 -0.2550 -0.3063
   16CHTO   C33 6699   5.986   2.965   5.481 -0.1000  0.5665  0.2573
   16CHTO   H61 6700   5.935   3.047   5.533  1.2064  1.3676  0.3028
   16CHTO   O18 6701   6.126   2.986   5.485  0.0306 -0.3624  0.4870
   16CHTO   C28 6702   6.182   3.106   5.438  0.2444 -0.5852  0.1604
   16CHTO   H56 6703   6.130   3.182   5.495 -0.7561 -0.7902 -0.4574
   16CHTO   C35 6704   6.338   3.117   5.457 -0.1549  0.8620  0.4230
   16CHTO   O24 6705   6.376   3.091   5.594 -0.7202  0.2664  0.2150
   16CHTO   H39 6706   6.468   3.071   5.603 -0.2744  1.9678 -0.3162
   16CHTO    O9 6707   5.957   2.840   5.552  0.7608 -0.0150 -0.3645
   16CHTO   C13 6708   5.939   2.860   5.718 -0.1073  0.0482 -1.0857
   16CHTO   H26 6709   5.848   2.922   5.725  0.2252  0.4404 -0.1777
   16CHTO   C11 6710   6.057   2.933   5.786  0.1471 -0.1516 -0.5040
   16CHTO   H24 6711   6.061   3.035   5.745  0.7649 -0.2074 -0.5963
   16CHTO    O8 6712   6.181   2.861   5.754 -0.9724 -0.5491  0.5062
   16CHTO    H3 6713   6.200   2.794   5.817 -0.3599 -0.5643  0.3121
   16CHTO    C9 6714   6.025   2.933   5.937  0.1510 -0.3036 -0.7826
   16CHTO   H22 6715   5.924   2.974   5.953  0.1099 -1.3778  2.0353
   16CHTO    N2 6716   6.102   3.035   6.008 -0.3682  0.0089  0.6525
   16CHTO   H10 6717   6.208   3.013   6.002 -0.2476  0.9796 -1.1449
   16CHTO   H11 6718   6.075   3.137   5.984 -3.4737 -1.1529 -0.9485
   16CHTO    C7 6719   6.026   2.790   6.003 -0.3273  0.0905 -0.5403
   16CHTO   H20 6720   5.963   2.797   6.095 -1.4307 -2.6158 -1.0528
   16CHTO    O4 6721   5.965   2.690   5.923  0.4366 -0.2035 -0.6494
   16CHTO   C14 6722   5.922   2.716   5.785  0.0363  0.6885  0.0574
   16CHTO   H27 6723   5.814   2.690   5.791  0.7519 -2.4181 -0.0376
   16CHTO   C18 6724   5.990   2.609   5.700  0.5304  0.5393  0.1715
   16CHTO   O13 6725   5.936   2.479   5.723  0.8735 -0.1251 -0.0135
   16CHTO    H7 6726   5.858   2.469   5.673  1.2157 -0.0568 -0.5648
   16CHTO    O2 6727   6.176   2.745   6.030  0.6591 -0.0462  0.6058
   16CHTO    C1 6728   6.186   2.632   6.115  0.0203  0.4509  0.3942
   16CHTO   H14 6729   6.107   2.556   6.100  0.1102  0.1814  1.2531
   16CHTO    C2 6730   6.182   2.676   6.270 -0.0969 -0.3714  0.5278
   16CHTO   H15 6731   6.242   2.767   6.266 -1.1593  0.2841 -1.1109
   16CHTO    O6 6732   6.042   2.697   6.295  0.5700 -0.1615  0.1887
   16CHTO    H1 6733   6.004   2.749   6.227 -0.7803  0.2590  1.2457
   16CHTO    C3 6734   6.236   2.575   6.380 -0.3244 -0.1962 -0.2812
   16CHTO   H16 6735   6.157   2.504   6.406 -0.8255 -0.2924 -2.0002
   16CHTO    N1 6736   6.264   2.641   6.510  0.0103  0.2480 -0.1357
   16CHTO    H8 6737   6.330   2.727   6.510  2.4556 -1.5699 -1.4233
   16CHTO    H9 6738   6.296   2.570   6.585  1.2349  0.1669 -0.7162
   16CHTO    C4 6739   6.354   2.495   6.326 -1.1480 -0.1342  0.1475
   16CHTO   H17 6740   6.450   2.546   6.332  0.0845 -2.2323 -1.2067
   16CHTO    O1 6741   6.330   2.459   6.191  0.1828  0.8560 -1.0945
   16CHTO    C5 6742   6.322   2.563   6.093  0.4585 -0.0124 -0.0743
   16CHTO   H18 6743   6.398   2.640   6.103 -1.4141  1.8740 -0.0764
   16CHTO   C16 6744   6.329   2.516   5.949 -0.1183 -0.0094  0.3747
   16CHTO   O11 6745   6.232   2.423   5.899 -0.2357  0.0171  0.3683
   16CHTO    H5 6746   6.196   2.444   5.815 -1.0609 -2.8517 -0.0657
   16CHTO    O3 6747   6.369   2.377   6.402 -0.0162  0.3283 -0.1420
   16CHTO    C6 6748   6.473   2.280   6.362 -0.4181 -0.5766 -0.1208
   16CHTO   H19 6749   6.501   2.276   6.257  0.4203 -1.9631  0.1524
   16CHTO    C8 6750   6.614   2.318   6.437  1.1472  0.0208 -0.5190
   16CHTO   H21 6751   6.600   2.333   6.544  1.9117  2.4901 -0.7283
   16CHTO    O7 6752   6.663   2.445   6.390 -0.3424  0.0131  0.1497
   16CHTO    H2 6753   6.622   2.522   6.424  0.7742  1.7106 -2.1718
   16CHTO   C12 6754   6.718   2.199   6.413  0.0569 -0.1609 -0.1799
   16CHTO   H25 6755   6.748   2.208   6.307  0.3134  1.1351 -0.0094
   16CHTO    N3 6756   6.840   2.220   6.500  0.0345  0.8358 -0.3667
   16CHTO   H12 6757   6.801   2.235   6.599 -0.5135  0.3520 -0.5050
   16CHTO   H13 6758   6.903   2.302   6.468 -0.2725  0.8632 -0.9135
   16CHTO   C15 6759   6.656   2.056   6.443  0.1557  0.4207 -0.6928
   16CHTO   H28 6760   6.629   2.038   6.547 -0.2106 -2.1145 -1.2009
   16CHTO   O10 6761   6.760   1.945   6.383  0.4567 -0.0472 -0.4436
   16CHTO    H4 6762   6.755   1.857   6.416  0.6610 -0.4602 -1.5033
   16CHTO    O5 6763   6.531   2.039   6.364  0.4249 -0.1246 -0.3270
   16CHTO   C10 6764   6.428   2.135   6.400  0.0214  0.0887 -0.7056
   16CHTO   H23 6765   6.407   2.130   6.507 -0.0380  0.5390 -0.6966
   16CHTO   C17 6766   6.295   2.098   6.327 -0.1805  0.0304  0.0902
   16CHTO   O12 6767   6.235   1.976   6.341  0.2895  0.2290  0.2702
   16CHTO    H6 6768   6.263   1.935   6.421  0.7464  0.5234  0.2603
   17CHTO  H203 6769   6.205   5.386   7.008 -1.3584  0.6813  1.5664
   17CHTO   O82 6770   6.286   5.416   7.045  0.3808 -0.5775 -1.0583
   17CHTO  C123 6771   6.268   5.517   7.145 -0.5190  0.0061  0.5664
   17CHTO  H227 6772   6.349   5.591   7.142 -2.0568  1.6397 -1.3273
   17CHTO   O77 6773   6.155   5.592   7.096 -0.1049  0.0906  0.4496
   17CHTO  C118 6774   6.129   5.714   7.170 -0.2489 -0.9989  0.3111
   17CHTO  H222 6775   6.226   5.766   7.176  0.0285 -1.2519 -1.6368
   17CHTO  C125 6776   6.026   5.807   7.093 -0.0758  0.1863 -0.2325
   17CHTO   O84 6777   6.085   5.860   6.974  0.3153  0.0113  0.3442
   17CHTO  H205 6778   6.025   5.927   6.949  0.2974  0.5935  1.8730
   17CHTO  C114 6779   6.086   5.682   7.318  0.9661 -0.6234 -0.0412
   17CHTO  H218 6780   5.992   5.628   7.309 -0.3980  2.0911 -2.6046
   17CHTO  C116 6781   6.196   5.585   7.383  0.0111  0.3980  0.0626
   17CHTO  H220 6782   6.285   5.649   7.402  0.7122 -1.1603  2.2956
   17CHTO   O79 6783   6.144   5.545   7.508 -0.1595  0.3006  0.7531
   17CHTO  H201 6784   6.205   5.486   7.549 -0.4892 -2.0866 -2.0014
   17CHTO  C120 6785   6.242   5.460   7.293 -0.1493 -0.6911 -1.1416
   17CHTO  H224 6786   6.157   5.390   7.305  0.5641 -1.3893 -0.0420
   17CHTO   N21 6787   6.365   5.395   7.344  0.3921 -0.2380 -0.1041
   17CHTO  H211 6788   6.428   5.462   7.401  0.1433 -1.1830  1.3210
   17CHTO  H212 6789   6.345   5.295   7.380  0.1140  0.0685  0.6010
   17CHTO   O75 6790   6.061   5.812   7.380  0.0189 -0.2791  0.1664
   17CHTO  C112 6791   6.176   5.890   7.450  0.0544 -0.2124  0.5723
   17CHTO  H216 6792   6.256   5.888   7.374  0.0549 -2.7028  0.6050
   17CHTO   O73 6793   6.214   5.824   7.565 -0.5120 -0.4120 -0.4143
   17CHTO  C113 6794   6.329   5.888   7.627 -0.7592  0.5900  0.2888
   17CHTO  H217 6795   6.398   5.917   7.545  1.1572 -2.1731  0.8540
   17CHTO  C124 6796   6.386   5.795   7.732  0.0995 -0.7100 -0.0640
   17CHTO   O83 6797   6.295   5.781   7.843 -0.5267 -0.0120  0.3199
   17CHTO  H204 6798   6.314   5.850   7.904 -0.9037 -0.3399  0.8167
   17CHTO  C109 6799   6.291   6.030   7.679 -0.5266  0.0881 -0.4385
   17CHTO  H213 6800   6.223   6.021   7.765  0.8589  1.0787  0.7849
   17CHTO  C110 6801   6.224   6.119   7.571  0.1830  0.2133 -0.5905
   17CHTO  H214 6802   6.309   6.165   7.519  0.6887 -1.2550 -1.0770
   17CHTO   O78 6803   6.161   6.227   7.630  0.1699  0.0131 -0.1902
   17CHTO  H200 6804   6.071   6.209   7.651 -0.0089 -0.0182 -0.9824
   17CHTO  C111 6805   6.128   6.038   7.476 -0.0167  0.6557  0.6247
   17CHTO  H215 6806   6.034   6.028   7.532 -0.5640  1.3421 -0.1596
   17CHTO   N19 6807   6.097   6.105   7.353  0.1183 -0.3915  0.4219
   17CHTO  H207 6808   6.019   6.045   7.309  0.7978  0.4243 -1.9757
   17CHTO  H208 6809   6.040   6.191   7.386  1.2419  0.7959 -0.6282
   17CHTO   O74 6810   6.416   6.091   7.722 -0.2827  0.2168 -0.6557
   17CHTO  C115 6811   6.399   6.183   7.859 -0.5529  0.5777 -0.6953
   17CHTO  H219 6812   6.297   6.216   7.876 -0.1693  0.0278  3.1696
   17CHTO   O76 6813   6.427   6.101   7.981  0.0630 -0.2830 -0.3927
   17CHTO  C122 6814   6.573   6.103   8.006  0.5183  0.2156 -0.0524
   17CHTO  H226 6815   6.628   6.060   7.922  0.8279  1.9313 -0.7320
   17CHTO  C126 6816   6.606   6.010   8.128  0.3208  0.6089 -0.7047
   17CHTO   O85 6817   6.603   5.869   8.105 -0.4243  0.1208 -0.0833
   17CHTO  H206 6818   6.659   5.843   8.034  0.4827 -2.1416  1.4119
   17CHTO  C121 6819   6.641   6.245   8.028 -0.4051  0.0798  0.3133
   17CHTO  H225 6820   6.659   6.262   8.137 -0.8776 -1.2232  0.5993
   17CHTO   O81 6821   6.776   6.243   7.966  0.1273  0.3373  0.0106
   17CHTO  H202 6822   6.811   6.329   7.947 -0.2233  0.6196  0.6362
   17CHTO  C119 6823   6.549   6.354   7.971 -0.6571 -0.3442  0.1268
   17CHTO  H223 6824   6.460   6.369   8.033 -0.1724  1.7207  0.3714
   17CHTO  C117 6825   6.491   6.302   7.831 -0.8093 -0.3098  0.3153
   17CHTO  H221 6826   6.567   6.277   7.757  1.6008  0.8140  2.3255
   17CHTO   N20 6827   6.418   6.416   7.764  0.4673  0.7429  1.0249
   17CHTO  H209 6828   6.489   6.471   7.704 -0.6198  0.6149 -0.3903
   17CHTO  H210 6829   6.370   6.475   7.841  1.3213  1.0290  1.3467
   17CHTO   O80 6830   6.613   6.491   7.974 -0.1417 -0.4709  0.2861
   17CHTO  C103 6831   6.613   6.567   8.110 -0.2972 -0.2916 -1.0693
   17CHTO  H190 6832   6.547   6.520   8.183 -1.3363 -0.3646 -2.0273
   17CHTO  C101 6833   6.752   6.573   8.189 -0.6993 -0.1272  0.7211
   17CHTO  H188 6834   6.829   6.602   8.118 -1.2923 -2.1590 -0.7905
   17CHTO   O68 6835   6.784   6.433   8.261 -0.1201 -0.5670  0.0871
   17CHTO  H168 6836   6.750   6.443   8.348  1.8288 -1.1210  0.9462
   17CHTO   C99 6837   6.762   6.698   8.293  0.3667 -1.1225 -0.2680
   17CHTO  H186 6838   6.690   6.690   8.377 -1.4062  1.4024 -1.4953
   17CHTO   N17 6839   6.897   6.732   8.353  0.5784 -0.1205  0.6431
   17CHTO  H174 6840   6.910   6.697   8.455  0.8272  0.9322  0.9719
   17CHTO  H175 6841   6.908   6.839   8.346  0.2063 -0.1246  0.0143
   17CHTO   C97 6842   6.709   6.823   8.217  0.6888  0.6386  0.2853
   17CHTO  H184 6843   6.778   6.843   8.133  0.0816  2.1949  0.1273
   17CHTO   O64 6844   6.572   6.805   8.176  0.2033 -0.1486  0.4219
   17CHTO  C104 6845   6.557   6.715   8.070 -0.3494  0.5790 -0.5615
   17CHTO  H191 6846   6.614   6.758   7.988  0.9565  3.7719  1.9034
   17CHTO  C108 6847   6.415   6.710   8.025 -0.3015 -0.1911  0.3760
   17CHTO   O71 6848   6.368   6.840   7.980 -0.2347 -0.1085 -0.5708
   17CHTO  H171 6849   6.398   6.851   7.892  0.2527 -2.8784 -0.8060
   17CHTO   O62 6850   6.702   6.938   8.304 -0.4834 -0.5794 -0.5999
   17CHTO   C91 6851   6.689   7.063   8.245 -0.0517  0.6843  0.2909
   17CHTO  H178 6852   6.719   7.054   8.140 -0.3309 -1.4225  0.3583
   17CHTO   C92 6853   6.788   7.158   8.323 -0.1309 -0.1988  0.1460
   17CHTO  H179 6854   6.888   7.112   8.321 -0.6590 -1.3513 -0.2162
   17CHTO   O66 6855   6.799   7.279   8.246  0.0659  0.1098 -0.1858
   17CHTO  H166 6856   6.717   7.324   8.237  0.3140  0.8300  1.0477
   17CHTO   C93 6857   6.733   7.191   8.470  0.1769 -0.0951 -0.9154
   17CHTO  H180 6858   6.794   7.276   8.503  1.5919 -2.3613  2.6212
   17CHTO   N16 6859   6.758   7.097   8.582 -0.2383  0.4632  0.2077
   17CHTO  H172 6860   6.761   7.149   8.677  1.8875  2.8322 -1.0742
   17CHTO  H173 6861   6.853   7.048   8.566 -1.1110 -0.8216 -1.0569
   17CHTO   C94 6862   6.581   7.220   8.468  0.3229 -0.8256 -0.6104
   17CHTO  H181 6863   6.525   7.134   8.505  2.0654 -1.0464  1.6173
   17CHTO   O61 6864   6.535   7.233   8.330  0.5774 -0.3778 -0.1878
   17CHTO   C95 6865   6.538   7.125   8.238 -0.6938  0.3247  0.4896
   17CHTO  H182 6866   6.471   7.047   8.273 -0.5094  0.4169  1.0556
   17CHTO  C106 6867   6.508   7.180   8.091  0.3293 -0.0713 -0.0945
   17CHTO   O69 6868   6.519   7.071   7.998 -0.2671  0.2521 -0.0789
   17CHTO  H169 6869   6.561   7.103   7.920  0.0623  1.0035  0.3957
   17CHTO   O63 6870   6.561   7.348   8.544  0.3590  0.4957 -0.1738
   17CHTO   C96 6871   6.403   7.375   8.584  0.2540  0.0005  0.3429
   17CHTO  H183 6872   6.347   7.281   8.588  0.3082 -0.0829 -0.8042
   17CHTO   C98 6873   6.318   7.469   8.497  0.5073 -0.4023  0.3045
   17CHTO  H185 6874   6.364   7.569   8.489  0.3036 -0.2409  1.1704
   17CHTO   O67 6875   6.326   7.414   8.369  0.0069  0.4924 -0.2435
   17CHTO  H167 6876   6.298   7.476   8.305  3.8844 -0.2528 -2.8111
   17CHTO  C102 6877   6.174   7.477   8.550  0.1657  0.4518 -0.2006
   17CHTO  H189 6878   6.135   7.376   8.531 -0.3066  0.5943 -0.0031
   17CHTO   N18 6879   6.080   7.569   8.472  0.1163 -0.3294 -0.1903
   17CHTO  H176 6880   6.136   7.650   8.428  0.2655 -1.0191 -1.2944
   17CHTO  H177 6881   6.005   7.602   8.543  2.2351  1.5310  1.2621
   17CHTO  C105 6882   6.176   7.519   8.703  0.2340 -0.0599 -1.4010
   17CHTO  H192 6883   6.201   7.625   8.700 -1.0714  0.2849 -0.4857
   17CHTO   O65 6884   6.271   7.440   8.787 -0.3135  0.0899  0.2181
   17CHTO  C100 6885   6.402   7.440   8.732 -0.5282  0.3033  0.5343
   17CHTO  H187 6886   6.419   7.547   8.713 -2.0259  0.3944 -0.4370
   17CHTO  C107 6887   6.499   7.383   8.841  0.2194  0.1057 -0.3536
   17CHTO   O70 6888   6.467   7.244   8.863 -0.1058 -0.2173  0.0312
   17CHTO  H170 6889   6.393   7.225   8.916  1.3817 -5.1482  0.5570
   17CHTO   O57 6890   6.026   7.491   8.760  0.2570 -0.1617 -0.4660
   17CHTO   C85 6891   5.947   7.586   8.818  0.3942  0.0740  0.4628
   17CHTO  H157 6892   5.970   7.681   8.766  0.6199  0.4554  1.2547
   17CHTO   C83 6893   5.993   7.610   8.971 -0.2460  0.5788 -0.8942
   17CHTO  H155 6894   6.097   7.642   8.975  0.3303 -1.2255 -0.8208
   17CHTO   O56 6895   5.986   7.483   9.032 -0.3734 -0.3868 -0.5767
   17CHTO  H135 6896   6.022   7.493   9.118 -0.7512  2.9860 -0.7110
   17CHTO   C81 6897   5.903   7.709   9.050 -0.2987 -0.4186  0.1422
   17CHTO  H153 6898   5.925   7.805   9.002  0.5020 -0.7841 -0.2413
   17CHTO   N14 6899   5.925   7.728   9.196  0.5678 -0.2757  0.1367
   17CHTO  H141 6900   5.849   7.666   9.237  0.4174  0.3566  0.8378
   17CHTO  H142 6901   5.910   7.830   9.224 -1.1922 -0.6092  0.4342
   17CHTO   C79 6902   5.744   7.682   9.024 -0.2504 -0.3567  0.5613
   17CHTO  H151 6903   5.694   7.775   9.050 -0.5044 -0.8681  1.9307
   17CHTO   O52 6904   5.716   7.661   8.880  0.0789  0.2140  0.0151
   17CHTO   C86 6905   5.800   7.563   8.812 -0.0795 -0.3522  0.5631
   17CHTO  H158 6906   5.767   7.470   8.863  0.3019 -1.0752 -0.5052
   17CHTO   C90 6907   5.740   7.563   8.666  0.1776 -0.9992  0.1746
   17CHTO   O60 6908   5.609   7.513   8.670  0.2148 -0.4195 -0.1225
   17CHTO  H138 6909   5.559   7.530   8.592 -1.9449  2.1523  1.7589
   17CHTO   O50 6910   5.697   7.563   9.097  0.4650  0.1664 -0.0592
   17CHTO   C73 6911   5.600   7.476   9.155  0.0531  0.6634  0.0930
   17CHTO  H145 6912   5.539   7.540   9.220  0.1041  2.2158 -1.3431
   17CHTO   C74 6913   5.665   7.362   9.232 -0.3047  0.8165  0.4826
   17CHTO  H146 6914   5.735   7.399   9.309  0.8356 -0.5644  0.1199
   17CHTO   O54 6915   5.558   7.300   9.309  0.3403  0.0740  0.4749
   17CHTO  H133 6916   5.555   7.207   9.294 -1.5355  0.5790 -2.5889
   17CHTO   C75 6917   5.747   7.262   9.138 -0.1393  0.0256  0.1423
   17CHTO  H147 6918   5.828   7.316   9.088 -0.7044  0.2111 -0.5881
   17CHTO   N13 6919   5.818   7.146   9.203 -0.1176 -0.6178 -0.1479
   17CHTO  H139 6920   5.871   7.173   9.293 -1.9947 -2.1791  1.4571
   17CHTO  H140 6921   5.890   7.116   9.128  1.2105  2.1342 -0.0578
   17CHTO   C76 6922   5.654   7.211   9.018  0.4850 -0.1206  0.0718
   17CHTO  H148 6923   5.578   7.148   9.064  0.1368  0.3629  0.1615
   17CHTO   O49 6924   5.590   7.333   8.956  0.3851  0.3694 -0.2686
   17CHTO   C77 6925   5.503   7.406   9.053 -1.0695  0.6316  0.1583
   17CHTO  H149 6926   5.434   7.347   9.113 -1.6293 -0.7839 -1.8388
   17CHTO   C88 6927   5.416   7.511   8.981  0.0347 -0.4851  0.4352
   17CHTO   O58 6928   5.302   7.453   8.905  0.3591  0.0673  0.3768
   17CHTO  H136 6929   5.218   7.457   8.947 -0.3545  0.1192 -1.0160
   17CHTO   O51 6930   5.741   7.142   8.884 -0.0803 -0.4533  0.0864
   17CHTO   C78 6931   5.629   7.040   8.811 -0.1998  0.0480 -0.3963
   17CHTO  H150 6932   5.526   7.080   8.819 -0.1433  0.4187 -1.4600
   17CHTO   C80 6933   5.630   6.898   8.869  0.1912 -0.2243  0.1876
   17CHTO  H152 6934   5.736   6.866   8.875 -0.0785 -1.1194  0.2071
   17CHTO   O55 6935   5.569   6.910   9.002  0.1276 -0.5624  0.3096
   17CHTO  H134 6936   5.620   6.865   9.067  1.3120 -0.0331 -0.2241
   17CHTO   C84 6937   5.552   6.794   8.787  0.3520  0.5285 -0.1835
   17CHTO  H156 6938   5.446   6.821   8.790  0.3336  0.2989  2.2900
   17CHTO   N15 6939   5.555   6.656   8.832  0.2139  0.8428  0.0231
   17CHTO  H143 6940   5.656   6.635   8.861  0.3112 -0.8383 -1.4501
   17CHTO  H144 6941   5.525   6.591   8.753  1.0555 -2.9005  2.6430
   17CHTO   C87 6942   5.592   6.804   8.639 -0.2259  0.3033 -0.3850
   17CHTO  H159 6943   5.697   6.776   8.627  0.0682  1.6167 -0.9475
   17CHTO   O53 6944   5.579   6.959   8.585  0.4789  0.0543  0.9611
   17CHTO   C82 6945   5.665   7.038   8.661 -0.8301 -0.5875 -0.3550
   17CHTO  H154 6946   5.767   7.002   8.645 -0.8745 -0.4678 -0.9276
   17CHTO   C89 6947   5.648   7.180   8.599  0.5650  0.5202  0.1231
   17CHTO   O59 6948   5.520   7.253   8.612  0.0865 -0.0562 -0.4327
   17CHTO  H137 6949   5.492   7.263   8.523 -0.8314  0.0556 -0.1415
   17CHTO   O45 6950   5.494   6.716   8.534 -0.4344 -0.3436 -0.1196
   17CHTO   C67 6951   5.558   6.607   8.470  0.1954 -0.7924  0.5046
   17CHTO  H124 6952   5.643   6.570   8.528  0.7028 -0.2960  0.0831
   17CHTO   C65 6953   5.460   6.491   8.440 -0.1910 -0.2000  0.0248
   17CHTO  H122 6954   5.398   6.488   8.530  2.0009  2.0651  1.6770
   17CHTO   O44 6955   5.531   6.373   8.421  0.1345 -0.3028 -0.1883
   17CHTO  H102 6956   5.569   6.352   8.505  1.0075 -0.2112 -0.5589
   17CHTO   C63 6957   5.361   6.523   8.326  0.2538 -0.6536 -0.2778
   17CHTO  H120 6958   5.299   6.607   8.359 -0.5337 -0.4493 -2.2098
   17CHTO   N11 6959   5.249   6.428   8.307  0.2225 -0.7874 -0.2977
   17CHTO  H108 6960   5.252   6.384   8.210 -0.8534  1.1836 -1.2722
   17CHTO  H109 6961   5.251   6.342   8.370  1.2379 -0.2665  0.3893
   17CHTO   C61 6962   5.447   6.563   8.200  0.1864 -0.5236 -0.2706
   17CHTO  H118 6963   5.370   6.592   8.127  1.2383  2.0126 -0.4106
   17CHTO   O40 6964   5.531   6.682   8.222  0.2898 -0.8198  0.7961
   17CHTO   C68 6965   5.619   6.678   8.335 -0.5165  0.1339  0.1499
   17CHTO  H125 6966   5.636   6.785   8.360 -3.3237  1.3699 -2.9661
   17CHTO   C72 6967   5.760   6.623   8.293  0.2614 -0.1030  0.0215
   17CHTO   O48 6968   5.846   6.639   8.405 -0.1061 -0.1517  0.2722
   17CHTO  H105 6969   5.882   6.725   8.392  2.5346 -0.9041  2.2178
   17CHTO   O38 6970   5.518   6.447   8.152 -0.1872  0.1320 -0.3535
   17CHTO   C55 6971   5.547   6.437   8.009  0.3733 -0.4068 -0.0769
   17CHTO  H112 6972   5.630   6.366   7.996  0.4877 -0.0531 -1.3597
   17CHTO   C56 6973   5.580   6.575   7.927 -0.5675 -0.3642  0.6664
   17CHTO  H113 6974   5.515   6.656   7.964  2.9568  2.6267  0.5880
   17CHTO   O42 6975   5.709   6.621   7.965 -0.1105  0.2058 -1.0887
   17CHTO  H100 6976   5.731   6.696   7.914 -0.0595  0.4484 -0.7062
   17CHTO   C57 6977   5.573   6.568   7.769 -0.4705  0.6113 -0.5578
   17CHTO  H114 6978   5.668   6.520   7.746 -0.8632  0.2941 -1.5113
   17CHTO   N10 6979   5.570   6.701   7.708 -0.4564 -0.7421 -0.3606
   17CHTO  H106 6980   5.616   6.706   7.610 -0.3886  4.0643 -0.2084
   17CHTO  H107 6981   5.624   6.775   7.765  1.7778 -1.3563 -1.6102
   17CHTO   C58 6982   5.454   6.484   7.732 -0.0251  0.0634 -0.4497
   17CHTO  H115 6983   5.360   6.539   7.753 -0.9038 -1.3169 -0.6380
   17CHTO   O37 6984   5.445   6.356   7.800 -0.3775  0.2335 -0.3946
   17CHTO   C59 6985   5.423   6.371   7.940 -0.0210  0.0612  0.1331
   17CHTO  H116 6986   5.330   6.425   7.961  0.3567  0.1369  1.6566
   17CHTO   C70 6987   5.398   6.226   7.980  0.7701 -0.0584  0.2271
   17CHTO   O46 6988   5.370   6.207   8.117  0.0492  0.3771 -0.2372
   17CHTO  H103 6989   5.436   6.248   8.169 -0.6885  1.7854 -0.4142
   17CHTO   O39 6990   5.459   6.455   7.549  0.0704  0.4185 -0.6562
   17CHTO   C60 6991   5.334   6.485   7.484 -0.4842  0.2615  0.0295
   17CHTO  H117 6992   5.269   6.538   7.554 -2.0334 -0.6031 -0.7376
   17CHTO   C62 6993   5.337   6.590   7.370 -0.1451 -0.0168 -0.2622
   17CHTO  H119 6994   5.391   6.679   7.410 -0.2623 -0.5400  1.0745
   17CHTO   O43 6995   5.407   6.549   7.251  0.2958 -0.3800 -0.1179
   17CHTO  H101 6996   5.500   6.550   7.256  0.3424  1.6137 -1.1349
   17CHTO   C66 6997   5.191   6.638   7.337 -0.1224  0.5884  0.3510
   17CHTO  H123 6998   5.145   6.667   7.431  1.5232 -0.5680  1.5401
   17CHTO   N12 6999   5.176   6.750   7.239 -0.2353 -0.0195 -0.1399
   17CHTO  H110 7000   5.072   6.766   7.212  0.6414  2.3544 -2.4358
   17CHTO  H111 7001   5.212   6.833   7.298 -2.8457  0.0164  1.4640
   17CHTO   C69 7002   5.110   6.511   7.285  0.6225  1.2615  0.2248
   17CHTO  H126 7003   5.156   6.488   7.186  1.4053 -2.0032  1.2750
   17CHTO   O41 7004   5.120   6.402   7.389  0.3799  0.1571  0.2576
   17CHTO   C64 7005   5.261   6.363   7.441  0.2493  0.4855  0.1586
   17CHTO  H121 7006   5.308   6.319   7.351 -1.5263  0.1930 -0.6477
   17CHTO   C71 7007   5.249   6.260   7.561 -0.5026 -0.2688 -0.0998
   17CHTO   O47 7008   5.161   6.149   7.537  0.8076 -0.4001  0.1944
   17CHTO  H104 7009   5.192   6.097   7.464  1.5829  1.6887 -1.0028
   17CHTO   O34 7010   4.946   6.545   7.265 -0.0308 -0.1689 -0.0863
   17CHTO   C49 7011   4.805   6.601   7.311  0.4855 -0.4112 -0.4141
   17CHTO   H91 7012   4.795   6.703   7.274  1.9245  0.7564  2.2434
   17CHTO   C47 7013   4.803   6.601   7.465 -0.4682 -0.1704 -0.0305
   17CHTO   H89 7014   4.707   6.652   7.488 -0.7029 -0.3206 -0.6854
   17CHTO   O33 7015   4.908   6.683   7.522  0.2975  0.4741  0.0839
   17CHTO   H70 7016   4.909   6.671   7.616  0.4146 -2.2144 -0.2077
   17CHTO   C45 7017   4.807   6.460   7.537  0.2712  0.5538 -0.0784
   17CHTO   H87 7018   4.911   6.438   7.565  0.8710  1.7101 -1.3110
   17CHTO    N8 7019   4.719   6.462   7.659 -0.2521 -0.0152  0.0930
   17CHTO   H75 7020   4.665   6.555   7.668 -1.0120 -0.3903 -0.5035
   17CHTO   H76 7021   4.761   6.428   7.752  0.7069 -2.8045 -1.2858
   17CHTO   C43 7022   4.772   6.346   7.427  0.1956  0.7697 -0.2299
   17CHTO   H85 7023   4.865   6.347   7.369 -0.1305  0.2681 -0.7663
   17CHTO   O29 7024   4.661   6.391   7.351 -0.3534  0.0521 -0.2173
   17CHTO   C50 7025   4.688   6.504   7.262  0.1575  0.3639 -0.8818
   17CHTO   H92 7026   4.722   6.465   7.165 -3.4328  1.1449 -2.5084
   17CHTO   C54 7027   4.558   6.592   7.226 -0.2142  0.0516  0.0155
   17CHTO   O36 7028   4.438   6.510   7.234  0.2120 -0.0707 -0.2739
   17CHTO   H72 7029   4.449   6.452   7.307  0.2118  0.8248  0.4391
   17CHTO   O27 7030   4.748   6.210   7.474 -0.4726 -0.3481  0.1373
   17CHTO   C37 7031   4.831   6.092   7.462 -0.7344 -0.3317 -0.2241
   17CHTO   H79 7032   4.931   6.119   7.500  0.6401 -2.0190 -2.5002
   17CHTO   C38 7033   4.772   5.976   7.550  0.4361 -0.2609  0.3744
   17CHTO   H80 7034   4.675   5.944   7.509 -1.1020  0.2794  3.4292
   17CHTO   O31 7035   4.757   6.029   7.684  0.0642  0.7391  0.3477
   17CHTO   H68 7036   4.699   6.103   7.688  0.0781  0.7234  0.9548
   17CHTO   C39 7037   4.864   5.847   7.548 -0.2889 -0.0578 -1.1658
   17CHTO   H81 7038   4.952   5.877   7.605 -0.7700 -2.0839  0.7019
   17CHTO    N7 7039   4.806   5.718   7.613  0.2861 -0.3645  0.0983
   17CHTO   H73 7040   4.801   5.729   7.720  1.8259  0.8808  0.0504
   17CHTO   H74 7041   4.705   5.697   7.579  0.7856  0.7825 -2.1550
   17CHTO   C40 7042   4.916   5.812   7.400  0.0860  0.1933 -0.2655
   17CHTO   H82 7043   4.833   5.756   7.357  0.1028 -0.7380  0.8893
   17CHTO   O26 7044   4.947   5.925   7.323 -0.3738 -0.7548  0.0414
   17CHTO   C41 7045   4.848   6.029   7.322  0.3951 -0.6572 -0.7228
   17CHTO   H83 7046   4.755   5.986   7.279  0.4862 -1.7526  0.1704
   17CHTO   C52 7047   4.893   6.136   7.219 -0.1454 -0.0972 -0.1705
   17CHTO   O35 7048   5.037   6.161   7.202  0.1583 -0.0349 -1.0121
   17CHTO   H71 7049   5.077   6.087   7.243  0.9589  0.9600  0.0169
   17CHTO   O28 7050   5.031   5.727   7.407 -0.2194 -0.8058  0.1134
   17CHTO   C42 7051   5.168   5.759   7.431 -0.2677 -0.2766 -0.4824
   17CHTO   H84 7052   5.215   5.660   7.427 -1.1180 -0.6204 -2.5602
   17CHTO   C44 7053   5.213   5.816   7.573  0.8652  0.0341  0.2216
   17CHTO   H86 7054   5.166   5.912   7.590 -2.2627 -1.3469 -0.3208
   17CHTO   O32 7055   5.154   5.731   7.677  0.2628 -0.0767  0.1259
   17CHTO   H69 7056   5.060   5.734   7.683  0.2904  2.7761 -0.4439
   17CHTO   C48 7057   5.372   5.819   7.576  0.2635  0.5059 -0.2527
   17CHTO   H90 7058   5.423   5.723   7.573 -1.2294 -0.3348  1.0839
   17CHTO    N9 7059   5.419   5.877   7.706  0.0687  0.5197  0.3376
   17CHTO   H77 7060   5.364   5.831   7.787  1.2259  0.4448  1.0978
   17CHTO   H78 7061   5.527   5.872   7.718  0.6642  2.5144 -3.3968
   17CHTO   C51 7062   5.428   5.902   7.457  0.1162  0.8625  0.5828
   17CHTO   H93 7063   5.403   6.006   7.478 -1.3186  0.5845  0.2717
   17CHTO   O30 7064   5.377   5.856   7.333 -0.5241 -0.0314 -0.3344
   17CHTO   C46 7065   5.231   5.848   7.315 -0.3526 -0.2512 -0.1526
   17CHTO   H88 7066   5.202   5.951   7.332 -0.5222 -0.5025  1.1005
   17CHTO   C53 7067   5.210   5.791   7.170  0.1608  0.2760 -0.2699
   17CHTO   O72 7068   5.222   5.891   7.069  0.3995 -0.1665 -0.4101
   17CHTO  H199 7069   5.304   5.934   7.082 -1.2353  3.0905 -0.4692
   17CHTO   O22 7070   5.567   5.885   7.433  0.1063  0.2977  0.7869
   17CHTO   C31 7071   5.648   6.001   7.387 -0.1864  0.3927  0.5073
   17CHTO   H59 7072   5.750   5.959   7.376 -0.1038  0.2183  1.8535
   17CHTO   C29 7073   5.598   6.058   7.247  0.4774 -0.2070 -0.0423
   17CHTO   H57 7074   5.490   6.077   7.248  0.0941 -2.1509 -1.5957
   17CHTO   O21 7075   5.603   5.941   7.157  0.4826 -0.1382  0.6098
   17CHTO   H37 7076   5.684   5.932   7.111  0.6696  0.5205  0.7980
   17CHTO   C27 7077   5.678   6.182   7.186 -0.0982 -0.6983  0.2736
   17CHTO   H55 7078   5.777   6.144   7.157  1.1893  1.0872  2.1603
   17CHTO    N5 7079   5.608   6.254   7.074 -0.2510  0.5846 -0.1438
   17CHTO   H43 7080   5.689   6.278   7.006 -0.4346  0.2843 -0.4676
   17CHTO   H44 7081   5.520   6.211   7.029  0.2548 -0.9787  0.3184
   17CHTO   C25 7082   5.694   6.289   7.301 -0.3315  0.0109 -0.2935
   17CHTO   H53 7083   5.591   6.324   7.321 -0.1931  0.6454 -0.6808
   17CHTO   O17 7084   5.747   6.220   7.422  0.2453 -0.0036 -0.4315
   17CHTO   C32 7085   5.662   6.118   7.482 -0.2300  0.2434 -1.0108
   17CHTO   H60 7086   5.566   6.167   7.498  0.1261  0.9934 -1.1537
   17CHTO   C36 7087   5.727   6.077   7.612 -0.4559  0.1702 -0.4386
   17CHTO   O25 7088   5.747   6.188   7.704  0.2918 -0.4985 -0.0867
   17CHTO   H40 7089   5.670   6.178   7.757  0.0463  0.6892 -0.1890
   17CHTO   O15 7090   5.783   6.398   7.257  0.1354 -0.0071  0.2670
   17CHTO   C19 7091   5.840   6.524   7.274  0.1742  0.0855 -0.5545
   17CHTO   H47 7092   5.942   6.511   7.236  0.1676  1.0926 -0.9353
   17CHTO   C20 7093   5.762   6.632   7.192 -0.3202 -0.4719  0.1722
   17CHTO   H48 7094   5.656   6.634   7.223  0.7664  1.5033  4.0413
   17CHTO   O19 7095   5.784   6.617   7.050  0.0885  0.1706 -0.1743
   17CHTO   H35 7096   5.737   6.542   7.019 -1.7754  0.0054  2.9294
   17CHTO   C21 7097   5.812   6.777   7.233 -0.7863 -0.0352  0.5833
   17CHTO   H49 7098   5.917   6.791   7.206 -0.5848 -0.9543  0.8800
   17CHTO    N4 7099   5.742   6.893   7.169  0.1609 -0.5497  0.1563
   17CHTO   H41 7100   5.642   6.914   7.205 -0.6881 -3.7991 -0.2013
   17CHTO   H42 7101   5.746   6.890   7.062 -1.6026  0.0949  0.0493
   17CHTO   C22 7102   5.827   6.799   7.383 -0.7177 -0.1886 -0.1948
   17CHTO   H50 7103   5.725   6.796   7.423 -0.5225 -0.3400  0.2986
   17CHTO   O14 7104   5.903   6.687   7.439  0.4399  0.5370 -0.4003
   17CHTO   C23 7105   5.852   6.554   7.424  0.2271 -0.6328  0.5778
   17CHTO   H51 7106   5.757   6.535   7.475 -0.8032  1.4026 -0.5053
   17CHTO   C34 7107   5.962   6.454   7.482  0.2743 -0.1061  0.0948
   17CHTO   O23 7108   5.932   6.431   7.621  0.2676 -0.1984 -0.3174
   17CHTO   H38 7109   5.953   6.509   7.668 -1.5542 -0.6640  1.3281
   17CHTO   O16 7110   5.893   6.919   7.420  0.3049 -0.4076  0.1569
   17CHTO   C24 7111   5.887   6.958   7.577  0.5040  1.0701 -0.3490
   17CHTO   H52 7112   5.829   6.884   7.632 -0.9121  2.6257  0.2800
   17CHTO   C26 7113   5.824   7.091   7.584  1.1384 -1.2347 -0.0448
   17CHTO   H54 7114   5.874   7.156   7.509 -1.9109  0.0307 -1.0878
   17CHTO   O20 7115   5.689   7.073   7.528 -0.0653 -0.0449  0.0091
   17CHTO   H36 7116   5.663   7.151   7.482 -0.7065  1.0835  2.2394
   17CHTO   C30 7117   5.823   7.151   7.724  0.2033  0.7631  0.5220
   17CHTO   H58 7118   5.754   7.092   7.786 -0.2015  1.5069  0.7827
   17CHTO    N6 7119   5.770   7.291   7.735 -0.3085  0.5596  0.0744
   17CHTO   H45 7120   5.838   7.348   7.673 -0.0895 -1.3216 -1.4806
   17CHTO   H46 7121   5.673   7.291   7.686 -0.3277 -2.1897  0.0047
   17CHTO   C33 7122   5.969   7.154   7.782 -0.1490 -0.2240  0.6734
   17CHTO   H61 7123   6.033   7.227   7.731  0.7116 -1.2498  0.2814
   17CHTO   O18 7124   6.035   7.023   7.768  0.1019  0.0220 -0.5205
   17CHTO   C28 7125   6.030   6.956   7.638  0.3412  0.3225 -0.1402
   17CHTO   H56 7126   6.095   7.012   7.570  1.5840  0.3382  1.0418
   17CHTO   C35 7127   6.083   6.812   7.659 -0.4785  0.2282  0.1175
   17CHTO   O24 7128   6.216   6.802   7.698  0.1781  0.5367  0.0367
   17CHTO   H39 7129   6.222   6.719   7.741 -2.2676  0.5265  0.4553
   17CHTO    O9 7130   5.967   7.197   7.922  0.1771 -0.0013 -0.1965
   17CHTO   C13 7131   6.094   7.169   8.006 -0.3524  0.4641 -0.7071
   17CHTO   H26 7132   6.176   7.134   7.940  1.0445 -0.9939  1.7352
   17CHTO   C11 7133   6.059   7.061   8.126  0.6452 -0.3913  0.1394
   17CHTO   H24 7134   6.148   7.000   8.146  1.5588 -0.0217 -2.6677
   17CHTO    O8 7135   5.963   6.974   8.065  0.6174  0.1374 -0.2598
   17CHTO    H3 7136   5.876   7.010   8.072 -0.2166 -1.7823 -0.5968
   17CHTO    C9 7137   6.029   7.130   8.263 -0.2735 -0.5302 -0.9368
   17CHTO   H22 7138   6.124   7.167   8.306  0.4065 -1.8190 -1.3184
   17CHTO    N2 7139   5.967   7.041   8.365 -0.4671 -0.0545  0.2709
   17CHTO   H10 7140   6.048   6.976   8.394  0.1356 -1.6166 -4.4116
   17CHTO   H11 7141   5.880   6.989   8.328 -1.5160  0.9673  1.2796
   17CHTO    C7 7142   5.945   7.262   8.233  0.9966  0.2412  0.1354
   17CHTO   H20 7143   5.915   7.316   8.326  0.7815 -0.9509  0.7634
   17CHTO    O4 7144   6.025   7.350   8.152  0.3716  0.2266 -0.0463
   17CHTO   C14 7145   6.130   7.305   8.069  0.3696  0.3815  0.2644
   17CHTO   H27 7146   6.218   7.292   8.136 -1.2730  2.2069  2.8973
   17CHTO   C18 7147   6.166   7.414   7.972  0.2488 -0.2049  0.0463
   17CHTO   O13 7148   6.199   7.534   8.048 -0.0030 -0.4801  0.0820
   17CHTO    H7 7149   6.274   7.572   8.005 -0.2030 -1.3276 -1.0438
   17CHTO    O2 7150   5.803   7.234   8.148  0.2225  0.8839  0.6694
   17CHTO    C1 7151   5.678   7.223   8.210  0.5075  0.2745  0.1574
   17CHTO   H14 7152   5.700   7.213   8.318  1.6245 -2.1574 -0.2690
   17CHTO    C2 7153   5.592   7.100   8.169 -0.7563 -0.4413  0.1626
   17CHTO   H15 7154   5.593   7.099   8.059 -1.7519 -0.2953  0.1447
   17CHTO    O6 7155   5.654   6.971   8.207  0.4353 -0.0127  0.4610
   17CHTO    H1 7156   5.605   6.903   8.164  2.1033 -0.2160 -1.1884
   17CHTO    C3 7157   5.442   7.105   8.232  0.1244 -0.1157 -0.2013
   17CHTO   H16 7158   5.437   7.076   8.338  2.0782 -1.1921 -0.3740
   17CHTO    N1 7159   5.345   7.013   8.171 -0.2938  0.2471  0.5442
   17CHTO    H8 7160   5.390   6.918   8.148 -1.4571 -0.0222 -0.7038
   17CHTO    H9 7161   5.259   7.004   8.237 -0.6088 -1.9038 -0.1147
   17CHTO    C4 7162   5.384   7.257   8.232 -0.8416  0.5278  0.4347
   17CHTO   H17 7163   5.354   7.283   8.131 -2.0600  0.2445  0.7155
   17CHTO    O1 7164   5.484   7.349   8.278  0.8364  0.2409 -0.0296
   17CHTO    C5 7165   5.596   7.353   8.189  0.5863  0.1709 -0.0652
   17CHTO   H18 7166   5.557   7.371   8.089 -0.2534  0.6355  0.3460
   17CHTO   C16 7167   5.675   7.482   8.234  0.3853  0.3458  0.2926
   17CHTO   O11 7168   5.602   7.599   8.192 -0.1071 -0.1415 -0.5238
   17CHTO    H5 7169   5.603   7.660   8.263  1.8805 -0.2075 -0.4776
   17CHTO    O3 7170   5.279   7.264   8.331 -0.3008  0.5080  0.0914
   17CHTO    C6 7171   5.194   7.380   8.311  0.3366 -0.0030  0.7052
   17CHTO   H19 7172   5.251   7.462   8.267 -0.3850 -0.3118 -0.8681
   17CHTO    C8 7173   5.070   7.358   8.224 -0.5065 -0.7284  0.1904
   17CHTO   H21 7174   5.010   7.280   8.271  0.9480 -0.5287  2.4699
   17CHTO    O7 7175   5.121   7.319   8.089 -0.0320 -0.0980  0.1564
   17CHTO    H2 7176   5.181   7.247   8.094 -0.8956 -0.7863  0.7983
   17CHTO   C12 7177   4.981   7.478   8.222  0.2230 -0.0802  0.6775
   17CHTO   H25 7178   5.043   7.562   8.183 -1.0338  0.9445  0.8441
   17CHTO    N3 7179   4.862   7.474   8.134 -0.3809 -0.2360  0.2408
   17CHTO   H12 7180   4.835   7.578   8.118 -0.5527 -0.2860  0.2043
   17CHTO   H13 7181   4.896   7.435   8.040 -2.4486 -3.2214  0.6818
   17CHTO   C15 7182   4.943   7.506   8.377 -0.3643  0.3825  0.2999
   17CHTO   H28 7183   4.886   7.427   8.426  1.5054 -0.8723  0.5352
   17CHTO   O10 7184   4.870   7.635   8.396  0.0825  0.4966 -0.3207
   17CHTO    H4 7185   4.840   7.666   8.312  1.1923  0.8150 -0.6024
   17CHTO    O5 7186   5.066   7.529   8.460  0.6796  0.1234  0.7562
   17CHTO   C10 7187   5.162   7.425   8.456  0.5522  0.4840  0.1981
   17CHTO   H23 7188   5.124   7.342   8.516 -0.2098  0.0112 -0.9350
   17CHTO   C17 7189   5.288   7.466   8.531  0.8023 -0.3579 -0.7070
   17CHTO   O12 7190   5.342   7.583   8.466 -0.0582  0.3516  0.3400
   17CHTO    H6 7191   5.435   7.583   8.476  0.0378  2.4930 -0.3284
   18CHTO  H203 7192   5.817   8.458   1.614 -2.0414  0.9356  1.3953
   18CHTO   O82 7193   5.831   8.401   1.687  0.6442 -0.1282  0.1139
   18CHTO  C123 7194   5.882   8.277   1.649  0.1391 -0.0377  1.0217
   18CHTO  H227 7195   5.799   8.205   1.645 -0.9947  1.2835  0.4638
   18CHTO   O77 7196   5.931   8.288   1.502 -0.5567  0.0219 -0.7654
   18CHTO  C118 7197   5.996   8.177   1.444 -0.0735 -0.2629 -0.3470
   18CHTO  H222 7198   5.935   8.085   1.442 -1.2072  0.4963 -2.3133
   18CHTO  C125 7199   6.030   8.216   1.295 -0.4399  0.0510  0.1293
   18CHTO   O84 7200   6.085   8.109   1.225 -0.5512  0.0679  0.4312
   18CHTO  H205 7201   6.018   8.068   1.174  0.2686 -0.0229 -0.5888
   18CHTO  C114 7202   6.117   8.145   1.535 -0.6080  0.3678  0.6494
   18CHTO  H218 7203   6.180   8.233   1.530 -1.2691  0.8924  1.4464
   18CHTO  C116 7204   6.078   8.123   1.686 -0.9882  0.2878 -0.2171
   18CHTO  H220 7205   6.023   8.028   1.692 -1.3420  0.4026 -1.4444
   18CHTO   O79 7206   6.202   8.098   1.752 -0.1941 -0.8238 -0.1892
   18CHTO  H201 7207   6.196   8.083   1.845  1.4135 -1.6352 -0.2035
   18CHTO  C120 7208   5.998   8.240   1.754  0.2477 -0.0955 -0.6931
   18CHTO  H224 7209   6.070   8.324   1.758  0.7360 -0.5259 -0.3505
   18CHTO   N21 7210   5.953   8.213   1.893 -0.1960  0.1159  0.0090
   18CHTO  H211 7211   5.868   8.147   1.886 -0.0364 -0.0520 -0.3363
   18CHTO  H212 7212   5.923   8.303   1.945  0.1912  0.2875 -0.0567
   18CHTO   O75 7213   6.173   8.022   1.473 -0.0292  0.2206 -0.1022
   18CHTO  C112 7214   6.325   8.016   1.448 -0.0562  0.0484 -0.5451
   18CHTO  H216 7215   6.371   8.035   1.546  0.4021 -1.8060 -0.3788
   18CHTO   O73 7216   6.362   8.123   1.355  0.0411 -0.1631 -0.1372
   18CHTO  C113 7217   6.499   8.142   1.342 -0.2707  0.1682  0.0795
   18CHTO  H217 7218   6.545   8.171   1.439  1.1156  1.7131 -1.0067
   18CHTO  C124 7219   6.512   8.273   1.259 -0.1121 -0.2967 -0.4101
   18CHTO   O83 7220   6.643   8.318   1.220  0.0671  0.5830  0.9947
   18CHTO  H204 7221   6.656   8.296   1.130 -2.7194 -1.4267  1.0446
   18CHTO  C109 7222   6.572   8.012   1.276  0.1218  0.5069 -0.6891
   18CHTO  H213 7223   6.538   8.008   1.172 -0.2153 -1.6860 -0.5188
   18CHTO  C110 7224   6.527   7.884   1.355  0.4459  0.2381  0.2304
   18CHTO  H214 7225   6.573   7.885   1.454 -0.1295  2.6084  0.5141
   18CHTO   O78 7226   6.561   7.762   1.288 -0.0593  0.5347 -0.4605
   18CHTO  H200 7227   6.496   7.696   1.280 -0.8362  1.3742 -1.1845
   18CHTO  C111 7228   6.371   7.881   1.379  1.7463  0.3026  0.1398
   18CHTO  H215 7229   6.312   7.888   1.287 -2.1881 -0.8583  2.4252
   18CHTO   N19 7230   6.315   7.769   1.449 -0.4090 -0.4952  0.6375
   18CHTO  H207 7231   6.219   7.787   1.497 -1.2063 -0.2191 -1.0145
   18CHTO  H208 7232   6.334   7.675   1.401  3.2920  0.3993  0.2632
   18CHTO   O74 7233   6.720   8.028   1.289  0.3536  0.4059 -0.1979
   18CHTO  C115 7234   6.796   7.961   1.168  0.2743  0.3715 -0.4586
   18CHTO  H219 7235   6.757   7.862   1.146  1.5787 -0.1425 -0.4951
   18CHTO   O76 7236   6.779   8.037   1.039  0.3817 -0.2360 -0.5514
   18CHTO  C122 7237   6.877   8.140   1.021 -0.2461 -1.0585 -0.7662
   18CHTO  H226 7238   6.870   8.196   1.114 -0.9041 -1.8746 -0.3054
   18CHTO  C126 7239   6.816   8.236   0.913  0.1559  0.4464 -0.0347
   18CHTO   O85 7240   6.813   8.163   0.783  0.7611 -0.4690 -1.1530
   18CHTO  H206 7241   6.899   8.147   0.749  1.4025 -0.1009  0.2654
   18CHTO  C121 7242   7.019   8.084   1.000  0.2548  0.5393 -0.1118
   18CHTO  H225 7243   7.029   8.062   0.892 -2.4029  1.0067 -0.4880
   18CHTO   O81 7244   7.122   8.175   1.049 -0.1647 -0.6552 -0.0742
   18CHTO  H202 7245   7.115   8.187   1.141 -1.1321 -0.8449 -0.1216
   18CHTO  C119 7246   7.034   7.952   1.083 -0.4589 -0.3194  0.4821
   18CHTO  H223 7247   7.012   7.868   1.017 -1.6553 -1.4906  2.3179
   18CHTO  C117 7248   6.945   7.947   1.214  0.3251 -0.2082 -0.1681
   18CHTO  H221 7249   6.961   8.028   1.285 -0.5429 -1.5053  1.5748
   18CHTO   N20 7250   6.968   7.822   1.297 -0.1076 -0.3753  0.4628
   18CHTO  H209 7251   7.005   7.737   1.243 -0.8577 -0.8501  0.6898
   18CHTO  H210 7252   7.023   7.842   1.388  0.5858 -1.9253  0.3829
   18CHTO   O80 7253   7.206   7.927   1.108  0.1594  0.1040 -0.2177
   18CHTO  C103 7254   7.304   7.860   1.007  0.4517 -0.4991  0.4837
   18CHTO  H190 7255   7.402   7.854   1.055  0.1441 -1.1567  1.0411
   18CHTO  C101 7256   7.256   7.716   0.954 -0.1547 -0.0021 -0.0460
   18CHTO  H188 7257   7.148   7.707   0.961 -0.1949 -1.3210 -2.1633
   18CHTO   O68 7258   7.307   7.619   1.051  0.1467 -0.2062 -0.1539
   18CHTO  H168 7259   7.393   7.644   1.079  1.2780 -2.1876 -1.7281
   18CHTO   C99 7260   7.306   7.677   0.803 -0.5161  0.2954 -0.0589
   18CHTO  H186 7261   7.415   7.657   0.804 -0.5404  0.1777  1.1895
   18CHTO   N17 7262   7.249   7.543   0.748  0.1548 -0.2471 -0.2872
   18CHTO  H174 7263   7.158   7.514   0.798  0.3791 -1.7363 -0.6954
   18CHTO  H175 7264   7.321   7.463   0.762 -1.7635 -2.1846 -1.2434
   18CHTO   C97 7265   7.288   7.800   0.712  0.4860  0.1147  0.3841
   18CHTO  H184 7266   7.179   7.814   0.704 -0.1164 -3.0945  1.8760
   18CHTO   O64 7267   7.350   7.917   0.764 -0.2294 -0.3261 -0.2367
   18CHTO  C104 7268   7.319   7.966   0.892  0.7133  0.1216  0.2365
   18CHTO  H191 7269   7.228   8.023   0.878  0.3019 -0.1410  1.7889
   18CHTO  C108 7270   7.427   8.064   0.930 -0.0846 -0.0896 -0.5579
   18CHTO   O71 7271   7.566   8.032   0.899 -0.7192 -0.3312 -0.4304
   18CHTO  H171 7272   7.616   8.104   0.865 -1.0906  1.3136  2.3303
   18CHTO   O62 7273   7.345   7.774   0.582 -0.0668 -0.1717 -0.2750
   18CHTO   C91 7274   7.267   7.794   0.471 -0.0007  0.3209  0.8707
   18CHTO  H178 7275   7.179   7.730   0.465  0.9861 -0.8169 -3.0396
   18CHTO   C92 7276   7.362   7.735   0.362  0.0553 -0.6482  0.1895
   18CHTO  H179 7277   7.461   7.781   0.369 -0.7513  1.3608 -1.0080
   18CHTO   O66 7278   7.373   7.595   0.389 -0.1578  0.3571  0.5888
   18CHTO  H166 7279   7.386   7.543   0.311  0.5500  1.6133 -0.1439
   18CHTO   C93 7280   7.312   7.750   0.212  0.7550 -0.5854  0.0181
   18CHTO  H180 7281   7.239   7.669   0.195  0.2835  0.1563 -1.5593
   18CHTO   N16 7282   7.416   7.721   0.103  0.3634 -0.4546 -0.4283
   18CHTO  H172 7283   7.422   7.807   0.038  0.6337  1.2587  1.7857
   18CHTO  H173 7284   7.511   7.703   0.151  0.6245 -0.2216 -0.8522
   18CHTO   C94 7285   7.235   7.886   0.178 -0.2377 -0.3265  0.8732
   18CHTO  H181 7286   7.304   7.969   0.163 -4.0901  2.8152 -0.4674
   18CHTO   O61 7287   7.159   7.926   0.293  0.4581  0.0677  0.0414
   18CHTO   C95 7288   7.221   7.939   0.425 -0.8081  0.0248  0.5672
   18CHTO  H182 7289   7.308   8.004   0.419 -0.4595 -0.5881 -1.0816
   18CHTO  C106 7290   7.114   8.014   0.514 -0.6988  0.0534  0.3988
   18CHTO   O69 7291   7.061   8.130   0.448  0.4113  0.0431 -0.1471
   18CHTO  H169 7292   6.996   8.168   0.504 -0.3976  0.3151 -1.2599
   18CHTO   O63 7293   7.125   7.862   0.058 -0.3485 -0.3062  0.4582
   18CHTO   C96 7294   7.106   7.961  -0.061 -0.4208  0.4840  1.0256
   18CHTO  H183 7295   7.034   7.913  -0.127 -0.3302  1.0074  0.5430
   18CHTO   C98 7296   7.235   8.002  -0.128  0.5907  0.2391  0.8930
   18CHTO  H185 7297   7.308   8.038  -0.054 -1.0164  2.9972  1.1832
   18CHTO   O67 7298   7.288   7.888  -0.196  0.2264 -0.1161  0.0885
   18CHTO  H167 7299   7.223   7.820  -0.200  0.0715 -0.0073  0.7514
   18CHTO  C102 7300   7.221   8.117  -0.236 -0.0517 -0.6059  0.4949
   18CHTO  H189 7301   7.172   8.079  -0.327 -2.1909  3.0612  0.0533
   18CHTO   N18 7302   7.352   8.179  -0.279 -0.3794 -0.1088  0.0549
   18CHTO  H176 7303   7.331   8.227  -0.373  2.5201 -0.3482 -0.7565
   18CHTO  H177 7304   7.392   8.247  -0.204 -1.5833  0.0045  0.6052
   18CHTO  C105 7305   7.128   8.234  -0.186  0.3794 -0.0415 -0.6698
   18CHTO  H192 7306   7.187   8.300  -0.122  0.0563 -0.4446  0.0431
   18CHTO   O65 7307   7.012   8.180  -0.124  0.4628 -0.1647  0.3178
   18CHTO  C100 7308   7.034   8.094  -0.009  0.4949 -0.9365 -0.9140
   18CHTO  H187 7309   7.104   8.135   0.066 -0.1276 -1.1666 -0.1994
   18CHTO  C107 7310   6.896   8.070   0.049  0.2131 -0.4942  0.1350
   18CHTO   O70 7311   6.840   8.200   0.085 -0.0990  0.1539 -0.1795
   18CHTO  H170 7312   6.786   8.225   0.013  0.2531 -1.7270 -1.1394
   18CHTO   O57 7313   7.096   8.316  -0.318  0.2153 -0.0845 -0.3322
   18CHTO   C85 7314   7.053   8.458  -0.326  0.0716 -0.8706  0.1376
   18CHTO  H157 7315   7.141   8.516  -0.290 -1.1715  2.2592 -1.8039
   18CHTO   C83 7316   6.928   8.492  -0.233 -0.2866 -0.2328  0.7582
   18CHTO  H155 7317   6.967   8.483  -0.132  0.9600  0.0317  0.3102
   18CHTO   O56 7318   6.826   8.389  -0.243  0.3389  0.4034  0.2269
   18CHTO  H135 7319   6.790   8.396  -0.329 -0.8042  1.1972  0.7585
   18CHTO   C81 7320   6.879   8.636  -0.268 -0.3918 -0.1011 -0.5609
   18CHTO  H153 7321   6.955   8.709  -0.239  0.4961 -0.2692 -2.3829
   18CHTO   N14 7322   6.778   8.674  -0.167 -0.1724 -0.1332 -0.5393
   18CHTO  H141 7323   6.825   8.682  -0.071 -0.2038  0.4223 -0.5683
   18CHTO  H142 7324   6.721   8.760  -0.193  0.6870  0.4239 -0.6085
   18CHTO   C79 7325   6.839   8.657  -0.415  0.1365  0.2928  0.0997
   18CHTO  H151 7326   6.827   8.764  -0.430  3.8569  0.6134 -1.1019
   18CHTO   O52 7327   6.951   8.628  -0.503 -0.1730  0.5356  0.5868
   18CHTO   C86 7328   7.008   8.497  -0.474 -0.2315  0.1413  0.1886
   18CHTO  H158 7329   6.934   8.424  -0.513 -0.2660 -0.1326  0.7756
   18CHTO   C90 7330   7.129   8.486  -0.571 -0.2664  0.2188  0.0363
   18CHTO   O60 7331   7.240   8.569  -0.528  0.0640 -0.7857 -0.0123
   18CHTO  H138 7332   7.260   8.536  -0.443  1.2227  0.5882  0.2588
   18CHTO   O50 7333   6.728   8.576  -0.456 -0.0348 -0.1426  0.4966
   18CHTO   C73 7334   6.613   8.558  -0.537 -0.3900  0.6602 -0.0419
   18CHTO  H145 7335   6.644   8.531  -0.639  2.8084  1.8328  0.5701
   18CHTO   C74 7336   6.531   8.690  -0.552 -0.2995 -0.1260  0.9143
   18CHTO  H146 7337   6.605   8.767  -0.577 -0.1101  0.1874  2.3680
   18CHTO   O54 7338   6.447   8.676  -0.666  0.1715 -0.6956 -0.3423
   18CHTO  H133 7339   6.389   8.602  -0.657  1.3123 -1.4319  1.3012
   18CHTO   C75 7340   6.460   8.725  -0.414  0.2585 -0.0021 -0.3371
   18CHTO  H147 7341   6.533   8.748  -0.336 -0.9460  1.9694  0.2548
   18CHTO   N13 7342   6.385   8.852  -0.412 -0.1107  0.1706  0.0575
   18CHTO  H139 7343   6.324   8.865  -0.324  2.0734  1.6111  1.4192
   18CHTO  H140 7344   6.322   8.851  -0.500  1.3552 -0.7287 -1.0021
   18CHTO   C76 7345   6.371   8.598  -0.361  0.7172 -0.4499  0.1399
   18CHTO  H148 7346   6.295   8.579  -0.436  0.6091 -0.3901  0.2351
   18CHTO   O49 7347   6.456   8.484  -0.357  0.1697  0.1239  0.2492
   18CHTO   C77 7348   6.523   8.451  -0.482  0.5053  0.1190 -0.6843
   18CHTO  H149 7349   6.444   8.438  -0.556 -0.5038  1.0388  0.1933
   18CHTO   C88 7350   6.597   8.318  -0.462  0.2732 -0.3350 -0.4754
   18CHTO   O58 7351   6.655   8.270  -0.586 -0.1617  0.0934 -0.3903
   18CHTO  H136 7352   6.723   8.328  -0.614 -1.0798  1.6809  0.5625
   18CHTO   O51 7353   6.307   8.622  -0.231  0.4419 -0.0621  0.0245
   18CHTO   C78 7354   6.181   8.508  -0.185 -0.3380  0.1910  0.3954
   18CHTO  H150 7355   6.224   8.414  -0.225  0.4324  0.5337  0.4086
   18CHTO   C80 7356   6.040   8.536  -0.241 -0.0080 -0.8978 -0.7440
   18CHTO  H152 7357   6.016   8.643  -0.224  0.7561 -0.6737 -1.0674
   18CHTO   O55 7358   6.044   8.514  -0.380  0.4476  0.2769  0.1298
   18CHTO  H134 7359   6.094   8.576  -0.429 -0.0764  1.1053  0.6276
   18CHTO   C84 7360   5.932   8.448  -0.179  0.0795 -0.3212  0.8378
   18CHTO  H156 7361   5.941   8.350  -0.224 -1.8929  0.4554 -1.4109
   18CHTO   N15 7362   5.787   8.484  -0.208  0.4104 -0.5223 -0.0446
   18CHTO  H143 7363   5.724   8.407  -0.168 -0.4264 -0.3855 -1.0738
   18CHTO  H144 7364   5.752   8.579  -0.174 -2.3400 -1.1588 -0.9850
   18CHTO   C87 7365   5.950   8.446  -0.025 -0.0655 -0.7655  0.0595
   18CHTO  H159 7366   5.914   8.537   0.022 -0.7177 -1.8568  1.7177
   18CHTO   O53 7367   6.083   8.403   0.011  0.3858 -0.2399 -0.2785
   18CHTO   C82 7368   6.180   8.497  -0.033  0.7391  0.0788  0.2679
   18CHTO  H154 7369   6.157   8.596   0.006  5.7619  0.6075  2.2499
   18CHTO   C89 7370   6.321   8.456   0.026 -0.4257  0.0795 -0.3024
   18CHTO   O59 7371   6.339   8.479   0.165 -0.2638 -0.1981  0.2122
   18CHTO  H137 7372   6.399   8.415   0.198  0.8750  0.9904  0.4799
   18CHTO   O45 7373   5.857   8.324   0.027  0.2981 -0.3560  0.0318
   18CHTO   C67 7374   5.813   8.348   0.163  0.1900  0.1396  0.3590
   18CHTO  H124 7375   5.886   8.411   0.214  2.3086 -1.8446 -0.1218
   18CHTO   C65 7376   5.677   8.421   0.175  0.2846  0.0420  0.3578
   18CHTO  H122 7377   5.603   8.394   0.099  0.3507  0.5610  0.1024
   18CHTO   O44 7378   5.708   8.560   0.159 -0.0345 -0.7762  0.4305
   18CHTO  H102 7379   5.638   8.619   0.180 -0.9828 -1.9411  0.5792
   18CHTO   C63 7380   5.599   8.391   0.310  0.5127  0.1261  1.0933
   18CHTO  H120 7381   5.551   8.294   0.298 -1.5005  1.5142 -3.3233
   18CHTO   N11 7382   5.474   8.479   0.330 -0.0195  0.0999 -0.5948
   18CHTO  H108 7383   5.405   8.479   0.248  1.2885  1.9008 -1.7363
   18CHTO  H109 7384   5.490   8.582   0.355 -3.1091  0.5615 -0.2262
   18CHTO   C61 7385   5.705   8.374   0.422 -0.1279 -0.7721  0.6965
   18CHTO  H118 7386   5.642   8.344   0.508 -0.0478  0.5931  1.2379
   18CHTO   O40 7387   5.793   8.264   0.391  0.8174  0.2486 -0.5340
   18CHTO   C68 7388   5.811   8.219   0.253 -0.5056  0.1373  0.5956
   18CHTO  H125 7389   5.717   8.161   0.237 -0.3579  0.4842 -1.6158
   18CHTO   C72 7390   5.931   8.120   0.231 -0.5346  0.0159  0.3467
   18CHTO   O48 7391   5.900   7.980   0.260  0.1608  0.3520  0.3639
   18CHTO  H105 7392   5.809   7.957   0.268  0.0809 -0.3485 -2.1838
   18CHTO   O38 7393   5.764   8.502   0.455 -0.5048  0.7294 -1.2387
   18CHTO   C55 7394   5.854   8.511   0.561 -0.4249  0.3155 -0.0494
   18CHTO  H112 7395   5.882   8.414   0.606  2.2162  1.1435  0.1876
   18CHTO   C56 7396   5.784   8.598   0.667  0.1618 -0.2502  0.4680
   18CHTO  H113 7397   5.748   8.696   0.635 -2.7801 -0.8834  1.7126
   18CHTO   O42 7398   5.658   8.532   0.698 -0.5380 -0.6596  0.8846
   18CHTO  H100 7399   5.667   8.445   0.732  3.9757 -0.2430  1.0144
   18CHTO   C57 7400   5.880   8.622   0.794  0.3622 -0.1701  0.2601
   18CHTO  H114 7401   5.890   8.523   0.838 -3.6214 -0.9124 -0.3873
   18CHTO   N10 7402   5.823   8.715   0.893  0.2352 -0.1029 -0.0330
   18CHTO  H106 7403   5.890   8.739   0.974  0.3592 -0.0054 -0.1640
   18CHTO  H107 7404   5.791   8.803   0.840 -1.3846 -1.2562 -1.0494
   18CHTO   C58 7405   6.018   8.676   0.748 -1.1784 -0.0436 -0.1632
   18CHTO  H115 7406   6.009   8.782   0.714 -1.5542 -0.9055 -2.8361
   18CHTO   O37 7407   6.071   8.602   0.633 -0.1212  0.0842  0.1967
   18CHTO   C59 7408   5.981   8.578   0.522 -0.4551  0.3543  0.1455
   18CHTO  H116 7409   5.968   8.669   0.464  1.1544  0.8257  0.5074
   18CHTO   C70 7410   6.054   8.482   0.429 -0.1895 -1.0218  0.6711
   18CHTO   O46 7411   6.142   8.382   0.491 -0.2841 -0.1181 -0.1184
   18CHTO  H103 7412   6.105   8.313   0.543 -1.1630  0.7602  0.4497
   18CHTO   O39 7413   6.128   8.664   0.862 -0.9233 -0.6682 -0.3175
   18CHTO   C60 7414   6.194   8.541   0.868 -0.8204  0.2351 -0.3827
   18CHTO  H117 7415   6.119   8.470   0.833 -1.3808 -0.0222  1.2777
   18CHTO   C62 7416   6.322   8.555   0.783  0.2987  0.2753 -0.3157
   18CHTO  H119 7417   6.288   8.602   0.688 -0.7079 -1.8822 -1.0433
   18CHTO   O43 7418   6.411   8.643   0.852  0.1185 -0.1197 -0.6995
   18CHTO  H101 7419   6.392   8.671   0.940  3.9702 -1.0306  0.5560
   18CHTO   C66 7420   6.374   8.409   0.757 -0.1092  0.0320 -0.1459
   18CHTO  H123 7421   6.294   8.352   0.711  0.1943 -2.0218  1.8016
   18CHTO   N12 7422   6.489   8.405   0.669  0.1031  1.0096 -0.1826
   18CHTO  H110 7423   6.532   8.306   0.671 -1.8081  0.2195  2.0331
   18CHTO  H111 7424   6.454   8.427   0.569 -0.2472 -1.6797 -0.6778
   18CHTO   C69 7425   6.402   8.348   0.899  0.1416 -0.4937  0.2555
   18CHTO  H126 7426   6.491   8.403   0.938  0.2355  0.3702 -1.1284
   18CHTO   O41 7427   6.290   8.367   1.004  0.2468 -0.0598  0.2916
   18CHTO   C64 7428   6.223   8.503   1.017 -0.1888  0.6876 -0.8083
   18CHTO  H121 7429   6.296   8.564   1.075  0.2970  0.1406 -0.8487
   18CHTO   C71 7430   6.106   8.488   1.104  0.0058 -0.4821  0.1496
   18CHTO   O47 7431   6.019   8.596   1.109 -0.2084 -0.6176  0.5976
   18CHTO  H104 7432   5.935   8.565   1.082  0.2392 -0.2008 -1.3048
   18CHTO   O34 7433   6.433   8.191   0.890  0.1651 -0.6606 -0.2948
   18CHTO   C49 7434   6.419   8.038   0.868 -0.0548 -0.1377  0.0254
   18CHTO   H91 7435   6.507   7.986   0.906 -0.5730  0.4814  2.1414
   18CHTO   C47 7436   6.408   8.011   0.717  0.1378 -0.5245 -0.6927
   18CHTO   H89 7437   6.432   7.904   0.701  0.0585 -0.4082 -1.5982
   18CHTO   O33 7438   6.507   8.085   0.647  0.1208  0.0746 -0.6791
   18CHTO   H70 7439   6.592   8.071   0.685  0.8599 -2.7134 -3.1641
   18CHTO   C45 7440   6.261   8.048   0.656 -0.5910 -0.2137  0.2734
   18CHTO   H87 7441   6.278   8.139   0.597 -1.0348 -1.5397 -1.9617
   18CHTO    N8 7442   6.217   7.944   0.560 -0.1514  0.6183 -0.2165
   18CHTO   H75 7443   6.295   7.921   0.489 -0.2111  3.1665 -1.1549
   18CHTO   H76 7444   6.181   7.855   0.609 -0.3604  0.8506  0.0602
   18CHTO   C43 7445   6.156   8.078   0.773 -0.1779 -0.5099  0.4000
   18CHTO   H85 7446   6.182   8.175   0.815 -1.6308 -0.4927  1.2895
   18CHTO   O29 7447   6.164   7.978   0.871 -0.1065  0.4085  0.2055
   18CHTO   C50 7448   6.293   7.986   0.940 -0.4830 -1.0780  0.1089
   18CHTO   H92 7449   6.277   8.054   1.024  0.1693 -0.8168  0.0230
   18CHTO   C54 7450   6.300   7.848   1.003 -0.0662 -0.2215 -0.4108
   18CHTO   O36 7451   6.274   7.730   0.926  0.2399  0.1736 -0.2755
   18CHTO   H72 7452   6.321   7.664   0.973 -1.7528 -1.3365 -0.3329
   18CHTO   O27 7453   6.025   8.096   0.730 -0.7537  0.2000  0.3122
   18CHTO   C37 7454   5.896   8.083   0.786  1.1066  0.0487 -1.0234
   18CHTO   H79 7455   5.889   7.997   0.854 -0.6534  0.5540 -0.5381
   18CHTO   C38 7456   5.864   8.211   0.871  0.6055  0.0032 -0.7351
   18CHTO   H80 7457   5.883   8.302   0.812  1.3735 -1.3961 -2.6812
   18CHTO   O31 7458   5.962   8.211   0.977  0.0950 -0.1323  0.3148
   18CHTO   H68 7459   6.030   8.271   0.954 -2.2779  3.0147  1.2260
   18CHTO   C39 7460   5.723   8.210   0.940 -0.1312 -0.8441  0.2337
   18CHTO   H81 7461   5.723   8.120   1.000 -1.3561 -0.5512  0.6841
   18CHTO    N7 7462   5.697   8.330   1.025  0.5220  0.0657  0.2437
   18CHTO   H73 7463   5.765   8.324   1.109  1.7711 -0.2553 -0.7765
   18CHTO   H74 7464   5.711   8.422   0.971  0.8447  0.0108  0.2304
   18CHTO   C40 7465   5.616   8.192   0.824 -0.1172  0.3430 -0.2612
   18CHTO   H82 7466   5.610   8.281   0.761  3.1381 -0.0691 -1.2255
   18CHTO   O26 7467   5.649   8.076   0.745 -0.0915 -0.1724  0.0635
   18CHTO   C41 7468   5.782   8.067   0.686  0.4162  0.4873  0.1223
   18CHTO   H83 7469   5.777   8.151   0.616  2.1366  0.8880  0.4433
   18CHTO   C52 7470   5.794   7.944   0.589 -0.1930  0.0581 -0.6107
   18CHTO   O35 7471   5.695   7.945   0.484 -0.2592 -0.2617 -0.1928
   18CHTO   H71 7472   5.615   7.903   0.508 -0.6748  1.2443  1.0807
   18CHTO   O28 7473   5.481   8.164   0.864  0.2793  0.6086  0.3510
   18CHTO   C42 7474   5.364   8.149   0.775  0.1034  0.2551 -0.1370
   18CHTO   H84 7475   5.278   8.157   0.842  1.0220 -1.7983  1.3283
   18CHTO   C44 7476   5.356   8.007   0.715 -0.0074  1.4003 -0.3763
   18CHTO   H86 7477   5.447   7.988   0.659 -0.0335 -5.4583  1.5144
   18CHTO   O32 7478   5.351   7.908   0.817  0.4681 -0.2057  0.1714
   18CHTO   H69 7479   5.414   7.917   0.886 -1.4516 -1.5339  2.1829
   18CHTO   C48 7480   5.235   7.990   0.614  0.4434  0.5565  0.3585
   18CHTO   H90 7481   5.151   7.999   0.682 -1.1699  1.7303 -1.7577
   18CHTO    N9 7482   5.220   7.846   0.562  0.5441  0.2139 -0.4174
   18CHTO   H77 7483   5.282   7.834   0.474  1.0617 -2.7404  0.3129
   18CHTO   H78 7484   5.122   7.804   0.547  0.9932 -0.9069 -0.2700
   18CHTO   C51 7485   5.236   8.111   0.506 -0.5016 -0.1225 -0.2954
   18CHTO   H93 7486   5.324   8.102   0.442  0.4096 -0.9378  1.0312
   18CHTO   O30 7487   5.234   8.237   0.577 -0.9457  0.2038 -0.0250
   18CHTO   C46 7488   5.347   8.250   0.658  0.1488 -0.0545  0.5454
   18CHTO   H88 7489   5.444   8.258   0.608 -0.3249  0.7736 -0.2704
   18CHTO   C53 7490   5.325   8.382   0.727 -0.3572  0.0355 -0.6455
   18CHTO   O72 7491   5.301   8.487   0.637 -0.4964  0.3987 -0.5560
   18CHTO  H199 7492   5.366   8.554   0.648  0.4069 -0.6747  0.7364
   18CHTO   O22 7493   5.113   8.098   0.443  0.1741 -0.0043  0.2626
   18CHTO   C31 7494   5.095   8.123   0.299  0.8392 -0.7192 -0.5702
   18CHTO   H59 7495   4.986   8.113   0.281  0.2357 -0.5803  2.7200
   18CHTO   C29 7496   5.130   8.268   0.253 -0.7410 -0.2777  0.2359
   18CHTO   H57 7497   5.223   8.288   0.309 -1.8678  1.1752  1.6310
   18CHTO   O21 7498   5.030   8.352   0.304 -0.1221 -0.2951  0.0678
   18CHTO   H37 7499   4.996   8.404   0.234 -0.1152 -1.9329 -1.1878
   18CHTO   C27 7500   5.153   8.284   0.099  0.6472  0.2510 -0.3544
   18CHTO   H55 7501   5.055   8.283   0.050 -0.3455 -0.1486  1.5693
   18CHTO    N5 7502   5.225   8.408   0.069 -0.3874 -0.0940  0.6494
   18CHTO   H43 7503   5.177   8.495   0.112 -1.4237  0.1830 -1.0554
   18CHTO   H44 7504   5.326   8.404   0.107  0.2152 -2.2929 -1.0995
   18CHTO   C25 7505   5.251   8.169   0.064 -0.0381  0.3593 -0.2413
   18CHTO   H53 7506   5.334   8.172   0.136 -0.5939  0.3795  0.4007
   18CHTO   O17 7507   5.165   8.052   0.080 -0.4878  0.0396 -0.0501
   18CHTO   C32 7508   5.166   8.010   0.216 -0.3672 -0.1381 -0.1450
   18CHTO   H60 7509   5.266   7.994   0.256  0.4757  1.0193 -1.7113
   18CHTO   C36 7510   5.097   7.880   0.222  0.5299  0.1408  0.7268
   18CHTO   O25 7511   5.162   7.771   0.149  0.1007 -0.1959  0.2717
   18CHTO   H40 7512   5.115   7.690   0.144  0.1948 -0.2325 -0.0415
   18CHTO   O15 7513   5.303   8.168  -0.089  0.6280  0.7586 -0.2130
   18CHTO   C19 7514   5.399   8.086  -0.175  0.3027  0.0800 -0.0779
   18CHTO   H47 7515   5.352   7.986  -0.180  1.3105 -0.3825 -0.4973
   18CHTO   C20 7516   5.431   8.157  -0.309  0.5081 -0.2676 -0.3545
   18CHTO   H48 7517   5.455   8.263  -0.295 -1.7949  0.1412  0.6847
   18CHTO   O19 7518   5.306   8.163  -0.378 -0.1688  0.0130  0.1971
   18CHTO   H35 7519   5.238   8.223  -0.352 -1.4336 -0.9898 -0.6997
   18CHTO   C21 7520   5.543   8.081  -0.386 -0.5983 -0.1534 -0.7589
   18CHTO   H49 7521   5.507   7.982  -0.413 -0.1506 -1.2523  2.4072
   18CHTO    N4 7522   5.584   8.151  -0.509 -0.1599  0.1161  0.3366
   18CHTO   H41 7523   5.511   8.225  -0.541  0.7184 -0.4739 -3.2905
   18CHTO   H42 7524   5.582   8.073  -0.584  0.9597 -0.0368  0.4591
   18CHTO   C22 7525   5.673   8.060  -0.299  0.0201  0.3255  0.2797
   18CHTO   H50 7526   5.715   8.159  -0.285 -1.2581  1.2543 -2.2205
   18CHTO   O14 7527   5.642   7.997  -0.180 -0.7317 -0.4457  0.2808
   18CHTO   C23 7528   5.538   8.061  -0.098  0.5429  0.3982  0.0341
   18CHTO   H51 7529   5.579   8.154  -0.056  0.5557 -0.1798  1.3312
   18CHTO   C34 7530   5.517   7.964   0.024 -0.7252  0.4008  0.2014
   18CHTO   O23 7531   5.629   7.938   0.102 -0.0457 -0.0410 -0.2414
   18CHTO   H38 7532   5.607   7.961   0.190 -0.5283 -1.8322  0.1399
   18CHTO   O16 7533   5.769   7.973  -0.361 -0.0344  0.3530 -0.2818
   18CHTO   C24 7534   5.919   8.001  -0.300 -0.4476 -0.3107 -0.3680
   18CHTO   H52 7535   5.914   8.050  -0.203 -1.8119 -1.3972  0.1216
   18CHTO   C26 7536   6.009   8.084  -0.399  0.3848  0.2370  0.7485
   18CHTO   H54 7537   6.005   8.019  -0.489  1.9640 -0.3674  1.0960
   18CHTO   O20 7538   5.943   8.208  -0.437  0.5771  0.3250 -0.0793
   18CHTO   H36 7539   5.864   8.221  -0.389 -0.1664 -1.8884 -0.6435
   18CHTO   C30 7540   6.161   8.097  -0.363 -1.2027 -0.5338  0.7239
   18CHTO   H58 7541   6.167   8.181  -0.292 -2.0081 -1.2427  1.6376
   18CHTO    N6 7542   6.252   8.139  -0.478  0.7306  0.1798  0.1937
   18CHTO   H45 7543   6.218   8.231  -0.523 -0.3966 -1.3412 -2.2130
   18CHTO   H46 7544   6.351   8.153  -0.438  0.7206  2.2543 -0.4482
   18CHTO   C33 7545   6.211   7.969  -0.290 -0.0646  0.0669 -0.2996
   18CHTO   H61 7546   6.268   7.904  -0.357 -0.8698  0.2886 -1.2102
   18CHTO   O18 7547   6.115   7.884  -0.224 -0.2200 -0.3099 -0.3937
   18CHTO   C28 7548   5.989   7.864  -0.287 -0.5494  0.0227  0.0190
   18CHTO   H56 7549   5.999   7.822  -0.387 -0.9300 -1.6695  0.6786
   18CHTO   C35 7550   5.911   7.763  -0.198  0.4144 -0.1173  0.1622
   18CHTO   O24 7551   5.787   7.723  -0.246 -0.2303 -0.4388  0.4058
   18CHTO   H39 7552   5.750   7.659  -0.188  1.4368 -1.3159  0.5309
   18CHTO    O9 7553   6.317   8.016  -0.196 -0.1133 -0.6570 -1.1442
   18CHTO   C13 7554   6.451   7.934  -0.169 -0.6205 -0.1508 -0.0297
   18CHTO   H26 7555   6.521   7.952  -0.253 -0.5019  0.4629  0.1981
   18CHTO   C11 7556   6.417   7.784  -0.149 -0.0041  0.0505 -0.0102
   18CHTO   H24 7557   6.360   7.746  -0.235 -0.9023  2.2622 -0.4029
   18CHTO    O8 7558   6.325   7.786  -0.041  0.2852  0.1305 -0.0058
   18CHTO    H3 7559   6.282   7.705  -0.018 -2.0306  1.9942  2.5361
   18CHTO    C9 7560   6.549   7.706  -0.133 -0.3506  0.4581  0.1075
   18CHTO   H22 7561   6.608   7.724  -0.224 -0.2794  0.8177  0.2245
   18CHTO    N2 7562   6.535   7.560  -0.131 -0.1024 -0.3394  0.4965
   18CHTO   H10 7563   6.481   7.530  -0.042 -0.1300 -0.1410  0.5455
   18CHTO   H11 7564   6.494   7.511  -0.218  1.9189 -1.4204  0.1185
   18CHTO    C7 7565   6.628   7.755  -0.008 -0.3220  0.7038 -0.8970
   18CHTO   H20 7566   6.731   7.727  -0.040  0.1010  1.8836 -0.5927
   18CHTO    O4 7567   6.617   7.896   0.016  0.1699  0.7319 -0.2594
   18CHTO   C14 7568   6.535   7.993  -0.044  0.1780 -0.7062 -0.4326
   18CHTO   H27 7569   6.597   8.077  -0.082  0.7695  0.0564  2.1456
   18CHTO   C18 7570   6.438   8.063   0.055 -0.3864  0.0699  0.0804
   18CHTO   O13 7571   6.524   8.121   0.155 -0.3188 -0.0599  0.8019
   18CHTO    H7 7572   6.498   8.112   0.245  0.3476 -0.2850  0.9790
   18CHTO    O2 7573   6.600   7.681   0.128  0.1236  0.4875  0.3370
   18CHTO    C1 7574   6.703   7.691   0.231 -0.0738  0.3046 -0.3127
   18CHTO   H14 7575   6.753   7.790   0.218 -0.6501  0.5584 -0.6293
   18CHTO    C2 7576   6.810   7.575   0.228  0.2973 -0.1538  0.2328
   18CHTO   H15 7577   6.749   7.484   0.220 -1.2357  0.7601  1.2457
   18CHTO    O6 7578   6.884   7.596   0.104  0.1247  0.3261 -0.9619
   18CHTO    H1 7579   6.966   7.555   0.126 -0.7130  0.0853  1.9544
   18CHTO    C3 7580   6.905   7.574   0.353  0.8339  0.2885  0.2550
   18CHTO   H16 7581   6.968   7.664   0.354  1.7635 -0.3405 -0.9722
   18CHTO    N1 7582   6.999   7.457   0.345  0.2520  0.1943  0.2002
   18CHTO    H8 7583   6.966   7.377   0.410  0.0084 -1.2671 -1.6749
   18CHTO    H9 7584   6.992   7.408   0.249 -1.4565  1.0425 -0.1341
   18CHTO    C4 7585   6.820   7.581   0.483 -0.1041 -0.3017 -0.3197
   18CHTO   H17 7586   6.768   7.485   0.493  0.0221 -0.7104 -3.0216
   18CHTO    O1 7587   6.723   7.696   0.491 -0.1704  0.6186 -0.1000
   18CHTO    C5 7588   6.634   7.700   0.371 -0.5028 -0.1683  0.5146
   18CHTO   H18 7589   6.576   7.608   0.381  0.1850 -0.7549 -0.7795
   18CHTO   C16 7590   6.546   7.826   0.390 -0.3912 -0.6340  0.4129
   18CHTO   O11 7591   6.431   7.829   0.302  0.1801  0.1511 -0.2130
   18CHTO    H5 7592   6.371   7.894   0.332 -0.1187  0.8059 -2.1872
   18CHTO    O3 7593   6.908   7.604   0.594 -0.7934  0.4420 -0.7569
   18CHTO    C6 7594   6.846   7.582   0.727 -0.6057  0.3691  0.2686
   18CHTO   H19 7595   6.738   7.585   0.718 -0.7334 -3.5177 -0.2453
   18CHTO    C8 7596   6.882   7.440   0.789 -0.3127  0.2422 -0.2514
   18CHTO   H21 7597   6.991   7.432   0.799 -0.3127  1.2258  0.5635
   18CHTO    O7 7598   6.816   7.346   0.700  0.5894  0.4904 -0.5013
   18CHTO    H2 7599   6.839   7.261   0.732 -0.5459  0.8070  1.2278
   18CHTO   C12 7600   6.824   7.426   0.939  0.2463 -0.7874 -0.6344
   18CHTO   H25 7601   6.714   7.426   0.924  0.1170 -2.4480  0.2988
   18CHTO    N3 7602   6.873   7.302   1.008  0.0129  0.2456 -0.6478
   18CHTO   H12 7603   6.979   7.297   0.987  0.1025  0.5528 -0.2822
   18CHTO   H13 7604   6.855   7.298   1.114  0.4214  2.2542 -0.4717
   18CHTO   C15 7605   6.858   7.561   1.024 -0.1135  0.1254 -0.3433
   18CHTO   H28 7606   6.959   7.554   1.064  0.2403  0.5230 -1.1649
   18CHTO   O10 7607   6.761   7.577   1.129 -0.0697 -0.3038 -0.6050
   18CHTO    H4 7608   6.673   7.597   1.104  0.2573  3.6335  1.0080
   18CHTO    O5 7609   6.827   7.683   0.959  0.5718 -0.1953 -0.4446
   18CHTO   C10 7610   6.890   7.690   0.826 -0.3266 -0.1465 -0.1128
   18CHTO   H23 7611   6.998   7.690   0.844 -0.4324 -0.5082  0.5318
   18CHTO   C17 7612   6.876   7.834   0.768  0.4966 -0.3899 -0.5548
   18CHTO   O12 7613   6.747   7.884   0.760  0.2342 -0.1047  0.5133
   18CHTO    H6 7614   6.728   7.953   0.820 -1.2721 -0.0156 -0.0542
   19CHTO  H203 7615   5.850   9.201   9.824  1.1475 -0.0012  0.2444
   19CHTO   O82 7616   5.863   9.108   9.816  0.0547 -0.0902 -0.6322
   19CHTO  C123 7617   5.784   9.055   9.708 -0.4404  0.6568  0.5619
   19CHTO  H227 7618   5.808   9.108   9.615  0.2481 -1.0141 -0.2409
   19CHTO   O77 7619   5.835   8.917   9.698  0.1482  0.1183  0.1698
   19CHTO  C118 7620   5.787   8.835   9.594 -0.4564  0.6050 -0.9365
   19CHTO  H222 7621   5.812   8.889   9.501 -0.5733  1.1903 -0.6300
   19CHTO  C125 7622   5.864   8.692   9.587 -0.2852  0.3697 -0.5785
   19CHTO   O84 7623   5.851   8.601   9.700  0.0062 -0.3496 -0.2208
   19CHTO  H205 7624   5.868   8.516   9.664  0.6502  0.6220 -2.2781
   19CHTO  C114 7625   5.634   8.813   9.608 -0.2384 -0.6866 -0.0808
   19CHTO  H218 7626   5.610   8.760   9.700 -1.2697 -0.6605 -0.3302
   19CHTO  C116 7627   5.567   8.957   9.619  0.3684  0.5239 -0.5829
   19CHTO  H220 7628   5.583   9.009   9.523  2.0592 -1.6435 -1.4960
   19CHTO   O79 7629   5.425   8.939   9.631  0.1828  0.3031 -0.0139
   19CHTO  H201 7630   5.398   8.876   9.567 -0.7460  0.6874 -0.0041
   19CHTO  C120 7631   5.627   9.048   9.733 -0.5025  1.2887 -0.6794
   19CHTO  H224 7632   5.605   9.007   9.834  1.6042  1.0000 -0.3085
   19CHTO   N21 7633   5.569   9.181   9.740 -0.2048 -0.0614 -0.0862
   19CHTO  H211 7634   5.556   9.215   9.842 -1.9114 -0.3438 -0.1889
   19CHTO  H212 7635   5.627   9.252   9.684  0.6941 -1.9133 -1.5573
   19CHTO   O75 7636   5.596   8.746   9.486  0.5007 -0.1321 -0.7549
   19CHTO  C112 7637   5.478   8.653   9.506  0.9303  0.5624  0.2480
   19CHTO  H216 7638   5.397   8.703   9.562  0.9904  0.8534  0.0760
   19CHTO   O73 7639   5.528   8.534   9.580  0.4807 -0.0028  0.2893
   19CHTO  C113 7640   5.440   8.424   9.599  0.4963  0.1561  0.4403
   19CHTO  H217 7641   5.352   8.466   9.652 -1.1973  0.3729 -2.4337
   19CHTO  C124 7642   5.523   8.320   9.675  0.6289  0.3435 -0.0573
   19CHTO   O83 7643   5.658   8.304   9.627 -0.0053 -0.6139  0.0739
   19CHTO  H204 7644   5.705   8.383   9.646  1.7530 -1.2518 -1.4745
   19CHTO  C109 7645   5.380   8.373   9.471 -0.1286  0.0850  0.4426
   19CHTO  H213 7646   5.460   8.329   9.410 -0.1671  1.9277 -0.9938
   19CHTO  C110 7647   5.310   8.489   9.393 -0.0230  0.4736 -0.0071
   19CHTO  H214 7648   5.240   8.532   9.463  2.0358  0.6849  1.9750
   19CHTO   O78 7649   5.250   8.437   9.274  0.4783 -0.2705  0.1196
   19CHTO  H200 7650   5.208   8.499   9.217  1.3563  0.3059  0.0875
   19CHTO  C111 7651   5.418   8.600   9.371  0.1484  0.0869 -0.2697
   19CHTO  H215 7652   5.495   8.555   9.307  0.1499 -1.1976  0.6288
   19CHTO   N19 7653   5.363   8.711   9.290  0.0299  0.0267  0.2378
   19CHTO  H207 7654   5.354   8.676   9.188  1.6136  1.0877 -0.2787
   19CHTO  H208 7655   5.275   8.759   9.331 -0.8749 -1.5065  0.1484
   19CHTO   O74 7656   5.290   8.263   9.501 -0.4155 -0.3034 -0.2921
   19CHTO  C115 7657   5.271   8.163   9.392  0.1736 -1.0060  0.1120
   19CHTO  H219 7658   5.229   8.214   9.305  2.8924 -1.3764 -1.4918
   19CHTO   O76 7659   5.425   8.098   9.333  0.3240  0.2608  0.0452
   19CHTO  C122 7660   5.460   7.997   9.425 -0.1724  0.1123 -0.2292
   19CHTO  H226 7661   5.472   8.042   9.523  0.0191 -0.9251  0.2375
   19CHTO  C126 7662   5.595   7.934   9.387  0.5259  0.1261  0.0690
   19CHTO   O85 7663   5.702   8.006   9.456  0.6284  0.6835 -0.0416
   19CHTO  H206 7664   5.770   7.944   9.475  0.1686  0.1507 -0.1219
   19CHTO  C121 7665   5.365   7.870   9.435  0.5194  0.0292  0.1868
   19CHTO  H225 7666   5.398   7.785   9.370  2.3692  0.4482  0.5554
   19CHTO   O81 7667   5.359   7.836   9.575  0.2218 -0.1336  0.5690
   19CHTO  H202 7668   5.328   7.911   9.622 -1.0567  0.5052 -1.2302
   19CHTO  C119 7669   5.225   7.905   9.387  0.5732  0.1632 -0.2252
   19CHTO  H223 7670   5.232   7.909   9.278  1.3213  0.8353 -0.1503
   19CHTO  C117 7671   5.179   8.049   9.445 -0.4784  1.1410  0.1916
   19CHTO  H221 7672   5.177   8.043   9.553 -1.3241 -4.0244  0.0285
   19CHTO   N20 7673   5.034   8.081   9.406  0.1297  0.1111  0.3750
   19CHTO  H209 7674   4.973   8.048   9.488  0.8857 -1.7836  0.2134
   19CHTO  H210 7675   5.017   8.187   9.395  1.3524  0.1673 -1.2528
   19CHTO   O80 7676   5.115   7.785   9.397 -0.1597  0.0985  0.4987
   19CHTO  C103 7677   5.138   7.655   9.324 -0.3733 -0.1450 -0.6001
   19CHTO  H190 7678   5.220   7.664   9.252 -0.1139  0.3805 -0.2436
   19CHTO  C101 7679   5.161   7.529   9.412  0.1393 -0.3958  0.3788
   19CHTO  H188 7680   5.076   7.514   9.479  0.1730  0.2129  0.5673
   19CHTO   O68 7681   5.283   7.556   9.498  0.5482  0.0535  0.1301
   19CHTO  H168 7682   5.355   7.579   9.441  0.9201 -0.3274  0.4392
   19CHTO   C99 7683   5.170   7.409   9.318  0.6517 -0.5411  0.3602
   19CHTO  H186 7684   5.249   7.417   9.240 -0.2083 -3.0416 -0.8138
   19CHTO   N17 7685   5.203   7.279   9.385 -0.9663  0.9018 -0.2776
   19CHTO  H174 7686   5.123   7.238   9.445  0.0013 -1.3272 -0.4424
   19CHTO  H175 7687   5.223   7.208   9.307 -2.9174  0.6388 -0.5583
   19CHTO   C97 7688   5.037   7.400   9.231 -0.8560  0.5458  1.1918
   19CHTO  H184 7689   4.946   7.376   9.287 -1.5592 -0.3952 -0.3099
   19CHTO   O64 7690   5.021   7.522   9.148 -0.0485  0.1164  0.8752
   19CHTO  C104 7691   5.006   7.631   9.235  0.2339 -0.0798 -0.0437
   19CHTO  H191 7692   4.923   7.618   9.305 -0.0484 -1.0437 -0.5584
   19CHTO  C108 7693   4.976   7.753   9.148  0.7552 -0.3618  0.1901
   19CHTO   O71 7694   5.078   7.758   9.043 -0.2030 -0.0249 -0.4065
   19CHTO  H171 7695   5.062   7.843   9.008  0.4450  0.6105  0.8321
   19CHTO   O62 7696   5.060   7.309   9.120 -0.3669 -0.3448 -0.6096
   19CHTO   C91 7697   4.981   7.195   9.109  0.2433 -0.5599  0.2313
   19CHTO  H178 7698   4.918   7.173   9.195 -0.8607  1.1652 -0.1159
   19CHTO   C92 7699   5.078   7.075   9.092 -0.8566 -0.6591 -0.0108
   19CHTO  H179 7700   5.170   7.081   9.153 -1.5660  0.3020  0.9932
   19CHTO   O66 7701   5.001   6.956   9.124 -0.5405 -0.2567 -0.7089
   19CHTO  H166 7702   5.065   6.890   9.145  1.6162  1.0961 -2.7143
   19CHTO   C93 7703   5.125   7.060   8.943  0.6380 -1.0507 -0.3486
   19CHTO  H180 7704   5.172   6.960   8.936  3.2729  0.1718 -0.6849
   19CHTO   N16 7705   5.237   7.148   8.903  0.1479 -0.1074 -0.0037
   19CHTO  H172 7706   5.313   7.126   8.977 -0.5834 -2.8905 -0.0488
   19CHTO  H173 7707   5.221   7.255   8.906  2.2142  0.2123  0.1760
   19CHTO   C94 7708   5.005   7.069   8.850  0.6952  0.1695 -0.0686
   19CHTO  H181 7709   5.013   7.153   8.781  0.6852 -1.2865 -1.8707
   19CHTO   O61 7710   4.878   7.100   8.916  0.2273  0.2373 -0.3613
   19CHTO   C95 7711   4.874   7.215   8.994 -0.4500 -0.2142 -0.2427
   19CHTO  H182 7712   4.892   7.306   8.937 -0.4836  1.2499  2.0271
   19CHTO  C106 7713   4.732   7.228   9.057 -0.2704  0.5387  0.3285
   19CHTO   O69 7714   4.706   7.360   9.118 -0.4270 -0.4230  0.7868
   19CHTO  H169 7715   4.733   7.359   9.208 -0.9923  1.9468  1.0031
   19CHTO   O63 7716   4.982   6.949   8.762 -0.4068  0.5138 -0.5910
   19CHTO   C96 7717   5.096   6.914   8.659  0.3699  0.3137 -0.6931
   19CHTO  H183 7718   5.188   6.903   8.716 -0.6081  0.9592  1.0284
   19CHTO   C98 7719   5.125   7.021   8.555 -0.3619 -0.5765  0.2051
   19CHTO  H185 7720   5.128   7.121   8.602  0.2743 -0.7965  0.6383
   19CHTO   O67 7721   5.255   7.002   8.504 -0.3093 -0.0980  0.0255
   19CHTO  H167 7722   5.249   6.961   8.420 -1.5378 -0.6333  0.3765
   19CHTO  C102 7723   5.014   7.015   8.430  0.0296  0.8584 -0.7106
   19CHTO  H189 7724   5.058   7.066   8.343  1.4458 -1.3607 -1.3383
   19CHTO   N18 7725   4.885   7.077   8.458  0.1640  0.4164  0.2955
   19CHTO  H176 7726   4.879   7.101   8.564  0.8025 -0.6791  0.5873
   19CHTO  H177 7727   4.896   7.172   8.408 -2.7310  1.4811  1.5280
   19CHTO  C105 7728   5.003   6.867   8.379  0.5983  1.0539 -0.1894
   19CHTO  H192 7729   4.896   6.845   8.375  0.5580  1.1984  0.0990
   19CHTO   O65 7730   5.070   6.763   8.457 -0.3921  0.0326 -0.6373
   19CHTO  C100 7731   5.063   6.770   8.601 -0.2903  1.0714  0.0902
   19CHTO  H187 7732   4.961   6.743   8.631  0.0860 -1.4531 -0.8094
   19CHTO  C107 7733   5.147   6.663   8.665 -0.3449  0.3780 -0.3932
   19CHTO   O70 7734   5.112   6.529   8.631 -0.2015 -0.3060 -0.7163
   19CHTO  H170 7735   5.186   6.489   8.591 -0.6156 -1.1014 -0.6927
   19CHTO   O57 7736   5.059   6.870   8.210  0.3490 -0.1858  0.6749
   19CHTO   C85 7737   4.980   6.825   8.104 -0.4245  0.0449  0.4838
   19CHTO  H157 7738   4.891   6.771   8.141 -0.9079 -0.0013 -0.7263
   19CHTO   C83 7739   5.065   6.715   8.028 -0.0545 -0.1387  0.8736
   19CHTO  H155 7740   5.092   6.629   8.089  1.3928 -1.2702 -1.3035
   19CHTO   O56 7741   5.188   6.784   7.994  0.2062 -0.1360 -0.1942
   19CHTO  H135 7742   5.176   6.833   7.914 -0.2706 -0.1350 -0.1251
   19CHTO   C81 7743   4.987   6.663   7.904 -0.9732  0.4915 -0.6854
   19CHTO  H153 7744   4.896   6.617   7.941  0.9592 -1.4982  1.7391
   19CHTO   N14 7745   5.065   6.558   7.835 -0.0754 -0.4022 -0.0714
   19CHTO  H141 7746   5.011   6.467   7.816 -1.5642  0.5215 -0.4129
   19CHTO  H142 7747   5.160   6.528   7.874 -1.4422 -1.5063  2.5188
   19CHTO   C79 7748   4.947   6.788   7.805 -0.3709 -0.2286  0.0232
   19CHTO  H151 7749   4.872   6.747   7.737 -0.5044 -2.2802  1.3675
   19CHTO   O52 7750   4.872   6.889   7.872  0.6471  0.3944  0.2609
   19CHTO   C86 7751   4.942   6.940   7.995  0.4124  0.4412 -0.0812
   19CHTO  H158 7752   5.037   6.982   7.956 -0.2798  3.2274  1.1439
   19CHTO   C90 7753   4.868   7.063   8.059 -0.2093 -0.0409  0.0795
   19CHTO   O60 7754   4.866   7.168   7.962 -0.1684  0.0025 -0.3558
   19CHTO  H138 7755   4.923   7.238   7.988 -0.6872  0.5699 -0.7442
   19CHTO   O50 7756   5.055   6.849   7.739 -0.5039  0.0599 -0.6218
   19CHTO   C73 7757   5.134   6.889   7.627  0.1554  0.2612 -0.1976
   19CHTO  H145 7758   5.120   6.816   7.545  2.4441  1.6867 -1.9171
   19CHTO   C74 7759   5.283   6.910   7.671 -0.2371  0.2932  0.0821
   19CHTO  H146 7760   5.323   6.815   7.708 -1.5028 -0.3365 -0.1413
   19CHTO   O54 7761   5.362   6.935   7.547 -0.6709 -0.2231  0.4380
   19CHTO  H133 7762   5.318   6.997   7.493 -1.9969 -0.9362  0.6825
   19CHTO   C75 7763   5.287   7.024   7.779 -0.0555 -0.2190  0.6890
   19CHTO  H147 7764   5.223   6.994   7.864  1.3132 -2.5496  0.9451
   19CHTO   N13 7765   5.422   7.057   7.835  0.2332  0.3858 -0.0881
   19CHTO  H139 7766   5.492   6.981   7.804 -0.6507 -0.2727 -0.4811
   19CHTO  H140 7767   5.434   7.073   7.941  1.1233 -1.2775  0.0639
   19CHTO   C76 7768   5.218   7.159   7.720  0.0289 -0.4533  0.3736
   19CHTO  H148 7769   5.274   7.208   7.641 -0.8300  0.0423  0.0654
   19CHTO   O49 7770   5.084   7.125   7.671 -0.3299  0.1160 -0.0938
   19CHTO   C77 7771   5.069   7.026   7.579 -0.2791 -0.1385 -0.0453
   19CHTO  H149 7772   5.117   7.064   7.488 -0.5178 -0.4088 -0.2846
   19CHTO   C88 7773   4.922   7.018   7.540 -0.6520  0.1977 -0.2151
   19CHTO   O58 7774   4.891   7.138   7.476 -0.4426 -0.8090 -0.3411
   19CHTO  H136 7775   4.814   7.139   7.423 -3.4924  0.7002  3.8536
   19CHTO   O51 7776   5.183   7.260   7.825  0.0759  0.3084  0.2352
   19CHTO   C78 7777   5.189   7.410   7.784  0.6698  0.3653 -0.0249
   19CHTO  H150 7778   5.224   7.408   7.679  4.7855 -1.4020  1.2646
   19CHTO   C80 7779   5.301   7.477   7.868  0.3805  0.1829  0.2431
   19CHTO  H152 7780   5.295   7.447   7.974  1.8613 -0.8109  0.0548
   19CHTO   O55 7781   5.422   7.422   7.823 -0.1878  0.0560  0.1100
   19CHTO  H134 7782   5.454   7.359   7.884 -1.1421 -1.0370 -0.4961
   19CHTO   C84 7783   5.296   7.635   7.847 -0.1053 -0.1583 -0.5771
   19CHTO  H156 7784   5.322   7.649   7.742  2.4216 -1.1855 -0.1167
   19CHTO   N15 7785   5.400   7.716   7.922  0.0214 -0.1791  0.6205
   19CHTO  H143 7786   5.435   7.651   7.999 -0.5019 -1.2499 -0.0458
   19CHTO  H144 7787   5.479   7.740   7.855  0.1534 -0.9204  0.5084
   19CHTO   C87 7788   5.152   7.678   7.878 -0.4003 -0.1084  0.2163
   19CHTO  H159 7789   5.122   7.664   7.982 -0.0539  1.0130  0.4742
   19CHTO   O53 7790   5.059   7.621   7.805  0.2496  0.0928  0.0082
   19CHTO   C82 7791   5.050   7.475   7.807 -0.2316  0.7692  0.3342
   19CHTO  H154 7792   5.015   7.436   7.903  0.6709  0.4854  0.5496
   19CHTO   C89 7793   4.946   7.436   7.696 -0.2236 -0.1398  0.5542
   19CHTO   O59 7794   4.810   7.482   7.729 -0.1409  0.2220 -0.3165
   19CHTO  H137 7795   4.762   7.446   7.657 -0.3316 -0.2464  0.0480
   19CHTO   O45 7796   5.143   7.850   7.859 -0.4243  0.4503 -0.2656
   19CHTO   C67 7797   5.011   7.907   7.886  0.2413  0.2334  0.5478
   19CHTO  H124 7798   4.935   7.836   7.854  0.1506  0.8422 -0.6190
   19CHTO   C65 7799   4.988   7.944   8.033  0.4571 -0.8726  0.8410
   19CHTO  H122 7800   5.085   7.972   8.074  1.4672 -1.9497 -0.7247
   19CHTO   O44 7801   4.958   7.817   8.092 -0.3979  0.1180  0.1871
   19CHTO  H102 7802   4.991   7.817   8.180 -2.0382  2.7059  0.8691
   19CHTO   C63 7803   4.878   8.059   8.044  0.6854  0.0927  0.3734
   19CHTO  H120 7804   4.936   8.152   8.038  0.1154  0.5439  1.6998
   19CHTO   N11 7805   4.806   8.077   8.180 -1.1206  0.1545 -0.0874
   19CHTO  H108 7806   4.865   8.026   8.253 -0.5927 -0.8182 -1.1728
   19CHTO  H109 7807   4.715   8.023   8.166 -1.4140  0.7075 -0.3221
   19CHTO   C61 7808   4.784   8.054   7.916  0.6005  0.1741  0.2139
   19CHTO  H118 7809   4.721   8.141   7.940  1.2352 -0.0889  3.0119
   19CHTO   O40 7810   4.845   8.072   7.791 -0.0173 -0.0734 -0.2216
   19CHTO   C68 7811   4.987   8.038   7.797 -0.7691 -0.1889  0.6230
   19CHTO  H125 7812   5.050   8.122   7.834 -1.2660  0.6394 -0.3845
   19CHTO   C72 7813   5.030   8.017   7.648  0.5056 -0.0630  0.1363
   19CHTO   O48 7814   5.137   8.102   7.600  0.2714 -0.1136 -0.3708
   19CHTO  H105 7815   5.153   8.175   7.657  0.3915 -0.8956  0.6120
   19CHTO   O38 7816   4.713   7.929   7.923 -1.2680 -0.1840  0.2735
   19CHTO   C55 7817   4.600   7.910   7.835  0.4285 -0.3344  0.2723
   19CHTO  H112 7818   4.583   8.005   7.782  0.9690 -0.3760  0.0202
   19CHTO   C56 7819   4.480   7.875   7.930  0.2479  0.3336  0.7570
   19CHTO  H113 7820   4.508   7.781   7.980 -1.7473 -1.2383 -0.9994
   19CHTO   O42 7821   4.466   7.979   8.033  0.2064 -0.1798  0.5056
   19CHTO  H100 7822   4.409   8.043   7.998  1.5517  1.0220  0.4633
   19CHTO   C57 7823   4.343   7.851   7.841  0.4625 -0.5404  0.1452
   19CHTO  H114 7824   4.331   7.940   7.780  1.1629 -0.9978 -0.6725
   19CHTO   N10 7825   4.231   7.819   7.925  0.2242 -0.1650 -0.9428
   19CHTO  H106 7826   4.176   7.911   7.937  0.1014 -0.2743 -0.6573
   19CHTO  H107 7827   4.162   7.749   7.880  0.5688  0.0048 -1.7305
   19CHTO   C58 7828   4.374   7.739   7.736 -0.2440  0.1272  0.3624
   19CHTO  H115 7829   4.397   7.643   7.787 -1.0487 -0.7727 -0.9510
   19CHTO   O37 7830   4.489   7.773   7.656 -0.4340 -0.9167  0.2823
   19CHTO   C59 7831   4.614   7.790   7.730 -0.4915  0.3552 -0.3538
   19CHTO  H116 7832   4.635   7.703   7.792 -1.4294 -0.7666 -1.5916
   19CHTO   C70 7833   4.723   7.801   7.620 -0.5842 -0.5442  0.3213
   19CHTO   O46 7834   4.702   7.901   7.518  0.6077  0.3693 -0.6545
   19CHTO  H103 7835   4.697   7.982   7.564  1.7179  0.1890 -0.2050
   19CHTO   O39 7836   4.232   7.724   7.638  0.1257  0.0010 -0.6376
   19CHTO   C60 7837   4.235   7.618   7.538 -0.6732  0.0576  0.3864
   19CHTO  H117 7838   4.324   7.629   7.476 -1.3463 -1.8481 -0.9738
   19CHTO   C62 7839   4.237   7.471   7.588  0.0496  0.1240  0.5163
   19CHTO  H119 7840   4.329   7.461   7.649  0.2817 -1.0043 -0.0074
   19CHTO   O43 7841   4.132   7.456   7.687 -0.3751 -0.7634 -0.3754
   19CHTO  H101 7842   4.156   7.388   7.746 -0.8510 -0.7272 -0.1338
   19CHTO   C66 7843   4.227   7.365   7.478 -0.1000 -0.3191  0.9384
   19CHTO  H123 7844   4.314   7.373   7.413 -0.9163 -1.1963 -0.2800
   19CHTO   N12 7845   4.234   7.233   7.538  0.9020 -0.4652 -0.1570
   19CHTO  H110 7846   4.203   7.168   7.457  0.1393 -1.9148  1.2569
   19CHTO  H111 7847   4.329   7.214   7.585 -0.3022 -0.4684  2.3565
   19CHTO   C69 7848   4.094   7.405   7.410 -0.1158  0.0106  0.1886
   19CHTO  H126 7849   4.023   7.409   7.495 -0.3255 -1.7619  0.1230
   19CHTO   O41 7850   4.110   7.542   7.346  0.4337  0.2965  0.0884
   19CHTO   C64 7851   4.109   7.638   7.444 -0.1925 -0.6343 -0.4430
   19CHTO  H121 7852   4.014   7.633   7.501  1.1046 -0.0045  1.8610
   19CHTO   C71 7853   4.115   7.781   7.374 -0.0850  0.4239  0.4872
   19CHTO   O47 7854   4.231   7.812   7.294 -0.4451  0.7714 -0.2905
   19CHTO  H104 7855   4.267   7.897   7.313  1.1533 -0.1394  0.9032
   19CHTO   O34 7856   4.049   7.305   7.305  0.2098  0.0791 -0.6540
   19CHTO   C49 7857   4.013   7.275   7.156  0.4157  0.6753  0.4934
   19CHTO   H91 7858   3.915   7.318   7.135  0.5035  1.1164  0.9653
   19CHTO   C47 7859   4.005   7.127   7.154 -0.1091  0.7504 -0.2731
   19CHTO   H89 7860   3.950   7.102   7.061  0.4917  1.5790 -0.8559
   19CHTO   O33 7861   3.919   7.086   7.260 -0.2069  0.2981 -0.3402
   19CHTO   H70 7862   3.954   7.005   7.293  2.0407  1.8584  1.3143
   19CHTO   C45 7863   4.151   7.060   7.157  0.7400  0.9857 -0.4572
   19CHTO   H87 7864   4.190   7.061   7.260 -0.7334  2.1387  0.0949
   19CHTO    N8 7865   4.143   6.920   7.113  0.5295 -0.3161 -0.2400
   19CHTO   H75 7866   4.204   6.906   7.025  1.8797  0.8119  0.4916
   19CHTO   H76 7867   4.167   6.846   7.188 -0.8668 -0.3996  0.1411
   19CHTO   C43 7868   4.262   7.150   7.082  0.3418  0.8253 -0.5526
   19CHTO   H85 7869   4.298   7.208   7.167  1.7172  0.3014 -0.7598
   19CHTO   O29 7870   4.196   7.233   6.985 -0.3371 -0.3071  0.4338
   19CHTO   C50 7871   4.114   7.333   7.053 -0.1832 -0.6222  0.0113
   19CHTO   H92 7872   4.177   7.403   7.111  2.0699 -1.0862 -1.7914
   19CHTO   C54 7873   4.053   7.428   6.947  0.1034  0.3052 -0.2440
   19CHTO   O36 7874   4.157   7.485   6.873 -0.0606  0.0433  0.3686
   19CHTO   H72 7875   4.200   7.416   6.825 -0.4453 -0.3615  0.5961
   19CHTO   O27 7876   4.380   7.082   7.033 -0.3895 -0.5844 -0.3247
   19CHTO   C37 7877   4.514   7.141   7.027  0.0275  0.2150 -0.2440
   19CHTO   H79 7878   4.579   7.074   6.970 -0.1407  1.6819 -2.2422
   19CHTO   C38 7879   4.530   7.274   6.952  0.0969 -0.1979 -0.3128
   19CHTO   H80 7880   4.471   7.354   6.999  2.1015  1.3901 -0.4430
   19CHTO   O31 7881   4.483   7.251   6.818  0.1644  0.6354 -0.1671
   19CHTO   H68 7882   4.392   7.230   6.825  0.1112  0.4832 -1.2161
   19CHTO   C39 7883   4.679   7.324   6.950  0.4521  0.6839 -0.1283
   19CHTO   H81 7884   4.738   7.254   6.891 -0.0474  0.7874 -0.7549
   19CHTO    N7 7885   4.700   7.459   6.898 -0.9296 -0.0510 -0.4919
   19CHTO   H73 7886   4.802   7.493   6.908 -1.6232  1.9521  0.0593
   19CHTO   H74 7887   4.634   7.524   6.953  0.0687  0.1749  0.4677
   19CHTO   C40 7888   4.735   7.311   7.097 -0.0850  0.2508 -0.3873
   19CHTO   H82 7889   4.691   7.394   7.153  1.1634 -0.4028  1.6437
   19CHTO   O26 7890   4.709   7.189   7.161  0.3038  0.0262  0.1342
   19CHTO   C41 7891   4.561   7.151   7.165  0.3361 -0.0925  0.1116
   19CHTO   H83 7892   4.504   7.214   7.235 -0.4578 -0.8554  0.1688
   19CHTO   C52 7893   4.559   7.017   7.246 -0.3133  0.3625  0.4255
   19CHTO   O35 7894   4.621   6.900   7.186  0.8143 -0.3728 -0.3752
   19CHTO   H71 7895   4.626   6.827   7.244 -3.2793  1.0086  1.9046
   19CHTO   O28 7896   4.880   7.307   7.088 -0.1163  0.0650  0.0486
   19CHTO   C42 7897   4.968   7.349   7.202  0.4157  0.4807  0.1032
   19CHTO   H84 7898   4.930   7.298   7.290  1.1285 -1.4845 -0.6845
   19CHTO   C44 7899   4.982   7.502   7.236  0.0619  0.4972 -0.6175
   19CHTO   H86 7900   5.026   7.553   7.151 -0.0982  1.4153 -0.1614
   19CHTO   O32 7901   4.853   7.558   7.265  0.3301  0.2181  0.1309
   19CHTO   H69 7902   4.862   7.606   7.345 -0.9045  0.7304 -0.0374
   19CHTO   C48 7903   5.079   7.533   7.357  0.0116 -0.2645 -0.9820
   19CHTO   H90 7904   5.035   7.486   7.445  0.8927  0.3765 -0.1863
   19CHTO    N9 7905   5.098   7.680   7.387  0.0940 -0.4006  0.2092
   19CHTO   H77 7906   5.174   7.714   7.318  1.1463 -0.7512  1.1939
   19CHTO   H78 7907   5.007   7.738   7.380  1.2850  1.5388  0.5786
   19CHTO   C51 7908   5.213   7.457   7.325  0.5136 -0.4262 -0.3464
   19CHTO   H93 7909   5.252   7.507   7.236  0.7322  0.2311  0.1149
   19CHTO   O30 7910   5.181   7.322   7.302  0.0322  0.5201  0.8406
   19CHTO   C46 7911   5.114   7.292   7.187  0.2212  0.2122 -0.3803
   19CHTO   H88 7912   5.170   7.339   7.106  0.6290  2.3776  1.0907
   19CHTO   C53 7913   5.108   7.143   7.169 -0.2160  0.6210  0.0902
   19CHTO   O72 7914   5.236   7.078   7.158  0.0064  0.8583 -0.0956
   19CHTO  H199 7915   5.294   7.101   7.088  1.5653 -0.1058  0.8324
   19CHTO   O22 7916   5.309   7.452   7.430 -0.0120  0.0225  0.3030
   19CHTO   C31 7917   5.446   7.497   7.407  0.1203  0.3329 -0.6117
   19CHTO   H59 7918   5.457   7.549   7.309 -3.3040 -0.4471 -1.4818
   19CHTO   C29 7919   5.500   7.598   7.509 -0.4076 -0.1729 -0.4217
   19CHTO   H57 7920   5.490   7.545   7.605  0.8166  0.1859 -0.0940
   19CHTO   O21 7921   5.406   7.704   7.507  0.1590  0.0436  0.7412
   19CHTO   H37 7922   5.397   7.736   7.595 -1.6190 -0.7154  0.8533
   19CHTO   C27 7923   5.650   7.648   7.489 -1.1483  0.2543 -0.1062
   19CHTO   H55 7924   5.656   7.719   7.405 -0.1743  1.6506  1.1055
   19CHTO    N5 7925   5.706   7.721   7.601  0.2970  0.0369  0.9576
   19CHTO   H43 7926   5.681   7.826   7.596  0.6321  0.1437  1.4672
   19CHTO   H44 7927   5.812   7.707   7.616  0.2344  0.4805  1.8553
   19CHTO   C25 7928   5.743   7.524   7.442  0.0747  0.2323  0.2219
   19CHTO   H53 7929   5.772   7.461   7.527 -1.9608  0.5623  1.1925
   19CHTO   O17 7930   5.669   7.437   7.349  0.1920  0.6841 -0.1600
   19CHTO   C32 7931   5.549   7.380   7.408 -0.8071 -0.1402 -0.1909
   19CHTO   H60 7932   5.564   7.344   7.510 -0.8344 -0.5559 -0.3357
   19CHTO   C36 7933   5.520   7.277   7.305  0.0618 -0.4355  0.3131
   19CHTO   O25 7934   5.426   7.180   7.353  0.1975 -0.6209 -0.3456
   19CHTO   H40 7935   5.341   7.204   7.322  0.2864  0.9331  0.5333
   19CHTO   O15 7936   5.868   7.579   7.377  0.4222  0.1327 -0.0301
   19CHTO   C19 7937   6.016   7.551   7.394 -0.0864 -0.2568  1.3921
   19CHTO   H47 7938   6.058   7.604   7.308  0.7509  2.4579  3.3833
   19CHTO   C20 7939   6.080   7.601   7.520 -0.2321 -0.2966  0.3960
   19CHTO   H48 7940   6.030   7.564   7.611 -1.0022 -2.0452 -0.7247
   19CHTO   O19 7941   6.040   7.739   7.529 -0.4405  0.0334  0.8182
   19CHTO   H35 7942   6.057   7.780   7.612 -5.5990  0.6451  1.7256
   19CHTO   C21 7943   6.241   7.573   7.533  0.1199 -0.4558 -0.0754
   19CHTO   H49 7944   6.290   7.645   7.467 -2.0528 -1.1810 -2.5613
   19CHTO    N4 7945   6.302   7.606   7.665  0.1270  0.4102  0.5933
   19CHTO   H41 7946   6.409   7.605   7.655  0.0730  0.6718  0.0066
   19CHTO   H42 7947   6.271   7.534   7.740 -0.2940 -1.0800 -0.9771
   19CHTO   C22 7948   6.270   7.429   7.488 -0.6495  0.9328  0.3622
   19CHTO   H50 7949   6.248   7.365   7.573  0.9600  0.4358  0.4309
   19CHTO   O14 7950   6.196   7.389   7.369  0.1378  0.0500  0.3815
   19CHTO   C23 7951   6.048   7.399   7.384 -0.0365 -0.0300  0.1895
   19CHTO   H51 7952   6.018   7.344   7.474 -0.0858 -0.8480 -0.3194
   19CHTO   C34 7953   5.994   7.321   7.262 -0.2647 -0.0302 -0.6115
   19CHTO   O23 7954   6.034   7.184   7.264  0.2349 -0.5435  0.1478
   19CHTO   H38 7955   6.128   7.177   7.264  0.2444 -0.4524  0.8610
   19CHTO   O16 7956   6.415   7.414   7.456  0.5903  0.3205 -0.4547
   19CHTO   C24 7957   6.472   7.257   7.423  0.5670 -0.4761 -0.3660
   19CHTO   H52 7958   6.577   7.249   7.452  0.3430  1.2044  1.0144
   19CHTO   C26 7959   6.462   7.240   7.275  0.7123  0.8553 -0.1497
   19CHTO   H54 7960   6.357   7.250   7.242  0.8340  1.7385 -0.2724
   19CHTO   O20 7961   6.541   7.337   7.212 -0.2298  0.1353  0.3640
   19CHTO   H36 7962   6.571   7.313   7.126  0.6362 -0.3979  0.8105
   19CHTO   C30 7963   6.494   7.094   7.239 -0.3431 -0.0615 -1.3693
   19CHTO   H58 7964   6.602   7.081   7.253 -0.1805  1.2426 -1.3809
   19CHTO    N6 7965   6.472   7.075   7.097  0.4269 -0.4091 -0.0807
   19CHTO   H45 7966   6.379   7.122   7.067  1.2441 -0.4582 -2.8019
   19CHTO   H46 7967   6.550   7.112   7.033  2.4878 -1.9083  1.5230
   19CHTO   C33 7968   6.422   6.986   7.325 -0.3307  0.0639  0.1885
   19CHTO   H61 7969   6.315   6.986   7.303 -0.4789 -0.3869  0.8669
   19CHTO   O18 7970   6.439   7.012   7.467  0.3757 -0.8409  0.2082
   19CHTO   C28 7971   6.392   7.145   7.497  0.4477 -0.3802 -0.5267
   19CHTO   H56 7972   6.285   7.160   7.483  0.5261 -1.0622 -1.9013
   19CHTO   C35 7973   6.399   7.170   7.656  0.4923 -0.0675  0.0978
   19CHTO   O24 7974   6.320   7.081   7.724 -0.1467 -0.9225 -0.3435
   19CHTO   H39 7975   6.256   7.046   7.666 -0.7932 -0.1073 -0.1273
   19CHTO    O9 7976   6.468   6.848   7.287 -0.2482  0.3746 -0.4341
   19CHTO   C13 7977   6.371   6.698   7.346 -0.4930 -0.1080  0.5623
   19CHTO   H26 7978   6.327   6.717   7.446  1.3392 -1.9467  1.7572
   19CHTO   C11 7979   6.478   6.577   7.348 -0.1351  0.0266 -0.8678
   19CHTO   H24 7980   6.553   6.602   7.423 -0.5368  2.2614 -1.1830
   19CHTO    O8 7981   6.550   6.566   7.226  0.3953 -0.4037  0.4600
   19CHTO    H3 7982   6.494   6.531   7.159 -0.1286 -1.9955  1.6906
   19CHTO    C9 7983   6.405   6.447   7.388 -0.3723 -0.6375 -0.2323
   19CHTO   H22 7984   6.363   6.467   7.487 -2.3787  1.8366 -1.5191
   19CHTO    N2 7985   6.503   6.341   7.417 -0.0419 -0.1192  0.3869
   19CHTO   H10 7986   6.538   6.332   7.519 -1.6519  1.3015  1.0784
   19CHTO   H11 7987   6.590   6.346   7.353 -0.0905 -0.0562  0.3272
   19CHTO    C7 7988   6.294   6.414   7.285  0.5869 -0.3120 -0.0327
   19CHTO   H20 7989   6.254   6.319   7.326  0.4132  0.2044  0.9999
   19CHTO    O4 7990   6.196   6.517   7.281  0.4732 -0.1743  0.1851
   19CHTO   C14 7991   6.239   6.658   7.264 -0.8538 -0.0764 -0.7572
   19CHTO   H27 7992   6.160   6.729   7.297 -0.4019 -0.0737  0.3393
   19CHTO   C18 7993   6.270   6.690   7.110 -0.5425  0.2104 -0.0430
   19CHTO   O13 7994   6.148   6.680   7.026  0.4043 -0.1524  0.0809
   19CHTO    H7 7995   6.092   6.606   7.038 -1.5556  1.0374 -1.4885
   19CHTO    O2 7996   6.358   6.389   7.110 -0.5587 -0.3040 -0.1968
   19CHTO    C1 7997   6.297   6.275   7.042  0.1325  0.1436 -0.1976
   19CHTO   H14 7998   6.259   6.204   7.118 -1.9548  1.2527 -0.1613
   19CHTO    C2 7999   6.402   6.205   6.957 -0.2477  0.0088 -0.3204
   19CHTO   H15 8000   6.457   6.282   6.901 -0.3895 -0.2983 -0.8968
   19CHTO    O6 8001   6.506   6.139   7.042 -0.2402 -1.1920  0.1349
   19CHTO    H1 8002   6.586   6.135   6.995  0.0238  0.6967  0.3634
   19CHTO    C3 8003   6.340   6.097   6.858 -1.3196  0.1112 -0.1565
   19CHTO   H16 8004   6.302   6.013   6.918  2.0019  0.1353  2.0973
   19CHTO    N1 8005   6.441   6.036   6.771 -0.3579  0.1526 -0.4011
   19CHTO    H8 8006   6.392   5.951   6.726  0.8626 -0.0235 -1.4128
   19CHTO    H9 8007   6.471   6.112   6.700  3.4121 -1.6319 -0.8036
   19CHTO    C4 8008   6.217   6.156   6.779 -0.3023  0.2165  0.0080
   19CHTO   H17 8009   6.250   6.233   6.709 -0.9444  0.5815  0.1000
   19CHTO    O1 8010   6.126   6.210   6.876  0.3254  1.1182  0.4016
   19CHTO    C5 8011   6.173   6.324   6.953 -0.2001  0.1512  0.2086
   19CHTO   H18 8012   6.213   6.412   6.903  2.1855  0.1957  2.0811
   19CHTO   C16 8013   6.058   6.362   7.040 -0.5043  0.2688  0.1051
   19CHTO   O11 8014   5.951   6.407   6.958  0.2164 -0.0116  0.2883
   19CHTO    H5 8015   5.868   6.372   6.987  0.9946 -1.2801  1.0422
   19CHTO    O3 8016   6.146   6.054   6.712 -0.5026  0.3798 -0.1456
   19CHTO    C6 8017   6.066   6.115   6.607  0.0751  0.2495  0.4388
   19CHTO   H19 8018   6.061   6.224   6.612  1.7460  0.3483  0.3389
   19CHTO    C8 8019   6.133   6.093   6.468 -0.4775  0.1787  0.3392
   19CHTO   H21 8020   6.156   5.989   6.444  2.2456  0.7470  0.2977
   19CHTO    O7 8021   6.257   6.164   6.470 -0.5201 -0.1753 -0.8531
   19CHTO    H2 8022   6.256   6.257   6.485 -2.1087 -0.8099  4.0359
   19CHTO   C12 8023   6.042   6.156   6.349  1.1457 -0.6621 -0.1873
   19CHTO   H25 8024   6.028   6.263   6.375  1.7888 -1.1953  2.5391
   19CHTO    N3 8025   6.109   6.159   6.218 -0.0512  0.6020  0.3694
   19CHTO   H12 8026   6.208   6.200   6.209 -0.1404  0.2710 -2.9394
   19CHTO   H13 8027   6.112   6.063   6.168 -0.9001  0.4990  0.5130
   19CHTO   C15 8028   5.906   6.088   6.357  0.0248  0.0370 -0.4231
   19CHTO   H28 8029   5.915   5.981   6.339 -0.4193  0.0916 -0.9629
   19CHTO   O10 8030   5.790   6.150   6.262 -0.3080 -0.3666 -0.6704
   19CHTO    H4 8031   5.816   6.137   6.173  1.8439 -0.6526 -0.0391
   19CHTO    O5 8032   5.852   6.107   6.490 -0.4986 -0.0464  0.0071
   19CHTO   C10 8033   5.927   6.062   6.599  1.1927  0.0087 -0.5541
   19CHTO   H23 8034   5.925   5.953   6.601  0.4298 -0.0315 -2.3215
   19CHTO   C17 8035   5.847   6.107   6.724 -0.2362  0.2482 -0.2923
   19CHTO   O12 8036   5.719   6.051   6.733  0.4453  0.9058 -0.3309
   19CHTO    H6 8037   5.687   6.030   6.648 -0.3550 -0.7968  0.3691
   20CHTO  H203 8038   5.273   1.840   7.191  2.8871  1.0364 -2.6522
   20CHTO   O82 8039   5.293   1.918   7.239  0.1616  0.1933  0.0334
   20CHTO  C123 8040   5.199   2.001   7.301  0.0217 -0.2235 -0.7409
   20CHTO  H227 8041   5.110   1.944   7.333  0.3073 -0.3818 -0.2396
   20CHTO   O77 8042   5.274   2.054   7.409 -0.1046  0.6219 -0.3445
   20CHTO  C118 8043   5.214   2.150   7.496 -0.4433 -0.3651 -0.8224
   20CHTO  H222 8044   5.126   2.096   7.533 -0.3428 -0.3200 -0.5121
   20CHTO  C125 8045   5.308   2.184   7.621 -0.5437 -0.9117 -0.2615
   20CHTO   O84 8046   5.443   2.240   7.590  0.0591  0.2874 -0.1738
   20CHTO  H205 8047   5.475   2.283   7.667 -0.5777  0.7462 -0.1660
   20CHTO  C114 8048   5.179   2.278   7.417 -0.7917  0.0671  0.6470
   20CHTO  H218 8049   5.274   2.317   7.381 -0.9738  0.1164  0.2159
   20CHTO  C116 8050   5.085   2.238   7.299  0.1281 -0.1761 -0.7794
   20CHTO  H220 8051   4.982   2.215   7.335 -1.1937  2.2391 -2.8463
   20CHTO   O79 8052   5.057   2.353   7.214  0.0346 -0.2726  0.4462
   20CHTO  H201 8053   5.117   2.419   7.241 -1.0757  1.1251 -0.4832
   20CHTO  C120 8054   5.146   2.124   7.209 -0.7993 -0.0861  0.2337
   20CHTO  H224 8055   5.234   2.167   7.156  0.2307 -1.6856  0.6162
   20CHTO   N21 8056   5.048   2.070   7.105  0.2368 -0.8886  0.8814
   20CHTO  H211 8057   4.949   2.077   7.148  0.6153 -0.6924  1.7336
   20CHTO  H212 8058   5.074   1.968   7.078  0.1194 -0.5114 -0.7001
   20CHTO   O75 8059   5.116   2.364   7.517  0.2016  0.4550  0.1587
   20CHTO  C112 8060   5.151   2.513   7.505  0.0115  0.8991  0.3241
   20CHTO  H216 8061   5.200   2.527   7.408  2.2750 -0.9664  1.1279
   20CHTO   O73 8062   5.237   2.546   7.610 -0.1129  0.2971 -0.1623
   20CHTO  C113 8063   5.308   2.664   7.588 -0.7191  0.0937  0.0894
   20CHTO  H217 8064   5.344   2.664   7.483  0.4030 -0.4056  0.4752
   20CHTO  C124 8065   5.439   2.669   7.668  0.4268  0.1214  0.0197
   20CHTO   O83 8066   5.532   2.575   7.619  0.0162  0.3596  0.2947
   20CHTO  H204 8067   5.535   2.509   7.685  1.3134 -0.6086 -0.6867
   20CHTO  C109 8068   5.211   2.791   7.600  0.2156 -0.5244  0.1713
   20CHTO  H213 8069   5.172   2.790   7.703 -0.9649 -1.9117 -0.2831
   20CHTO  C110 8070   5.091   2.767   7.504 -0.0725 -0.4999  0.2021
   20CHTO  H214 8071   5.128   2.788   7.404  1.7673 -1.0039  0.7512
   20CHTO   O78 8072   4.982   2.857   7.533  0.1726 -0.0713 -0.6347
   20CHTO  H200 8073   4.923   2.866   7.461  1.4060  0.6635 -1.5756
   20CHTO  C111 8074   5.034   2.619   7.514  0.2622 -0.7619 -0.4929
   20CHTO  H215 8075   4.994   2.610   7.616  2.1059  0.3355  0.3705
   20CHTO   N19 8076   4.929   2.588   7.414  0.3447  0.4844 -0.7218
   20CHTO  H207 8077   4.885   2.493   7.438  2.2774 -0.0614  0.7816
   20CHTO  H208 8078   4.960   2.591   7.311 -4.2967 -0.8848 -2.2680
   20CHTO   O74 8079   5.276   2.918   7.573 -0.0420  0.5047  0.1347
   20CHTO  C115 8080   5.198   3.039   7.609 -0.0492 -0.6660  1.1627
   20CHTO  H219 8081   5.104   3.013   7.657 -0.6907  0.8071  0.7387
   20CHTO   O76 8082   5.269   3.127   7.716  0.2418  0.2951  0.1514
   20CHTO  C122 8083   5.400   3.163   7.671  0.0736 -0.6093 -0.3561
   20CHTO  H226 8084   5.475   3.088   7.697  0.5189 -0.5990 -1.5695
   20CHTO  C126 8085   5.450   3.296   7.751 -0.6141 -0.1519  0.5325
   20CHTO   O85 8086   5.338   3.382   7.794  0.0976 -0.0695 -0.2762
   20CHTO  H206 8087   5.378   3.458   7.832 -3.6105  1.8463  0.0398
   20CHTO  C121 8088   5.422   3.183   7.511 -0.5737 -0.3230  0.3213
   20CHTO  H225 8089   5.485   3.273   7.495 -2.4501  1.1942  1.2339
   20CHTO   O81 8090   5.466   3.061   7.453  0.6920  0.4370  0.4682
   20CHTO  H202 8091   5.412   3.018   7.390  2.6975 -1.2087 -0.1851
   20CHTO  C119 8092   5.285   3.221   7.442 -0.6801  0.1792 -0.0853
   20CHTO  H223 8093   5.260   3.310   7.499 -1.7267 -0.3588  0.3132
   20CHTO  C117 8094   5.164   3.122   7.474  0.3813 -0.0964  0.2033
   20CHTO  H221 8095   5.161   3.044   7.398  2.2049  0.2445 -0.2466
   20CHTO   N20 8096   5.034   3.198   7.464 -1.0279  0.1938 -0.0426
   20CHTO  H209 8097   5.019   3.261   7.377 -0.1745  1.2186  0.5477
   20CHTO  H210 8098   5.010   3.260   7.549 -0.5132 -0.3484  0.4964
   20CHTO   O80 8099   5.313   3.267   7.303  0.3197  0.1169 -0.0824
   20CHTO  C103 8100   5.304   3.422   7.265 -0.0144 -1.3922  0.2403
   20CHTO  H190 8101   5.203   3.461   7.282  1.0379  1.3458  0.4740
   20CHTO  C101 8102   5.401   3.521   7.342 -0.2222 -0.1261  0.0726
   20CHTO  H188 8103   5.504   3.488   7.332 -0.2856 -0.4915  0.5821
   20CHTO   O68 8104   5.358   3.524   7.502 -0.1229  0.5086 -0.7351
   20CHTO  H168 8105   5.433   3.524   7.558 -1.4111 -2.6702  1.1149
   20CHTO   C99 8106   5.385   3.671   7.275 -0.5376 -0.2619 -0.1942
   20CHTO  H186 8107   5.277   3.695   7.285 -0.0278  2.2645 -0.4726
   20CHTO   N17 8108   5.475   3.772   7.345 -0.1314  0.4020  0.5461
   20CHTO  H174 8109   5.419   3.861   7.369 -0.0274  0.1645  1.6829
   20CHTO  H175 8110   5.517   3.734   7.437  1.4611  0.1533 -0.2717
   20CHTO   C97 8111   5.405   3.659   7.121  0.1404 -0.3811 -1.2052
   20CHTO  H184 8112   5.508   3.621   7.114 -0.1950 -1.4633 -0.2945
   20CHTO   O64 8113   5.310   3.569   7.055 -0.1484  0.0447 -0.5308
   20CHTO  C104 8114   5.330   3.436   7.109 -0.5474 -0.4793  0.5107
   20CHTO  H191 8115   5.432   3.404   7.088  1.0859  3.4448  1.9467
   20CHTO  C108 8116   5.241   3.344   7.026  0.0626  0.1696 -0.0862
   20CHTO   O71 8117   5.297   3.317   6.902 -0.1479 -0.0167 -0.5879
   20CHTO  H171 8118   5.246   3.246   6.868 -1.7220 -1.1123  3.7491
   20CHTO   O62 8119   5.394   3.782   7.044  0.2129  0.4549 -0.0361
   20CHTO   C91 8120   5.468   3.785   6.916 -0.1626  0.6915  0.0448
   20CHTO  H178 8121   5.491   3.682   6.886 -0.8625  0.3111  0.7940
   20CHTO   C92 8122   5.605   3.867   6.924 -0.1253 -0.3239  0.2957
   20CHTO  H179 8123   5.592   3.968   6.965  0.6283 -1.0320  2.3062
   20CHTO   O66 8124   5.680   3.807   7.029  0.5428  0.3895 -0.0154
   20CHTO  H166 8125   5.732   3.736   6.996  0.3859 -0.6489  1.8743
   20CHTO   C93 8126   5.677   3.859   6.776  0.2314 -0.1869  0.2337
   20CHTO  H180 8127   5.708   3.754   6.767  0.8752  0.0591 -0.4875
   20CHTO   N16 8128   5.809   3.927   6.778 -0.4203 -0.6097 -0.0501
   20CHTO  H172 8129   5.796   4.030   6.748  0.6513  0.0434  1.6395
   20CHTO  H173 8130   5.874   3.871   6.713  0.6281  0.6138 -0.0688
   20CHTO   C94 8131   5.582   3.892   6.664 -0.2535 -0.3721  0.7582
   20CHTO  H181 8132   5.560   3.999   6.657  0.5867 -0.2568 -0.4015
   20CHTO   O61 8133   5.448   3.837   6.677 -0.3072 -0.4797 -0.0360
   20CHTO   C95 8134   5.377   3.854   6.804  0.3947 -0.5283 -0.2033
   20CHTO  H182 8135   5.351   3.958   6.822 -4.2779 -1.3405 -1.5034
   20CHTO  C106 8136   5.232   3.784   6.802 -0.0964 -0.3149  0.3829
   20CHTO   O69 8137   5.147   3.831   6.698  0.3158 -0.7714 -0.0607
   20CHTO  H169 8138   5.200   3.849   6.623 -1.3351 -0.8848 -1.2771
   20CHTO   O63 8139   5.665   3.865   6.508  0.0709 -0.4072 -0.1826
   20CHTO   C96 8140   5.682   3.728   6.481  0.2758  0.8596  0.2228
   20CHTO  H183 8141   5.713   3.684   6.575  0.3688  0.4717  0.0126
   20CHTO   C98 8142   5.806   3.692   6.386  0.4884 -0.0861  0.1511
   20CHTO  H185 8143   5.901   3.738   6.418  0.2588  0.9528 -0.6212
   20CHTO   O67 8144   5.819   3.551   6.396 -0.2449  0.4490  0.6871
   20CHTO  H167 8145   5.876   3.509   6.335  1.8895  0.4840  2.5906
   20CHTO  C102 8146   5.778   3.728   6.230  0.8034  0.1020 -0.3822
   20CHTO  H189 8147   5.844   3.663   6.171 -1.2865  0.1353 -2.8040
   20CHTO   N18 8148   5.808   3.871   6.190 -0.0667  0.1380 -0.2959
   20CHTO  H176 8149   5.717   3.928   6.191  0.6252  1.2694 -0.8640
   20CHTO  H177 8150   5.888   3.917   6.247  0.0683  1.7363 -1.7461
   20CHTO  C105 8151   5.627   3.681   6.197 -0.1273 -0.2160 -0.3950
   20CHTO  H192 8152   5.565   3.769   6.180 -2.1230 -1.9706 -2.4165
   20CHTO   O65 8153   5.560   3.607   6.303 -0.2768  0.2278  0.5702
   20CHTO  C100 8154   5.547   3.653   6.436  0.5013  0.7414 -0.8766
   20CHTO  H187 8155   5.463   3.722   6.445 -0.1918 -0.0556 -1.1362
   20CHTO  C107 8156   5.500   3.531   6.520 -0.3460 -0.0620 -0.4029
   20CHTO   O70 8157   5.599   3.430   6.504 -0.2733  0.0501 -0.0572
   20CHTO  H170 8158   5.560   3.351   6.535 -2.2309  0.4608 -1.3225
   20CHTO   O57 8159   5.630   3.583   6.078 -0.1140 -0.2232  0.2040
   20CHTO   C85 8160   5.523   3.584   5.982 -0.2330 -0.5484  0.4071
   20CHTO  H157 8161   5.448   3.658   6.018 -1.2490 -1.2026 -0.3358
   20CHTO   C83 8162   5.445   3.447   5.974 -0.1870  0.9820 -0.2686
   20CHTO  H155 8163   5.407   3.413   6.070  1.6577  1.6166  0.7261
   20CHTO   O56 8164   5.539   3.347   5.949  0.1979 -0.2603  0.0858
   20CHTO  H135 8165   5.500   3.267   5.921  1.7549 -0.7994 -0.5559
   20CHTO   C81 8166   5.333   3.452   5.867 -0.2936  0.2891  0.2301
   20CHTO  H153 8167   5.271   3.540   5.884  0.0114  0.2674  1.5093
   20CHTO   N14 8168   5.233   3.344   5.884 -0.4310 -0.8265  0.4377
   20CHTO  H141 8169   5.159   3.346   5.806 -0.4580 -2.6031  0.4000
   20CHTO  H142 8170   5.281   3.248   5.878 -0.4557 -0.8228  0.1470
   20CHTO   C79 8171   5.398   3.471   5.728 -0.4138  1.2608 -0.1438
   20CHTO  H151 8172   5.317   3.474   5.656 -0.9160 -1.9207  0.2255
   20CHTO   O52 8173   5.467   3.600   5.735  0.3144  0.3253  0.3797
   20CHTO   C86 8174   5.572   3.615   5.842  0.0147  0.1437 -0.0765
   20CHTO  H158 8175   5.647   3.535   5.821 -1.1492 -0.7036 -1.0603
   20CHTO   C90 8176   5.644   3.758   5.844 -0.9041  0.1583  0.5773
   20CHTO   O60 8177   5.711   3.780   5.723  0.2776 -0.3213  0.7049
   20CHTO  H138 8178   5.754   3.863   5.718  1.2277 -0.8314  0.4950
   20CHTO   O50 8179   5.481   3.355   5.684  0.5745 -0.6592  0.0403
   20CHTO   C73 8180   5.548   3.312   5.565 -0.3295 -0.9000  0.4987
   20CHTO  H145 8181   5.588   3.401   5.514  0.4090 -2.6245 -2.0124
   20CHTO   C74 8182   5.451   3.251   5.465  0.8258 -0.0648  0.2346
   20CHTO  H146 8183   5.375   3.327   5.439 -0.7449 -1.6172  0.2588
   20CHTO   O54 8184   5.506   3.224   5.333  0.1724  0.0368 -0.1128
   20CHTO  H133 8185   5.575   3.286   5.318  0.3481 -0.3428 -0.9070
   20CHTO   C75 8186   5.384   3.128   5.526 -0.0207 -0.6866 -0.9347
   20CHTO  H147 8187   5.327   3.162   5.614  1.8293  1.9692 -0.7048
   20CHTO   N13 8188   5.281   3.061   5.438 -0.4487  0.1977 -0.4769
   20CHTO  H139 8189   5.291   2.954   5.439  1.1000  0.3218  0.0356
   20CHTO  H140 8190   5.183   3.084   5.477 -0.0968 -1.7192  1.6960
   20CHTO   C76 8191   5.497   3.028   5.587  0.7942 -0.2100  0.9959
   20CHTO  H148 8192   5.560   2.988   5.507 -1.0759 -1.5080  0.1445
   20CHTO   O49 8193   5.599   3.103   5.672 -0.1777  0.0301  0.1969
   20CHTO   C77 8194   5.662   3.217   5.610  0.7954 -0.6360  0.3042
   20CHTO  H149 8195   5.724   3.182   5.528  1.8961  1.4942  0.2123
   20CHTO   C88 8196   5.767   3.292   5.698  0.4285  0.1231 -0.1367
   20CHTO   O58 8197   5.854   3.201   5.742  0.0763 -0.3304 -0.3397
   20CHTO  H136 8198   5.938   3.206   5.699 -0.2226 -0.4429 -0.9404
   20CHTO   O51 8199   5.425   2.923   5.679 -0.2523  0.3188 -0.2239
   20CHTO   C78 8200   5.508   2.804   5.714  0.5149  0.6474  0.3679
   20CHTO  H150 8201   5.615   2.805   5.685  0.1950  1.7072 -0.8242
   20CHTO   C80 8202   5.441   2.678   5.649  0.0222 -0.7825  0.5977
   20CHTO  H152 8203   5.342   2.659   5.696 -0.2307 -0.0851  0.3553
   20CHTO   O55 8204   5.428   2.707   5.507  0.4855  0.2599  0.5215
   20CHTO  H134 8205   5.509   2.746   5.480 -0.2655  1.4615  0.0043
   20CHTO   C84 8206   5.516   2.547   5.682  0.0660  0.1020  0.4401
   20CHTO  H156 8207   5.617   2.562   5.644  0.2285 -0.4635  0.6453
   20CHTO   N15 8208   5.445   2.419   5.627 -0.0514  0.0506 -0.1472
   20CHTO  H143 8209   5.351   2.414   5.676 -0.6596 -2.8338 -1.4954
   20CHTO  H144 8210   5.436   2.434   5.521  2.8541 -0.1854 -0.4806
   20CHTO   C87 8211   5.523   2.534   5.835  0.2609 -0.1983 -0.0772
   20CHTO  H159 8212   5.434   2.493   5.883  0.3301  1.3836  1.4809
   20CHTO   O53 8213   5.582   2.680   5.902  0.0979 -0.4848 -0.7658
   20CHTO   C82 8214   5.498   2.790   5.866  0.7267 -0.2605  0.7194
   20CHTO  H154 8215   5.393   2.781   5.892  0.2452 -0.8854 -1.3741
   20CHTO   C89 8216   5.551   2.923   5.939 -0.1858 -0.0882 -0.3401
   20CHTO   O59 8217   5.686   2.951   5.906 -0.1544 -0.1031 -0.1568
   20CHTO  H137 8218   5.738   2.957   5.983 -1.4164 -0.1019  0.7059
   20CHTO   O45 8219   5.647   2.422   5.874 -0.1940  0.4152 -0.1694
   20CHTO   C67 8220   5.622   2.363   6.004  0.0913 -0.1055  0.0836
   20CHTO  H124 8221   5.544   2.424   6.050 -0.1551  0.1672 -0.6810
   20CHTO   C65 8222   5.563   2.218   5.986 -0.4733  0.5921  0.1309
   20CHTO  H122 8223   5.604   2.181   5.893  0.7933  1.6265  0.2598
   20CHTO   O44 8224   5.413   2.229   5.970 -0.1844  0.3753  0.8204
   20CHTO  H102 8225   5.370   2.262   6.047 -0.5749 -0.0269  0.7755
   20CHTO   C63 8226   5.605   2.133   6.106 -0.7177  0.3086 -0.1018
   20CHTO  H120 8227   5.709   2.103   6.096 -0.1443  1.5852  1.5837
   20CHTO   N11 8228   5.547   1.995   6.122  0.4500  0.3735  0.4274
   20CHTO  H108 8229   5.522   1.982   6.225  1.1361 -2.6821  0.2469
   20CHTO  H109 8230   5.455   1.982   6.068  0.5885 -1.4820  0.6243
   20CHTO   C61 8231   5.600   2.212   6.236 -0.1915  0.5791  0.5356
   20CHTO  H118 8232   5.643   2.145   6.312 -0.4247  0.2357  0.3679
   20CHTO   O40 8233   5.686   2.335   6.238 -0.6614  0.2607  0.9223
   20CHTO   C68 8234   5.740   2.367   6.108  1.1228  0.4650 -0.4562
   20CHTO  H125 8235   5.819   2.297   6.073  0.4271 -0.0032 -1.1317
   20CHTO   C72 8236   5.801   2.506   6.126  0.2347 -0.5273  0.1817
   20CHTO   O48 8237   5.717   2.616   6.138  0.9726  0.1814 -0.2757
   20CHTO  H105 8238   5.665   2.609   6.061  0.1405 -0.1792  0.3170
   20CHTO   O38 8239   5.463   2.233   6.278  0.1011 -0.4939 -0.6309
   20CHTO   C55 8240   5.443   2.253   6.422  0.8127 -0.5640 -0.9369
   20CHTO  H112 8241   5.534   2.279   6.477  0.9163 -3.8634  0.6163
   20CHTO   C56 8242   5.377   2.119   6.481 -0.0143 -0.3369 -0.6695
   20CHTO  H113 8243   5.297   2.090   6.411  0.9834  0.8973 -2.3604
   20CHTO   O42 8244   5.477   2.019   6.483  0.2558 -0.1838  0.0823
   20CHTO  H100 8245   5.558   2.048   6.445  0.1086  2.2852  1.5109
   20CHTO   C57 8246   5.312   2.141   6.626 -0.3536  0.2104 -0.7715
   20CHTO  H114 8247   5.400   2.158   6.688  0.4955 -3.2703 -0.9432
   20CHTO   N10 8248   5.229   2.029   6.681 -0.2986  0.3648 -0.5547
   20CHTO  H106 8249   5.288   1.939   6.672  0.0616  0.6435 -0.9973
   20CHTO  H107 8250   5.139   2.024   6.622 -1.7628  3.0353  1.3855
   20CHTO   C58 8251   5.230   2.273   6.620 -0.4929  0.5257 -0.0847
   20CHTO  H115 8252   5.143   2.265   6.550 -0.5901 -1.4385  0.2303
   20CHTO   O37 8253   5.311   2.378   6.571  0.3318 -0.2808 -0.1479
   20CHTO   C59 8254   5.344   2.375   6.431  0.2321  0.3754 -0.4641
   20CHTO  H116 8255   5.248   2.361   6.381  0.3985 -0.0313 -0.6649
   20CHTO   C70 8256   5.414   2.506   6.393  0.3722 -0.0932 -0.3217
   20CHTO   O46 8257   5.447   2.514   6.256 -0.3273 -0.5355 -0.2321
   20CHTO  H103 8258   5.498   2.591   6.241 -2.5427  1.1583  0.6178
   20CHTO   O39 8259   5.191   2.312   6.770  0.1476 -0.3337  0.3850
   20CHTO   C60 8260   5.122   2.436   6.783  0.6085 -0.0685 -0.3197
   20CHTO  H117 8261   5.138   2.502   6.697 -1.8307  0.5348 -0.3321
   20CHTO   C62 8262   4.969   2.422   6.791 -0.0066 -0.2152  0.8465
   20CHTO  H119 8263   4.936   2.365   6.702 -0.2694  0.1986  0.6787
   20CHTO   O43 8264   4.932   2.354   6.911  0.3931  0.1264 -0.0441
   20CHTO  H101 8265   4.963   2.268   6.890 -0.0772 -0.3197  1.0375
   20CHTO   C66 8266   4.897   2.565   6.784 -0.5623 -0.4742  0.4880
   20CHTO  H123 8267   4.927   2.606   6.688  1.9388 -2.0294  0.5404
   20CHTO   N12 8268   4.747   2.554   6.787  0.2691  0.1961 -0.0193
   20CHTO  H110 8269   4.711   2.641   6.840  0.4137 -1.2835  2.6141
   20CHTO  H111 8270   4.721   2.561   6.683  0.7376 -1.0219 -0.2213
   20CHTO   C69 8271   4.953   2.661   6.892 -0.1339  0.2402  0.7025
   20CHTO  H126 8272   4.912   2.640   6.992 -0.7737 -0.9754  0.1969
   20CHTO   O41 8273   5.112   2.651   6.896 -0.4664  0.0392 -0.0457
   20CHTO   C64 8274   5.180   2.507   6.907  0.1779  0.0340  0.3097
   20CHTO  H121 8275   5.152   2.451   6.999  0.6461  0.7329  0.8796
   20CHTO   C71 8276   5.332   2.511   6.909 -0.0547  0.1878  0.0638
   20CHTO   O47 8277   5.389   2.386   6.950 -0.2324  0.4398 -0.1525
   20CHTO  H104 8278   5.391   2.383   7.044 -1.3683 -0.4232 -0.1562
   20CHTO   O34 8279   4.900   2.803   6.848 -0.0849 -0.1139  0.6303
   20CHTO   C49 8280   4.885   2.925   6.923 -0.1921 -0.0747 -0.6718
   20CHTO   H91 8281   4.802   2.912   6.993 -0.2989  3.6279 -0.0102
   20CHTO   C47 8282   4.864   3.055   6.845  0.7063  0.4732 -0.4637
   20CHTO   H89 8283   4.860   3.121   6.934  4.2694 -0.1163  0.1855
   20CHTO   O33 8284   4.739   3.054   6.773  0.0397 -0.1947  0.2404
   20CHTO   H70 8285   4.732   3.142   6.742 -0.5813 -0.4754 -0.4435
   20CHTO   C45 8286   4.985   3.080   6.749  1.1006 -0.0549 -0.0112
   20CHTO   H87 8287   4.962   3.044   6.647  2.2801 -2.0762  0.4090
   20CHTO    N8 8288   5.004   3.228   6.740  0.3612  0.0749  0.0840
   20CHTO   H75 8289   4.990   3.284   6.831 -0.3982  0.0993 -0.0489
   20CHTO   H76 8290   5.095   3.253   6.687 -0.1919  0.6226 -0.6221
   20CHTO   C43 8291   5.115   2.994   6.785  0.9353  1.0988  0.4820
   20CHTO   H85 8292   5.100   2.896   6.738 -0.7756  1.3288  0.5007
   20CHTO   O29 8293   5.134   2.980   6.928 -0.0037 -0.6796  0.2530
   20CHTO   C50 8294   5.019   2.941   7.006 -0.4922  0.5037  0.1347
   20CHTO   H92 8295   5.033   2.840   7.047  0.3828  0.6795  0.2841
   20CHTO   C54 8296   5.008   3.040   7.125  0.1268 -0.7553  0.1107
   20CHTO   O36 8297   4.895   3.009   7.211  0.4891 -0.1122  0.4372
   20CHTO   H72 8298   4.879   3.084   7.264  1.2061 -0.9105  1.7955
   20CHTO   O27 8299   5.227   3.056   6.732  0.2515  0.3213 -0.1117
   20CHTO   C37 8300   5.302   3.008   6.615 -0.3924 -0.3571 -0.4280
   20CHTO   H79 8301   5.257   2.912   6.586 -2.2746  1.5328 -4.0662
   20CHTO   C38 8302   5.288   3.105   6.497 -0.3219 -0.1727  0.1489
   20CHTO   H80 8303   5.300   3.207   6.537  0.1412  0.2198 -0.9615
   20CHTO   O31 8304   5.150   3.084   6.450  0.7296  0.6089 -0.0509
   20CHTO   H68 8305   5.134   3.108   6.360 -0.0587 -0.3570 -0.1718
   20CHTO   C39 8306   5.395   3.080   6.380  0.8103  0.0774 -0.0659
   20CHTO   H81 8307   5.362   2.992   6.325 -0.9587  2.0840 -2.3662
   20CHTO    N7 8308   5.392   3.191   6.276 -0.4073 -0.2676 -1.0492
   20CHTO   H73 8309   5.295   3.196   6.228  0.0976  1.0763 -1.9824
   20CHTO   H74 8310   5.426   3.289   6.306 -1.7653  0.0395 -0.4501
   20CHTO   C40 8311   5.538   3.054   6.438  0.3567 -0.0661 -0.3406
   20CHTO   H82 8312   5.597   3.138   6.475 -0.5390  1.9909 -3.3745
   20CHTO   O26 8313   5.528   2.953   6.529  1.2059  0.1823  0.3347
   20CHTO   C41 8314   5.452   2.995   6.646 -0.3333 -0.2699  0.7002
   20CHTO   H83 8315   5.490   3.088   6.691  0.9052 -0.0538 -0.7514
   20CHTO   C52 8316   5.465   2.899   6.758 -0.3093 -0.6255  0.8392
   20CHTO   O35 8317   5.594   2.858   6.793 -0.0462  0.5014  0.0690
   20CHTO   H71 8318   5.630   2.923   6.850 -1.4767  1.4554 -0.1019
   20CHTO   O28 8319   5.621   2.998   6.329 -0.3441 -0.1565  0.5805
   20CHTO   C42 8320   5.769   3.017   6.319  1.2240  0.6713  0.3711
   20CHTO   H84 8321   5.806   2.961   6.233  0.7263  3.0960 -1.4849
   20CHTO   C44 8322   5.848   2.970   6.448  0.1841  0.0103  0.2776
   20CHTO   H86 8323   5.801   3.013   6.536  0.7807 -0.7563  0.9743
   20CHTO   O32 8324   5.829   2.826   6.471 -0.5387  0.2633 -0.5828
   20CHTO   H69 8325   5.855   2.781   6.394  0.9007  1.1599 -0.6521
   20CHTO   C48 8326   5.998   3.013   6.454 -0.1810  0.8674 -0.5726
   20CHTO   H90 8327   6.052   2.952   6.381 -0.3861  2.7591 -2.3428
   20CHTO    N9 8328   6.062   2.980   6.589  0.0140 -0.2260  0.2626
   20CHTO   H77 8329   6.022   3.037   6.672  2.0495 -0.0885  1.1882
   20CHTO   H78 8330   6.170   2.981   6.588  0.0738 -2.7036 -2.3936
   20CHTO   C51 8331   6.015   3.167   6.413 -0.3900  0.2600  0.0404
   20CHTO   H93 8332   5.980   3.230   6.495 -1.1319 -0.6994  0.4758
   20CHTO   O30 8333   5.959   3.192   6.287 -0.2168  0.3493  0.0887
   20CHTO   C46 8334   5.803   3.164   6.290  0.7259 -0.6894 -0.2839
   20CHTO   H88 8335   5.763   3.227   6.370 -0.3399  0.3107 -1.5823
   20CHTO   C53 8336   5.748   3.205   6.155  0.2831 -0.2055 -0.1157
   20CHTO   O72 8337   5.768   3.345   6.127 -0.2915 -0.2499  0.3334
   20CHTO  H199 8338   5.768   3.354   6.034  3.1231  0.1131  0.2770
   20CHTO   O22 8339   6.150   3.208   6.383  0.1556 -0.3853 -0.4075
   20CHTO   C31 8340   6.204   3.345   6.394 -0.3396  0.3621 -0.0582
   20CHTO   H59 8341   6.314   3.336   6.384 -0.2616  0.4599  0.6346
   20CHTO   C29 8342   6.163   3.438   6.284 -0.0912 -0.3386 -0.4304
   20CHTO   H57 8343   6.055   3.457   6.295 -0.4133 -2.8998  1.1545
   20CHTO   O21 8344   6.180   3.373   6.160 -0.4542  0.1873 -0.6987
   20CHTO   H37 8345   6.270   3.374   6.131 -0.5633 -3.2113 -1.3169
   20CHTO   C27 8346   6.239   3.575   6.301  0.3809 -0.3226  0.2853
   20CHTO   H55 8347   6.344   3.561   6.274  0.9764  1.8989  1.2986
   20CHTO    N5 8348   6.185   3.679   6.216 -0.2201 -0.1058  0.2096
   20CHTO   H43 8349   6.109   3.728   6.274 -1.1665 -1.9621  0.5893
   20CHTO   H44 8350   6.255   3.748   6.172  1.1520  0.0216  2.5435
   20CHTO   C25 8351   6.233   3.629   6.456  0.0781  0.2888  0.1788
   20CHTO   H53 8352   6.133   3.669   6.482 -0.1668  0.9092 -1.6460
   20CHTO   O17 8353   6.273   3.521   6.543  0.3856 -0.2032  0.6271
   20CHTO   C32 8354   6.191   3.407   6.539 -0.1246 -0.1301  0.4094
   20CHTO   H60 8355   6.089   3.440   6.558  0.2902  1.9066 -0.7873
   20CHTO   C36 8356   6.234   3.301   6.647  0.3978 -0.5800 -0.4601
   20CHTO   O25 8357   6.374   3.271   6.647 -0.4533  0.3923  0.1167
   20CHTO   H40 8358   6.406   3.288   6.560  0.3796 -1.6077  0.0260
   20CHTO   O15 8359   6.339   3.744   6.477  0.0741  0.2169 -0.2582
   20CHTO   C19 8360   6.394   3.816   6.588  0.6707 -0.6139 -0.4203
   20CHTO   H47 8361   6.465   3.889   6.547 -2.4040  0.7401 -3.5962
   20CHTO   C20 8362   6.279   3.891   6.658  0.1926  0.0898  0.6069
   20CHTO   H48 8363   6.203   3.821   6.697 -0.0076  0.4128  0.8014
   20CHTO   O19 8364   6.210   3.973   6.563  0.2113 -0.1110 -0.2617
   20CHTO   H35 8365   6.211   4.062   6.592  0.6417  0.5663 -2.2831
   20CHTO   C21 8366   6.340   3.974   6.785  0.1066 -0.0358  0.2111
   20CHTO   H49 8367   6.412   4.046   6.747 -2.2331  2.1418 -0.1915
   20CHTO    N4 8368   6.241   4.056   6.856 -0.2416  0.2195  0.0603
   20CHTO   H41 8369   6.181   3.984   6.909  1.2965 -0.8238  0.4170
   20CHTO   H42 8370   6.297   4.116   6.927  0.4261 -1.1014  0.6670
   20CHTO   C22 8371   6.418   3.869   6.873 -0.1099 -0.0938  0.6995
   20CHTO   H50 8372   6.346   3.791   6.899  0.7118 -1.1717 -0.1913
   20CHTO   O14 8373   6.528   3.820   6.788 -0.2972 -0.2643 -0.5649
   20CHTO   C23 8374   6.467   3.726   6.697 -0.2901 -0.8594  0.2301
   20CHTO   H51 8375   6.401   3.653   6.745 -0.6150 -1.1266 -0.6118
   20CHTO   C34 8376   6.576   3.636   6.637  0.2032 -0.4137  0.3166
   20CHTO   O23 8377   6.643   3.564   6.735 -0.4460  0.6439 -0.0272
   20CHTO   H38 8378   6.596   3.573   6.816 -1.5731 -1.2935 -0.4348
   20CHTO   O16 8379   6.483   3.925   6.991 -0.3680 -0.1116  0.3494
   20CHTO   C24 8380   6.565   3.819   7.091 -0.5398 -0.4379  0.2191
   20CHTO   H52 8381   6.567   3.721   7.045 -3.7730 -0.3945 -0.0921
   20CHTO   C26 8382   6.499   3.813   7.227 -0.3976 -0.1285 -0.3847
   20CHTO   H54 8383   6.503   3.912   7.276  0.5827 -0.2819 -0.1538
   20CHTO   O20 8384   6.361   3.788   7.207 -0.2290 -0.1660 -0.3274
   20CHTO   H36 8385   6.344   3.733   7.133 -1.2177 -0.5589  0.1879
   20CHTO   C30 8386   6.566   3.706   7.318 -0.8173  0.0689 -0.3915
   20CHTO   H58 8387   6.537   3.606   7.282 -0.4992 -0.0037 -0.4526
   20CHTO    N6 8388   6.518   3.712   7.464  0.2270 -0.6939  0.1340
   20CHTO   H45 8389   6.416   3.679   7.462  0.1879 -0.5920  0.5121
   20CHTO   H46 8390   6.577   3.648   7.527 -1.2689 -0.5878  1.6574
   20CHTO   C33 8391   6.723   3.721   7.312 -0.5932  0.2618 -0.1489
   20CHTO   H61 8392   6.757   3.800   7.381 -0.6830 -0.6133  0.9154
   20CHTO   O18 8393   6.771   3.745   7.178  0.2769 -0.1039  0.3522
   20CHTO   C28 8394   6.709   3.858   7.112 -0.2401 -0.2070  0.1642
   20CHTO   H56 8395   6.720   3.952   7.166  2.0508  1.4573 -3.0685
   20CHTO   C35 8396   6.787   3.883   6.980 -0.2298 -0.5757 -0.1049
   20CHTO   O24 8397   6.783   3.775   6.884 -0.7726  0.5486  0.1769
   20CHTO   H39 8398   6.703   3.727   6.891 -1.1752  1.4029  1.6143
   20CHTO    O9 8399   6.779   3.599   7.371 -0.5648 -0.1956  0.2679
   20CHTO   C13 8400   6.821   3.452   7.288 -0.3693 -0.9810  0.2388
   20CHTO   H26 8401   6.931   3.449   7.303 -0.0870  1.0956 -1.2487
   20CHTO   C11 8402   6.789   3.448   7.138  1.1408 -0.1006  0.0308
   20CHTO   H24 8403   6.848   3.531   7.098  1.3774 -0.7997 -1.0922
   20CHTO    O8 8404   6.652   3.484   7.103  0.6014  0.1770 -0.2710
   20CHTO    H3 8405   6.650   3.494   7.010  3.3269  2.5709 -0.1725
   20CHTO    C9 8406   6.816   3.306   7.079 -0.1178 -0.1223  0.8250
   20CHTO   H22 8407   6.924   3.291   7.094  0.7162  2.2577 -2.1008
   20CHTO    N2 8408   6.800   3.290   6.928 -0.0190  0.0248 -0.2324
   20CHTO   H10 8409   6.700   3.304   6.891  0.1884  3.7692  0.4128
   20CHTO   H11 8410   6.850   3.211   6.874  0.7624  0.4875 -0.2100
   20CHTO    C7 8411   6.747   3.186   7.156  0.1882 -0.2015  0.0664
   20CHTO   H20 8412   6.796   3.105   7.097  0.0124  2.9211 -4.6892
   20CHTO    O4 8413   6.782   3.196   7.297  0.0591 -0.1873  0.4464
   20CHTO   C14 8414   6.759   3.328   7.359  0.1399  0.2399  0.2310
   20CHTO   H27 8415   6.816   3.302   7.451  1.2598 -0.6678 -0.7027
   20CHTO   C18 8416   6.615   3.357   7.401  0.4079  0.4810  0.2249
   20CHTO   O13 8417   6.575   3.284   7.522 -0.2831 -0.0310 -0.4839
   20CHTO    H7 8418   6.485   3.259   7.514 -0.2236  0.1901 -2.0712
   20CHTO    O2 8419   6.580   3.157   7.142 -0.2446  0.2836 -0.2538
   20CHTO    C1 8420   6.533   3.025   7.126 -0.5380  0.3485  0.8689
   20CHTO   H14 8421   6.428   3.011   7.158  0.3434 -0.9839  3.2851
   20CHTO    C2 8422   6.619   2.917   7.205  0.1438 -0.7442 -0.1354
   20CHTO   H15 8423   6.723   2.925   7.169  0.9589  0.4758  2.3475
   20CHTO    O6 8424   6.614   2.963   7.342  0.3671  0.0587  0.5816
   20CHTO    H1 8425   6.677   2.919   7.396  3.0941  2.8294 -0.2100
   20CHTO    C3 8426   6.559   2.775   7.183  0.6888 -0.2100  0.1247
   20CHTO   H16 8427   6.467   2.763   7.243  1.0117 -1.0528  0.4627
   20CHTO    N1 8428   6.645   2.663   7.239 -0.1589 -0.7012  0.6812
   20CHTO    H8 8429   6.699   2.696   7.326  0.6210 -0.9068  0.2766
   20CHTO    H9 8430   6.713   2.626   7.164 -0.7371 -0.8891  0.2451
   20CHTO    C4 8431   6.514   2.750   7.036  0.0059 -0.6206 -0.5971
   20CHTO   H17 8432   6.604   2.725   6.979  0.2958 -2.0802  0.4672
   20CHTO    O1 8433   6.441   2.857   6.973 -0.6090  0.4429 -0.4910
   20CHTO    C5 8434   6.519   2.981   6.978  0.2570  0.5663  0.4052
   20CHTO   H18 8435   6.621   2.982   6.941  0.3943  1.0231  0.7888
   20CHTO   C16 8436   6.433   3.083   6.897  0.3001  0.5460 -0.1322
   20CHTO   O11 8437   6.312   3.122   6.959 -0.1220 -0.7067  0.0950
   20CHTO    H5 8438   6.256   3.162   6.896  0.2023 -2.0101 -1.0637
   20CHTO    O3 8439   6.404   2.648   7.038  0.1478 -0.1886  0.2617
   20CHTO    C6 8440   6.386   2.560   6.924  0.1574  0.1147  0.3085
   20CHTO   H19 8441   6.397   2.618   6.832 -1.4764 -1.5366 -0.9667
   20CHTO    C8 8442   6.483   2.442   6.929  0.5108 -0.0799  0.2478
   20CHTO   H21 8443   6.466   2.393   7.025  1.5860  1.3778  1.1854
   20CHTO    O7 8444   6.619   2.485   6.926  0.1726 -0.2867 -0.2072
   20CHTO    H2 8445   6.667   2.433   6.988  1.7323  0.9211 -0.3697
   20CHTO   C12 8446   6.455   2.351   6.801  0.5804  0.4308 -0.6432
   20CHTO   H25 8447   6.479   2.396   6.703 -1.7503 -0.6542 -1.7471
   20CHTO    N3 8448   6.524   2.220   6.807  0.0620 -0.0432 -0.3560
   20CHTO   H12 8449   6.620   2.243   6.850 -0.6400 -1.3067  2.0082
   20CHTO   H13 8450   6.538   2.190   6.704 -0.4030  0.3857 -0.5449
   20CHTO   C15 8451   6.297   2.321   6.790 -0.0268 -1.1035 -0.1871
   20CHTO   H28 8452   6.268   2.241   6.857 -1.1514  0.9379  1.8654
   20CHTO   O10 8453   6.250   2.294   6.652  0.1038 -0.5607  0.3380
   20CHTO    H4 8454   6.157   2.304   6.645  0.0115 -1.9417 -0.7652
   20CHTO    O5 8455   6.206   2.428   6.819 -0.5973  0.0297  0.4976
   20CHTO   C10 8456   6.240   2.513   6.926  0.3635  0.9966  0.0472
   20CHTO   H23 8457   6.227   2.455   7.017 -0.9459  0.8027 -0.2620
   20CHTO   C17 8458   6.137   2.621   6.943  0.1242  0.0424  0.7410
   20CHTO   O12 8459   6.130   2.706   6.829 -0.3596 -0.5438 -0.2558
   20CHTO    H6 8460   6.129   2.796   6.856 -1.5107 -0.8120  0.6459
   21GLOH   H03 8461   0.016   4.160   0.364  0.3091 -0.2132  0.0962
   21GLOH    O1 8462  -0.042   4.199   0.296 -0.1362 -0.3496  0.3885
   21GLOH    C1 8463   0.003   4.168   0.162 -0.0601 -0.7333  0.6867
   21GLOH   H02 8464   0.032   4.261   0.113 -0.9033 -0.9647 -0.2738
   21GLOH   H08 8465  -0.074   4.127   0.097 -0.7431  0.3850  0.7679
   21GLOH    C2 8466   0.130   4.082   0.150  0.3416 -0.1390  0.3494
   21GLOH   H04 8467   0.214   4.147   0.178  0.7087  0.4372 -1.9471
   21GLOH    O2 8468   0.121   3.955   0.232 -0.8111 -0.0410 -0.3107
   21GLOH   H05 8469   0.213   3.925   0.244  0.7848  3.7958 -1.7582
   21GLOH    C3 8470   0.146   4.045   0.002  0.1252 -0.4487  0.0177
   21GLOH   H06 8471   0.055   4.000  -0.039 -0.4454  1.0011 -0.3312
   21GLOH   H07 8472   0.218   3.964  -0.010 -0.3199 -0.6812 -1.2491
   21GLOH    O3 8473   0.173   4.159  -0.081  0.1976  0.0445 -0.0162
   21GLOH   H01 8474   0.158   4.139  -0.175  2.5874  1.0706 -0.6668
   22GLOH   H03 8475   7.245   9.760   6.621 -1.4138  1.3152  2.2083
   22GLOH    O1 8476   7.317   9.776   6.684  0.3810 -0.4244  0.6914
   22GLOH    C1 8477   7.314   9.652   6.770  0.8616  0.1935  0.0355
   22GLOH   H02 8478   7.416   9.629   6.801  0.0864  1.2909  3.6573
   22GLOH   H08 8479   7.294   9.563   6.709  0.9481 -0.4106  0.8750
   22GLOH    C2 8480   7.222   9.666   6.888  0.6685  0.2129 -0.5428
   22GLOH   H04 8481   7.264   9.751   6.943  0.4434  0.9996 -1.5741
   22GLOH    O2 8482   7.091   9.700   6.842 -0.0452  0.2667  0.0992
   22GLOH   H05 8483   7.052   9.630   6.787 -1.6736 -0.4058  2.0655
   22GLOH    C3 8484   7.226   9.539   6.979  0.0321 -0.9812 -0.0442
   22GLOH   H06 8485   7.332   9.514   6.990 -0.6051 -2.5753  3.1236
   22GLOH   H07 8486   7.190   9.450   6.928  1.1315 -0.7532 -1.2604
   22GLOH    O3 8487   7.158   9.557   7.105  0.3718 -0.4931  0.4444
   22GLOH   H01 8488   7.110   9.642   7.100  1.6415  0.2692  1.0812
   23GLOH   H03 8489   7.655   7.966   3.224 -0.2538  0.0240  0.4429
   23GLOH    O1 8490   7.653   7.986   3.129 -0.3104 -0.1312  0.4108
   23GLOH    C1 8491   7.764   7.917   3.061  0.0510  0.3881 -0.8420
   23GLOH   H02 8492   7.729   7.818   3.031 -0.6333  0.3233  0.1533
   23GLOH   H08 8493   7.842   7.895   3.133 -2.2799  0.2270  1.7372
   23GLOH    C2 8494   7.814   7.987   2.933 -0.6093  0.0204 -0.3304
   23GLOH   H04 8495   7.727   8.005   2.867  1.8128  0.0838 -3.6543
   23GLOH    O2 8496   7.873   8.114   2.969 -0.0593 -0.7369 -0.3384
   23GLOH   H05 8497   7.906   8.150   2.885 -3.2762  1.7688 -0.6114
   23GLOH    C3 8498   7.904   7.894   2.847 -0.6732 -0.0735  0.1812
   23GLOH   H06 8499   8.002   7.882   2.893  0.6962 -0.7784 -2.7807
   23GLOH   H07 8500   7.927   7.945   2.753  0.7245 -0.8181  0.1054
   23GLOH    O3 8501   7.856   7.767   2.804 -0.6317 -0.9098  0.3209
   23GLOH   H01 8502   7.787   7.789   2.739 -1.0263  0.0860  1.0465
   24GLOH   H03 8503   1.226   0.446   7.551 -0.9198 -1.1913 -0.5402
   24GLOH    O1 8504   1.240   0.428   7.456  0.1059  0.0887 -0.6410
   24GLOH    C1 8505   1.160   0.322   7.411  0.1356  0.5330  0.6593
   24GLOH   H02 8506   1.222   0.232   7.415 -0.2099  0.2975  0.7023
   24GLOH   H08 8507   1.124   0.335   7.309 -2.6338  3.5178  1.9551
   24GLOH    C2 8508   1.029   0.309   7.498 -0.5348 -0.0780  0.3140
   24GLOH   H04 8509   0.965   0.396   7.479 -0.6507 -0.1362  0.4373
   24GLOH    O2 8510   0.953   0.197   7.438 -0.4901  0.2751 -0.2665
   24GLOH   H05 8511   0.924   0.219   7.348 -1.0852  0.6551  0.0135
   24GLOH    C3 8512   1.068   0.296   7.647  0.2689 -0.5211  0.7936
   24GLOH   H06 8513   1.132   0.210   7.665  1.1315 -0.1286 -0.3999
   24GLOH   H07 8514   0.970   0.276   7.691 -0.0662  2.1188  1.3235
   24GLOH    O3 8515   1.120   0.416   7.701  0.5307 -0.3074 -0.3971
   24GLOH   H01 8516   1.082   0.429   7.790 -0.0475 -0.9693 -0.5417
   25GLOH   H03 8517   0.365   4.135   3.147  0.2004 -0.1888 -0.6656
   25GLOH    O1 8518   0.343   4.204   3.212 -0.2287 -0.4415 -0.5399
   25GLOH    C1 8519   0.234   4.287   3.165  0.1588  0.5002  0.7308
   25GLOH   H02 8520   0.218   4.258   3.061 -0.8390 -0.9797  1.2850
   25GLOH   H08 8521   0.263   4.391   3.181 -3.6110  1.1736  4.0025
   25GLOH    C2 8522   0.100   4.274   3.247 -0.2601  0.0899  0.9225
   25GLOH   H04 8523   0.114   4.323   3.344 -1.4295  2.1552  0.0703
   25GLOH    O2 8524  -0.006   4.341   3.175 -0.6473 -0.2200 -0.3650
   25GLOH   H05 8525  -0.015   4.302   3.087  2.1641 -2.3715  0.2246
   25GLOH    C3 8526   0.073   4.121   3.268 -0.3825  0.1681 -0.2109
   25GLOH   H06 8527   0.065   4.081   3.167  0.7335  0.9554 -0.6183
   25GLOH   H07 8528  -0.020   4.102   3.322  0.2100  0.8733  1.0684
   25GLOH    O3 8529   0.183   4.056   3.340  0.9225 -0.1040  0.2967
   25GLOH   H01 8530   0.262   4.111   3.325  0.6699  0.2084  0.1025
   26GLOH   H03 8531   8.130   1.764   3.543 -1.2327  0.3790  0.9277
   26GLOH    O1 8532   8.129   1.845   3.489 -0.2191  0.5148  1.1179
   26GLOH    C1 8533   8.143   1.806   3.349 -0.0090 -0.0796 -0.4591
   26GLOH   H02 8534   8.211   1.721   3.337  1.0144  0.5294  0.9347
   26GLOH   H08 8535   8.187   1.888   3.292 -0.6157  0.7900  0.3150
   26GLOH    C2 8536   8.012   1.781   3.268  0.3606  0.6530  0.1786
   26GLOH   H04 8537   7.971   1.692   3.318  4.2496 -1.1022  0.4387
   26GLOH    O2 8538   7.922   1.890   3.275  0.0606  0.6438 -0.1122
   26GLOH   H05 8539   7.920   1.923   3.367 -0.6238 -1.0916  0.5066
   26GLOH    C3 8540   8.044   1.733   3.126 -0.4034 -0.5849 -0.4535
   26GLOH   H06 8541   8.120   1.807   3.102 -1.4848  0.4281 -0.8012
   26GLOH   H07 8542   7.961   1.744   3.056 -2.0671 -0.7250  1.4542
   26GLOH    O3 8543   8.108   1.610   3.113  0.1409  0.4142 -0.6230
   26GLOH   H01 8544   8.042   1.539   3.118  0.6551 -0.0179  0.3154
   27GLOH   H03 8545   2.599   5.561   7.280 -1.7368  2.8619 -1.9411
   27GLOH    O1 8546   2.508   5.532   7.297 -0.3881 -0.5575  0.2776
   27GLOH    C1 8547   2.497   5.451   7.415 -0.5514 -0.6434  0.4770
   27GLOH   H02 8548   2.419   5.495   7.477 -0.0917  1.1637 -0.2002
   27GLOH   H08 8549   2.580   5.452   7.485 -0.8110  0.5420  0.7799
   27GLOH    C2 8550   2.461   5.312   7.371  0.5868  0.6901 -0.2049
   27GLOH   H04 8551   2.537   5.284   7.296  0.7231  0.6458 -0.0491
   27GLOH    O2 8552   2.463   5.213   7.478  0.1766  0.6563 -0.6117
   27GLOH   H05 8553   2.389   5.210   7.542 -0.5685 -3.3142 -1.5146
   27GLOH    C3 8554   2.322   5.297   7.293  0.4551  0.3946 -0.3191
   27GLOH   H06 8555   2.315   5.197   7.250 -0.3209  0.1414  0.3734
   27GLOH   H07 8556   2.335   5.358   7.204  2.2431 -0.1158 -0.4334
   27GLOH    O3 8557   2.211   5.345   7.367  0.3656  0.6895 -0.3380
   27GLOH   H01 8558   2.209   5.442   7.361 -0.6582  0.8582  1.9521
   28GLOH   H03 8559   6.385   0.774   6.745  1.7803  0.6532 -0.2814
   28GLOH    O1 8560   6.414   0.703   6.805 -0.2396 -0.1964 -0.2476
   28GLOH    C1 8561   6.466   0.766   6.923  0.0184 -0.5669 -0.5069
   28GLOH   H02 8562   6.454   0.875   6.924  0.0745 -0.5607  1.8320
   28GLOH   H08 8563   6.570   0.741   6.942  0.4146  0.8375 -0.7840
   28GLOH    C2 8564   6.389   0.714   7.047 -0.2263  0.8311 -0.5498
   28GLOH   H04 8565   6.289   0.757   7.057 -1.0300 -1.2702  0.8795
   28GLOH    O2 8566   6.393   0.571   7.047  0.2751 -0.2641  0.2569
   28GLOH   H05 8567   6.449   0.552   6.971 -0.3132 -2.5886  0.3548
   28GLOH    C3 8568   6.464   0.779   7.166 -0.2025 -0.9731  0.5473
   28GLOH   H06 8569   6.573   0.770   7.163 -0.0496  1.0337 -1.1668
   28GLOH   H07 8570   6.426   0.734   7.257  1.7737  2.5762  3.2354
   28GLOH    O3 8571   6.445   0.924   7.173  0.2441 -0.2467  0.1404
   28GLOH   H01 8572   6.485   0.951   7.257  0.8052 -1.1205  0.1637
   29GLOH   H03 8573   4.249   6.707   4.906  0.8692 -0.9643 -0.4554
   29GLOH    O1 8574   4.239   6.680   4.813  0.7493 -0.1670 -0.6727
   29GLOH    C1 8575   4.118   6.615   4.791 -0.4962 -0.1428 -0.0126
   29GLOH   H02 8576   4.044   6.690   4.765  1.3389  1.3047 -1.1956
   29GLOH   H08 8577   4.078   6.575   4.883 -0.3089  1.8227  0.9503
   29GLOH    C2 8578   4.129   6.505   4.688 -0.9674  0.5183 -0.1740
   29GLOH   H04 8579   4.216   6.441   4.710 -0.7132  0.3471 -1.6698
   29GLOH    O2 8580   4.018   6.417   4.683  0.7458 -0.5124 -0.0093
   29GLOH   H05 8581   4.010   6.367   4.600 -1.7972  0.6331 -0.5142
   29GLOH    C3 8582   4.154   6.567   4.555 -0.4840 -0.1741 -0.1030
   29GLOH   H06 8583   4.062   6.616   4.521 -0.3983  0.0474 -0.0172
   29GLOH   H07 8584   4.178   6.488   4.484 -0.2032 -0.7089  0.5911
   29GLOH    O3 8585   4.264   6.651   4.555 -0.3167  0.1597 -0.1676
   29GLOH   H01 8586   4.281   6.668   4.650  0.0682  0.2053 -0.2448
   30GLOH   H03 8587   7.959   8.172   0.230  0.9750  0.1276 -0.8631
   30GLOH    O1 8588   7.979   8.140   0.320  0.7319  0.3510 -0.7267
   30GLOH    C1 8589   8.083   8.032   0.328 -0.0517 -0.3056 -0.4935
   30GLOH   H02 8590   8.162   8.043   0.254  1.8243 -0.5450  1.4481
   30GLOH   H08 8591   8.039   7.935   0.304 -1.3025  0.5606 -1.8585
   30GLOH    C2 8592   8.149   8.030   0.466 -0.4835 -0.1894 -0.0605
   30GLOH   H04 8593   8.061   8.030   0.532 -0.1871  2.2073  0.3863
   30GLOH    O2 8594   8.221   7.906   0.484  0.5576 -0.3822  0.0793
   30GLOH   H05 8595   8.246   7.899   0.577  0.7708 -0.2785  0.0308
   30GLOH    C3 8596   8.240   8.155   0.497 -0.2968  0.5552  0.9451
   30GLOH   H06 8597   8.273   8.147   0.601  0.1158  1.0074  0.8511
   30GLOH   H07 8598   8.181   8.246   0.487  0.2789  0.8673  0.2732
   30GLOH    O3 8599   8.339   8.167   0.395 -0.1379  0.3139  0.1238
   30GLOH   H01 8600   8.394   8.087   0.390 -1.5255 -0.6659  0.4667
   31GLOH   H03 8601   4.671   8.603   4.196 -2.3368 -1.4153 -0.9871
   31GLOH    O1 8602   4.630   8.681   4.155 -0.2884  0.1117 -0.2248
   31GLOH    C1 8603   4.727   8.752   4.083  0.6048 -0.1951  0.3221
   31GLOH   H02 8604   4.819   8.756   4.140  0.0904  0.7782  1.1175
   31GLOH   H08 8605   4.692   8.855   4.068  1.6250 -0.1789 -2.1729
   31GLOH    C2 8606   4.760   8.683   3.951 -0.1821 -1.0446 -0.3627
   31GLOH   H04 8607   4.830   8.746   3.894 -0.2780  0.5403  1.1982
   31GLOH    O2 8608   4.837   8.566   3.982 -0.3271  0.4620 -0.4490
   31GLOH   H05 8609   4.922   8.591   4.021  0.5120 -1.7320 -0.7626
   31GLOH    C3 8610   4.632   8.655   3.865  0.1124  0.1072  0.1803
   31GLOH   H06 8611   4.555   8.613   3.930 -0.2811 -0.5382 -0.6915
   31GLOH   H07 8612   4.653   8.583   3.786  2.5527  0.2070  0.6927
   31GLOH    O3 8613   4.577   8.776   3.792 -0.1021  0.4084  0.3252
   31GLOH   H01 8614   4.519   8.827   3.851  0.4128  4.1571 -2.2425
   32GLOH   H03 8615   7.374   6.831   7.967 -1.7653 -0.0594 -0.0088
   32GLOH    O1 8616   7.384   6.843   8.063  0.2327 -1.1207 -0.0722
   32GLOH    C1 8617   7.452   6.736   8.129 -0.4688  0.0695 -0.0863
   32GLOH   H02 8618   7.380   6.655   8.142 -0.7420  0.0771 -1.4941
   32GLOH   H08 8619   7.492   6.763   8.227 -1.2476  0.1768  0.2074
   32GLOH    C2 8620   7.574   6.687   8.044  0.9813 -0.9195 -0.3688
   32GLOH   H04 8621   7.525   6.637   7.959 -1.9671  1.6390 -0.2806
   32GLOH    O2 8622   7.648   6.804   7.990 -0.2285  0.4953 -0.3976
   32GLOH   H05 8623   7.610   6.885   8.026 -0.2708  2.1392 -3.8748
   32GLOH    C3 8624   7.656   6.580   8.125  0.8176 -0.1352  1.0756
   32GLOH   H06 8625   7.672   6.620   8.226 -0.5868  0.7387  0.9664
   32GLOH   H07 8626   7.754   6.575   8.078  1.7715  1.6950  2.7601
   32GLOH    O3 8627   7.603   6.453   8.146  0.0503  0.1814 -0.0363
   32GLOH   H01 8628   7.650   6.395   8.084  1.8534  0.5892  0.9084
   33GLOH   H03 8629   5.842   1.262   1.028  1.5858 -0.7649  0.3305
   33GLOH    O1 8630   5.916   1.320   1.002  0.8551 -0.1014 -0.2940
   33GLOH    C1 8631   5.945   1.390   1.119 -0.1546 -0.1703  0.4592
   33GLOH   H02 8632   5.865   1.464   1.130  2.1793  2.6882 -0.9634
   33GLOH   H08 8633   6.035   1.451   1.110 -0.6214  0.7692  1.9090
   33GLOH    C2 8634   5.953   1.305   1.248 -0.0028 -0.5933 -0.6878
   33GLOH   H04 8635   6.023   1.223   1.226  1.0203  0.0856  0.0163
   33GLOH    O2 8636   5.987   1.381   1.366  0.3544  0.6801 -0.7649
   33GLOH   H05 8637   6.083   1.369   1.377  0.3116  2.1119  1.4212
   33GLOH    C3 8638   5.822   1.225   1.265 -0.1041 -0.0418  0.3184
   33GLOH   H06 8639   5.745   1.302   1.266 -0.6653 -0.5720 -1.0786
   33GLOH   H07 8640   5.817   1.175   1.362  1.0339  0.2589  0.5447
   33GLOH    O3 8641   5.806   1.124   1.165  0.6004  0.1173 -0.4545
   33GLOH   H01 8642   5.720   1.079   1.166 -0.5094  2.1813  0.4397
   34GLOH   H03 8643   8.479   0.701   7.754  0.2595 -1.0767  0.8469
   34GLOH    O1 8644   8.395   0.661   7.729  0.2483 -0.5190 -0.0159
   34GLOH    C1 8645   8.352   0.550   7.807  0.3160  0.2099  0.4429
   34GLOH   H02 8646   8.282   0.577   7.886  0.6320 -1.7336  1.4035
   34GLOH   H08 8647   8.437   0.505   7.858  0.1693 -0.5794  0.0018
   34GLOH    C2 8648   8.289   0.439   7.717 -0.3852  0.0068 -0.1734
   34GLOH   H04 8649   8.280   0.359   7.792  0.5717  0.8116  0.8134
   34GLOH    O2 8650   8.160   0.472   7.670  0.5822  0.0556  0.4872
   34GLOH   H05 8651   8.114   0.492   7.753 -0.7654 -1.5169  0.1450
   34GLOH    C3 8652   8.377   0.399   7.600 -0.1980  0.5401  0.5134
   34GLOH   H06 8653   8.392   0.495   7.550 -0.8611  0.9040  1.0031
   34GLOH   H07 8654   8.322   0.335   7.531 -1.1293  2.1644 -0.2890
   34GLOH    O3 8655   8.504   0.347   7.645 -0.4536 -0.4772 -0.6265
   34GLOH   H01 8656   8.577   0.403   7.614 -1.5286  0.1860 -1.9826
   35GLOH   H03 8657   9.717   7.276   5.697  1.2880  0.0098  1.4042
   35GLOH    O1 8658   9.780   7.320   5.637  0.2683  0.2358  0.4995
   35GLOH    C1 8659   9.711   7.408   5.551  0.6813  0.1214  0.6775
   35GLOH   H02 8660   9.640   7.465   5.610  0.6374 -0.7170  1.4505
   35GLOH   H08 8661   9.651   7.339   5.490  0.1915  2.6639 -1.8234
   35GLOH    C2 8662   9.793   7.506   5.473  0.3572  0.4147 -0.2401
   35GLOH   H04 8663   9.866   7.445   5.417  0.1225  1.0411 -1.2266
   35GLOH    O2 8664   9.709   7.577   5.380  0.2194  0.3766 -0.0736
   35GLOH   H05 8665   9.757   7.604   5.300  0.9407 -2.9520 -0.8537
   35GLOH    C3 8666   9.867   7.594   5.579  0.6741 -0.1993  0.1034
   35GLOH   H06 8667   9.928   7.535   5.648  1.9871  0.6072 -0.3452
   35GLOH   H07 8668   9.792   7.651   5.634 -0.4769 -2.6066  1.1348
   35GLOH    O3 8669   9.962   7.692   5.531 -0.4153  0.4855 -0.3306
   35GLOH   H01 8670  10.031   7.651   5.477 -0.0510  2.6402 -1.5637
   36GLOH   H03 8671   3.926   8.093   7.343 -0.4338 -0.7001  0.3642
   36GLOH    O1 8672   4.020   8.091   7.366 -0.3411  0.3635  0.0947
   36GLOH    C1 8673   4.040   8.116   7.508 -0.1673 -0.1375  0.1912
   36GLOH   H02 8674   4.118   8.051   7.547 -1.3119 -1.1897  0.7896
   36GLOH   H08 8675   3.949   8.084   7.559 -0.8606 -1.7255 -1.9569
   36GLOH    C2 8676   4.093   8.261   7.541 -0.0610  0.4361  0.0539
   36GLOH   H04 8677   4.186   8.266   7.481 -1.5140  4.7474 -2.0136
   36GLOH    O2 8678   4.002   8.358   7.491 -0.0177 -0.4676  0.3861
   36GLOH   H05 8679   3.983   8.332   7.400  2.2645 -1.0155  0.0479
   36GLOH    C3 8680   4.111   8.281   7.694 -0.2504 -0.7624 -0.4618
   36GLOH   H06 8681   4.017   8.319   7.735  1.8546  1.4636  2.5919
   36GLOH   H07 8682   4.179   8.367   7.697 -2.7551  1.2457  1.4997
   36GLOH    O3 8683   4.161   8.168   7.763  0.1578  0.0332  0.5173
   36GLOH   H01 8684   4.258   8.169   7.752  0.2716 -1.7248  1.1446
   37GLOH   H03 8685   5.312   4.025   7.356 -0.7044 -0.2604 -0.0222
   37GLOH    O1 8686   5.271   4.045   7.270 -0.6851  0.2639  0.0904
   37GLOH    C1 8687   5.309   4.172   7.216 -0.4987 -0.3988 -0.3690
   37GLOH   H02 8688   5.407   4.164   7.169 -0.8716 -0.6997 -1.1038
   37GLOH   H08 8689   5.313   4.249   7.292  0.7912 -0.5339 -0.2793
   37GLOH    C2 8690   5.202   4.232   7.118  0.5520  0.2887  0.5400
   37GLOH   H04 8691   5.107   4.232   7.173  0.4404 -2.2874  0.4444
   37GLOH    O2 8692   5.234   4.364   7.074  0.1050 -0.2995  0.2945
   37GLOH   H05 8693   5.159   4.425   7.090  1.5367  0.8898  2.6962
   37GLOH    C3 8694   5.168   4.134   7.005  0.9575  1.1590 -0.1313
   37GLOH   H06 8695   5.252   4.116   6.939 -0.9552 -0.1143 -2.3128
   37GLOH   H07 8696   5.098   4.189   6.942 -2.8856 -0.9598  2.0364
   37GLOH    O3 8697   5.127   4.004   7.049 -0.0373 -0.0599  0.4506
   37GLOH   H01 8698   5.189   3.979   7.120 -0.0045 -1.3783 -0.0256
   38GLOH   H03 8699  -0.033   0.253   5.264  0.2927  0.5639 -0.1858
   38GLOH    O1 8700  -0.099   0.250   5.192 -0.1553 -0.1924  0.2459
   38GLOH    C1 8701  -0.054   0.138   5.109  0.7625 -0.4876  0.0472
   38GLOH   H02 8702  -0.118   0.135   5.020  2.6287 -2.0691 -1.2976
   38GLOH   H08 8703  -0.077   0.044   5.159 -4.6193  1.2676  1.2530
   38GLOH    C2 8704   0.092   0.144   5.058 -0.6850 -0.0185  0.3433
   38GLOH   H04 8705   0.163   0.124   5.140  2.1397  0.6542 -1.8725
   38GLOH    O2 8706   0.124   0.046   4.959 -0.1708  0.0665 -0.4348
   38GLOH   H05 8707   0.159   0.096   4.884  1.0798 -0.0469  0.0618
   38GLOH    C3 8708   0.139   0.279   5.008  0.2396 -0.6017  0.0846
   38GLOH   H06 8709   0.246   0.284   4.985  0.1725 -0.6246 -0.2411
   38GLOH   H07 8710   0.113   0.355   5.081  2.8203  1.5657 -1.1771
   38GLOH    O3 8711   0.060   0.311   4.894  0.7561  0.0312  0.5183
   38GLOH   H01 8712   0.068   0.406   4.878  1.6267 -0.3585 -1.5045
   39GLOH   H03 8713   3.233   8.771   6.720 -0.1532  2.3880  1.6020
   39GLOH    O1 8714   3.162   8.732   6.774 -0.0460 -0.3195 -0.0993
   39GLOH    C1 8715   3.078   8.655   6.692 -0.0856  0.5010  0.0080
   39GLOH   H02 8716   2.998   8.614   6.753  0.5624 -0.6736  0.0787
   39GLOH   H08 8717   3.141   8.576   6.650  0.9285  0.6671  1.2090
   39GLOH    C2 8718   3.004   8.734   6.584  0.0784 -0.4954  0.0225
   39GLOH   H04 8719   2.932   8.798   6.636  0.5712  1.4726 -1.6678
   39GLOH    O2 8720   3.092   8.808   6.501 -0.6172  0.3624  0.2071
   39GLOH   H05 8721   3.051   8.892   6.478 -2.8969 -0.7307  0.1767
   39GLOH    C3 8722   2.918   8.639   6.494 -0.1588  0.1856  0.0069
   39GLOH   H06 8723   2.981   8.561   6.452 -1.0261 -0.1014 -0.7828
   39GLOH   H07 8724   2.871   8.701   6.417 -0.1364 -0.4049 -0.4875
   39GLOH    O3 8725   2.810   8.570   6.562  0.0082  0.1141 -0.0867
   39GLOH   H01 8726   2.743   8.558   6.492 -1.3394 -0.3242  1.2740
   40GLOH   H03 8727   0.865   3.937   3.775  0.9422 -0.1430 -1.1102
   40GLOH    O1 8728   0.873   4.034   3.770  0.1645 -0.0157 -0.0305
   40GLOH    C1 8729   0.879   4.102   3.900 -0.3145  0.5019  0.0638
   40GLOH   H02 8730   0.782   4.132   3.939 -1.4215  0.0048 -2.2412
   40GLOH   H08 8731   0.930   4.198   3.896 -0.4154  0.6386  1.5616
   40GLOH    C2 8732   0.945   4.019   4.012  0.0132  0.2627 -0.1260
   40GLOH   H04 8733   0.901   3.918   4.014  1.7667 -0.5770 -2.1011
   40GLOH    O2 8734   1.077   4.003   3.978 -0.4425 -0.1346  0.5524
   40GLOH   H05 8735   1.113   4.088   3.949  1.3700 -1.9627 -2.7898
   40GLOH    C3 8736   0.928   4.079   4.152 -0.1603 -0.8342 -0.6353
   40GLOH   H06 8737   0.974   4.002   4.214  0.9078 -1.7663 -2.5412
   40GLOH   H07 8738   0.822   4.077   4.180 -0.4311 -0.7914 -1.6354
   40GLOH    O3 8739   0.982   4.213   4.168  0.4288  0.1374  0.1362
   40GLOH   H01 8740   0.964   4.246   4.258 -0.5215 -1.5244  0.5773
   41GLOH   H03 8741   1.025   2.886   3.585 -0.3937  0.0564 -0.9741
   41GLOH    O1 8742   1.071   2.801   3.575 -0.0368  0.1257  0.0200
   41GLOH    C1 8743   1.194   2.819   3.498  0.0792  0.1881 -1.0382
   41GLOH   H02 8744   1.269   2.776   3.564 -2.2393  0.6494  1.9811
   41GLOH   H08 8745   1.214   2.925   3.480  1.5301  0.0304 -0.4210
   41GLOH    C2 8746   1.185   2.729   3.377  0.0957 -0.0723 -0.2582
   41GLOH   H04 8747   1.288   2.733   3.339  0.8555 -0.5432  1.6907
   41GLOH    O2 8748   1.155   2.593   3.408  0.5445  0.1115 -0.1611
   41GLOH   H05 8749   1.095   2.582   3.483 -0.7111 -0.1357 -1.1878
   41GLOH    C3 8750   1.082   2.804   3.284  0.3316 -0.0652 -0.2275
   41GLOH   H06 8751   0.992   2.824   3.342 -0.4030 -0.8308 -1.0804
   41GLOH   H07 8752   1.059   2.735   3.202  0.1782 -0.8384  0.4649
   41GLOH    O3 8753   1.130   2.938   3.241  0.2718 -0.8170  0.4579
   41GLOH   H01 8754   1.059   3.003   3.221  0.3223 -0.4745  1.3736
   42GLOH   H03 8755   2.652   7.437   0.774 -1.4562 -0.9606 -0.8150
   42GLOH    O1 8756   2.600   7.519   0.785  0.1084 -0.0112 -0.3774
   42GLOH    C1 8757   2.690   7.624   0.833  0.7448  0.1325 -0.0570
   42GLOH   H02 8758   2.726   7.696   0.759 -0.9540  1.6593  0.5527
   42GLOH   H08 8759   2.780   7.579   0.873 -0.6278 -1.9853  0.7000
   42GLOH    C2 8760   2.638   7.700   0.959  0.7370 -0.5420 -0.4545
   42GLOH   H04 8761   2.622   7.630   1.042  1.5138 -1.0194 -0.7014
   42GLOH    O2 8762   2.736   7.805   1.006 -0.3437  0.5530 -0.1064
   42GLOH   H05 8763   2.713   7.887   0.960  2.5487  1.5766  0.1704
   42GLOH    C3 8764   2.499   7.758   0.929 -0.6882  0.8799 -0.2254
   42GLOH   H06 8765   2.438   7.667   0.922  1.2636 -0.4259 -0.6306
   42GLOH   H07 8766   2.503   7.802   0.830  0.0159 -1.1176 -1.1195
   42GLOH    O3 8767   2.452   7.844   1.036  0.3120 -0.1353  0.1634
   42GLOH   H01 8768   2.479   7.792   1.114 -1.3082 -0.7209  0.3405
   43GLOH   H03 8769   4.636   8.714   7.830  0.5788  0.3988  0.3193
   43GLOH    O1 8770   4.695   8.642   7.860 -0.8029 -0.8229  0.1728
   43GLOH    C1 8771   4.740   8.563   7.743  0.5031  0.4724  0.4482
   43GLOH   H02 8772   4.778   8.627   7.663 -1.1184  0.3522 -0.4415
   43GLOH   H08 8773   4.656   8.510   7.699  0.6464  1.2864 -0.8392
   43GLOH    C2 8774   4.845   8.451   7.771  0.5593  0.2529 -0.2049
   43GLOH   H04 8775   4.792   8.382   7.839  4.3026 -1.7172  0.8255
   43GLOH    O2 8776   4.893   8.388   7.654 -0.0697 -0.2460 -0.4688
   43GLOH   H05 8777   4.823   8.337   7.611 -0.5307  0.5169 -0.6397
   43GLOH    C3 8778   4.963   8.506   7.848 -0.0077 -0.0341 -0.3144
   43GLOH   H06 8779   5.029   8.566   7.786  0.6061  0.5321  0.8571
   43GLOH   H07 8780   5.028   8.426   7.883 -0.8229 -0.4175  0.3592
   43GLOH    O3 8781   4.917   8.588   7.960 -0.0222  0.4068  0.3316
   43GLOH   H01 8782   4.825   8.607   7.934 -0.0310  1.1910  0.9170
   44GLOH   H03 8783   6.358   3.605   0.148  0.4114  0.4763 -1.7535
   44GLOH    O1 8784   6.451   3.583   0.132  0.5384 -0.4357  0.0353
   44GLOH    C1 8785   6.524   3.678   0.056  0.2926 -0.0576 -0.1543
   44GLOH   H02 8786   6.488   3.778   0.079  2.1675  0.8674 -1.2068
   44GLOH   H08 8787   6.503   3.654  -0.048  0.9877  0.5351 -0.4294
   44GLOH    C2 8788   6.679   3.674   0.082 -0.3241 -0.0058  0.0356
   44GLOH   H04 8789   6.716   3.748   0.010 -2.6986  1.1073 -0.0770
   44GLOH    O2 8790   6.717   3.718   0.213  0.4998  0.1632 -0.3062
   44GLOH   H05 8791   6.650   3.783   0.240  3.5778  1.9701  3.2851
   44GLOH    C3 8792   6.738   3.535   0.043  0.3407  0.0458 -0.2933
   44GLOH   H06 8793   6.698   3.463   0.114 -1.4199  2.0830  0.8164
   44GLOH   H07 8794   6.845   3.546   0.054  0.1863  1.2580  0.0281
   44GLOH    O3 8795   6.704   3.494  -0.088  0.7907 -0.2316 -0.0968
   44GLOH   H01 8796   6.611   3.468  -0.093  0.5978  0.2140  1.0954
   45GLOH   H03 8797   2.244   3.728   1.392 -0.8469 -0.9731  0.9804
   45GLOH    O1 8798   2.207   3.813   1.362  0.6937 -0.6203 -0.0056
   45GLOH    C1 8799   2.074   3.822   1.415 -0.3404  0.4705 -0.6773
   45GLOH   H02 8800   2.070   3.792   1.520  0.5836 -3.4727 -1.6947
   45GLOH   H08 8801   2.005   3.754   1.365  0.0915 -0.1122 -0.4811
   45GLOH    C2 8802   2.012   3.959   1.405  0.3265  0.0533 -0.0813
   45GLOH   H04 8803   2.021   4.005   1.306 -1.7980 -1.1185 -0.8494
   45GLOH    O2 8804   1.876   3.961   1.441  0.0681 -0.0471 -0.4222
   45GLOH   H05 8805   1.826   3.900   1.385 -0.7567  0.2926 -0.0582
   45GLOH    C3 8806   2.092   4.052   1.500 -0.3734 -0.1245  0.2032
   45GLOH   H06 8807   2.049   4.151   1.493 -0.6715 -0.3373 -0.8884
   45GLOH   H07 8808   2.195   4.060   1.464  0.8382  1.4213  3.6713
   45GLOH    O3 8809   2.089   4.024   1.636  0.2816 -0.4153 -0.1461
   45GLOH   H01 8810   1.995   4.006   1.658  0.2515  0.5071  0.4893
   46GLOH   H03 8811   4.471   4.498   5.064 -3.0894 -0.6755  1.6703
   46GLOH    O1 8812   4.483   4.593   5.083  0.0412 -0.8353  0.7630
   46GLOH    C1 8813   4.607   4.650   5.026 -0.0187  0.8128  0.3421
   46GLOH   H02 8814   4.657   4.727   5.085  0.0790  1.4621 -0.5744
   46GLOH   H08 8815   4.584   4.693   4.929 -1.2727  0.0613  0.2954
   46GLOH    C2 8816   4.723   4.546   5.010  0.3792  1.0313 -0.3348
   46GLOH   H04 8817   4.814   4.593   4.971  1.5211 -0.3002  0.6487
   46GLOH    O2 8818   4.761   4.488   5.140  0.3925  0.4223  0.2898
   46GLOH   H05 8819   4.685   4.446   5.183 -0.5276  2.4201  0.6635
   46GLOH    C3 8820   4.676   4.436   4.913 -0.3101 -0.9869  0.1917
   46GLOH   H06 8821   4.766   4.376   4.901 -0.0155 -0.6021  0.4917
   46GLOH   H07 8822   4.646   4.476   4.816 -1.7288 -0.4617  0.8267
   46GLOH    O3 8823   4.562   4.362   4.955  0.1285 -0.5107 -0.8391
   46GLOH   H01 8824   4.592   4.270   4.961 -0.8068 -0.7166  0.9862
   47GLOH   H03 8825   1.957   4.812   6.537  0.5033 -0.2950  0.1387
   47GLOH    O1 8826   1.874   4.848   6.575  0.5353 -0.1863  0.1083
   47GLOH    C1 8827   1.762   4.779   6.511 -0.1531  0.3468 -0.2136
   47GLOH   H02 8828   1.764   4.676   6.548  1.4047  1.0926  1.8689
   47GLOH   H08 8829   1.773   4.763   6.404 -1.3038 -1.7242 -0.0548
   47GLOH    C2 8830   1.627   4.844   6.549 -0.8749  0.8508 -0.4907
   47GLOH   H04 8831   1.613   4.944   6.506 -0.4359  1.0001 -0.2877
   47GLOH    O2 8832   1.516   4.766   6.502  0.1130 -0.5366  0.1508
   47GLOH   H05 8833   1.515   4.758   6.405  2.0907  0.4615  0.0291
   47GLOH    C3 8834   1.616   4.850   6.704  0.1508 -0.0718  1.0120
   47GLOH   H06 8835   1.527   4.908   6.725 -0.3923 -1.0212  1.3521
   47GLOH   H07 8836   1.697   4.917   6.734  0.3346  0.4369 -0.5515
   47GLOH    O3 8837   1.611   4.719   6.763  0.7909  0.2840 -0.4170
   47GLOH   H01 8838   1.549   4.724   6.837  0.6887  0.5001 -0.5165
   48GLOH   H03 8839   7.929   3.739   8.181  0.2794  1.1641  1.7732
   48GLOH    O1 8840   8.025   3.724   8.187  0.1698 -0.4214 -0.0670
   48GLOH    C1 8841   8.086   3.712   8.055 -0.0508 -0.2627 -0.3646
   48GLOH   H02 8842   8.061   3.617   8.009 -0.0223  0.2849 -1.5105
   48GLOH   H08 8843   8.195   3.708   8.059 -0.0762 -1.7375 -0.8036
   48GLOH    C2 8844   8.043   3.823   7.960  0.8643 -0.0794 -0.3091
   48GLOH   H04 8845   8.106   3.826   7.870  0.9533  0.3336 -0.2328
   48GLOH    O2 8846   7.902   3.812   7.922 -0.3698  0.1242 -0.5705
   48GLOH   H05 8847   7.864   3.781   8.005  0.4404  1.3487  0.2637
   48GLOH    C3 8848   8.056   3.959   8.035 -0.1090  0.5483 -0.2077
   48GLOH   H06 8849   7.973   3.960   8.106 -0.2089 -0.0302 -0.3083
   48GLOH   H07 8850   8.034   4.036   7.961  1.7936  1.7738  0.4639
   48GLOH    O3 8851   8.186   4.004   8.087 -0.0167  0.4125 -0.9011
   48GLOH   H01 8852   8.222   4.065   8.019  1.6174  0.9955  0.4612
   49GLOH   H03 8853   4.325   0.517   1.574  0.7888  1.0219 -1.3615
   49GLOH    O1 8854   4.381   0.565   1.637  0.1464  0.1125 -0.0826
   49GLOH    C1 8855   4.303   0.683   1.665 -0.2066  0.0298  0.2910
   49GLOH   H02 8856   4.297   0.687   1.774  0.0092 -0.8553  0.3422
   49GLOH   H08 8857   4.205   0.677   1.618 -0.1611  2.2269 -0.1296
   49GLOH    C2 8858   4.377   0.818   1.629  0.1579  0.7257  0.2884
   49GLOH   H04 8859   4.413   0.809   1.526  1.2153  0.5513  0.6655
   49GLOH    O2 8860   4.282   0.926   1.641 -0.2981 -0.6414  0.2175
   49GLOH   H05 8861   4.308   1.011   1.600 -0.2915  0.5405  2.5732
   49GLOH    C3 8862   4.503   0.836   1.718  0.6123  0.3740  0.2238
   49GLOH   H06 8863   4.478   0.846   1.824  0.6772 -0.7095  0.3437
   49GLOH   H07 8864   4.556   0.926   1.687 -0.1484  0.7533  0.0294
   49GLOH    O3 8865   4.588   0.715   1.706  0.2462  0.1330  0.2787
   49GLOH   H01 8866   4.529   0.642   1.679  3.1745 -1.1215 -3.2442
   50GLOH   H03 8867   4.464   7.344   1.472 -0.2510  4.5420 -1.1618
   50GLOH    O1 8868   4.536   7.323   1.410 -0.1682  0.9035  0.0669
   50GLOH    C1 8869   4.516   7.195   1.349 -0.1822  0.1553 -0.1279
   50GLOH   H02 8870   4.413   7.191   1.314  0.1504 -1.9798 -0.9621
   50GLOH   H08 8871   4.536   7.119   1.424  1.1409  0.7206  0.1153
   50GLOH    C2 8872   4.618   7.171   1.234  0.6883  0.2745 -0.3776
   50GLOH   H04 8873   4.581   7.245   1.162 -0.6425  1.7948  1.8206
   50GLOH    O2 8874   4.757   7.199   1.265  0.2541  1.1313 -0.0445
   50GLOH   H05 8875   4.770   7.290   1.298 -0.2094  0.8955  0.8159
   50GLOH    C3 8876   4.600   7.025   1.190 -0.5558 -0.3431  0.3481
   50GLOH   H06 8877   4.625   6.971   1.281  2.3988  1.0434  0.4160
   50GLOH   H07 8878   4.662   6.999   1.104 -0.7076  2.7308 -0.7641
   50GLOH    O3 8879   4.470   7.000   1.144 -0.1043 -0.2499  0.1906
   50GLOH   H01 8880   4.443   6.912   1.176 -0.3155  0.1928  1.2613
   51GLOH   H03 8881   7.726  10.128   7.912  1.2467  0.3655  0.9583
   51GLOH    O1 8882   7.762  10.042   7.943  0.8479 -0.0822  0.2018
   51GLOH    C1 8883   7.886  10.062   8.012 -0.2776  0.5397 -0.5922
   51GLOH   H02 8884   7.890  10.164   8.050 -1.6710  0.3116  0.1832
   51GLOH   H08 8885   7.975  10.051   7.950 -0.1236 -1.1555 -0.1003
   51GLOH    C2 8886   7.902   9.957   8.126  0.8818  0.1527  0.0728
   51GLOH   H04 8887   8.003   9.962   8.169  1.1423 -1.4688 -0.3060
   51GLOH    O2 8888   7.808   9.965   8.231 -0.6516  0.9296 -0.4803
   51GLOH   H05 8889   7.736  10.024   8.202 -1.0504  1.1410  0.8965
   51GLOH    C3 8890   7.894   9.812   8.074 -0.4709 -0.0798  0.3393
   51GLOH   H06 8891   7.803   9.799   8.016 -1.6132 -1.4921  2.4088
   51GLOH   H07 8892   7.886   9.744   8.158 -1.3871 -3.1576 -2.1677
   51GLOH    O3 8893   8.012   9.784   7.992  0.0208 -0.8999 -0.0221
   51GLOH   H01 8894   7.986   9.788   7.898 -0.3428 -2.4004  0.0029
   52GLOH   H03 8895   7.940   8.538   6.174 -1.8469  0.0434 -2.0885
   52GLOH    O1 8896   7.865   8.517   6.234  0.0042  0.8526  0.6075
   52GLOH    C1 8897   7.754   8.471   6.152  0.0603  0.2401 -0.1364
   52GLOH   H02 8898   7.683   8.413   6.211  0.1571 -0.3893 -0.6219
   52GLOH   H08 8899   7.794   8.402   6.078 -1.5940 -1.1807  0.2626
   52GLOH    C2 8900   7.667   8.580   6.088  0.0138 -0.0964 -0.0552
   52GLOH   H04 8901   7.733   8.661   6.053 -1.0540  1.2384  0.9793
   52GLOH    O2 8902   7.580   8.546   5.977  0.2101 -0.5817  0.2468
   52GLOH   H05 8903   7.568   8.618   5.913 -0.7686 -0.3069  0.7363
   52GLOH    C3 8904   7.586   8.648   6.196 -0.7243  0.0194 -0.6304
   52GLOH   H06 8905   7.508   8.585   6.239 -1.5305  0.9469 -0.7302
   52GLOH   H07 8906   7.533   8.733   6.152 -0.9472 -0.1368 -0.6667
   52GLOH    O3 8907   7.675   8.695   6.293 -0.1386  0.0303  0.2361
   52GLOH   H01 8908   7.727   8.618   6.322 -0.1411 -0.1971 -0.3634
   53GLOH   H03 8909   4.488   1.538   5.740  0.1931  0.1102  2.4094
   53GLOH    O1 8910   4.453   1.623   5.773  0.9216  1.1840  0.4755
   53GLOH    C1 8911   4.561   1.715   5.788  0.4085 -0.4917  0.1210
   53GLOH   H02 8912   4.526   1.817   5.774  0.4096 -0.5819 -0.5812
   53GLOH   H08 8913   4.633   1.698   5.709  0.3756 -0.8554  0.1700
   53GLOH    C2 8914   4.633   1.692   5.924 -0.6949  0.4910  0.1487
   53GLOH   H04 8915   4.661   1.586   5.927  0.4102  0.7759  0.3099
   53GLOH    O2 8916   4.751   1.777   5.929 -0.1826 -0.2603 -0.1617
   53GLOH   H05 8917   4.805   1.765   6.010  1.4154 -0.3255 -1.2151
   53GLOH    C3 8918   4.544   1.719   6.044  0.3589 -0.5575  0.3646
   53GLOH   H06 8919   4.475   1.634   6.043  0.7509 -0.8773  0.1483
   53GLOH   H07 8920   4.486   1.809   6.022  1.4114 -0.6475 -3.1265
   53GLOH    O3 8921   4.604   1.733   6.178 -0.5312  0.4654  0.1624
   53GLOH   H01 8922   4.696   1.702   6.171 -0.2077  1.6328 -0.9725
   54GLOH   H03 8923   5.763   4.808   7.615 -1.6991 -1.2579 -0.9436
   54GLOH    O1 8924   5.706   4.886   7.605 -0.3849 -0.0831  0.4323
   54GLOH    C1 8925   5.737   4.966   7.725 -0.4028  0.9923 -0.0814
   54GLOH   H02 8926   5.713   5.071   7.707 -0.2586  0.6325 -2.5350
   54GLOH   H08 8927   5.843   4.968   7.751 -0.1629  0.5988 -1.0062
   54GLOH    C2 8928   5.663   4.922   7.850  1.1253 -0.0533  0.4092
   54GLOH   H04 8929   5.653   4.812   7.845 -1.4804  0.2120 -0.6155
   54GLOH    O2 8930   5.744   4.954   7.962  0.3352 -0.4294  0.1329
   54GLOH   H05 8931   5.692   4.933   8.041 -2.8573 -1.3174 -2.0853
   54GLOH    C3 8932   5.527   4.991   7.863  0.3360 -0.7328 -0.1123
   54GLOH   H06 8933   5.476   4.995   7.767 -1.0873  1.7636  0.6942
   54GLOH   H07 8934   5.543   5.098   7.876 -2.5329 -0.3073  0.3394
   54GLOH    O3 8935   5.446   4.930   7.967 -0.4494  0.3922 -0.5425
   54GLOH   H01 8936   5.500   4.945   8.047  0.0315 -1.0672 -0.5778
   55GLOH   H03 8937   4.055   8.676   2.160 -0.4162  0.1064 -0.2582
   55GLOH    O1 8938   4.026   8.627   2.080  0.6953  0.0948 -0.6557
   55GLOH    C1 8939   3.940   8.530   2.137  0.0022  0.4373 -0.3353
   55GLOH   H02 8940   3.836   8.562   2.125 -0.2156  0.2451  0.8989
   55GLOH   H08 8941   3.960   8.522   2.244  1.0509 -1.2447 -0.6432
   55GLOH    C2 8942   3.951   8.388   2.081 -0.0304 -0.9068  0.4722
   55GLOH   H04 8943   4.047   8.340   2.107 -0.5894 -3.3716 -1.7328
   55GLOH    O2 8944   3.845   8.306   2.133  0.3195  0.2909  0.9058
   55GLOH   H05 8945   3.873   8.212   2.136 -1.4914 -0.2937  0.2431
   55GLOH    C3 8946   3.977   8.394   1.926  0.2711  0.0061 -0.4885
   55GLOH   H06 8947   3.890   8.445   1.884  0.2465 -0.8505 -1.4923
   55GLOH   H07 8948   3.972   8.295   1.882  1.6786 -0.2821 -0.0283
   55GLOH    O3 8949   4.097   8.457   1.887  0.1298 -0.0656 -0.4290
   55GLOH   H01 8950   4.107   8.521   1.960 -0.9782 -0.7448  0.3372
   56GLOH   H03 8951   1.033   8.991   6.503 -0.4893  1.2027 -0.5151
   56GLOH    O1 8952   1.014   9.010   6.410 -0.3531  0.1718 -0.7658
   56GLOH    C1 8953   1.115   9.085   6.349 -0.3523 -0.9124  0.3485
   56GLOH   H02 8954   1.141   9.170   6.412  0.3514 -1.1884  0.4335
   56GLOH   H08 8955   1.086   9.130   6.254  2.1810  0.5617  0.2317
   56GLOH    C2 8956   1.233   8.999   6.305 -0.0880 -0.3527  0.5910
   56GLOH   H04 8957   1.273   8.949   6.394  0.7423 -0.9037 -0.0916
   56GLOH    O2 8958   1.194   8.903   6.206 -0.2596 -0.1115  0.1016
   56GLOH   H05 8959   1.172   8.955   6.127 -1.6238 -0.3098  0.3347
   56GLOH    C3 8960   1.354   9.087   6.265  0.0865 -0.0024  0.1685
   56GLOH   H06 8961   1.329   9.174   6.203  0.2195  1.7589  2.5104
   56GLOH   H07 8962   1.423   9.018   6.217 -0.7950  0.5868 -1.9949
   56GLOH    O3 8963   1.405   9.148   6.388  0.7709  0.3679 -0.4079
   56GLOH   H01 8964   1.413   9.086   6.462  0.8233 -2.3871 -2.6335
   57GLOH   H03 8965   2.464   7.997   1.041 -1.0766 -0.3621 -0.3321
   57GLOH    O1 8966   2.479   8.093   1.037 -0.0972 -0.5089 -0.2939
   57GLOH    C1 8967   2.407   8.142   0.923 -0.8223 -0.6721 -0.2431
   57GLOH   H02 8968   2.433   8.247   0.911  1.8257 -1.2262  0.4550
   57GLOH   H08 8969   2.300   8.135   0.945 -1.1632  0.5377 -1.4401
   57GLOH    C2 8970   2.452   8.063   0.796 -0.7951  0.0036 -0.1255
   57GLOH   H04 8971   2.416   7.960   0.793  1.4008 -0.7935  0.0448
   57GLOH    O2 8972   2.389   8.128   0.688  0.2425 -0.3473 -0.2043
   57GLOH   H05 8973   2.431   8.117   0.601  0.7877 -0.9289  0.1289
   57GLOH    C3 8974   2.607   8.064   0.769  0.6128  0.6404  0.4827
   57GLOH   H06 8975   2.636   8.164   0.736 -0.9043  0.8728 -0.1910
   57GLOH   H07 8976   2.615   7.997   0.684  1.3236  1.4571 -0.0924
   57GLOH    O3 8977   2.679   8.021   0.884 -0.3110  0.4634  0.3718
   57GLOH   H01 8978   2.669   8.082   0.959  0.1684  1.6483 -0.5104
   58GLOH   H03 8979   1.552   8.844   7.951 -1.5465 -1.2748  0.7699
   58GLOH    O1 8980   1.599   8.789   8.018  0.7038 -0.0434  0.2561
   58GLOH    C1 8981   1.529   8.663   8.014 -0.3140  0.4135 -0.7190
   58GLOH   H02 8982   1.444   8.667   8.081 -2.0312  1.3698 -2.8784
   58GLOH   H08 8983   1.594   8.580   8.042  2.0990  2.4462 -0.1332
   58GLOH    C2 8984   1.475   8.628   7.870  0.6542  0.0267  0.7714
   58GLOH   H04 8985   1.552   8.594   7.799  1.2746  3.6326 -0.3564
   58GLOH    O2 8986   1.376   8.528   7.882 -0.1696 -0.5280  0.3138
   58GLOH   H05 8987   1.352   8.490   7.795  0.1576 -1.0020  0.4275
   58GLOH    C3 8988   1.417   8.752   7.800 -0.5033 -0.1147  1.4433
   58GLOH   H06 8989   1.323   8.775   7.849 -1.4846  3.2046 -1.7285
   58GLOH   H07 8990   1.400   8.746   7.692  0.7021  1.9279  1.1104
   58GLOH    O3 8991   1.481   8.878   7.819  0.7748  0.0803 -0.0646
   58GLOH   H01 8992   1.422   8.948   7.787  0.6250  0.6802  1.4679
   59GLOH   H03 8993   4.957   1.971   6.768 -0.7001  0.8169  0.8944
   59GLOH    O1 8994   4.961   1.877   6.792 -0.1443  0.6753  0.2808
   59GLOH    C1 8995   4.830   1.845   6.845  0.2156 -0.7348 -0.4302
   59GLOH   H02 8996   4.824   1.872   6.951  0.1273  0.9757 -0.8440
   59GLOH   H08 8997   4.822   1.737   6.832 -1.4388 -0.6807 -0.0593
   59GLOH    C2 8998   4.716   1.919   6.768  0.6086 -0.2409 -0.9484
   59GLOH   H04 8999   4.706   1.879   6.666  1.0085 -1.0606 -0.6718
   59GLOH    O2 9000   4.593   1.894   6.845 -0.0579  0.4808  0.2942
   59GLOH   H05 9001   4.514   1.911   6.792 -1.3853  1.7307  2.5945
   59GLOH    C3 9002   4.733   2.065   6.767  0.2911  0.0223 -0.3196
   59GLOH   H06 9003   4.740   2.096   6.871  0.9452  1.7686 -0.8650
   59GLOH   H07 9004   4.648   2.121   6.728 -1.6736 -0.7300  2.6903
   59GLOH    O3 9005   4.855   2.108   6.704  0.4355  0.4700  0.8909
   59GLOH   H01 9006   4.824   2.173   6.637  1.7326 -0.2015 -0.3636
   60GLOH   H03 9007   1.860   0.069   3.766  2.1414 -2.9790  0.5838
   60GLOH    O1 9008   1.906   0.086   3.681 -0.4915  0.9717 -0.1769
   60GLOH    C1 9009   1.848  -0.003   3.585  0.3338  0.0764 -0.3240
   60GLOH   H02 9010   1.867  -0.109   3.598  1.5521  0.4651  1.1523
   60GLOH   H08 9011   1.879   0.010   3.481 -0.0840 -1.2694 -0.6312
   60GLOH    C2 9012   1.689   0.001   3.583 -0.0741 -0.2539 -0.0070
   60GLOH   H04 9013   1.648  -0.052   3.496 -1.5688 -0.8092  1.0218
   60GLOH    O2 9014   1.634  -0.054   3.706 -0.0045  0.1510 -0.1079
   60GLOH   H05 9015   1.552  -0.100   3.684  0.2673 -0.7843  0.7790
   60GLOH    C3 9016   1.634   0.144   3.566 -0.4813  0.2440  0.7343
   60GLOH   H06 9017   1.692   0.202   3.638 -0.9768  0.0701  1.2739
   60GLOH   H07 9018   1.531   0.161   3.595 -0.7934  0.2939 -0.3891
   60GLOH    O3 9019   1.658   0.199   3.431  0.6961  0.4438  0.1373
   60GLOH   H01 9020   1.746   0.236   3.413  0.6285 -0.3069 -1.8095
   61GLOH   H03 9021   3.502  -0.014   2.970  0.7348 -0.7544 -0.0896
   61GLOH    O1 9022   3.444  -0.083   3.006  0.4771 -0.2276  0.5142
   61GLOH    C1 9023   3.335  -0.032   3.088 -0.0551 -0.4957  0.0034
   61GLOH   H02 9024   3.379   0.060   3.129  0.7962 -0.8717 -0.0472
   61GLOH   H08 9025   3.326  -0.106   3.168 -0.3860  0.0237  0.4547
   61GLOH    C2 9026   3.200   0.000   3.019 -0.7058 -0.1036 -0.0819
   61GLOH   H04 9027   3.151  -0.095   2.997 -1.6613  0.0883  1.1418
   61GLOH    O2 9028   3.124   0.093   3.102  1.2602 -0.0698 -0.1195
   61GLOH   H05 9029   3.033   0.060   3.109  1.1660  0.4037  0.8929
   61GLOH    C3 9030   3.221   0.060   2.882  0.3929 -1.0461 -0.5662
   61GLOH   H06 9031   3.125   0.083   2.837  0.0399 -0.1416  0.6195
   61GLOH   H07 9032   3.280  -0.009   2.822  0.7834 -2.5680  1.5351
   61GLOH    O3 9033   3.298   0.185   2.882  0.4135 -0.2623 -0.5116
   61GLOH   H01 9034   3.282   0.230   2.967  0.7078 -0.8579 -0.1365
   62GLOH   H03 9035   0.722   9.945   2.508  1.2052 -0.9436  0.2427
   62GLOH    O1 9036   0.754   9.966   2.418  0.4508 -0.2096  0.1349
   62GLOH    C1 9037   0.772   9.844   2.343 -0.5027 -0.1758  0.1174
   62GLOH   H02 9038   0.705   9.761   2.364 -2.9176  1.8345  0.5451
   62GLOH   H08 9039   0.869   9.805   2.375 -1.6877 -3.3381 -0.0045
   62GLOH    C2 9040   0.764   9.859   2.193  0.4702 -0.5054  0.4022
   62GLOH   H04 9041   0.757   9.759   2.148  1.5140  0.5021 -2.0851
   62GLOH    O2 9042   0.642   9.925   2.150  0.0416 -0.5954 -0.1422
   62GLOH   H05 9043   0.594   9.961   2.227 -0.7145 -0.6454 -0.5863
   62GLOH    C3 9044   0.876   9.938   2.135 -0.1005  0.1747  0.2195
   62GLOH   H06 9045   0.858  10.038   2.175  1.3631  1.2424 -1.7358
   62GLOH   H07 9046   0.871   9.948   2.027  1.4279 -0.4110  0.0915
   62GLOH    O3 9047   1.010   9.904   2.178  0.1484 -0.0273  0.3525
   62GLOH   H01 9048   1.017   9.807   2.175  0.0950 -0.1382  3.1980
   63GLOH   H03 9049   4.997   8.545   2.193 -0.6289 -1.0816 -0.2540
   63GLOH    O1 9050   4.937   8.618   2.167  0.2599 -0.1514  0.2457
   63GLOH    C1 9051   4.868   8.582   2.047 -0.1852  0.4011 -0.1553
   63GLOH   H02 9052   4.777   8.525   2.065 -1.3500  0.7539 -4.3559
   63GLOH   H08 9053   4.936   8.521   1.987  2.3141  1.6854  1.2814
   63GLOH    C2 9054   4.830   8.706   1.970 -0.0503 -0.7395  0.7235
   63GLOH   H04 9055   4.916   8.752   1.919 -1.5367 -0.2263 -1.3975
   63GLOH    O2 9056   4.755   8.663   1.852  0.1840  0.2839  0.2137
   63GLOH   H05 9057   4.747   8.729   1.781  0.6409 -1.1386 -1.1823
   63GLOH    C3 9058   4.757   8.819   2.049  1.1182  0.6406 -0.5218
   63GLOH   H06 9059   4.735   8.906   1.986 -0.3540 -0.5437 -1.6862
   63GLOH   H07 9060   4.823   8.854   2.128  1.5841 -0.8436 -0.2466
   63GLOH    O3 9061   4.632   8.766   2.100 -0.1901  0.5037  0.4617
   63GLOH   H01 9062   4.637   8.726   2.189  0.3683 -1.2597 -0.3457
   64GLOH   H03 9063   5.083   8.421   6.073  1.5228  0.6585  0.4004
   64GLOH    O1 9064   5.076   8.392   6.165  0.2305  0.3680  0.2209
   64GLOH    C1 9065   4.955   8.321   6.180  0.3717  0.1652 -0.3848
   64GLOH   H02 9066   4.878   8.363   6.115  1.2266 -0.8100 -2.0757
   64GLOH   H08 9067   4.915   8.334   6.280  1.3486  2.1157 -0.2393
   64GLOH    C2 9068   4.964   8.164   6.167  0.1833  0.8801  0.0146
   64GLOH   H04 9069   4.963   8.126   6.064 -0.3581  1.1172 -0.0694
   64GLOH    O2 9070   5.089   8.099   6.226  0.0705 -0.3919  0.3396
   64GLOH   H05 9071   5.137   8.151   6.292  0.7456 -2.2178  1.3019
   64GLOH    C3 9072   4.838   8.121   6.245 -0.6966  0.2417 -0.5146
   64GLOH   H06 9073   4.840   8.136   6.353  1.4655 -1.4658 -0.2876
   64GLOH   H07 9074   4.835   8.013   6.248 -0.1551  0.1737 -2.0806
   64GLOH    O3 9075   4.719   8.163   6.170 -0.4079 -0.4242 -0.0089
   64GLOH   H01 9076   4.639   8.122   6.207 -2.2815  0.6410 -2.6889
   65GLOH   H03 9077   4.578   2.140   0.523 -1.9208  0.3181 -0.9599
   65GLOH    O1 9078   4.537   2.169   0.607  0.1961  0.0662  0.2118
   65GLOH    C1 9079   4.422   2.082   0.611  0.1016  0.1432 -0.0579
   65GLOH   H02 9080   4.375   2.083   0.513  0.9267  0.8717 -0.4503
   65GLOH   H08 9081   4.357   2.126   0.686 -0.1176  0.9028 -0.6974
   65GLOH    C2 9082   4.459   1.944   0.654 -0.4464  0.9580 -0.2910
   65GLOH   H04 9083   4.523   1.900   0.576  0.0710  1.2530 -0.0357
   65GLOH    O2 9084   4.540   1.947   0.773  0.3316 -0.1963  0.1300
   65GLOH   H05 9085   4.590   2.030   0.770  0.3651 -0.1421  1.8121
   65GLOH    C3 9086   4.333   1.856   0.667 -0.2700 -0.1988  0.7507
   65GLOH   H06 9087   4.361   1.762   0.715 -0.1956 -0.5439  0.0361
   65GLOH   H07 9088   4.307   1.828   0.565  1.6742  0.2694  0.1215
   65GLOH    O3 9089   4.225   1.919   0.738 -0.3431  0.5229  0.1620
   65GLOH   H01 9090   4.152   1.859   0.713  1.9742 -1.5649 -1.7388
   66GLOH   H03 9091   4.227   1.122   6.382  1.5809 -2.0725  0.3705
   66GLOH    O1 9092   4.229   1.155   6.473 -0.4152 -0.2401 -0.2134
   66GLOH    C1 9093   4.337   1.239   6.508 -1.1615  0.1334  0.4313
   66GLOH   H02 9094   4.311   1.276   6.607  1.0180 -1.5471  1.6863
   66GLOH   H08 9095   4.345   1.322   6.438  1.5301 -0.3713  0.0984
   66GLOH    C2 9096   4.472   1.167   6.515  0.4954  0.0265 -0.0937
   66GLOH   H04 9097   4.494   1.129   6.414 -1.8390  0.5734 -0.8429
   66GLOH    O2 9098   4.575   1.260   6.551  0.4007 -0.0101 -0.3138
   66GLOH   H05 9099   4.653   1.219   6.591 -0.6019 -0.0381  1.7015
   66GLOH    C3 9100   4.458   1.042   6.602  0.1468  0.2178  0.1003
   66GLOH   H06 9101   4.551   0.985   6.591  0.1709  0.3132 -0.1968
   66GLOH   H07 9102   4.388   0.975   6.552  1.5503 -1.6003  0.4976
   66GLOH    O3 9103   4.439   1.063   6.746 -0.2149  0.6023 -0.1172
   66GLOH   H01 9104   4.512   1.025   6.797 -1.2691 -1.2535  0.0655
   67GLOH   H03 9105   7.530   6.003   0.614 -0.1229  0.2644 -3.4268
   67GLOH    O1 9106   7.434   6.020   0.619  0.0286  0.5172 -0.0374
   67GLOH    C1 9107   7.387   5.981   0.746  0.6943  0.6368 -0.0038
   67GLOH   H02 9108   7.348   6.068   0.799  0.8931  0.6884  0.0571
   67GLOH   H08 9109   7.468   5.939   0.806  0.4795  0.7882  0.3989
   67GLOH    C2 9110   7.273   5.876   0.739  0.2681 -0.0413  0.0697
   67GLOH   H04 9111   7.312   5.787   0.687  1.2375  1.1184 -1.2264
   67GLOH    O2 9112   7.228   5.844   0.867  0.0974 -0.0098  0.4838
   67GLOH   H05 9113   7.288   5.852   0.944 -0.3468  0.0810  0.8259
   67GLOH    C3 9114   7.156   5.930   0.654 -0.2391  0.2402  0.1127
   67GLOH   H06 9115   7.124   6.028   0.690 -0.9838 -0.3923  1.2031
   67GLOH   H07 9116   7.067   5.867   0.662  0.3591 -0.5595  0.4563
   67GLOH    O3 9117   7.192   5.957   0.517  0.3051 -0.4105  0.9148
   67GLOH   H01 9118   7.282   5.994   0.509  0.7959 -1.6723  0.3984
   68GLOH   H03 9119   0.094   3.847   4.057  1.9390 -0.7745 -2.1477
   68GLOH    O1 9120   0.138   3.786   4.118  0.4178 -0.1355 -0.3780
   68GLOH    C1 9121   0.060   3.667   4.143  0.4013  0.0388 -1.1207
   68GLOH   H02 9122  -0.030   3.692   4.199  0.3616 -0.5135 -0.9413
   68GLOH   H08 9123   0.114   3.599   4.208 -2.7070 -0.6852  0.8461
   68GLOH    C2 9124   0.034   3.590   4.016 -0.5860  0.2830 -0.0472
   68GLOH   H04 9125   0.126   3.600   3.957 -0.8298  0.2204 -0.4358
   68GLOH    O2 9126   0.005   3.444   4.046 -0.4029  0.4438 -0.2341
   68GLOH   H05 9127  -0.088   3.422   4.068  0.5036 -1.8144  1.5974
   68GLOH    C3 9128  -0.092   3.649   3.945  0.1210  0.4440 -0.2683
   68GLOH   H06 9129  -0.180   3.657   4.009 -0.3310  0.6429 -0.9090
   68GLOH   H07 9130  -0.125   3.581   3.867 -0.2525  0.9328 -0.5350
   68GLOH    O3 9131  -0.069   3.778   3.896 -0.7563  0.9650  0.0400
   68GLOH   H01 9132  -0.016   3.766   3.815  0.4059 -0.8536  1.0226
   69GLOH   H03 9133   1.403   4.310   0.255  2.8523 -0.4276 -1.9914
   69GLOH    O1 9134   1.373   4.217   0.250 -0.2520  0.4148 -0.3682
   69GLOH    C1 9135   1.263   4.201   0.158  0.6802  0.1127 -0.0646
   69GLOH   H02 9136   1.301   4.191   0.056  2.4727 -2.0423  0.7720
   69GLOH   H08 9137   1.189   4.281   0.152  0.8912  0.1900 -1.9132
   69GLOH    C2 9138   1.187   4.070   0.187  0.1932 -0.8165 -0.0977
   69GLOH   H04 9139   1.161   4.088   0.292  2.7521  1.5991  0.1826
   69GLOH    O2 9140   1.061   4.057   0.117  0.7896 -0.0914  0.6558
   69GLOH   H05 9141   1.003   4.114   0.170 -0.8494 -0.2826 -0.9294
   69GLOH    C3 9142   1.280   3.953   0.155  0.1999  0.1105 -0.2706
   69GLOH   H06 9143   1.298   3.952   0.047 -0.6488  0.3749 -0.4188
   69GLOH   H07 9144   1.231   3.863   0.192  0.9556 -0.3858 -0.4737
   69GLOH    O3 9145   1.406   3.973   0.223 -0.9163 -0.2483  0.2859
   69GLOH   H01 9146   1.410   4.067   0.246 -1.2344 -0.5385  1.5951
   70GLOH   H03 9147   7.444   6.251   1.371 -1.0901  1.4903 -1.3338
   70GLOH    O1 9148   7.359   6.227   1.414  0.1159  0.4121  0.4881
   70GLOH    C1 9149   7.331   6.091   1.380 -0.0868  0.1687  0.1536
   70GLOH   H02 9150   7.266   6.079   1.293 -1.1466  0.9465  0.8216
   70GLOH   H08 9151   7.284   6.041   1.465 -0.3890 -2.0715 -1.2908
   70GLOH    C2 9152   7.454   6.000   1.375  0.0676  0.2631  0.7498
   70GLOH   H04 9153   7.502   6.003   1.473 -2.1454 -0.8275  1.9073
   70GLOH    O2 9154   7.409   5.869   1.330 -0.2639  0.0313  0.8493
   70GLOH   H05 9155   7.427   5.803   1.400 -2.7248 -0.9187  0.6265
   70GLOH    C3 9156   7.550   6.061   1.266  0.4658  0.0586  0.4296
   70GLOH   H06 9157   7.518   6.039   1.164  0.9714 -0.9372  0.4732
   70GLOH   H07 9158   7.651   6.019   1.271  0.0881 -1.0793 -1.0049
   70GLOH    O3 9159   7.565   6.201   1.278  0.0773 -0.5660 -0.2130
   70GLOH   H01 9160   7.644   6.228   1.227 -0.7582 -1.5848 -2.1033
   71GLOH   H03 9161   3.881   9.402   4.311 -0.3860  0.7368  2.4345
   71GLOH    O1 9162   3.797   9.355   4.321 -0.1425 -0.1151  0.7035
   71GLOH    C1 9163   3.692   9.428   4.382  0.3835  0.0680  0.0576
   71GLOH   H02 9164   3.598   9.379   4.356  1.2899 -1.4697 -0.3964
   71GLOH   H08 9165   3.677   9.525   4.334 -2.5898 -0.6383 -0.5414
   71GLOH    C2 9166   3.700   9.453   4.535  0.4355 -0.2882  0.0953
   71GLOH   H04 9167   3.646   9.540   4.576 -0.6837 -0.8993 -0.0525
   71GLOH    O2 9168   3.657   9.337   4.607  1.0166  0.3063 -0.7847
   71GLOH   H05 9169   3.676   9.348   4.701  3.8011 -2.4766 -0.9185
   71GLOH    C3 9170   3.849   9.481   4.568 -0.1147 -0.3847  0.4684
   71GLOH   H06 9171   3.876   9.565   4.504 -0.3421 -2.2100 -2.0881
   71GLOH   H07 9172   3.892   9.386   4.537  1.1024 -0.7183  3.0650
   71GLOH    O3 9173   3.879   9.505   4.705  0.5462  0.0564 -0.6352
   71GLOH   H01 9174   3.820   9.580   4.727 -1.8757 -1.9436  0.0326
   72GLOH   H03 9175   1.866   9.303   2.396  0.1631  2.2107 -0.4204
   72GLOH    O1 9176   1.787   9.329   2.447  0.3897  0.3186  0.9391
   72GLOH    C1 9177   1.737   9.211   2.517  0.1314  0.9826 -0.0783
   72GLOH   H02 9178   1.739   9.123   2.453  1.7187  0.4212  0.7221
   72GLOH   H08 9179   1.633   9.225   2.548 -0.4232 -0.4918 -1.2163
   72GLOH    C2 9180   1.814   9.198   2.648 -0.3725  0.7409 -0.4141
   72GLOH   H04 9181   1.836   9.297   2.690  0.2192  0.5943 -0.3771
   72GLOH    O2 9182   1.737   9.118   2.733  0.0445  0.7564 -0.2064
   72GLOH   H05 9183   1.737   9.026   2.701 -0.2852  0.3352  0.9673
   72GLOH    C3 9184   1.958   9.143   2.622  0.6573 -0.2493  0.4469
   72GLOH   H06 9185   2.020   9.212   2.564 -0.0436  2.1817  2.5114
   72GLOH   H07 9186   1.962   9.047   2.570  0.1622  0.1099 -0.2671
   72GLOH    O3 9187   2.032   9.124   2.747 -0.1285  0.0426  0.0621
   72GLOH   H01 9188   2.044   9.027   2.755 -2.1481 -0.2844 -0.5672
   73GLOH   H03 9189   5.845   0.616   3.079  2.3746  1.4962 -0.2657
   73GLOH    O1 9190   5.894   0.543   3.121 -0.1837 -0.1422  0.0322
   73GLOH    C1 9191   5.860   0.512   3.256  0.0990  0.3046  0.0035
   73GLOH   H02 9192   5.912   0.421   3.289  0.7938  0.4704 -0.6245
   73GLOH   H08 9193   5.754   0.491   3.271 -0.1022  0.0216 -1.7484
   73GLOH    C2 9194   5.907   0.627   3.353  0.1673  0.6437  1.1968
   73GLOH   H04 9195   5.867   0.726   3.326 -0.3990  0.6807  2.1210
   73GLOH    O2 9196   5.878   0.593   3.492  0.8468 -0.2032 -0.0842
   73GLOH   H05 9197   5.826   0.512   3.480  0.4629 -0.3608  2.4113
   73GLOH    C3 9198   6.061   0.636   3.333  0.0122 -0.2896 -0.3211
   73GLOH   H06 9199   6.098   0.553   3.394  0.1635 -0.5065 -0.7104
   73GLOH   H07 9200   6.093   0.727   3.382  0.2067 -0.1740 -0.6610
   73GLOH    O3 9201   6.109   0.638   3.200  0.5948  0.1812 -0.1069
   73GLOH   H01 9202   6.052   0.578   3.149 -0.1142 -0.1605  1.0663
   74GLOH   H03 9203   6.685   5.254   0.248  1.4923  2.3974  0.6747
   74GLOH    O1 9204   6.609   5.261   0.309  0.2766  0.0128 -0.5067
   74GLOH    C1 9205   6.629   5.156   0.405 -0.1624  0.0334 -0.1521
   74GLOH   H02 9206   6.730   5.157   0.446 -1.1974  1.8875  2.4842
   74GLOH   H08 9207   6.619   5.058   0.357  1.2375 -0.8272  1.2876
   74GLOH    C2 9208   6.525   5.178   0.510  0.4214  0.2118 -0.4406
   74GLOH   H04 9209   6.429   5.185   0.457 -0.3696 -1.4841  0.7158
   74GLOH    O2 9210   6.523   5.055   0.590 -0.2178 -0.5540  0.1196
   74GLOH   H05 9211   6.479   4.989   0.534 -0.4371 -0.2824 -0.0295
   74GLOH    C3 9212   6.543   5.297   0.606  0.5149 -0.4233 -0.5306
   74GLOH   H06 9213   6.630   5.272   0.666 -0.2063 -2.9489 -0.4989
   74GLOH   H07 9214   6.457   5.305   0.673  0.9127  0.6467 -0.1403
   74GLOH    O3 9215   6.560   5.411   0.526 -0.3194 -0.1240 -0.1710
   74GLOH   H01 9216   6.588   5.387   0.436  0.9362 -0.1389  0.2173
   75GLOH   H03 9217   0.662   2.044   6.681 -1.0931  1.5479  0.0093
   75GLOH    O1 9218   0.597   1.997   6.625  0.1889  0.1754 -0.3696
   75GLOH    C1 9219   0.660   1.891   6.553  0.0206  0.7553  0.0582
   75GLOH   H02 9220   0.593   1.805   6.558 -0.4553  1.1462  0.4606
   75GLOH   H08 9221   0.759   1.865   6.590 -0.3570  0.8260  1.1430
   75GLOH    C2 9222   0.678   1.926   6.407  0.2229 -0.0045 -0.3494
   75GLOH   H04 9223   0.744   1.851   6.361  0.7825 -0.7356  1.6202
   75GLOH    O2 9224   0.555   1.931   6.330 -0.2187 -0.3760 -0.1703
   75GLOH   H05 9225   0.549   2.026   6.310  0.2772 -0.4341 -0.6114
   75GLOH    C3 9226   0.773   2.047   6.396 -0.5496  0.3178 -0.3371
   75GLOH   H06 9227   0.866   2.015   6.443 -0.5842  1.2648  0.4002
   75GLOH   H07 9228   0.724   2.117   6.464  1.8123 -0.1601  1.9426
   75GLOH    O3 9229   0.791   2.087   6.254  0.2839 -0.3467  0.1025
   75GLOH   H01 9230   0.793   2.184   6.251 -0.1295 -0.3612 -1.5103
   76GLOH   H03 9231   6.229   6.808   5.211 -1.0805  0.7161 -0.6517
   76GLOH    O1 9232   6.168   6.787   5.285 -0.1713 -0.2873 -0.1874
   76GLOH    C1 9233   6.132   6.903   5.359  0.2670  0.1050  0.4869
   76GLOH   H02 9234   6.055   6.873   5.431  1.1066  0.2524  1.4513
   76GLOH   H08 9235   6.096   6.990   5.305  1.4289  0.2930  0.0118
   76GLOH    C2 9236   6.253   6.962   5.432  0.4043 -0.9647  0.2691
   76GLOH   H04 9237   6.325   6.993   5.355  0.4442  0.6577  0.9352
   76GLOH    O2 9238   6.215   7.076   5.509 -0.2247  0.1847  0.6273
   76GLOH   H05 9239   6.205   7.150   5.447 -0.1035 -1.2215 -1.1381
   76GLOH    C3 9240   6.317   6.862   5.529 -0.5920 -0.4794 -0.3341
   76GLOH   H06 9241   6.246   6.850   5.611  1.7702  1.1296  2.0027
   76GLOH   H07 9242   6.405   6.909   5.571 -0.8738  0.7114 -1.0516
   76GLOH    O3 9243   6.348   6.736   5.469 -0.6638  0.1196  0.1803
   76GLOH   H01 9244   6.304   6.740   5.382  1.6843 -0.9656 -1.1154
   77GLOH   H03 9245   4.949   8.732   7.486 -1.2874 -0.6058  0.7959
   77GLOH    O1 9246   5.019   8.710   7.550 -0.2265 -0.2324 -0.2197
   77GLOH    C1 9247   5.077   8.822   7.620 -0.2949 -0.9164 -0.2012
   77GLOH   H02 9248   5.090   8.906   7.551  1.3143  1.6863  3.0719
   77GLOH   H08 9249   5.166   8.788   7.672 -0.7748  0.3098  1.4847
   77GLOH    C2 9250   4.986   8.885   7.725  0.4733  0.5198  0.4329
   77GLOH   H04 9251   4.961   8.808   7.799 -1.9396  1.7048  0.8786
   77GLOH    O2 9252   5.053   9.000   7.789 -0.3491 -0.1711 -0.7876
   77GLOH   H05 9253   5.134   9.026   7.742  0.6019  0.8338  1.3288
   77GLOH    C3 9254   4.852   8.935   7.663 -0.0961  0.3339 -0.4880
   77GLOH   H06 9255   4.826   9.005   7.742  0.6959  0.3400 -0.2288
   77GLOH   H07 9256   4.781   8.852   7.668 -0.6231  0.8164  0.1905
   77GLOH    O3 9257   4.861   9.003   7.538  0.3333 -1.2979 -0.2238
   77GLOH   H01 9258   4.916   9.080   7.563 -1.5542  0.7131 -1.9867
   78GLOH   H03 9259   0.435   8.910   3.691 -0.0955 -0.6301  1.0606
   78GLOH    O1 9260   0.338   8.919   3.690 -0.0808 -0.5373 -0.3195
   78GLOH    C1 9261   0.284   8.833   3.798  0.1831 -0.2141  0.3651
   78GLOH   H02 9262   0.356   8.755   3.824  1.2511  0.0106 -1.8105
   78GLOH   H08 9263   0.195   8.786   3.758  0.1753 -0.8080  1.0760
   78GLOH    C2 9264   0.251   8.917   3.926 -0.1105 -0.0456  0.4399
   78GLOH   H04 9265   0.143   8.936   3.920  0.1747  1.4064 -0.0676
   78GLOH    O2 9266   0.279   8.870   4.060  0.0074  0.4705  0.4035
   78GLOH   H05 9267   0.376   8.859   4.068 -0.0701  2.1328  4.5551
   78GLOH    C3 9268   0.319   9.054   3.921  0.9882  0.4150  0.4015
   78GLOH   H06 9269   0.427   9.040   3.916  0.6411 -2.1846 -0.6960
   78GLOH   H07 9270   0.301   9.109   4.013 -1.4185 -0.9302  0.7741
   78GLOH    O3 9271   0.281   9.134   3.807  0.4891 -0.0412  0.1963
   78GLOH   H01 9272   0.271   9.073   3.732  1.7586  0.0619 -0.0660
   79GLOH   H03 9273   3.177   5.097   2.279  0.2775 -0.6843  0.1364
   79GLOH    O1 9274   3.192   5.130   2.370 -0.2125  0.5547 -0.2194
   79GLOH    C1 9275   3.278   5.247   2.362  0.7515 -0.5674  1.1345
   79GLOH   H02 9276   3.264   5.313   2.448  1.2577 -2.1288  2.4339
   79GLOH   H08 9277   3.266   5.305   2.271 -3.6127  3.4004  4.0191
   79GLOH    C2 9278   3.428   5.224   2.360  0.4179 -0.2242 -0.5213
   79GLOH   H04 9279   3.476   5.321   2.339  2.1206 -0.5407  1.7106
   79GLOH    O2 9280   3.483   5.168   2.487  0.0905  0.7542 -0.0321
   79GLOH   H05 9281   3.461   5.230   2.558 -2.4994  1.1515 -1.1223
   79GLOH    C3 9282   3.467   5.134   2.246  0.6556  0.3146  0.7026
   79GLOH   H06 9283   3.439   5.028   2.255 -2.1423  1.0992  1.7869
   79GLOH   H07 9284   3.576   5.124   2.250  0.8905  0.7016 -3.0541
   79GLOH    O3 9285   3.446   5.198   2.120 -0.1333  0.2216 -0.0527
   79GLOH   H01 9286   3.466   5.134   2.049  0.6266  0.3347  0.0550
   80GLOH   H03 9287   7.373   2.337   5.309  0.5899 -0.3625  0.1255
   80GLOH    O1 9288   7.301   2.311   5.249  0.3277 -0.1659  0.3519
   80GLOH    C1 9289   7.187   2.291   5.331  0.6542  0.5519 -0.3933
   80GLOH   H02 9290   7.187   2.360   5.415  0.1752  2.7281 -2.1272
   80GLOH   H08 9291   7.190   2.191   5.373  0.2891 -0.0560 -1.7673
   80GLOH    C2 9292   7.056   2.318   5.246  0.3789  0.3606 -0.2727
   80GLOH   H04 9293   7.056   2.263   5.151  0.3421  1.1168 -0.7146
   80GLOH    O2 9294   6.948   2.283   5.330  0.3626 -0.1123 -0.2378
   80GLOH   H05 9295   6.877   2.250   5.271  0.2805  2.0131 -1.4030
   80GLOH    C3 9296   7.062   2.464   5.198  0.0653  0.0263  0.0835
   80GLOH   H06 9297   6.987   2.484   5.121 -0.1405  0.2269  0.3346
   80GLOH   H07 9298   7.157   2.481   5.146 -0.1601  2.4614  0.4019
   80GLOH    O3 9299   7.058   2.560   5.302 -0.7904  0.4426  0.4968
   80GLOH   H01 9300   7.013   2.643   5.278  0.6391  0.7452 -1.3004
   81GLOH   H03 9301   1.758   3.456   5.284  0.1142  0.3901  0.2864
   81GLOH    O1 9302   1.804   3.418   5.207 -0.6277  0.2267 -0.0831
   81GLOH    C1 9303   1.951   3.414   5.239 -0.3997  0.1462  0.0957
   81GLOH   H02 9304   1.990   3.322   5.282 -0.6207 -0.0633 -0.1495
   81GLOH   H08 9305   1.981   3.498   5.301 -0.0294  1.4524 -1.7999
   81GLOH    C2 9306   2.045   3.441   5.120 -0.4801 -0.3470  0.4785
   81GLOH   H04 9307   2.029   3.356   5.051 -4.5524 -0.5173  1.4849
   81GLOH    O2 9308   2.000   3.563   5.050 -0.3925 -0.6665 -0.7593
   81GLOH   H05 9309   1.926   3.599   5.101  0.2251  2.1374 -1.7041
   81GLOH    C3 9310   2.194   3.434   5.154  0.5248 -1.2470  0.1480
   81GLOH   H06 9311   2.252   3.438   5.061 -0.2753  1.4256 -0.2844
   81GLOH   H07 9312   2.211   3.332   5.188  0.9065 -1.1655  0.1980
   81GLOH    O3 9313   2.252   3.520   5.252 -0.1108  0.4986 -0.3480
   81GLOH   H01 9314   2.259   3.609   5.213  1.2410  0.1841 -0.8490
   82GLOH   H03 9315   5.091   6.998   2.281  0.0057  0.1823  1.5356
   82GLOH    O1 9316   5.083   7.095   2.272 -0.1270  0.0311 -0.2809
   82GLOH    C1 9317   5.039   7.125   2.139 -0.4205 -0.1094 -0.9250
   82GLOH   H02 9318   5.119   7.147   2.068 -0.7925  3.3495 -0.3681
   82GLOH   H08 9319   4.975   7.214   2.140 -0.0763  0.2671 -4.2793
   82GLOH    C2 9320   4.949   7.015   2.082 -0.0428  0.5868 -0.1330
   82GLOH   H04 9321   4.870   7.013   2.159  0.0573  1.5372  0.0046
   82GLOH    O2 9322   4.896   7.064   1.962 -0.2689 -0.1786  0.1533
   82GLOH   H05 9323   4.815   7.024   1.925  0.4034  0.1271 -1.7499
   82GLOH    C3 9324   5.022   6.880   2.065 -0.5895 -0.6365  0.0092
   82GLOH   H06 9325   5.109   6.904   2.005 -0.8217 -0.2418 -0.1744
   82GLOH   H07 9326   4.953   6.807   2.023 -0.8001 -1.0438  1.0233
   82GLOH    O3 9327   5.055   6.825   2.195 -0.5666 -1.0044  0.9562
   82GLOH   H01 9328   4.974   6.786   2.234 -0.1305 -1.5853  1.2814
   83GLOH   H03 9329   9.139   7.563   0.287 -0.8578  0.0839 -0.3020
   83GLOH    O1 9330   9.176   7.654   0.292 -0.9209  0.0954 -0.0168
   83GLOH    C1 9331   9.291   7.673   0.212 -0.5084  0.5054  0.5184
   83GLOH   H02 9332   9.347   7.582   0.194 -0.7768  0.6749 -1.2981
   83GLOH   H08 9333   9.364   7.745   0.250 -1.5238  1.8088  0.0244
   83GLOH    C2 9334   9.255   7.727   0.072 -0.4835 -0.6935 -0.2378
   83GLOH   H04 9335   9.223   7.832   0.081 -0.8207 -0.7708 -0.5560
   83GLOH    O2 9336   9.372   7.719  -0.019  1.3598 -0.1962 -0.1381
   83GLOH   H05 9337   9.339   7.739  -0.109 -0.5073 -2.5683 -0.0529
   83GLOH    C3 9338   9.141   7.649   0.003  0.8634  0.0422  0.0360
   83GLOH   H06 9339   9.153   7.545   0.030  1.4413  0.6303  2.1556
   83GLOH   H07 9340   9.149   7.648  -0.106 -0.6810 -0.5292 -0.0844
   83GLOH    O3 9341   9.010   7.699   0.053  0.0292 -0.2166 -0.6921
   83GLOH   H01 9342   9.022   7.744   0.139  0.9944 -0.6495 -0.5883
   84GLOH   H03 9343   9.569   3.860   3.544  0.2404  0.3616  1.1392
   84GLOH    O1 9344   9.559   3.950   3.509 -0.1166 -0.1361 -0.0872
   84GLOH    C1 9345   9.587   4.042   3.611 -0.1740 -0.1094  0.2852
   84GLOH   H02 9346   9.589   4.147   3.584 -2.0430 -0.0819  0.1831
   84GLOH   H08 9347   9.685   4.020   3.653 -1.5567 -1.1096  3.1560
   84GLOH    C2 9348   9.493   4.025   3.727  0.5830 -0.5708 -0.2470
   84GLOH   H04 9349   9.490   3.919   3.758 -0.1228 -0.4604  0.0642
   84GLOH    O2 9350   9.539   4.104   3.838  0.8558 -0.7136  0.5754
   84GLOH   H05 9351   9.622   4.065   3.868  0.0098 -1.8895  1.4308
   84GLOH    C3 9352   9.355   4.069   3.676  0.3426 -0.5283  0.0618
   84GLOH   H06 9353   9.289   4.078   3.762  0.3045 -1.1519  0.1007
   84GLOH   H07 9354   9.317   3.986   3.617  1.4920  0.4014 -2.0404
   84GLOH    O3 9355   9.354   4.188   3.588  0.1811  0.2115  0.0068
   84GLOH   H01 9356   9.366   4.266   3.647 -0.5715  0.9306 -0.7765
   85GLOH   H03 9357   8.323   8.119   2.510  0.9989  0.1642 -1.8375
   85GLOH    O1 9358   8.381   8.197   2.517  0.6236  0.3275 -0.2472
   85GLOH    C1 9359   8.519   8.147   2.512  0.9720  0.2219  0.2508
   85GLOH   H02 9360   8.526   8.076   2.429  0.9469 -0.4084  0.7841
   85GLOH   H08 9361   8.547   8.087   2.599  1.3187  0.2973  0.1937
   85GLOH    C2 9362   8.624   8.268   2.500  0.4743 -0.1575 -0.1910
   85GLOH   H04 9363   8.603   8.328   2.410  4.2997 -1.5016 -2.0892
   85GLOH    O2 9364   8.612   8.355   2.614 -0.1266  0.5997  0.3799
   85GLOH   H05 9365   8.595   8.302   2.694  0.6744  0.8942  0.7495
   85GLOH    C3 9366   8.763   8.214   2.473 -0.4072 -0.3581  0.7014
   85GLOH   H06 9367   8.830   8.300   2.473  0.8728 -1.1636 -4.9704
   85GLOH   H07 9368   8.767   8.178   2.370 -0.9274  1.3456  0.0621
   85GLOH    O3 9369   8.810   8.113   2.565  0.0665  0.2604 -0.5217
   85GLOH   H01 9370   8.808   8.026   2.521 -0.5441  0.2423 -0.4689
   86GLOH   H03 9371   4.515   3.339   5.404 -1.3384  1.2118  1.7417
   86GLOH    O1 9372   4.558   3.288   5.475  0.1804  0.1338  0.0883
   86GLOH    C1 9373   4.575   3.369   5.593 -0.7575  0.1294  0.0478
   86GLOH   H02 9374   4.484   3.419   5.627  1.0781  5.3894 -2.3447
   86GLOH   H08 9375   4.645   3.447   5.563  1.0638 -1.4687  0.0694
   86GLOH    C2 9376   4.629   3.281   5.708  0.0357  0.3603 -1.0418
   86GLOH   H04 9377   4.734   3.259   5.686  0.8020  0.8120  1.9384
   86GLOH    O2 9378   4.634   3.369   5.823  0.4644 -0.2565  0.0405
   86GLOH   H05 9379   4.676   3.456   5.815 -2.4874  1.2057 -0.3936
   86GLOH    C3 9380   4.556   3.153   5.732  0.1312  0.2148 -0.5074
   86GLOH   H06 9381   4.454   3.183   5.758  0.1997 -1.2318  1.5375
   86GLOH   H07 9382   4.602   3.094   5.812  0.9078 -0.4411 -1.4246
   86GLOH    O3 9383   4.558   3.073   5.611  0.0860  0.6008  0.2913
   86GLOH   H01 9384   4.532   3.141   5.547 -1.4403 -0.9444 -0.7746
   87GLOH   H03 9385   0.609   1.318   2.311  0.2376  0.3100 -0.1569
   87GLOH    O1 9386   0.596   1.408   2.276 -0.1791  0.2181 -0.2469
   87GLOH    C1 9387   0.736   1.449   2.289  0.4592 -0.2469 -0.7168
   87GLOH   H02 9388   0.780   1.447   2.189  2.2080 -0.4419  0.0403
   87GLOH   H08 9389   0.792   1.379   2.351  0.1390  0.4716  0.4000
   87GLOH    C2 9390   0.735   1.589   2.348 -0.0083  0.4649 -0.7165
   87GLOH   H04 9391   0.841   1.609   2.368  0.5933 -1.8650 -1.4104
   87GLOH    O2 9392   0.678   1.695   2.264  0.7056  0.0309 -0.5667
   87GLOH   H05 9393   0.593   1.658   2.235  0.1628 -0.2812  1.3041
   87GLOH    C3 9394   0.668   1.606   2.489  0.7416 -0.0657  0.2665
   87GLOH   H06 9395   0.559   1.599   2.483  0.6752 -1.5657  2.5410
   87GLOH   H07 9396   0.694   1.704   2.528  1.0458  0.4231 -1.1517
   87GLOH    O3 9397   0.711   1.502   2.578  0.7817 -0.3185 -0.2648
   87GLOH   H01 9398   0.650   1.427   2.592  1.5669 -1.0001 -0.5197
   88GLOH   H03 9399   8.930   6.278   1.313 -0.6003  0.7482 -1.6888
   88GLOH    O1 9400   8.842   6.279   1.353 -0.0331  0.0750 -0.3886
   88GLOH    C1 9401   8.852   6.307   1.493  0.6031 -0.6059  0.2247
   88GLOH   H02 9402   8.801   6.398   1.523 -0.1770 -0.1055 -2.4343
   88GLOH   H08 9403   8.955   6.311   1.530  1.2027 -1.1616 -1.3439
   88GLOH    C2 9404   8.783   6.183   1.553  0.3775  0.1312 -0.6151
   88GLOH   H04 9405   8.842   6.094   1.527  1.4784  0.2525  1.3341
   88GLOH    O2 9406   8.796   6.199   1.692  0.5658 -0.1329 -0.2530
   88GLOH   H05 9407   8.791   6.292   1.721  0.6890 -0.0385 -0.5334
   88GLOH    C3 9408   8.636   6.164   1.520 -0.3187 -0.1243 -0.1957
   88GLOH   H06 9409   8.597   6.081   1.579  2.0417 -1.3516 -0.2915
   88GLOH   H07 9410   8.639   6.112   1.424  0.0908 -2.8625  1.2471
   88GLOH    O3 9411   8.548   6.277   1.525  0.5678  0.0207 -0.3419
   88GLOH   H01 9412   8.467   6.258   1.474 -0.6128  3.0877  0.2757
   89GLOH   H03 9413   8.131   9.648   0.824  2.1222  0.9370 -1.1486
   89GLOH    O1 9414   8.096   9.603   0.746 -0.1732  0.3909  0.1595
   89GLOH    C1 9415   7.972   9.661   0.722 -0.0137  0.6503  0.3677
   89GLOH   H02 9416   7.952   9.676   0.615  0.4846 -0.0706  0.1728
   89GLOH   H08 9417   7.960   9.760   0.766 -0.7442  1.4003 -1.4379
   89GLOH    C2 9418   7.851   9.582   0.785 -0.5144  0.1394 -0.7963
   89GLOH   H04 9419   7.859   9.478   0.748  1.2476 -0.0165 -0.0240
   89GLOH    O2 9420   7.854   9.581   0.928 -0.3082 -0.0036 -0.6964
   89GLOH   H05 9421   7.911   9.511   0.964 -1.7028 -1.2977 -0.9225
   89GLOH    C3 9422   7.724   9.656   0.739  0.6262  0.2949  0.0901
   89GLOH   H06 9423   7.723   9.760   0.770 -0.9047 -0.0636  1.3302
   89GLOH   H07 9424   7.640   9.607   0.789  0.1050 -2.1448 -3.0072
   89GLOH    O3 9425   7.704   9.637   0.602 -0.3744 -0.1887  0.1517
   89GLOH   H01 9426   7.702   9.727   0.566  0.5398 -0.4635 -0.6160
   90GLOH   H03 9427   1.405   1.464   5.996  0.6415 -0.6311  0.5251
   90GLOH    O1 9428   1.460   1.407   5.939  0.0646 -0.6131 -0.0639
   90GLOH    C1 9429   1.531   1.314   6.025 -0.6455  0.0950 -0.4105
   90GLOH   H02 9430   1.553   1.355   6.123  3.6858 -2.2566 -0.2682
   90GLOH   H08 9431   1.625   1.286   5.976 -0.8721 -3.3192  0.9685
   90GLOH    C2 9432   1.451   1.180   6.023  0.4085  0.4996 -0.2684
   90GLOH   H04 9433   1.405   1.166   5.924  1.1560  2.7792 -0.9696
   90GLOH    O2 9434   1.540   1.070   6.049 -0.2389 -0.0365  0.0443
   90GLOH   H05 9435   1.618   1.112   6.090 -0.3367  1.3828 -1.1758
   90GLOH    C3 9436   1.345   1.206   6.137 -0.1730  0.4577 -0.1140
   90GLOH   H06 9437   1.386   1.264   6.219 -0.4055 -1.2566  1.2620
   90GLOH   H07 9438   1.326   1.103   6.170  2.3092 -0.7777 -2.3642
   90GLOH    O3 9439   1.234   1.277   6.077 -0.0319  0.5782 -0.4677
   90GLOH   H01 9440   1.184   1.203   6.037 -0.1171  0.9949 -1.1359
   91GLOH   H03 9441   4.462   1.730   2.340 -0.6620 -0.1704 -0.4120
   91GLOH    O1 9442   4.366   1.728   2.358 -0.5793 -0.0278  0.0299
   91GLOH    C1 9443   4.351   1.610   2.449  0.0098 -0.3077 -0.2194
   91GLOH   H02 9444   4.269   1.626   2.518 -0.8166 -3.1894 -0.4839
   91GLOH   H08 9445   4.444   1.596   2.504  2.2257  2.4820 -3.0581
   91GLOH    C2 9446   4.325   1.487   2.367  0.8579  1.0027  0.0666
   91GLOH   H04 9447   4.414   1.478   2.303  2.0745 -2.5159  2.1611
   91GLOH    O2 9448   4.327   1.370   2.454 -0.3828 -0.0929 -0.4264
   91GLOH   H05 9449   4.414   1.365   2.497 -0.6402  2.9495  0.5678
   91GLOH    C3 9450   4.188   1.506   2.306  0.0213  0.1228  0.0828
   91GLOH   H06 9451   4.113   1.504   2.385 -1.8435 -1.0299 -1.6803
   91GLOH   H07 9452   4.169   1.422   2.239  0.7061 -0.7665  0.9863
   91GLOH    O3 9453   4.187   1.632   2.228 -0.2277  0.9256  0.4754
   91GLOH   H01 9454   4.241   1.691   2.282 -0.7659  1.0129  0.9210
   92GLOH   H03 9455   2.192   3.943   6.955  1.0993 -0.8131 -0.7048
   92GLOH    O1 9456   2.246   3.982   7.026  0.2716 -0.2256 -0.3875
   92GLOH    C1 9457   2.251   3.893   7.141 -0.0874  0.0760 -0.1922
   92GLOH   H02 9458   2.333   3.825   7.119  0.4664  0.4142  0.7560
   92GLOH   H08 9459   2.159   3.842   7.168 -0.0740  0.1598  0.0159
   92GLOH    C2 9460   2.282   3.964   7.271 -0.2601  0.0878 -0.1199
   92GLOH   H04 9461   2.213   4.048   7.291  0.7459  1.6592 -3.0188
   92GLOH    O2 9462   2.269   3.878   7.383 -0.2045 -0.3753 -0.9627
   92GLOH   H05 9463   2.173   3.869   7.396 -0.2844 -0.1178 -1.3723
   92GLOH    C3 9464   2.424   4.022   7.253 -0.5399 -0.5556 -0.3732
   92GLOH   H06 9465   2.441   4.069   7.157 -0.0677 -1.8938 -0.9507
   92GLOH   H07 9466   2.490   3.936   7.265  1.4170  1.0949  1.0517
   92GLOH    O3 9467   2.449   4.122   7.351 -0.7017  0.5479  0.3526
   92GLOH   H01 9468   2.543   4.137   7.329 -0.7748  0.5228  0.0239
   93GLOH   H03 9469   2.592   2.383   4.562  3.4149 -3.4970 -1.4682
   93GLOH    O1 9470   2.518   2.320   4.573  0.1130  0.4069  0.3181
   93GLOH    C1 9471   2.548   2.221   4.684  1.3185 -0.1036  0.4964
   93GLOH   H02 9472   2.462   2.177   4.735  0.6417  0.0878 -0.4480
   93GLOH   H08 9473   2.609   2.275   4.757  2.3792  0.5317 -0.8396
   93GLOH    C2 9474   2.641   2.108   4.645 -0.3853 -0.3160 -0.0198
   93GLOH   H04 9475   2.665   2.062   4.741  0.5631  1.0152  0.3958
   93GLOH    O2 9476   2.565   2.011   4.573 -0.4188 -0.3949  0.5870
   93GLOH   H05 9477   2.628   1.938   4.563 -2.1191 -1.8148 -0.0350
   93GLOH    C3 9478   2.758   2.160   4.563  0.0309  0.1920 -0.3174
   93GLOH   H06 9479   2.725   2.212   4.473  1.5275  2.4333  0.4089
   93GLOH   H07 9480   2.821   2.078   4.528  0.1014 -0.6330  1.7024
   93GLOH    O3 9481   2.841   2.243   4.650  0.4648 -0.2245 -0.4540
   93GLOH   H01 9482   2.815   2.336   4.635 -1.5920 -0.3919  1.7582
   94GLOH   H03 9483   6.547   2.214   2.639 -0.6323  0.1174  0.6474
   94GLOH    O1 9484   6.602   2.250   2.711 -0.2822  0.3764  0.2592
   94GLOH    C1 9485   6.540   2.233   2.841 -0.2751  0.5630  0.7465
   94GLOH   H02 9486   6.492   2.135   2.851  1.4558 -0.2638  1.2271
   94GLOH   H08 9487   6.462   2.306   2.859 -0.9598 -0.7336  3.2588
   94GLOH    C2 9488   6.641   2.252   2.956 -0.5589  0.5227  0.6804
   94GLOH   H04 9489   6.685   2.352   2.945  0.2614 -0.0661 -1.5840
   94GLOH    O2 9490   6.576   2.231   3.083  0.8024 -0.6130 -0.3706
   94GLOH   H05 9491   6.525   2.149   3.069  3.4406 -2.7038  1.6747
   94GLOH    C3 9492   6.752   2.147   2.944  0.1968  0.2694  0.4379
   94GLOH   H06 9493   6.701   2.052   2.955  0.6933 -0.0647 -0.1468
   94GLOH   H07 9494   6.817   2.151   3.031  0.2222  1.1695  0.3893
   94GLOH    O3 9495   6.817   2.165   2.816 -0.0491 -0.2987  0.0869
   94GLOH   H01 9496   6.744   2.186   2.754  0.3524 -0.6207 -0.4874
   95GLOH   H03 9497   5.465   1.449   2.953  0.0633 -0.7141 -0.1866
   95GLOH    O1 9498   5.546   1.493   2.922  0.0112  0.1182  0.8064
   95GLOH    C1 9499   5.643   1.403   2.876  0.1511  0.1671  0.4290
   95GLOH   H02 9500   5.717   1.387   2.954 -0.1698 -1.7967  0.3606
   95GLOH   H08 9501   5.708   1.445   2.799  0.7479  0.6881  1.2221
   95GLOH    C2 9502   5.596   1.262   2.838 -0.0655  0.4855 -0.5699
   95GLOH   H04 9503   5.681   1.202   2.802 -0.4016  0.3786 -1.2045
   95GLOH    O2 9504   5.532   1.191   2.945  0.3648 -0.2849  0.4611
   95GLOH   H05 9505   5.450   1.239   2.964  0.8067  1.3883 -1.7285
   95GLOH    C3 9506   5.500   1.277   2.717  0.1169 -0.4897  0.1313
   95GLOH   H06 9507   5.420   1.344   2.749  1.4984  1.7539 -1.0071
   95GLOH   H07 9508   5.459   1.180   2.691 -1.3563 -0.0718  0.8057
   95GLOH    O3 9509   5.565   1.339   2.608  0.0470 -0.3827  0.6610
   95GLOH   H01 9510   5.543   1.292   2.525  0.3238  0.6292  0.0108
   96GLOH   H03 9511  10.073   1.376   2.609  0.2998  1.3419 -0.2538
   96GLOH    O1 9512  10.011   1.440   2.650 -0.0470  0.5663  0.4531
   96GLOH    C1 9513   9.946   1.360   2.754  0.0609 -0.4265  0.5551
   96GLOH   H02 9514  10.024   1.351   2.831 -0.0503 -2.5031  0.4435
   96GLOH   H08 9515   9.905   1.270   2.710  0.3890 -0.7894  0.9822
   96GLOH    C2 9516   9.827   1.438   2.815  0.7672 -0.9059 -0.9986
   96GLOH   H04 9517   9.795   1.379   2.903 -0.1218  0.3854 -0.4377
   96GLOH    O2 9518   9.864   1.566   2.862 -0.1135  0.6074  0.3100
   96GLOH   H05 9519   9.957   1.571   2.893 -1.0097 -1.0127  3.4616
   96GLOH    C3 9520   9.699   1.441   2.724 -0.3627  0.2837 -0.0412
   96GLOH   H06 9521   9.720   1.489   2.628  1.2209  2.2523  1.2548
   96GLOH   H07 9522   9.622   1.509   2.762 -0.6433  0.2121 -0.4735
   96GLOH    O3 9523   9.643   1.311   2.702  0.0010  0.4323  0.6147
   96GLOH   H01 9524   9.571   1.296   2.766  1.2551 -1.2461  1.7113
   97GLOH   H03 9525   7.915   5.981   4.180 -0.4819 -0.6805  1.0204
   97GLOH    O1 9526   7.957   5.898   4.151  0.6305  0.2320 -0.0585
   97GLOH    C1 9527   7.857   5.793   4.154 -0.0227 -0.5159 -0.2144
   97GLOH   H02 9528   7.907   5.696   4.147 -0.4474 -0.8806  1.6213
   97GLOH   H08 9529   7.802   5.799   4.060 -0.1686 -1.3372 -0.1851
   97GLOH    C2 9530   7.758   5.804   4.272 -0.0026  0.5297 -0.3174
   97GLOH   H04 9531   7.696   5.893   4.254  0.6371  0.7577 -1.3814
   97GLOH    O2 9532   7.678   5.683   4.268 -0.2191 -0.2513 -0.1473
   97GLOH   H05 9533   7.593   5.714   4.305  1.0242  0.2703  2.4301
   97GLOH    C3 9534   7.836   5.834   4.407 -0.1615 -0.1508  0.5199
   97GLOH   H06 9535   7.767   5.866   4.485 -1.4488 -1.1529 -0.1829
   97GLOH   H07 9536   7.905   5.913   4.378 -2.2323  1.2495 -0.6784
   97GLOH    O3 9537   7.903   5.715   4.454 -0.0323  0.0119 -0.0591
   97GLOH   H01 9538   7.836   5.645   4.459 -1.3492  1.1342 -1.3807
   98GLOH   H03 9539   5.896   9.054   6.924  0.6821 -0.0826 -0.4086
   98GLOH    O1 9540   5.863   9.021   7.009 -0.5031  0.0759 -0.8027
   98GLOH    C1 9541   5.742   9.086   7.059 -0.0541  0.5548 -0.4309
   98GLOH   H02 9542   5.662   9.081   6.985 -1.5757  0.9379  1.1526
   98GLOH   H08 9543   5.769   9.190   7.074  1.1591 -0.0814  2.0328
   98GLOH    C2 9544   5.685   9.030   7.195 -0.4010 -0.4918  0.4787
   98GLOH   H04 9545   5.764   9.024   7.271 -0.5637 -0.9798  0.6190
   98GLOH    O2 9546   5.574   9.112   7.235 -0.2851  0.1278  0.0396
   98GLOH   H05 9547   5.598   9.200   7.268 -0.9162  1.6449 -3.3486
   98GLOH    C3 9548   5.629   8.889   7.157 -0.3929  0.0287  0.2012
   98GLOH   H06 9549   5.555   8.896   7.077 -1.7131  0.0480  1.4157
   98GLOH   H07 9550   5.576   8.845   7.242 -0.8440 -0.4964 -0.3415
   98GLOH    O3 9551   5.730   8.798   7.110  0.0860 -0.7417 -0.2727
   98GLOH   H01 9552   5.787   8.867   7.072 -3.3271  1.4900 -1.5718
   99GLOH   H03 9553   3.551  10.023   6.492 -0.8706  1.7383 -1.6934
   99GLOH    O1 9554   3.554   9.951   6.427 -0.2851  0.2649 -0.0543
   99GLOH    C1 9555   3.452   9.860   6.469  0.0850 -0.7286 -0.1049
   99GLOH   H02 9556   3.364   9.911   6.506 -1.0842 -0.9438 -2.4746
   99GLOH   H08 9557   3.483   9.795   6.551  1.3662 -0.5539 -0.4293
   99GLOH    C2 9558   3.406   9.768   6.353  0.0111 -0.4270 -0.2691
   99GLOH   H04 9559   3.488   9.700   6.326 -0.1502 -0.9843  0.6118
   99GLOH    O2 9560   3.293   9.688   6.387  0.3832 -0.1651  0.1368
   99GLOH   H05 9561   3.219   9.750   6.402  2.2051  2.1795 -0.3609
   99GLOH    C3 9562   3.376   9.857   6.225 -0.4901  0.3497 -0.9279
   99GLOH   H06 9563   3.370   9.789   6.140  2.9144  0.7436 -1.5540
   99GLOH   H07 9564   3.468   9.912   6.206  0.5374 -1.7305 -2.2139
   99GLOH    O3 9565   3.262   9.946   6.241  0.4054  0.0776 -0.6290
   99GLOH   H01 9566   3.178   9.898   6.248 -0.5479  1.8846  0.5012
  100GLOH   H03 9567   1.101   3.069   4.911 -1.1480 -1.0319 -0.2355
  100GLOH    O1 9568   1.162   3.004   4.871  0.1271 -0.7088  1.1293
  100GLOH    C1 9569   1.273   2.986   4.959 -0.7677 -0.0912  0.4320
  100GLOH   H02 9570   1.240   3.006   5.062  0.1499 -0.9664  0.8977
  100GLOH   H08 9571   1.351   3.058   4.934  1.0601 -1.9053  0.7923
  100GLOH    C2 9572   1.326   2.840   4.968 -0.2017  0.1660  0.4396
  100GLOH   H04 9573   1.416   2.842   5.032  2.0452  1.1927 -2.6080
  100GLOH    O2 9574   1.217   2.758   5.024 -0.0279  0.1984 -0.9848
  100GLOH   H05 9575   1.189   2.800   5.107  1.5196 -0.2816 -0.1922
  100GLOH    C3 9576   1.367   2.783   4.832  0.3058  0.3695  0.6679
  100GLOH   H06 9577   1.277   2.790   4.772  1.3207  2.3544 -0.6658
  100GLOH   H07 9578   1.391   2.677   4.842 -0.3752  0.1389 -0.1325
  100GLOH    O3 9579   1.465   2.859   4.762  0.1047 -0.2839 -0.0520
  100GLOH   H01 9580   1.541   2.884   4.818  1.1036 -2.6566 -0.3000
  101GLOH   H03 9581   3.384   9.173   6.112 -0.0434  0.7856  0.7649
  101GLOH    O1 9582   3.336   9.235   6.054  0.3185  0.0512 -0.3308
  101GLOH    C1 9583   3.425   9.340   6.012 -0.1468 -0.8390  0.1346
  101GLOH   H02 9584   3.378   9.375   5.920  1.8210  2.1025  0.1980
  101GLOH   H08 9585   3.520   9.310   5.968  1.1253  1.2306  1.4056
  101GLOH    C2 9586   3.451   9.455   6.113 -0.2663  0.1855  0.3722
  101GLOH   H04 9587   3.351   9.493   6.138 -0.1892 -1.2669  3.0201
  101GLOH    O2 9588   3.530   9.397   6.225 -0.4596 -0.1987 -0.2217
  101GLOH   H05 9589   3.474   9.414   6.303  0.5654  1.9786  0.0845
  101GLOH    C3 9590   3.520   9.574   6.046  0.5485 -0.1874 -0.8377
  101GLOH   H06 9591   3.624   9.548   6.027  0.4903 -3.6328  2.7049
  101GLOH   H07 9592   3.527   9.652   6.122 -2.1958  0.7207 -1.4565
  101GLOH    O3 9593   3.456   9.637   5.930 -0.0162 -0.0577  0.1481
  101GLOH   H01 9594   3.504   9.603   5.852 -2.1765  0.4830 -1.4552
  102GLOH   H03 9595   9.206   5.356   3.267 -2.1404  0.5117  0.0554
  102GLOH    O1 9596   9.187   5.294   3.194 -0.4400  0.4416 -0.3439
  102GLOH    C1 9597   9.150   5.362   3.071  0.3687 -0.3263 -0.1381
  102GLOH   H02 9598   9.048   5.399   3.079  0.1468 -0.4309 -2.1926
  102GLOH   H08 9599   9.141   5.290   2.990 -0.2886  1.4377 -1.6815
  102GLOH    C2 9600   9.254   5.483   3.040  0.4244  0.3806  0.5171
  102GLOH   H04 9601   9.243   5.511   2.934 -0.4501  2.0810  1.0527
  102GLOH    O2 9602   9.218   5.583   3.137 -0.3752 -0.3005 -0.0265
  102GLOH   H05 9603   9.234   5.570   3.232  2.0413  1.0967 -0.1917
  102GLOH    C3 9604   9.390   5.425   3.071 -0.3690 -0.2062 -0.5366
  102GLOH   H06 9605   9.404   5.402   3.176  0.5675  2.4987 -0.0344
  102GLOH   H07 9606   9.466   5.501   3.054 -0.0697 -0.8302 -2.0938
  102GLOH    O3 9607   9.424   5.314   2.990  0.4690  0.0065  0.4013
  102GLOH   H01 9608   9.422   5.347   2.898  2.1503  0.8476  0.6535
  103GLOH   H03 9609   7.782   6.298   4.499 -2.6024  0.3514  0.1779
  103GLOH    O1 9610   7.792   6.202   4.509  0.4162  0.5963  0.2232
  103GLOH    C1 9611   7.660   6.144   4.506  0.0269 -0.4473  0.1988
  103GLOH   H02 9612   7.661   6.053   4.446 -0.3084  0.4630 -1.2180
  103GLOH   H08 9613   7.593   6.214   4.456  0.2008  0.0112  0.6024
  103GLOH    C2 9614   7.605   6.108   4.647 -0.5519  0.4748 -0.6919
  103GLOH   H04 9615   7.670   6.040   4.703 -1.9243  1.2339  1.8778
  103GLOH    O2 9616   7.597   6.225   4.732 -0.5632 -0.1346  0.5656
  103GLOH   H05 9617   7.544   6.295   4.690  0.9515  0.4833 -0.3561
  103GLOH    C3 9618   7.461   6.052   4.628  0.2787  0.1298  0.6360
  103GLOH   H06 9619   7.401   6.112   4.559  0.0174  0.0969  0.8328
  103GLOH   H07 9620   7.412   6.059   4.725 -0.6601  0.6409  0.1393
  103GLOH    O3 9621   7.457   5.919   4.590 -0.0149 -0.5703 -0.2655
  103GLOH   H01 9622   7.497   5.873   4.666  0.6458 -2.4933 -1.7261
  104GLOH   H03 9623   7.017   9.846  -0.074 -0.3978  0.2393  1.0000
  104GLOH    O1 9624   7.099   9.794  -0.067 -0.4368  0.0346 -0.0128
  104GLOH    C1 9625   7.141   9.769   0.070 -0.3456  0.4371  0.2083
  104GLOH   H02 9626   7.106   9.672   0.102 -0.1876  1.0127  2.1671
  104GLOH   H08 9627   7.098   9.844   0.136 -1.9822  0.9104 -1.3478
  104GLOH    C2 9628   7.294   9.778   0.075  0.1505 -0.4792 -0.1439
  104GLOH   H04 9629   7.322   9.880   0.047  1.8578 -1.0621 -0.6326
  104GLOH    O2 9630   7.350   9.753   0.208 -0.7953  0.1434  0.3342
  104GLOH   H05 9631   7.440   9.714   0.209 -0.9271 -0.1557  0.5721
  104GLOH    C3 9632   7.358   9.675  -0.016  0.1672 -0.2619 -1.1692
  104GLOH   H06 9633   7.308   9.686  -0.112 -1.3815  1.1070 -0.2310
  104GLOH   H07 9634   7.328   9.581   0.031 -2.7184  0.9219 -0.5532
  104GLOH    O3 9635   7.503   9.683  -0.029 -0.5875  0.0722 -0.4092
  104GLOH   H01 9636   7.550   9.663   0.054 -3.6648  0.0018  1.4050
  105GLOH   H03 9637   6.433   1.080   7.513  0.3829  0.0711  0.0937
  105GLOH    O1 9638   6.394   1.130   7.587 -0.2173  0.1289 -0.2534
  105GLOH    C1 9639   6.249   1.133   7.580 -0.4993 -0.0951  0.2373
  105GLOH   H02 9640   6.215   1.103   7.481  1.0489  0.3096 -0.4390
  105GLOH   H08 9641   6.216   1.231   7.614 -0.1236  0.0638  0.1507
  105GLOH    C2 9642   6.182   1.048   7.684 -0.2155  0.4795 -0.2103
  105GLOH   H04 9643   6.231   1.076   7.779 -1.2596  0.0172  0.4722
  105GLOH    O2 9644   6.045   1.098   7.688 -0.1058  0.0667  0.0804
  105GLOH   H05 9645   6.036   1.162   7.760 -1.4351  0.8080 -0.7287
  105GLOH    C3 9646   6.197   0.892   7.670  0.2207 -0.8219  0.2392
  105GLOH   H06 9647   6.292   0.852   7.632  0.2940  0.8597 -1.4253
  105GLOH   H07 9648   6.119   0.865   7.598 -2.5574 -1.1259  3.2559
  105GLOH    O3 9649   6.167   0.835   7.796  0.3021  0.4809 -0.4005
  105GLOH   H01 9650   6.077   0.869   7.814  0.0772  1.0074 -2.4187
  106GLOH   H03 9651   4.108   7.109   3.474 -1.4955  0.0681  0.3680
  106GLOH    O1 9652   4.152   7.190   3.444 -0.2429 -0.5926  0.3870
  106GLOH    C1 9653   4.191   7.178   3.302 -0.9928 -0.2059 -0.4187
  106GLOH   H02 9654   4.096   7.189   3.250 -0.9987 -1.1418 -0.6149
  106GLOH   H08 9655   4.233   7.078   3.289  3.3003  0.6336  4.8809
  106GLOH    C2 9656   4.296   7.285   3.255  0.4697  0.0658  0.4748
  106GLOH   H04 9657   4.377   7.260   3.325  0.2879  0.0952  0.6964
  106GLOH    O2 9658   4.334   7.277   3.120 -0.1952 -0.0828 -0.7687
  106GLOH   H05 9659   4.383   7.356   3.091 -1.5568 -0.2532 -3.7240
  106GLOH    C3 9660   4.251   7.426   3.301 -0.4214 -0.1125  0.3387
  106GLOH   H06 9661   4.201   7.422   3.398 -1.1483  1.3539  0.0404
  106GLOH   H07 9662   4.173   7.460   3.233 -1.9584 -3.7433  0.1752
  106GLOH    O3 9663   4.365   7.517   3.307 -0.1206  0.6947 -0.5855
  106GLOH   H01 9664   4.353   7.581   3.234  0.1995  2.5485  0.9581
  107GLOH   H03 9665   7.736   6.320   4.750  1.9289 -2.1865  2.2593
  107GLOH    O1 9666   7.793   6.393   4.781  0.3528  0.2325 -0.3368
  107GLOH    C1 9667   7.785   6.399   4.924  0.5198  1.2234  0.1932
  107GLOH   H02 9668   7.802   6.306   4.978  0.7353  0.3593 -1.3658
  107GLOH   H08 9669   7.684   6.432   4.949  0.3110 -1.3732  3.0670
  107GLOH    C2 9670   7.888   6.498   4.980  0.7884  0.0167 -0.8702
  107GLOH   H04 9671   7.844   6.599   4.975 -0.9227 -0.6446  0.3274
  107GLOH    O2 9672   7.896   6.492   5.123 -0.3593  0.1159 -0.0951
  107GLOH   H05 9673   7.873   6.578   5.163  3.7440  0.7320  1.2527
  107GLOH    C3 9674   8.029   6.480   4.922  0.2817 -0.5433  0.3257
  107GLOH   H06 9675   8.088   6.555   4.976  0.4464 -0.5168  0.1074
  107GLOH   H07 9676   8.038   6.509   4.818  0.3348  0.4179  0.5896
  107GLOH    O3 9677   8.089   6.348   4.932 -0.2621  0.2506 -0.3891
  107GLOH   H01 9678   8.174   6.377   4.896 -0.5979 -0.0495 -1.4633
  108GLOH   H03 9679   3.997   7.253   4.005 -0.8111  0.3105 -0.8196
  108GLOH    O1 9680   3.991   7.350   3.997 -0.5025  0.3986 -0.0855
  108GLOH    C1 9681   4.123   7.384   3.965  0.4406 -0.5889 -0.6791
  108GLOH   H02 9682   4.178   7.298   3.927  2.0728 -0.3262  0.9829
  108GLOH   H08 9683   4.179   7.411   4.055  1.4512  1.8430 -1.9922
  108GLOH    C2 9684   4.133   7.500   3.867 -0.9028  0.5284  0.0070
  108GLOH   H04 9685   4.083   7.591   3.904 -1.0719  1.2886 -1.9899
  108GLOH    O2 9686   4.275   7.529   3.846 -0.1389 -0.2032 -0.1526
  108GLOH   H05 9687   4.280   7.579   3.763 -1.6320  1.0775  0.5058
  108GLOH    C3 9688   4.063   7.458   3.738  0.1032 -0.7287  0.3741
  108GLOH   H06 9689   4.118   7.381   3.685 -1.0332 -1.6814  0.5373
  108GLOH   H07 9690   4.069   7.546   3.674 -0.1221 -0.4297  0.7636
  108GLOH    O3 9691   3.926   7.423   3.760  0.8147  0.2155  0.2239
  108GLOH   H01 9692   3.925   7.377   3.847 -1.0633  0.1556  0.1810
  109GLOH   H03 9693   4.783   3.589   0.895  1.7133 -2.1757 -0.5221
  109GLOH    O1 9694   4.706   3.540   0.862 -0.0638  0.3800 -0.2908
  109GLOH    C1 9695   4.643   3.476   0.969 -0.5318  0.3412  0.2119
  109GLOH   H02 9696   4.558   3.421   0.930  1.2699 -2.0526 -0.4019
  109GLOH   H08 9697   4.617   3.549   1.046 -2.4324  0.4007 -0.4602
  109GLOH    C2 9698   4.744   3.380   1.039  0.4396 -0.5608 -0.0217
  109GLOH   H04 9699   4.787   3.313   0.963  1.4306  0.6304 -0.5252
  109GLOH    O2 9700   4.857   3.449   1.085 -0.3456 -0.1105 -0.0272
  109GLOH   H05 9701   4.933   3.425   1.030 -0.0755 -0.7750  0.6291
  109GLOH    C3 9702   4.679   3.287   1.144  0.6028 -0.3777 -0.3346
  109GLOH   H06 9703   4.656   3.347   1.232 -0.8208 -0.5019 -0.6113
  109GLOH   H07 9704   4.753   3.214   1.176  1.0591 -0.4789 -1.5955
  109GLOH    O3 9705   4.565   3.228   1.085  0.2993 -0.0532 -0.2933
  109GLOH   H01 9706   4.558   3.137   1.118  2.6895  0.0006  0.4316
  110GLOH   H03 9707   4.508   9.045   4.148 -3.5312 -0.1022  2.5478
  110GLOH    O1 9708   4.454   9.083   4.077  0.0529 -0.0029 -0.2479
  110GLOH    C1 9709   4.371   9.188   4.131 -0.0348 -0.5276  0.0158
  110GLOH   H02 9710   4.283   9.187   4.067  0.9208 -1.2207 -1.3230
  110GLOH   H08 9711   4.420   9.285   4.122 -0.6493 -0.3949 -2.3630
  110GLOH    C2 9712   4.320   9.158   4.273 -0.0820 -0.3939  0.5700
  110GLOH   H04 9713   4.283   9.055   4.266 -0.9012  0.0372 -2.5386
  110GLOH    O2 9714   4.418   9.170   4.383  0.2951 -0.3169  0.6983
  110GLOH   H05 9715   4.374   9.132   4.460 -0.2231  1.4678  1.3145
  110GLOH    C3 9716   4.194   9.240   4.301  0.3030 -0.3574  0.4134
  110GLOH   H06 9717   4.222   9.345   4.309  1.4119 -0.7975  2.5466
  110GLOH   H07 9718   4.156   9.211   4.398 -0.2418  0.1758  0.3623
  110GLOH    O3 9719   4.090   9.225   4.209  0.4393 -0.7458 -0.7144
  110GLOH   H01 9720   4.074   9.130   4.222 -1.0502 -0.3116  0.7235
  111GLOH   H03 9721   8.511   5.301   3.354 -0.2342 -0.0818  3.0801
  111GLOH    O1 9722   8.605   5.274   3.355 -0.0688  0.0655 -0.3024
  111GLOH    C1 9723   8.687   5.377   3.310 -0.7255 -0.5567  0.7176
  111GLOH   H02 9724   8.640   5.474   3.327  0.9744  0.1059  1.7109
  111GLOH   H08 9725   8.699   5.363   3.202 -2.3083  0.4504  0.3864
  111GLOH    C2 9726   8.826   5.376   3.388  0.1684 -0.0249  0.0371
  111GLOH   H04 9727   8.875   5.279   3.371 -2.9031 -1.9337  1.6205
  111GLOH    O2 9728   8.912   5.486   3.342 -0.0514  0.2687  0.1194
  111GLOH   H05 9729   9.005   5.464   3.361  0.1737  0.3931 -0.8178
  111GLOH    C3 9730   8.793   5.383   3.539 -0.3456 -0.5693 -0.1519
  111GLOH   H06 9731   8.741   5.478   3.551 -0.4415 -0.9103  2.4639
  111GLOH   H07 9732   8.878   5.396   3.606 -2.1102  3.3017  1.4651
  111GLOH    O3 9733   8.719   5.268   3.575 -0.3500  0.4970 -1.1890
  111GLOH   H01 9734   8.677   5.252   3.489 -1.5163 -0.5424 -0.4417
  112GLOH   H03 9735   7.073  -0.147   4.881  0.2412 -0.8829  0.3285
  112GLOH    O1 9736   7.055  -0.130   4.975 -0.1605 -0.3701  0.1568
  112GLOH    C1 9737   6.924  -0.083   4.981 -0.4196  0.0159  0.3968
  112GLOH   H02 9738   6.920  -0.049   5.084  0.3214 -0.1546  0.4807
  112GLOH   H08 9739   6.843  -0.155   4.983 -0.7583  0.3409 -0.8088
  112GLOH    C2 9740   6.883   0.025   4.881  0.6953 -0.0336 -0.2527
  112GLOH   H04 9741   6.955   0.108   4.881  0.0063  0.5695  0.6694
  112GLOH    O2 9742   6.882  -0.020   4.747  0.1318 -0.3890 -0.1121
  112GLOH   H05 9743   6.972  -0.035   4.712  1.6182  1.3893  2.7356
  112GLOH    C3 9744   6.744   0.073   4.929 -0.2988  0.8662  0.5973
  112GLOH   H06 9745   6.674  -0.009   4.945  1.4079 -0.5961  0.7037
  112GLOH   H07 9746   6.698   0.121   4.843  0.0782 -1.3408 -0.8836
  112GLOH    O3 9747   6.763   0.150   5.048 -0.4379  0.3043 -0.1305
  112GLOH   H01 9748   6.807   0.236   5.030  0.2505 -0.0278 -0.0776
  113GLOH   H03 9749   6.295   1.860   4.686 -0.0024 -0.2823 -1.6013
  113GLOH    O1 9750   6.286   1.765   4.707 -0.2187  0.1563  0.4008
  113GLOH    C1 9751   6.423   1.725   4.742  0.4342  0.2511  0.8488
  113GLOH   H02 9752   6.420   1.658   4.828  1.3475 -0.7465  0.1314
  113GLOH   H08 9753   6.485   1.811   4.767 -1.4343  2.2033 -1.0136
  113GLOH    C2 9754   6.505   1.663   4.631  0.0016  0.1907  0.1026
  113GLOH   H04 9755   6.511   1.738   4.551  0.4390 -0.2833 -0.3194
  113GLOH    O2 9756   6.634   1.620   4.682 -0.2264 -0.4129  0.0971
  113GLOH   H05 9757   6.688   1.613   4.602  0.7224  0.4945  0.6375
  113GLOH    C3 9758   6.441   1.533   4.572 -0.2780  0.1245  0.4696
  113GLOH   H06 9759   6.450   1.445   4.637  1.7889  0.9794  1.3765
  113GLOH   H07 9760   6.494   1.503   4.482 -0.3768  1.5958 -0.0938
  113GLOH    O3 9761   6.303   1.554   4.537  0.0675 -0.3026 -0.3656
  113GLOH   H01 9762   6.272   1.637   4.577  1.9532  0.5146 -0.5229
  114GLOH   H03 9763   9.417   0.520   5.943  2.9317  0.1512 -0.9388
  114GLOH    O1 9764   9.435   0.547   6.035 -0.1526  0.0664 -0.2264
  114GLOH    C1 9765   9.577   0.525   6.061 -0.2095  0.3991 -0.9627
  114GLOH   H02 9766   9.638   0.551   5.975  0.0564 -2.1884 -1.5816
  114GLOH   H08 9767   9.599   0.423   6.090  2.1138  0.5109 -2.2000
  114GLOH    C2 9768   9.614   0.612   6.180 -0.5236  0.2938 -1.0527
  114GLOH   H04 9769   9.585   0.715   6.155 -0.8822  1.0863  2.4463
  114GLOH    O2 9770   9.533   0.576   6.295  0.3456  0.2830  0.0742
  114GLOH   H05 9771   9.445   0.541   6.278  0.6545 -0.7155  0.4866
  114GLOH    C3 9772   9.768   0.614   6.193 -0.0872  0.1415  0.4116
  114GLOH   H06 9773   9.794   0.513   6.223  1.4347  0.0088 -1.2322
  114GLOH   H07 9774   9.783   0.680   6.279  0.9641 -2.8422  2.5774
  114GLOH    O3 9775   9.846   0.665   6.079 -0.1084 -0.1279 -0.0248
  114GLOH   H01 9776   9.849   0.590   6.017 -0.7401 -1.9298  2.1063
  115GLOH   H03 9777   5.049   5.716   2.888 -1.0745 -1.0238  0.1231
  115GLOH    O1 9778   5.106   5.648   2.848  0.2241  0.0689  0.0876
  115GLOH    C1 9779   5.050   5.520   2.885  1.0634  0.1591 -0.1642
  115GLOH   H02 9780   5.082   5.475   2.979 -2.5607 -1.4992  0.3518
  115GLOH   H08 9781   5.080   5.446   2.811 -0.5280 -1.5214  0.8371
  115GLOH    C2 9782   4.894   5.527   2.883  0.2061  0.2051 -0.3381
  115GLOH   H04 9783   4.864   5.545   2.779  0.1355  1.2287 -0.1485
  115GLOH    O2 9784   4.820   5.408   2.912  0.1581 -0.0329 -0.2908
  115GLOH   H05 9785   4.843   5.378   3.002 -1.1367 -3.1973 -0.9602
  115GLOH    C3 9786   4.842   5.647   2.970  0.2378 -0.2097  0.6441
  115GLOH   H06 9787   4.876   5.635   3.073 -1.0068 -3.7103  0.7149
  115GLOH   H07 9788   4.733   5.649   2.962  0.1387  1.6949  1.9698
  115GLOH    O3 9789   4.892   5.778   2.919 -0.2873 -0.4317  0.3963
  115GLOH   H01 9790   4.822   5.845   2.936  1.9239  1.7788  1.0353
  116GLOH   H03 9791   8.644   6.068   7.380  0.3360  1.4606 -0.6192
  116GLOH    O1 9792   8.675   6.015   7.305 -0.2203  0.0863  0.1144
  116GLOH    C1 9793   8.579   5.911   7.282 -0.4664  0.5210  0.0679
  116GLOH   H02 9794   8.589   5.871   7.181  0.1856 -1.6470  0.9687
  116GLOH   H08 9795   8.476   5.940   7.304 -0.4042  0.7616  0.0491
  116GLOH    C2 9796   8.595   5.793   7.375  0.9756 -0.3758  0.3898
  116GLOH   H04 9797   8.511   5.725   7.350  0.5637  0.0305  0.6683
  116GLOH    O2 9798   8.719   5.731   7.353 -0.0640 -0.1161  0.4367
  116GLOH   H05 9799   8.714   5.649   7.404 -0.2517  0.0081  0.6184
  116GLOH    C3 9800   8.572   5.832   7.523 -0.3857  0.2305  0.0498
  116GLOH   H06 9801   8.655   5.892   7.561 -0.4112 -1.4083  2.8530
  116GLOH   H07 9802   8.580   5.742   7.584  0.1588  0.1129 -0.1999
  116GLOH    O3 9803   8.447   5.902   7.545  0.0544  0.4725  0.1095
  116GLOH   H01 9804   8.454   5.960   7.623  1.3195  0.6123 -0.1048
  117GLOH   H03 9805   3.482   8.805   3.548 -0.5414 -1.9573 -0.2277
  117GLOH    O1 9806   3.529   8.799   3.633  0.5231  0.8079 -0.5615
  117GLOH    C1 9807   3.543   8.662   3.668  0.4122  0.0488  0.1932
  117GLOH   H02 9808   3.452   8.606   3.651  0.3536  0.1940  0.0278
  117GLOH   H08 9809   3.557   8.658   3.776  0.9097  1.3404  0.1840
  117GLOH    C2 9810   3.660   8.588   3.599 -0.4997  0.2633  0.8643
  117GLOH   H04 9811   3.647   8.481   3.623 -1.7973 -0.1421 -1.4877
  117GLOH    O2 9812   3.661   8.596   3.456  0.6448  0.2963  0.4103
  117GLOH   H05 9813   3.695   8.682   3.424 -0.8191  1.6496  2.3868
  117GLOH    C3 9814   3.795   8.639   3.653  0.2552 -0.1711  0.4810
  117GLOH   H06 9815   3.807   8.745   3.628 -0.5096 -0.1703  0.1188
  117GLOH   H07 9816   3.866   8.582   3.593 -1.0289  0.8220 -2.0676
  117GLOH    O3 9817   3.802   8.621   3.793 -0.3396  0.0322  0.1578
  117GLOH   H01 9818   3.805   8.529   3.826 -2.1962  0.1086  0.5945
  118GLOH   H03 9819   7.370   3.386   8.132  1.5713 -0.4806 -0.0413
  118GLOH    O1 9820   7.383   3.476   8.096 -0.1718 -0.0983  0.2747
  118GLOH    C1 9821   7.332   3.565   8.190 -0.1386  0.0311 -0.9215
  118GLOH   H02 9822   7.395   3.556   8.278 -0.0897 -0.4107 -1.0013
  118GLOH   H08 9823   7.234   3.527   8.220 -0.6619  0.9270 -1.4657
  118GLOH    C2 9824   7.316   3.715   8.150 -0.6831  0.2702  0.2356
  118GLOH   H04 9825   7.417   3.755   8.133 -1.5010  2.1381 -0.3612
  118GLOH    O2 9826   7.244   3.731   8.029  0.4345  0.8165 -0.0640
  118GLOH   H05 9827   7.302   3.701   7.957  0.2713  0.4313 -0.0435
  118GLOH    C3 9828   7.233   3.802   8.247  0.3033  0.3200 -0.0369
  118GLOH   H06 9829   7.134   3.758   8.262  0.5437 -0.6062 -1.0401
  118GLOH   H07 9830   7.217   3.899   8.200  0.6124 -0.9352 -2.8840
  118GLOH    O3 9831   7.298   3.810   8.373 -0.0196 -0.0604  0.0170
  118GLOH   H01 9832   7.245   3.873   8.425 -0.1795 -0.1708 -0.0124
  119GLOH   H03 9833   7.518   9.904   2.313  0.7381 -1.5632 -0.6815
  119GLOH    O1 9834   7.544   9.861   2.396 -0.0156 -0.1692  0.3015
  119GLOH    C1 9835   7.585   9.726   2.374  0.2214 -0.3351 -0.0332
  119GLOH   H02 9836   7.690   9.711   2.347  0.7042  0.3358  1.4264
  119GLOH   H08 9837   7.533   9.687   2.287  0.0585  1.9775 -1.0113
  119GLOH    C2 9838   7.557   9.645   2.499  0.2411 -0.0978 -0.1796
  119GLOH   H04 9839   7.585   9.540   2.483  0.9366  0.2549 -1.3759
  119GLOH    O2 9840   7.621   9.689   2.623  0.1678  0.2270  0.8376
  119GLOH   H05 9841   7.589   9.773   2.661 -2.1200 -0.4156  0.3803
  119GLOH    C3 9842   7.405   9.644   2.535 -0.0161  0.5985  0.5097
  119GLOH   H06 9843   7.370   9.747   2.546  2.4024  1.3091  2.0148
  119GLOH   H07 9844   7.392   9.600   2.634 -1.8359 -1.3116 -0.5422
  119GLOH    O3 9845   7.328   9.555   2.445 -0.1442  0.0145 -0.4069
  119GLOH   H01 9846   7.252   9.505   2.480  0.7809 -1.2068 -0.1332
  120GLOH   H03 9847   3.137   9.688   4.002 -1.9205  0.1144  0.2081
  120GLOH    O1 9848   3.116   9.640   3.920  0.0334 -0.1620 -0.1494
  120GLOH    C1 9849   2.983   9.687   3.869 -0.2948 -0.5469  0.1234
  120GLOH   H02 9850   2.989   9.689   3.760  2.0122 -0.7566  0.2075
  120GLOH   H08 9851   2.975   9.794   3.887  0.6593 -0.1424 -1.7197
  120GLOH    C2 9852   2.855   9.622   3.921  0.1019  0.4363  0.2014
  120GLOH   H04 9853   2.868   9.514   3.908  4.9785  0.9820 -0.1818
  120GLOH    O2 9854   2.839   9.643   4.058 -0.5045 -0.1058  0.2254
  120GLOH   H05 9855   2.743   9.641   4.071 -0.5558 -1.4205 -0.2992
  120GLOH    C3 9856   2.726   9.674   3.850 -0.2012 -0.2195  0.2212
  120GLOH   H06 9857   2.715   9.777   3.881 -0.3777 -0.9342  2.6531
  120GLOH   H07 9858   2.641   9.628   3.902 -1.4569  0.2494 -1.3460
  120GLOH    O3 9859   2.720   9.656   3.708 -0.2068 -0.3397  0.3733
  120GLOH   H01 9860   2.648   9.595   3.684  0.2781 -0.7700 -0.0122
  121ACOH    H4 9861   4.478   2.483   2.759  0.5121  0.0819  0.7394
  121ACOH    O2 9862   4.550   2.456   2.700 -0.0097 -0.1836  0.2234
  121ACOH    C2 9863   4.670   2.481   2.759 -0.2979 -0.4437 -0.2090
  121ACOH    O1 9864   4.683   2.527   2.869  0.0165  0.0614  0.3026
  121ACOH    C1 9865   4.778   2.490   2.666  0.1844  0.3494  0.2222
  121ACOH    H1 9866   4.874   2.507   2.713  1.9137 -2.6330 -2.0580
  121ACOH    H2 9867   4.752   2.583   2.614 -0.5189  0.8189  1.4088
  121ACOH    H3 9868   4.784   2.410   2.592 -1.5369  2.6376 -2.5342
  122ACOH    H4 9869   4.659   9.303   0.579 -0.1302  1.7219  1.7056
  122ACOH    O2 9870   4.608   9.274   0.657 -0.8883  0.4399  0.7396
  122ACOH    C2 9871   4.528   9.369   0.704 -0.5565  0.1216 -0.9144
  122ACOH    O1 9872   4.506   9.475   0.644 -0.2649  0.0537  0.0356
  122ACOH    C1 9873   4.436   9.311   0.809  0.7247  0.1506 -0.3250
  122ACOH    H1 9874   4.477   9.221   0.854  0.0809 -0.1232 -0.2883
  122ACOH    H2 9875   4.346   9.282   0.754  0.0621  1.8307 -0.1652
  122ACOH    H3 9876   4.426   9.385   0.888  0.5956 -0.0577 -0.1441
  123ACOH    H4 9877   4.366   7.461   4.709 -1.2316  0.0944  1.1169
  123ACOH    O2 9878   4.395   7.395   4.775  0.4834  0.1878  0.4824
  123ACOH    C2 9879   4.465   7.307   4.699 -0.0835  0.1108 -0.3282
  123ACOH    O1 9880   4.480   7.308   4.577  0.0190  0.2337  0.2080
  123ACOH    C1 9881   4.516   7.198   4.783 -0.4543 -0.1237  0.2609
  123ACOH    H1 9882   4.456   7.196   4.874  2.7971  0.6809  2.5583
  123ACOH    H2 9883   4.618   7.210   4.821  0.2155 -2.0450 -0.8971
  123ACOH    H3 9884   4.504   7.105   4.728 -1.8189  0.5235 -0.5395
  124ACOH    H4 9885   4.584   6.767   4.018 -0.4734 -1.7519 -2.6989
  124ACOH    O2 9886   4.597   6.694   4.081 -0.0959  0.4512 -0.1051
  124ACOH    C2 9887   4.655   6.760   4.181 -0.2436 -0.0348  1.0392
  124ACOH    O1 9888   4.667   6.880   4.186 -0.2491 -0.2877 -0.0914
  124ACOH    C1 9889   4.691   6.675   4.295 -0.4420  0.2215 -0.4725
  124ACOH    H1 9890   4.790   6.712   4.318 -0.3169 -0.6753  0.4601
  124ACOH    H2 9891   4.703   6.572   4.263 -0.3079  0.6364 -1.7826
  124ACOH    H3 9892   4.622   6.679   4.379 -1.3520 -1.4517 -1.1119
  125ACOH    H4 9893   6.630   5.870   6.230  0.5613 -1.9031 -0.7710
  125ACOH    O2 9894   6.544   5.899   6.195  0.2173 -1.0106  0.7596
  125ACOH    C2 9895   6.553   5.944   6.070  0.0688  0.6690  0.9837
  125ACOH    O1 9896   6.655   5.945   5.999 -0.0082  0.2871 -0.2369
  125ACOH    C1 9897   6.429   5.989   6.009  0.2171 -0.1222 -0.3100
  125ACOH    H1 9898   6.347   5.952   6.071  2.6047 -3.8254  0.8444
  125ACOH    H2 9899   6.406   5.946   5.911 -3.9845 -0.5612  0.7474
  125ACOH    H3 9900   6.417   6.097   6.000 -1.4404 -0.1573  1.2304
  126ACOH    H4 9901   5.865   5.405   0.024  0.9677  1.3022  0.8548
  126ACOH    O2 9902   5.897   5.459  -0.050  0.4817  0.1038 -0.2515
  126ACOH    C2 9903   5.983   5.531   0.023  0.3964  0.0131  0.2842
  126ACOH    O1 9904   5.985   5.548   0.142 -0.8600  0.3931 -0.0699
  126ACOH    C1 9905   6.077   5.595  -0.068 -0.2223  0.2837  0.2717
  126ACOH    H1 9906   6.129   5.523  -0.131  0.1436  0.1384  0.7387
  126ACOH    H2 9907   6.142   5.658  -0.006 -0.1811  0.0559  0.4600
  126ACOH    H3 9908   6.019   5.663  -0.131  0.2474 -1.0126 -1.6026
  127ACOH    H4 9909   8.989   3.198   1.237 -2.5768 -1.8855 -1.9730
  127ACOH    O2 9910   8.922   3.229   1.300  0.1282 -0.2103  0.1526
  127ACOH    C2 9911   8.844   3.127   1.338 -0.6283  0.0758  0.6961
  127ACOH    O1 9912   8.819   3.031   1.267 -0.1925 -0.7035  0.0851
  127ACOH    C1 9913   8.762   3.164   1.460  0.1096 -0.7598  0.0363
  127ACOH    H1 9914   8.815   3.143   1.554 -1.0255 -0.1350  0.8224
  127ACOH    H2 9915   8.674   3.100   1.459  0.9962 -2.0230 -2.3744
  127ACOH    H3 9916   8.738   3.270   1.453  0.7349 -0.4651  1.9949
  128ACOH    H4 9917   3.651   7.736   7.873  0.9098 -1.9446 -1.8176
  128ACOH    O2 9918   3.739   7.775   7.860  0.3262  0.2979  0.5235
  128ACOH    C2 9919   3.763   7.769   7.727  0.3561 -0.6056  0.2109
  128ACOH    O1 9920   3.678   7.740   7.642 -0.2912 -0.1905 -0.5457
  128ACOH    C1 9921   3.899   7.812   7.686  0.4212 -0.5674  0.6147
  128ACOH    H1 9922   3.925   7.893   7.754 -1.5144 -0.2315  0.9765
  128ACOH    H2 9923   3.904   7.849   7.584 -1.2283 -2.6963 -0.2885
  128ACOH    H3 9924   3.978   7.738   7.700  0.4214 -0.6148  0.3676
  129ACOH    H4 9925   6.735   5.752   7.655  0.1421  0.2563 -0.1086
  129ACOH    O2 9926   6.705   5.808   7.582 -0.4119 -0.0071 -0.0876
  129ACOH    C2 9927   6.727   5.935   7.613 -0.2005  0.0904 -0.7130
  129ACOH    O1 9928   6.765   5.976   7.721  0.0098  0.2657  0.1053
  129ACOH    C1 9929   6.683   6.030   7.503 -0.9636 -0.1712 -0.3548
  129ACOH    H1 9930   6.604   6.097   7.537 -0.5159  0.5377 -0.7004
  129ACOH    H2 9931   6.656   5.982   7.409  1.4684 -0.0755 -1.1288
  129ACOH    H3 9932   6.764   6.099   7.481 -1.0489  0.1386  0.2901
  130ACOH    H4 9933   9.217   9.729   6.996  0.4729 -2.1759  1.5781
  130ACOH    O2 9934   9.243   9.796   7.061  0.1094 -0.7541  0.2767
  130ACOH    C2 9935   9.217   9.922   7.020  0.3705 -0.1949 -0.5818
  130ACOH    O1 9936   9.116   9.948   6.960  0.0076  0.1390 -0.9382
  130ACOH    C1 9937   9.260  10.017   7.121 -0.2669  0.3220 -0.0491
  130ACOH    H1 9938   9.195  10.022   7.208  0.1453  1.6585  0.1936
  130ACOH    H2 9939   9.276  10.113   7.073 -0.0512  0.7395  0.8378
  130ACOH    H3 9940   9.358   9.991   7.163 -0.2800  1.5556  0.7602
  131ACOH    H4 9941   6.751   1.690   7.441 -0.0282 -0.2263  0.6869
  131ACOH    O2 9942   6.668   1.710   7.488 -0.0211  0.3830  0.4508
  131ACOH    C2 9943   6.697   1.780   7.598 -0.4034 -0.5914 -0.2323
  131ACOH    O1 9944   6.806   1.824   7.630 -0.3389  0.0134  0.2727
  131ACOH    C1 9945   6.574   1.818   7.677 -0.2062  0.4346  0.0616
  131ACOH    H1 9946   6.559   1.925   7.671  1.1662  0.6003 -0.7112
  131ACOH    H2 9947   6.590   1.801   7.783 -1.4369 -0.1124  0.1764
  131ACOH    H3 9948   6.485   1.758   7.654 -0.0774  0.4473 -0.4900
  132ACOH    H4 9949   6.703   4.373   2.018 -0.3323  2.5499 -0.3723
  132ACOH    O2 9950   6.620   4.391   2.064 -0.6009 -0.7603  0.6009
  132ACOH    C2 9951   6.537   4.429   1.965 -0.3602 -0.6099 -0.8330
  132ACOH    O1 9952   6.564   4.459   1.852  0.3090 -0.0500  0.1441
  132ACOH    C1 9953   6.405   4.453   2.030 -0.4861  0.4392 -0.1390
  132ACOH    H1 9954   6.397   4.403   2.126  1.4437  0.5559  0.1170
  132ACOH    H2 9955   6.321   4.417   1.972 -0.7276  1.4368 -0.4207
  132ACOH    H3 9956   6.388   4.558   2.054  0.7047  0.4158  0.9147
  133ACOH    H4 9957   9.312   4.867   1.723 -2.4445 -0.0285  0.0270
  133ACOH    O2 9958   9.289   4.938   1.661 -0.5143  0.4587 -0.1501
  133ACOH    C2 9959   9.161   4.957   1.643  0.1778  0.5980  0.0716
  133ACOH    O1 9960   9.070   4.910   1.711 -0.4917  0.3521 -0.5662
  133ACOH    C1 9961   9.134   5.050   1.534  0.2462 -0.2041 -0.3452
  133ACOH    H1 9962   9.032   5.087   1.532  1.0249  1.9809 -3.1484
  133ACOH    H2 9963   9.149   5.002   1.437  2.6935  1.2445 -0.7334
  133ACOH    H3 9964   9.194   5.139   1.551 -1.3852  1.0645 -1.1458
  134ACOH    H4 9965   7.827   8.947   5.882 -1.9745 -2.2554  1.6885
  134ACOH    O2 9966   7.895   8.928   5.950 -0.1029 -0.1011  0.5105
  134ACOH    C2 9967   7.830   8.952   6.059  0.2581  1.0069 -0.1903
  134ACOH    O1 9968   7.732   9.018   6.078 -0.4512 -0.2101 -0.6777
  134ACOH    C1 9969   7.904   8.889   6.168 -0.3472  0.0647  0.3893
  134ACOH    H1 9970   7.853   8.911   6.262 -0.4678 -0.9753  0.5783
  134ACOH    H2 9971   8.004   8.930   6.164 -0.4350  0.1103 -1.9384
  134ACOH    H3 9972   7.907   8.781   6.148 -0.0361  0.3060 -0.8822
  135ACOH    H4 9973   1.628   2.582   2.477  1.5553  1.2503 -1.1700
  135ACOH    O2 9974   1.584   2.553   2.395 -0.3302  0.9642 -0.0859
  135ACOH    C2 9975   1.510   2.442   2.422  0.4712 -0.0023 -0.2659
  135ACOH    O1 9976   1.476   2.407   2.532  0.3832  0.1170  0.3333
  135ACOH    C1 9977   1.453   2.372   2.307  0.2475 -0.5796  0.9408
  135ACOH    H1 9978   1.345   2.382   2.316  0.2379  0.3211 -0.1666
  135ACOH    H2 9979   1.475   2.265   2.304  0.0397 -0.5742 -1.1991
  135ACOH    H3 9980   1.497   2.415   2.218 -1.9255 -0.0515  0.0859
  136ACOH    H4 9981   5.061   1.748   6.813 -0.2042  0.1719  1.0900
  136ACOH    O2 9982   5.139   1.695   6.837 -0.3595 -0.4106  0.3316
  136ACOH    C2 9983   5.146   1.596   6.743  0.1485 -0.5062 -0.0597
  136ACOH    O1 9984   5.076   1.585   6.644 -0.6163 -0.2085 -0.2770
  136ACOH    C1 9985   5.265   1.502   6.762 -1.4103  0.2226  0.1253
  136ACOH    H1 9986   5.359   1.556   6.751 -1.4604  0.1994 -0.4197
  136ACOH    H2 9987   5.249   1.422   6.691  0.6399 -2.3932  2.5058
  136ACOH    H3 9988   5.267   1.458   6.862 -1.5296 -1.1207 -0.4590
  137ACOH    H4 9989   6.912   9.705   1.286  2.0696 -1.7829  0.6849
  137ACOH    O2 9990   6.968   9.741   1.216  0.3618  0.2833  0.3230
  137ACOH    C2 9991   6.892   9.791   1.118 -0.1244  0.4368 -0.5455
  137ACOH    O1 9992   6.770   9.799   1.132  0.5127 -0.1688  0.1392
  137ACOH    C1 9993   6.977   9.828   1.006 -0.8449  0.3518  0.6481
  137ACOH    H1 9994   7.018   9.737   0.962  3.3506  2.0649  0.7325
  137ACOH    H2 9995   7.060   9.879   1.054  1.3758 -1.5633 -1.0357
  137ACOH    H3 9996   6.936   9.898   0.934  2.7551  0.8466 -1.0363
  138ACOH    H4 9997   3.793   6.954   5.364 -0.5491  1.7511 -1.0458
  138ACOH    O2 9998   3.785   6.869   5.318  0.1688  0.8951  0.3546
  138ACOH    C2 9999   3.908   6.824   5.311  0.6727 -0.4251 -0.5363
  138ACOH    O110000   3.992   6.893   5.249  0.0383 -0.5628  0.1832
  138ACOH    C110001   3.908   6.674   5.293  0.3964 -0.4393 -0.9136
  138ACOH    H110002   3.865   6.622   5.379 -0.7104  4.4327  1.6334
  138ACOH    H210003   4.011   6.643   5.280 -0.2375 -2.9183 -0.2518
  138ACOH    H310004   3.848   6.646   5.206  3.4463 -0.3720 -3.1227
  139ACOH    H410005   3.840   5.920   0.473 -0.1914  0.4508  0.1446
  139ACOH    O210006   3.835   6.017   0.469  0.0937  0.4594 -0.0125
  139ACOH    C210007   3.921   6.080   0.554  0.2113 -0.4519  0.0281
  139ACOH    O110008   3.974   6.036   0.653  0.2881 -0.3556  0.5478
  139ACOH    C110009   3.903   6.223   0.525  0.5833  0.2868 -0.1793
  139ACOH    H110010   3.796   6.241   0.511 -0.1436 -2.3963  1.5387
  139ACOH    H210011   3.961   6.240   0.434  0.6512  1.0122 -0.0084
  139ACOH    H310012   3.935   6.284   0.610  1.9152  1.6199 -1.6014
  140ACOH    H410013  -0.005   6.241   7.525 -0.2145 -0.7222  0.3353
  140ACOH    O210014   0.026   6.227   7.616 -0.2959 -0.4502  0.4069
  140ACOH    C210015   0.001   6.099   7.645  0.0328  0.0870  0.8095
  140ACOH    O110016  -0.052   6.008   7.581  0.5882 -0.2186 -0.1798
  140ACOH    C110017   0.058   6.070   7.779 -0.2880 -0.9288 -0.1129
  140ACOH    H110018   0.014   5.979   7.820  1.4785 -1.3860  0.7980
  140ACOH    H210019   0.049   6.156   7.845  0.0376 -0.2852 -0.9045
  140ACOH    H310020   0.165   6.053   7.774 -0.4286 -1.8089 -0.3291
  141ACOH    H410021   7.571   3.268   5.210 -4.0415  0.1306  0.5040
  141ACOH    O210022   7.583   3.173   5.228 -0.5817  0.4967  0.3240
  141ACOH    C210023   7.597   3.109   5.109 -0.8271 -0.3749  0.2347
  141ACOH    O110024   7.582   3.158   4.997 -0.0683 -0.5544  0.0404
  141ACOH    C110025   7.643   2.969   5.124 -0.3517  0.1345  0.2602
  141ACOH    H110026   7.602   2.919   5.212 -0.3198 -1.4090 -0.5940
  141ACOH    H210027   7.751   2.955   5.129 -0.5856 -1.1772  2.5247
  141ACOH    H310028   7.593   2.908   5.050 -2.0026 -0.1780  1.6087
  142ACOH    H410029   7.230   6.351   4.081  0.4267 -1.6066  1.5587
  142ACOH    O210030   7.201   6.271   4.035 -0.2851 -0.4748 -0.0043
  142ACOH    C210031   7.291   6.243   3.943  0.2178 -0.2980  0.1477
  142ACOH    O110032   7.402   6.292   3.928 -0.1213 -0.5862  0.0432
  142ACOH    C110033   7.248   6.124   3.872  0.0462 -0.2121 -0.2401
  142ACOH    H110034   7.334   6.057   3.868  0.0263 -0.2687  0.3185
  142ACOH    H210035   7.225   6.138   3.766  1.2202  0.9442 -0.3436
  142ACOH    H310036   7.163   6.073   3.918 -1.5886  1.9947 -0.7360
  143ACOH    H410037   7.107   5.912   5.245 -1.3213  0.9439 -1.2109
  143ACOH    O210038   7.127   5.873   5.158  0.8949  0.2840 -0.4358
  143ACOH    C210039   7.258   5.859   5.154 -0.4327  0.2566  0.1677
  143ACOH    O110040   7.339   5.893   5.234 -0.2261  0.0800  0.1750
  143ACOH    C110041   7.312   5.814   5.019 -0.5786 -0.5962 -0.2462
  143ACOH    H110042   7.270   5.716   4.999 -2.3936 -0.2126  1.5120
  143ACOH    H210043   7.421   5.824   5.020 -0.6488  0.1590 -0.4735
  143ACOH    H310044   7.276   5.886   4.946  1.9978  1.7366  0.6982
  144ACOH    H410045   3.075   8.233   2.426  1.5552 -0.1048 -0.2910
  144ACOH    O210046   3.066   8.313   2.481 -0.2981 -0.0086 -0.7150
  144ACOH    C210047   3.182   8.337   2.542 -0.1525 -1.2279  0.0289
  144ACOH    O110048   3.290   8.282   2.525 -0.0142 -0.2008  0.3326
  144ACOH    C110049   3.167   8.463   2.612 -0.7361  0.0457 -0.4683
  144ACOH    H110050   3.099   8.463   2.697 -2.4671 -1.4745 -1.8351
  144ACOH    H210051   3.138   8.543   2.543 -1.4991  0.5047  0.3762
  144ACOH    H310052   3.268   8.489   2.644 -1.0213  0.6614 -0.0493
  145ACOH    H410053   6.851   2.920   4.749  0.5218 -1.7354 -1.3186
  145ACOH    O210054   6.798   2.870   4.814 -0.2165 -0.2036 -0.7113
  145ACOH    C210055   6.676   2.855   4.757 -0.3935  0.1387  0.3845
  145ACOH    O110056   6.654   2.846   4.640  0.1721 -0.1272 -0.3755
  145ACOH    C110057   6.582   2.793   4.848  0.0489 -0.1480 -0.1666
  145ACOH    H110058   6.628   2.772   4.945  0.2210 -2.8750 -0.7882
  145ACOH    H210059   6.558   2.694   4.809  1.0403  0.0380 -1.3052
  145ACOH    H310060   6.488   2.847   4.852 -0.7533 -1.4929 -0.6943
  146ACOH    H410061   9.812  -0.023   2.586 -0.8398  0.7849 -0.0580
  146ACOH    O210062   9.883   0.024   2.539 -0.0480 -0.1632  0.1588
  146ACOH    C210063   9.814   0.120   2.467  0.2189  0.2778  0.5117
  146ACOH    O110064   9.694   0.124   2.457 -0.7837 -0.7447 -0.7307
  146ACOH    C110065   9.905   0.203   2.396  0.3687  0.1976  0.5344
  146ACOH    H110066   9.845   0.282   2.350  1.5298 -0.0718 -1.4853
  146ACOH    H210067   9.952   0.144   2.318  2.5240  1.6690  0.6826
  146ACOH    H310068   9.980   0.251   2.460  3.1286 -0.2890 -2.1975
  147ACOH    H410069   9.009   4.540   7.072  0.1062 -0.2733 -0.9311
  147ACOH    O210070   9.086   4.512   7.125 -0.4188  0.4766  0.2503
  147ACOH    C210071   9.107   4.595   7.233 -0.4026  0.6579  0.9849
  147ACOH    O110072   9.041   4.691   7.270  0.2917 -0.2878 -0.0436
  147ACOH    C110073   9.226   4.553   7.298 -0.9042 -0.8946  0.3768
  147ACOH    H110074   9.193   4.504   7.389 -1.2488 -1.1203  0.1326
  147ACOH    H210075   9.284   4.641   7.325 -1.1224 -0.8338  0.6411
  147ACOH    H310076   9.290   4.478   7.251  0.7398 -0.2836  1.5913
  148ACOH    H410077   5.200   4.943   7.309  0.9613  0.7331 -1.1736
  148ACOH    O210078   5.239   4.972   7.393 -0.3578  0.0622 -0.3104
  148ACOH    C210079   5.274   4.854   7.445  0.1356  0.1150  1.5614
  148ACOH    O110080   5.265   4.745   7.392  0.0587 -0.0430 -0.5346
  148ACOH    C110081   5.344   4.884   7.571  0.0326  0.1776  0.0357
  148ACOH    H110082   5.258   4.886   7.639  1.1159 -0.6692  1.4642
  148ACOH    H210083   5.394   4.980   7.573  3.1096 -1.3637  1.3172
  148ACOH    H310084   5.409   4.799   7.593 -0.6502 -0.3774 -0.0453
  149ACOH    H410085   5.542   7.755   2.522 -0.1198 -0.3265 -1.1485
  149ACOH    O210086   5.636   7.780   2.522 -0.2711  0.2540  0.2326
  149ACOH    C210087   5.703   7.693   2.603  0.4733  0.0766 -0.2224
  149ACOH    O110088   5.660   7.652   2.708 -0.8515 -0.1128  0.0323
  149ACOH    C110089   5.852   7.709   2.579  0.5919 -0.1240  0.0970
  149ACOH    H110090   5.878   7.805   2.624 -0.3582  0.1314  0.1135
  149ACOH    H210091   5.892   7.700   2.478  1.5895  0.4548  0.4293
  149ACOH    H310092   5.905   7.634   2.637  1.8276  0.9326  0.3603
  150ACOH    H410093   0.599   9.613   5.949  0.3550  0.1390  0.2434
  150ACOH    O210094   0.524   9.581   5.896  0.3504 -0.2777  0.5020
  150ACOH    C210095   0.524   9.453   5.874  0.4815 -0.3923  0.3258
  150ACOH    O110096   0.606   9.364   5.894  0.4763 -0.0761 -0.1247
  150ACOH    C110097   0.380   9.416   5.840 -0.1121 -0.6083  0.3769
  150ACOH    H110098   0.309   9.477   5.896  0.6298 -0.6724  1.4010
  150ACOH    H210099   0.366   9.310   5.863  0.0973 -1.1614 -1.8918
  150ACOH    H310100   0.359   9.429   5.734  1.7806 -1.5354 -0.1241
  151ACOH    H410101   4.530   5.458   7.004  0.5497 -1.1667 -1.9152
  151ACOH    O210102   4.471   5.522   6.961 -0.3681 -0.6917  0.0259
  151ACOH    C210103   4.497   5.506   6.833  0.0951  0.1722  0.2338
  151ACOH    O110104   4.582   5.439   6.778  0.2852 -0.3214 -0.3752
  151ACOH    C110105   4.391   5.579   6.762 -0.0420 -0.7357 -0.3780
  151ACOH    H110106   4.438   5.656   6.701 -0.3169  0.8870  1.3717
  151ACOH    H210107   4.315   5.628   6.823 -1.4810 -2.3256 -0.8859
  151ACOH    H310108   4.341   5.513   6.693 -0.5441  0.6841 -1.3970
  152ACOH    H410109   6.118   4.604   1.630  2.3810 -1.3946 -1.0583
  152ACOH    O210110   6.179   4.657   1.684 -0.2023  0.5947  0.0106
  152ACOH    C210111   6.103   4.741   1.747  0.9910  0.3491  0.3388
  152ACOH    O110112   5.983   4.722   1.774 -0.5363 -0.0623  0.5172
  152ACOH    C110113   6.182   4.860   1.788  0.3289 -0.7307 -0.1455
  152ACOH    H110114   6.123   4.941   1.830  1.9976  0.4274 -0.0202
  152ACOH    H210115   6.235   4.892   1.698  1.9488 -1.4703  0.5260
  152ACOH    H310116   6.254   4.838   1.866 -1.1680 -0.6079  1.2907
  153ACOH    H410117   6.812   7.865   7.747 -0.8064  0.0007 -0.9609
  153ACOH    O210118   6.829   7.961   7.754 -0.4816 -0.1703  0.8492
  153ACOH    C210119   6.941   7.989   7.683 -1.0689 -0.9168 -0.1855
  153ACOH    O110120   7.033   7.917   7.643 -0.4033 -0.1673  0.6563
  153ACOH    C110121   6.938   8.139   7.661 -0.3936 -0.3371  0.9247
  153ACOH    H110122   6.898   8.144   7.559  1.9868  1.3289  0.0326
  153ACOH    H210123   7.038   8.182   7.669 -0.1609 -0.1667 -2.1040
  153ACOH    H310124   6.869   8.183   7.732 -0.6882 -1.5608  1.4085
  154ACOH    H410125   4.176   7.180   0.926 -1.0509 -0.7472 -0.1776
  154ACOH    O210126   4.113   7.253   0.934 -0.3577 -0.1188 -0.3560
  154ACOH    C210127   4.030   7.265   0.828  0.0121 -0.4482  0.0116
  154ACOH    O110128   4.036   7.212   0.720  0.2400 -0.2906  0.3086
  154ACOH    C110129   3.923   7.360   0.866 -0.1746  0.7485  0.4907
  154ACOH    H110130   3.927   7.446   0.800  0.8187 -0.0303 -0.4907
  154ACOH    H210131   3.939   7.390   0.970  3.3839 -1.1767  0.5793
  154ACOH    H310132   3.824   7.314   0.859 -0.6742  1.9038 -0.1446
  155ACOH    H410133  -0.145   9.487   4.890  0.6827  0.7500  0.6284
  155ACOH    O210134  -0.051   9.486   4.866  0.5381  0.5889  0.0615
  155ACOH    C210135   0.012   9.412   4.959 -0.0096 -0.2205  0.3657
  155ACOH    O110136  -0.025   9.383   5.070 -0.4968 -0.0488 -0.2251
  155ACOH    C110137   0.158   9.410   4.942  0.3332  0.8178  0.0584
  155ACOH    H110138   0.189   9.306   4.952  0.2201  0.8151  0.3802
  155ACOH    H210139   0.211   9.462   5.022 -1.1002  1.0653  0.8728
  155ACOH    H310140   0.200   9.448   4.848  2.4994 -1.1102  0.2077
  156ACOH    H410141   5.614   5.803   2.230  1.1168  0.7968 -1.9668
  156ACOH    O210142   5.674   5.864   2.276 -0.0387  0.1478  0.5069
  156ACOH    C210143   5.665   5.983   2.217  1.0915 -0.0799 -0.3551
  156ACOH    O110144   5.580   6.013   2.136 -0.4825  0.5332 -0.2890
  156ACOH    C110145   5.748   6.096   2.277 -0.1482  0.2336 -0.6381
  156ACOH    H110146   5.854   6.073   2.267 -0.6583 -1.2117 -3.2511
  156ACOH    H210147   5.727   6.102   2.384  2.2399  0.3622 -0.1387
  156ACOH    H310148   5.727   6.191   2.228 -0.7623  0.9003  0.8941
  157ACOH    H410149   6.394   3.697   1.770 -1.2333 -0.5135  0.6904
  157ACOH    O210150   6.368   3.662   1.683  0.1470  0.1549 -0.0097
  157ACOH    C210151   6.347   3.770   1.604 -0.3221  0.1035  0.7613
  157ACOH    O110152   6.385   3.879   1.637  0.1239  0.0652 -0.2732
  157ACOH    C110153   6.316   3.715   1.467  0.3840  0.7601 -0.1527
  157ACOH    H110154   6.343   3.610   1.462 -0.4052  0.6324 -1.8520
  157ACOH    H210155   6.369   3.774   1.393 -0.2980  0.9728 -0.4797
  157ACOH    H310156   6.208   3.730   1.460  0.1385  0.0821  1.7632
  158ACOH    H410157   6.743   9.757   7.392 -0.3911 -2.2905  0.0145
  158ACOH    O210158   6.831   9.719   7.377  0.4419 -0.0473 -0.8683
  158ACOH    C210159   6.818   9.585   7.381  0.2047  0.1036  0.0908
  158ACOH    O110160   6.715   9.526   7.415 -0.5372 -0.1227  0.0380
  158ACOH    C110161   6.944   9.514   7.345 -0.7811 -0.3689 -0.4260
  158ACOH    H110162   6.936   9.405   7.351  0.4187 -0.4035  0.5266
  158ACOH    H210163   7.024   9.552   7.407  0.1442 -0.9818 -1.2342
  158ACOH    H310164   6.966   9.547   7.243  2.0373 -1.3474 -0.1738
  159ACOH    H410165   3.281   6.463   7.239  0.2644 -0.2452 -1.4714
  159ACOH    O210166   3.351   6.411   7.283 -0.6772 -0.5805 -0.3495
  159ACOH    C210167   3.456   6.394   7.199 -0.1070 -0.0894  0.2310
  159ACOH    O110168   3.550   6.329   7.222  0.9493  0.0957 -0.3052
  159ACOH    C110169   3.458   6.474   7.076 -0.5301 -0.2770 -0.0652
  159ACOH    H110170   3.553   6.462   7.024 -1.1307  1.2162 -1.5427
  159ACOH    H210171   3.442   6.578   7.104 -0.2998 -0.1408 -0.4342
  159ACOH    H310172   3.369   6.447   7.018  0.3873 -1.3085 -1.0110
  160ACOH    H410173   6.675   6.655   6.623  0.4477 -1.8899  1.5270
  160ACOH    O210174   6.581   6.636   6.606  0.4182 -0.5324  0.0062
  160ACOH    C210175   6.537   6.529   6.670 -0.4517  0.5031 -0.6508
  160ACOH    O110176   6.586   6.472   6.769  0.1060  1.0096  0.5913
  160ACOH    C110177   6.394   6.520   6.631 -0.0722 -0.5961  0.4422
  160ACOH    H110178   6.382   6.494   6.525 -1.1489 -1.1213  0.6816
  160ACOH    H210179   6.333   6.605   6.659 -1.9627 -2.0124  0.7618
  160ACOH    H310180   6.350   6.436   6.686  0.4000 -0.6219  0.7825
  161ACOH    H410181   5.013   3.692   4.996 -1.7367 -1.0334  0.8392
  161ACOH    O210182   5.055   3.605   5.000  0.8536  0.0740 -0.8377
  161ACOH    C210183   4.976   3.527   5.078  0.7575  0.4494 -0.5578
  161ACOH    O110184   4.886   3.569   5.146 -0.1535  0.1850 -0.8013
  161ACOH    C110185   5.042   3.400   5.097  0.1812 -0.2133  0.5352
  161ACOH    H110186   5.111   3.379   5.015 -0.5456 -0.5592  0.0066
  161ACOH    H210187   4.969   3.318   5.092  1.1594 -1.1316  1.0720
  161ACOH    H310188   5.095   3.395   5.192  2.9248  1.9326 -0.8354
  162ACOH    H410189   5.002   2.641   5.818 -1.5031 -0.3351  3.1144
  162ACOH    O210190   5.065   2.708   5.850  0.2875 -0.3956 -0.1318
  162ACOH    C210191   5.134   2.652   5.952  0.3746 -0.2894 -0.5730
  162ACOH    O110192   5.138   2.535   5.982 -0.2516 -0.4798  0.0709
  162ACOH    C110193   5.182   2.766   6.042  0.0169 -0.1475 -0.2965
  162ACOH    H110194   5.263   2.744   6.112 -2.1342  1.7239  2.9282
  162ACOH    H210195   5.095   2.792   6.102 -0.2278 -2.3138  0.3154
  162ACOH    H310196   5.219   2.853   5.988  1.2115 -1.9313 -2.4367
  163ACOH    H410197   1.409   7.379   3.108  0.1044  2.8303 -1.1899
  163ACOH    O210198   1.337   7.409   3.166 -0.4371  0.3588 -0.5467
  163ACOH    C210199   1.235   7.435   3.090  0.3985 -0.4865 -0.0467
  163ACOH    O110200   1.230   7.434   2.969 -0.0521 -0.1979 -0.6614
  163ACOH    C110201   1.110   7.439   3.169 -0.3720  0.0233  0.2235
  163ACOH    H110202   1.110   7.379   3.260 -0.1298 -0.8985 -0.3833
  163ACOH    H210203   1.030   7.408   3.102  1.9730 -1.0380 -2.1746
  163ACOH    H310204   1.100   7.542   3.203 -0.7261 -0.2524  0.9648
  164ACOH    H410205   0.636   5.333   2.084  1.3549  0.9885 -1.0933
  164ACOH    O210206   0.608   5.271   2.014 -0.0104  0.1191  0.1816
  164ACOH    C210207   0.502   5.200   2.067 -0.1297  0.2738 -0.6647
  164ACOH    O110208   0.448   5.209   2.177 -0.7733 -0.0536  0.0671
  164ACOH    C110209   0.471   5.093   1.975  0.1332  0.0737 -0.2285
  164ACOH    H110210   0.397   5.025   2.015 -0.0313  0.1627 -0.3793
  164ACOH    H210211   0.566   5.043   1.956  0.5097  0.1895  1.3173
  164ACOH    H310212   0.438   5.138   1.881 -1.5564  1.3337  0.9311
  165ACOH    H410213   1.058   1.075   7.061 -2.3431  0.9458  1.2766
  165ACOH    O210214   1.063   1.133   6.983 -0.5900 -0.1936  0.4928
  165ACOH    C210215   0.941   1.138   6.938 -0.1156  0.1562  0.0295
  165ACOH    O110216   0.841   1.107   6.998 -0.5853 -0.0248  0.0277
  165ACOH    C110217   0.934   1.202   6.806 -0.0042  0.5849 -0.7589
  165ACOH    H110218   1.024   1.258   6.779 -0.5370  0.8750 -1.9809
  165ACOH    H210219   0.851   1.272   6.797  0.8789  1.6059 -1.0739
  165ACOH    H310220   0.927   1.136   6.719  1.3471  0.2520 -0.6243
  166ACOH    H410221   2.287   2.601   3.365 -0.2934  0.4519  0.4340
  166ACOH    O210222   2.378   2.586   3.396 -0.2937 -0.6420 -0.0427
  166ACOH    C210223   2.392   2.468   3.453 -0.3271  0.0537  0.1003
  166ACOH    O110224   2.296   2.404   3.497 -0.1373 -0.2705  0.1566
  166ACOH    C110225   2.530   2.432   3.485 -0.5653 -0.1745 -0.6788
  166ACOH    H110226   2.516   2.354   3.560 -1.3273  0.1330 -0.4904
  166ACOH    H210227   2.580   2.518   3.529  0.0616 -0.5400 -0.6749
  166ACOH    H310228   2.591   2.394   3.403 -0.0446 -0.3947 -0.1904
  167ACOH    H410229   5.205   2.217   1.141 -1.4729  2.1047  0.1842
  167ACOH    O210230   5.139   2.153   1.174 -0.0998  0.7814  0.4330
  167ACOH    C210231   5.197   2.060   1.251 -0.6794  0.1860 -0.0818
  167ACOH    O110232   5.310   2.061   1.294 -0.1175  0.1173 -0.2189
  167ACOH    C110233   5.111   1.950   1.286 -0.4020 -0.1946 -1.0210
  167ACOH    H110234   5.167   1.857   1.279 -0.2989 -0.2004 -0.2195
  167ACOH    H210235   5.029   1.946   1.214 -1.3018 -1.5215  0.0319
  167ACOH    H310236   5.074   1.952   1.389 -0.5207 -0.0931 -1.0662
  168ACOH    H410237   4.102   7.233   4.792 -1.3693 -0.6643 -0.6167
  168ACOH    O210238   4.159   7.204   4.719  0.4759  0.6191  0.2589
  168ACOH    C210239   4.147   7.070   4.713 -0.3643 -0.2772 -0.0922
  168ACOH    O110240   4.061   7.013   4.772 -0.6920  0.0256 -0.0389
  168ACOH    C110241   4.238   7.009   4.613 -0.1895 -0.4109 -0.3704
  168ACOH    H110242   4.322   7.073   4.588 -1.1526  1.6510  1.4902
  168ACOH    H210243   4.185   6.975   4.523  0.8686 -0.2810 -1.0465
  168ACOH    H310244   4.278   6.917   4.655 -2.2539 -0.6609  1.1512
  169ACOH    H410245   1.351   8.999   7.606  0.9300  0.9243 -0.0554
  169ACOH    O210246   1.300   9.021   7.686  0.5023 -0.3218  0.0281
  169ACOH    C210247   1.170   9.033   7.665  0.1184 -0.5789 -0.6744
  169ACOH    O110248   1.107   8.973   7.578 -0.3138 -0.2616  0.2248
  169ACOH    C110249   1.105   9.116   7.760  1.3486 -0.5239 -0.1958
  169ACOH    H110250   1.140   9.091   7.860  2.9381  2.0459 -0.0509
  169ACOH    H210251   0.996   9.113   7.753  1.2478 -1.1845  1.3597
  169ACOH    H310252   1.139   9.216   7.732  1.2687 -0.7275 -1.0393
  170ACOH    H410253   7.652   2.180   1.994  2.1941  2.8488  2.0481
  170ACOH    O210254   7.642   2.233   1.913  0.6855  0.2145  0.4225
  170ACOH    C210255   7.556   2.168   1.831  0.1554 -0.1612 -0.2584
  170ACOH    O110256   7.481   2.073   1.852  0.1622  0.2027 -0.4649
  170ACOH    C110257   7.525   2.260   1.715 -0.3681 -0.2184 -0.1601
  170ACOH    H110258   7.436   2.318   1.738  0.7967  1.6330 -0.2798
  170ACOH    H210259   7.519   2.204   1.622 -0.4369 -0.0266 -0.2697
  170ACOH    H310260   7.602   2.335   1.698 -1.8295  1.2943 -0.1783
  171ACOH    H410261   8.100   8.131   1.361  0.4546  0.6208  2.8942
  171ACOH    O210262   8.104   8.038   1.387 -0.0025 -0.3562 -0.2972
  171ACOH    C210263   8.064   7.966   1.280  1.1680 -0.2931  0.1801
  171ACOH    O110264   8.056   7.993   1.160  0.5102 -0.3112 -0.0979
  171ACOH    C110265   8.075   7.825   1.330 -0.1289  0.1197 -0.3626
  171ACOH    H110266   7.980   7.805   1.378  0.4422 -0.9950  0.3177
  171ACOH    H210267   8.144   7.801   1.411  0.6945  1.3861 -0.6727
  171ACOH    H310268   8.087   7.756   1.247  3.4407 -1.1546  1.1079
  172ACOH    H410269   4.184   7.261   5.476  0.9060  1.5716  0.2522
  172ACOH    O210270   4.179   7.247   5.572 -0.2512 -0.1607 -0.0398
  172ACOH    C210271   4.116   7.133   5.594 -0.0326 -0.7667 -0.4176
  172ACOH    O110272   4.142   7.034   5.526 -0.7207 -0.6271 -0.5635
  172ACOH    C110273   4.046   7.129   5.724  0.1965 -0.5915 -0.6129
  172ACOH    H110274   4.020   7.229   5.758 -0.4198  0.7766 -4.8140
  172ACOH    H210275   4.113   7.077   5.792  1.7748  1.0767 -0.8785
  172ACOH    H310276   3.952   7.076   5.709  0.5013 -0.8105 -1.8026
  173ACOH    H410277   2.235   2.008   4.007  0.1416 -0.0636 -0.3130
  173ACOH    O210278   2.275   1.921   4.024  0.3298  0.0240 -0.3036
  173ACOH    C210279   2.401   1.922   3.973  0.4718 -0.5133  0.4765
  173ACOH    O110280   2.453   2.006   3.900  0.3094  0.2276 -0.1643
  173ACOH    C110281   2.487   1.804   4.009  0.3918 -0.5684  0.0018
  173ACOH    H110282   2.572   1.792   3.941  0.5136 -1.1766  0.2579
  173ACOH    H210283   2.429   1.713   3.991  1.3118 -1.5275  1.8065
  173ACOH    H310284   2.519   1.807   4.113 -3.0444  0.2284  1.0933
  174ACOH    H410285   4.114   7.700   1.139 -0.8819  1.3951 -0.1854
  174ACOH    O210286   4.168   7.736   1.066  0.4678 -0.8615 -0.3253
  174ACOH    C210287   4.278   7.657   1.064  0.3036  0.0334 -0.6123
  174ACOH    O110288   4.317   7.583   1.153  0.2433 -0.4275  0.0828
  174ACOH    C110289   4.352   7.695   0.941  0.6561  0.0062 -0.5701
  174ACOH    H110290   4.395   7.606   0.896 -0.8591 -1.2390  0.3739
  174ACOH    H210291   4.432   7.765   0.965  0.4902  0.0133 -0.0267
  174ACOH    H310292   4.292   7.739   0.862 -0.6089 -2.3412 -0.9808
  175ACOH    H410293   4.873   7.491   1.465  1.1460  2.1786 -0.6827
  175ACOH    O210294   4.825   7.465   1.385  0.5706  0.1848  0.2467
  175ACOH    C210295   4.756   7.572   1.342  0.4188 -0.2197 -0.9877
  175ACOH    O110296   4.752   7.682   1.394  0.3089  0.3379  0.4639
  175ACOH    C110297   4.679   7.551   1.221  0.7889  0.1420 -0.0009
  175ACOH    H110298   4.688   7.446   1.192  2.2044  0.7799 -1.9572
  175ACOH    H210299   4.720   7.614   1.142  2.5224  1.2101  1.7148
  175ACOH    H310300   4.576   7.573   1.250  0.4648 -2.7074  1.1471
  176ACOH    H410301   6.886   5.242   6.566  1.1570 -1.6068  0.4212
  176ACOH    O210302   6.821   5.206   6.503  0.4702  0.1103  0.1315
  176ACOH    C210303   6.840   5.070   6.493  0.0438 -0.4098  0.7249
  176ACOH    O110304   6.886   4.992   6.572  0.1903  0.2248  0.2934
  176ACOH    C110305   6.777   5.032   6.369  0.2397 -0.0965 -0.6727
  176ACOH    H110306   6.673   5.009   6.393  0.2882  1.8961  1.5923
  176ACOH    H210307   6.815   4.934   6.338 -0.2067 -0.6175  0.4021
  176ACOH    H310308   6.781   5.105   6.288 -2.6705  1.6791  0.7317
  177ACOH    H410309   4.209   1.306   6.869 -1.0286 -0.4888 -0.0750
  177ACOH    O210310   4.147   1.354   6.812 -0.3400  0.2589 -0.2030
  177ACOH    C210311   4.212   1.460   6.760 -0.4602 -0.1208  0.2757
  177ACOH    O110312   4.326   1.491   6.791 -0.0802 -0.3294 -0.6667
  177ACOH    C110313   4.105   1.546   6.703  0.1396  0.2919  0.1040
  177ACOH    H110314   4.096   1.533   6.595 -1.8086  0.0560  0.2811
  177ACOH    H210315   4.146   1.645   6.726  1.9942 -0.1905 -0.9841
  177ACOH    H310316   4.017   1.523   6.762 -0.3485  0.2091 -0.6505
  178ACOH    H410317   4.753   5.925   7.940  2.8494  2.2299  2.0519
  178ACOH    O210318   4.803   5.842   7.938  0.1358  0.5574  0.2352
  178ACOH    C210319   4.929   5.880   7.968 -0.1373 -0.6274  0.7357
  178ACOH    O110320   4.961   5.993   8.003 -0.1034  0.0356  0.0234
  178ACOH    C110321   5.016   5.762   7.972  0.1791  0.3049 -0.1411
  178ACOH    H110322   5.117   5.803   7.968  0.1435  0.3211 -0.8783
  178ACOH    H210323   5.001   5.689   7.892  0.4806 -0.4224  0.4590
  178ACOH    H310324   5.002   5.710   8.067 -1.0141 -4.1981 -2.6348
  179ACOH    H410325   9.465   9.934   2.517  0.1902 -0.0114 -0.5632
  179ACOH    O210326   9.469   9.861   2.453  0.0334 -0.1605 -0.4055
  179ACOH    C210327   9.339   9.835   2.419 -0.2345 -0.2054  0.0260
  179ACOH    O110328   9.240   9.869   2.477 -0.2935  0.5315 -0.1817
  179ACOH    C110329   9.342   9.722   2.326 -0.2416 -0.2288  0.1282
  179ACOH    H110330   9.281   9.743   2.238  1.7875 -1.4665 -1.6475
  179ACOH    H210331   9.324   9.625   2.372  0.9575 -2.3654 -3.6472
  179ACOH    H310332   9.439   9.707   2.277  0.0621 -0.4906  0.8082
  180ACOH    H410333   4.884   3.764   3.730  0.4621  3.0991  0.1259
  180ACOH    O210334   4.978   3.744   3.713 -0.0877  0.0122  0.4636
  180ACOH    C210335   4.980   3.619   3.662  0.7589  0.8078 -0.7742
  180ACOH    O110336   4.890   3.540   3.645 -0.5358  0.2824 -0.4022
  180ACOH    C110337   5.113   3.579   3.638  0.4944  0.2649 -0.2726
  180ACOH    H110338   5.136   3.569   3.532  2.4289 -1.2902  0.2655
  180ACOH    H210339   5.126   3.485   3.692 -0.7747 -0.2240 -0.7965
  180ACOH    H310340   5.186   3.643   3.688  0.9493  0.5488 -1.2811
  181ACOH    H410341   6.835   2.909   5.987 -2.1431 -0.5285 -0.9445
  181ACOH    O210342   6.796   2.853   6.057  0.1124 -0.2852  0.5617
  181ACOH    C210343   6.890   2.807   6.138 -0.0287  0.0073  0.0241
  181ACOH    O110344   7.005   2.838   6.150  0.2018 -0.7505  0.3479
  181ACOH    C110345   6.823   2.724   6.240 -0.5021 -0.0537 -0.0699
  181ACOH    H110346   6.714   2.722   6.243 -0.5332  2.0520  3.4154
  181ACOH    H210347   6.854   2.760   6.338  0.5509 -1.8883  0.2850
  181ACOH    H310348   6.870   2.626   6.239 -0.0763  0.1571 -1.1185
  182ACOH    H410349   3.706   6.838   5.614 -0.5376 -0.6091 -0.8786
  182ACOH    O210350   3.767   6.764   5.599  0.2676 -0.0850 -0.2185
  182ACOH    C210351   3.786   6.714   5.726 -0.0991 -1.0719 -0.0350
  182ACOH    O110352   3.729   6.752   5.830 -0.0242  0.2466  0.1610
  182ACOH    C110353   3.878   6.595   5.723 -0.0721  0.3041 -0.2535
  182ACOH    H110354   3.896   6.560   5.824 -1.5620  1.4800  0.4348
  182ACOH    H210355   3.970   6.616   5.669 -0.0916 -1.9130 -1.1901
  182ACOH    H310356   3.833   6.518   5.660 -0.7873  0.4699  0.0499
  183ACOH    H410357   5.012   4.326   5.826  1.3230 -0.1796  0.2523
  183ACOH    O210358   5.082   4.307   5.761  0.8309  0.2271 -0.3970
  183ACOH    C210359   5.039   4.195   5.701  0.0363  0.1205  0.0862
  183ACOH    O110360   4.935   4.140   5.720  0.6178 -0.4505  0.0981
  183ACOH    C110361   5.130   4.152   5.592 -0.1930  0.2337 -0.3294
  183ACOH    H110362   5.181   4.237   5.546  1.8796 -1.6504 -1.6324
  183ACOH    H210363   5.077   4.097   5.514 -2.0735  0.4531  0.7790
  183ACOH    H310364   5.209   4.097   5.643 -0.6593  2.0472  2.4581
  184ACOH    H410365   6.855   7.374   7.789  2.6296 -0.1993  1.1691
  184ACOH    O210366   6.846   7.469   7.805  0.1973 -0.2183  0.1532
  184ACOH    C210367   6.921   7.499   7.917 -0.1420 -0.0791  0.6284
  184ACOH    O110368   6.994   7.431   7.988  0.2063 -0.0587 -0.7951
  184ACOH    C110369   6.923   7.647   7.941 -0.1722  0.0179  0.4262
  184ACOH    H110370   6.978   7.679   8.029 -0.3497  1.0241  0.1742
  184ACOH    H210371   6.820   7.682   7.936  0.5446  2.0086 -1.4817
  184ACOH    H310372   6.962   7.709   7.861 -1.2348  0.7149  0.4347
  185ACOH    H410373   2.831   7.413   1.780 -0.8363 -1.3078  0.4426
  185ACOH    O210374   2.915   7.435   1.824 -0.6521 -0.3814 -0.3409
  185ACOH    C210375   2.895   7.531   1.921  0.8874  0.0792  0.1812
  185ACOH    O110376   2.793   7.596   1.945  0.3269 -0.1564  0.0379
  185ACOH    C110377   3.015   7.549   2.006 -0.2991  0.0545  0.7576
  185ACOH    H110378   3.063   7.452   2.000  2.4229  1.4577 -1.0061
  185ACOH    H210379   2.990   7.572   2.110 -0.4315  0.9237  0.5384
  185ACOH    H310380   3.085   7.619   1.960  0.5239 -1.2198  0.0691
  186ACOH    H410381   7.317   7.909   7.565 -0.4971  0.0306  1.1099
  186ACOH    O210382   7.303   8.005   7.571 -0.4584  0.1023  0.1627
  186ACOH    C210383   7.301   8.047   7.446 -0.8202  0.2589  0.4544
  186ACOH    O110384   7.334   7.987   7.343 -0.6038 -0.3489 -0.4241
  186ACOH    C110385   7.286   8.191   7.457  0.0768 -0.5642  0.5664
  186ACOH    H110386   7.178   8.208   7.468  0.3389  1.0598  0.7853
  186ACOH    H210387   7.316   8.245   7.368 -1.5982  1.0105  0.9138
  186ACOH    H310388   7.341   8.235   7.540  0.4446  0.8557 -0.4058
  187ACOH    H410389   5.281   7.814   7.109 -0.4614 -1.9172  0.2148
  187ACOH    O210390   5.292   7.866   7.190 -0.0879 -0.7748 -0.5431
  187ACOH    C210391   5.305   7.992   7.148 -0.4150 -0.3233  0.2607
  187ACOH    O110392   5.339   8.028   7.035 -0.3505  0.3645 -0.1963
  187ACOH    C110393   5.281   8.086   7.259  0.6649  0.2270  0.9120
  187ACOH    H110394   5.343   8.175   7.244  0.5751  0.3615  1.3249
  187ACOH    H210395   5.305   8.035   7.352  0.2847  0.3886  1.1021
  187ACOH    H310396   5.176   8.114   7.269  0.6583  0.2401  0.8039
  188ACOH    H410397   5.471   2.374   5.264 -1.5987  0.2516  2.5830
  188ACOH    O210398   5.427   2.456   5.238  0.2839  0.4332 -0.2979
  188ACOH    C210399   5.495   2.541   5.159 -0.3861  0.3328 -0.4229
  188ACOH    O110400   5.588   2.515   5.080 -0.2933  0.3125  0.2316
  188ACOH    C110401   5.428   2.677   5.133 -0.3808 -0.4153  0.6105
  188ACOH    H110402   5.358   2.706   5.212 -1.4091 -0.9592 -0.0755
  188ACOH    H210403   5.389   2.675   5.031  2.3379  1.1621 -0.4781
  188ACOH    H310404   5.515   2.741   5.137 -0.1843 -0.7071  1.0096
  189ACOH    H410405   6.729   4.401   2.406 -3.0903  3.7901 -2.6841
  189ACOH    O210406   6.754   4.469   2.470 -0.0522  0.0167  0.4061
  189ACOH    C210407   6.832   4.424   2.567 -0.5331 -0.2870  0.2347
  189ACOH    O110408   6.865   4.309   2.590 -0.2476  0.2462 -0.4526
  189ACOH    C110409   6.875   4.540   2.656  0.5171 -0.3743  0.3249
  189ACOH    H110410   6.983   4.539   2.645  0.5558  1.3193  0.5533
  189ACOH    H210411   6.847   4.524   2.760  0.6228  1.9435  0.7259
  189ACOH    H310412   6.841   4.639   2.626  1.9054 -0.6622 -2.3425
  190ACOH    H410413   7.813   1.927   6.682  0.4051 -0.4663 -0.3569
  190ACOH    O210414   7.732   1.875   6.669 -0.0723  0.0972  0.2657
  190ACOH    C210415   7.731   1.830   6.539 -0.2283  0.2017 -0.5503
  190ACOH    O110416   7.832   1.810   6.475 -0.2944  0.0669 -0.4170
  190ACOH    C110417   7.600   1.806   6.478  0.2570  0.3340  0.4208
  190ACOH    H110418   7.596   1.714   6.419 -3.3045  0.0429  0.9673
  190ACOH    H210419   7.576   1.894   6.417 -4.4965 -0.8599  0.3753
  190ACOH    H310420   7.521   1.797   6.552 -0.7324  0.8382 -0.5441
  191ACOH    H410421   4.622   8.110   1.065 -1.8727  0.9312  0.8114
  191ACOH    O210422   4.621   8.171   0.989 -0.4939 -0.1248 -0.0952
  191ACOH    C210423   4.523   8.136   0.906 -0.6061  0.5766  0.3301
  191ACOH    O110424   4.444   8.050   0.929 -0.1298  0.1312  0.8670
  191ACOH    C110425   4.511   8.231   0.794 -0.1193 -0.6560  0.6131
  191ACOH    H110426   4.510   8.167   0.706  1.1840  0.2337 -0.0653
  191ACOH    H210427   4.597   8.298   0.797 -1.1819  0.8083 -0.6389
  191ACOH    H310428   4.419   8.289   0.803  1.3311  1.5579  1.5462
  192ACOH    H410429   3.993   1.255   0.718 -0.6144  1.2142  0.1691
  192ACOH    O210430   4.040   1.238   0.802  0.0766  0.0558 -0.4481
  192ACOH    C210431   4.176   1.258   0.793  0.2085  0.0671 -0.0485
  192ACOH    O110432   4.235   1.265   0.688  0.3258  0.5368  0.7964
  192ACOH    C110433   4.237   1.265   0.929  0.3178 -0.5183  0.6345
  192ACOH    H110434   4.281   1.166   0.942  0.5358 -0.8637 -2.4381
  192ACOH    H210435   4.163   1.282   1.008 -0.7566 -0.6512 -0.3316
  192ACOH    H310436   4.305   1.350   0.934 -1.0566  0.5923  0.9370
  193ACOH    H410437   9.346   4.444   6.761 -2.1019 -1.1574 -0.1357
  193ACOH    O210438   9.363   4.362   6.712  0.2877 -0.6098 -0.2767
  193ACOH    C210439   9.379   4.386   6.584  0.0219  0.9403  0.2553
  193ACOH    O110440   9.393   4.492   6.524  0.0267  0.1796  0.0607
  193ACOH    C110441   9.388   4.259   6.508 -0.4876  0.0914 -0.1463
  193ACOH    H110442   9.307   4.262   6.435  0.1509 -1.9640 -0.9730
  193ACOH    H210443   9.366   4.178   6.578  2.5309 -0.0742  0.7111
  193ACOH    H310444   9.483   4.257   6.455 -0.0461  1.9473  0.5504
  194ACOH    H410445   7.676   7.495   5.094  1.3994  1.1024 -0.9642
  194ACOH    O210446   7.640   7.580   5.124 -0.1502  0.0456  0.2756
  194ACOH    C210447   7.660   7.593   5.255 -0.3041 -0.4082 -0.0090
  194ACOH    O110448   7.681   7.492   5.319  0.0744  0.3170 -0.2526
  194ACOH    C110449   7.631   7.726   5.306 -0.5485 -0.5817 -0.0639
  194ACOH    H110450   7.546   7.723   5.374 -2.6130  1.0609 -2.4621
  194ACOH    H210451   7.611   7.785   5.217 -0.9649  1.0094  1.0617
  194ACOH    H310452   7.717   7.767   5.360 -1.1167 -0.5081  0.7984
  195ACOH    H410453   7.721   5.942   2.793 -2.9610 -0.2250  2.8202
  195ACOH    O210454   7.661   6.009   2.756 -0.7199  0.1467 -0.2716
  195ACOH    C210455   7.692   6.136   2.782 -0.0310  0.5990  0.0170
  195ACOH    O110456   7.791   6.164   2.846 -0.6680  0.4543 -0.0814
  195ACOH    C110457   7.586   6.234   2.758 -0.4643 -0.4218  0.1053
  195ACOH    H110458   7.534   6.231   2.853  1.7863 -1.0061  1.3632
  195ACOH    H210459   7.525   6.217   2.669  1.4020 -2.2621 -0.8824
  195ACOH    H310460   7.623   6.336   2.746  0.0550 -0.5644  0.4764
  196ACOH    H410461   5.303   5.858   0.340  0.6067 -0.5773 -0.0607
  196ACOH    O210462   5.247   5.862   0.261  0.0745 -0.2900  0.3239
  196ACOH    C210463   5.211   5.987   0.250  0.5998 -0.7319  0.6104
  196ACOH    O110464   5.208   6.070   0.341  0.0800 -0.2212  0.2353
  196ACOH    C110465   5.134   6.016   0.122  0.0079 -0.0654  0.4549
  196ACOH    H110466   5.201   6.014   0.036  1.4550 -0.1245  1.5527
  196ACOH    H210467   5.099   6.119   0.119 -2.3164 -0.8954 -1.5992
  196ACOH    H310468   5.059   5.939   0.106 -1.3062  0.9419  1.6528
  197ACOH    H410469   1.593   0.251   7.598  0.0110  1.2283 -1.7652
  197ACOH    O210470   1.519   0.194   7.571 -0.0205  0.2443  0.3249
  197ACOH    C210471   1.540   0.085   7.646 -0.1105  0.2973  0.4303
  197ACOH    O110472   1.643   0.061   7.713 -0.0891 -0.3150  0.8727
  197ACOH    C110473   1.430  -0.017   7.622 -0.3097  0.1042  0.1610
  197ACOH    H110474   1.452  -0.113   7.669 -0.0917 -0.3222 -0.8064
  197ACOH    H210475   1.439  -0.029   7.514  0.9591 -1.3167  0.4034
  197ACOH    H310476   1.329   0.011   7.652 -1.5802 -0.0364 -3.7337
  198ACOH    H410477   4.554   8.472   1.415 -0.0910  2.3423  0.1792
  198ACOH    O210478   4.579   8.478   1.322 -0.3338 -0.0776 -0.0591
  198ACOH    C210479   4.709   8.441   1.323  0.0705 -0.1667 -0.2358
  198ACOH    O110480   4.778   8.432   1.421 -0.6440  0.4676  0.6119
  198ACOH    C110481   4.768   8.432   1.183  0.7613  0.3131  0.4332
  198ACOH    H110482   4.875   8.450   1.191  1.1002 -0.4978 -1.8896
  198ACOH    H210483   4.715   8.507   1.125 -1.1206  0.5886  2.4742
  198ACOH    H310484   4.759   8.331   1.144  2.7953 -0.4129  1.7909
  199ACOH    H410485   4.360   3.133   2.694 -3.6426 -1.1618  0.6284
  199ACOH    O210486   4.358   3.046   2.649  0.0456 -1.0570  0.1577
  199ACOH    C210487   4.425   2.969   2.732  0.5521  0.4148  0.0572
  199ACOH    O110488   4.465   2.993   2.846  0.2115  0.0917  0.2054
  199ACOH    C110489   4.446   2.842   2.653 -0.3165 -0.0421 -0.6965
  199ACOH    H110490   4.504   2.774   2.714 -0.4583 -0.8627 -1.4692
  199ACOH    H210491   4.505   2.866   2.565  0.1058  0.0551 -0.3894
  199ACOH    H310492   4.354   2.795   2.620 -1.8220  1.5760  1.0149
  200ACOH    H410493   8.667   6.101   7.185  0.8852 -0.9082 -0.6395
  200ACOH    O210494   8.665   6.172   7.119  0.3480  0.0492  0.3936
  200ACOH    C210495   8.792   6.224   7.126  0.4509 -0.1653 -0.1715
  200ACOH    O110496   8.881   6.222   7.208 -0.4410  0.1494  0.1757
  200ACOH    C110497   8.805   6.319   7.015  0.3890  0.0211 -0.6254
  200ACOH    H110498   8.747   6.411   7.024  0.9453  0.2494  0.8940
  200ACOH    H210499   8.761   6.269   6.929  0.7135  1.1418 -1.4473
  200ACOH    H310500   8.906   6.346   6.987  0.5452 -1.5981 -1.6359
  201ACOH    H410501   6.631   3.628   2.319 -0.7900  1.5978 -0.7050
  201ACOH    O210502   6.574   3.675   2.382 -0.5732  0.1228  0.6271
  201ACOH    C210503   6.460   3.722   2.331 -0.3652  0.6665 -0.6831
  201ACOH    O110504   6.436   3.750   2.214 -0.3852 -0.0827 -0.1853
  201ACOH    C110505   6.368   3.761   2.441 -0.4580  0.5947  0.3117
  201ACOH    H110506   6.285   3.693   2.462 -0.6832  0.8549  0.2782
  201ACOH    H210507   6.336   3.861   2.410  2.5527  1.1763 -1.0978
  201ACOH    H310508   6.425   3.783   2.532 -0.6523  0.5540  0.4448
  202ACOH    H410509   6.126   2.160   7.826  0.9726  0.8208 -1.0728
  202ACOH    O210510   6.132   2.067   7.798 -0.0589  0.2632  0.4940
  202ACOH    C210511   6.018   2.004   7.826  0.0864  0.2614 -0.2467
  202ACOH    O110512   5.917   2.058   7.868 -0.2915  0.0244  0.2599
  202ACOH    C110513   6.027   1.854   7.810 -0.5107 -0.4290  0.3046
  202ACOH    H110514   6.079   1.812   7.896  0.2580 -0.5753 -0.2154
  202ACOH    H210515   6.092   1.830   7.725 -0.7191  1.6614 -0.4775
  202ACOH    H310516   5.933   1.802   7.796 -0.7560  0.1006 -0.0228
  203ACOH    H410517   8.025   5.515   3.670 -0.1011  0.2283  0.2984
  203ACOH    O210518   7.975   5.445   3.625  0.4869  0.2886 -0.4473
  203ACOH    C210519   7.888   5.503   3.545  0.1711 -0.5529 -0.9490
  203ACOH    O110520   7.860   5.620   3.548  0.3684  0.0312 -0.8909
  203ACOH    C110521   7.831   5.417   3.439 -0.6664 -0.7436  0.5531
  203ACOH    H110522   7.912   5.392   3.371 -0.1792 -0.2804  0.9671
  203ACOH    H210523   7.747   5.468   3.391 -0.9225 -0.5894  1.1549
  203ACOH    H310524   7.809   5.320   3.484 -0.3655 -1.7927 -1.5062
  204ACOH    H410525   5.264   1.484   0.431  0.5537  0.8055  1.4942
  204ACOH    O210526   5.229   1.397   0.456 -0.2328  0.7182  0.1622
  204ACOH    C210527   5.267   1.295   0.374 -0.5524 -0.1886 -0.1736
  204ACOH    O110528   5.337   1.301   0.274  0.7190 -0.7093  0.0304
  204ACOH    C110529   5.212   1.168   0.414  0.2162  0.1871 -0.6911
  204ACOH    H110530   5.283   1.091   0.385 -1.6412 -1.6166 -0.5591
  204ACOH    H210531   5.113   1.153   0.371  0.3054  0.2069 -0.8992
  204ACOH    H310532   5.210   1.167   0.523 -0.8408  0.8319 -0.6857
  205ACOH    H410533   7.101   6.250   7.975 -4.7205 -1.8997  0.2119
  205ACOH    O210534   7.071   6.338   7.945 -0.1298 -0.2857 -0.0794
  205ACOH    C210535   7.162   6.434   7.982 -0.0237  0.0573  0.0725
  205ACOH    O110536   7.263   6.423   8.052  0.5713  0.3534 -0.6487
  205ACOH    C110537   7.111   6.571   7.938  0.0293 -0.2259  0.0911
  205ACOH    H110538   7.191   6.644   7.942 -1.3645  1.2686  1.0824
  205ACOH    H210539   7.038   6.586   8.017  1.8930  0.1174  1.7918
  205ACOH    H310540   7.065   6.555   7.841  0.5645 -2.0299  0.1168
  206ACOH    H410541   6.247   8.228   2.580 -0.8898 -0.4920 -0.4707
  206ACOH    O210542   6.258   8.224   2.484  0.0583 -0.0244 -0.3838
  206ACOH    C210543   6.222   8.103   2.443  0.8771 -1.0629  0.2852
  206ACOH    O110544   6.200   8.004   2.510 -0.4108 -0.1410 -0.2296
  206ACOH    C110545   6.197   8.093   2.294 -0.3754  0.3417 -0.3863
  206ACOH    H110546   6.093   8.063   2.289 -0.3068 -0.7567  3.3827
  206ACOH    H210547   6.261   8.023   2.241 -2.7497 -1.4085 -1.0234
  206ACOH    H310548   6.220   8.194   2.260 -1.9280  0.5631 -0.8109
  207ACOH    H410549   0.086   3.146   1.677  0.7712  0.8415  1.4344
  207ACOH    O210550   0.054   3.076   1.736 -0.0530 -0.0050 -0.0055
  207ACOH    C210551   0.117   2.955   1.727 -0.3357  0.3041  0.2921
  207ACOH    O110552   0.219   2.937   1.660 -0.1854 -0.0414 -0.4921
  207ACOH    C110553   0.053   2.854   1.816 -0.3198  0.8890 -0.1913
  207ACOH    H110554   0.033   2.910   1.907 -1.0610  1.0932 -0.4830
  207ACOH    H210555   0.131   2.782   1.842 -1.5761 -0.0195  1.0749
  207ACOH    H310556  -0.038   2.804   1.782  2.1360 -2.6071 -1.9217
  208ACOH    H410557   3.728   7.042   0.400 -1.1510  1.0148  0.2022
  208ACOH    O210558   3.694   7.034   0.309 -0.0607 -0.1946 -0.1251
  208ACOH    C210559   3.781   6.950   0.244 -0.0063 -0.6862 -0.2313
  208ACOH    O110560   3.864   6.880   0.295  0.0773 -0.3192 -0.2012
  208ACOH    C110561   3.773   6.957   0.096  0.2262 -0.1999 -0.2410
  208ACOH    H110562   3.856   7.013   0.052  0.5991  0.5796  1.4311
  208ACOH    H210563   3.681   7.006   0.065  0.2068 -0.7899 -1.1443
  208ACOH    H310564   3.781   6.861   0.044 -0.8013 -0.8282  0.7516
  209ACOH    H410565   5.191   2.867   4.149  2.2705  3.2226 -0.9756
  209ACOH    O210566   5.114   2.895   4.096  0.2524 -0.2337 -0.0336
  209ACOH    C210567   5.141   3.026   4.076  0.6327 -0.7682 -0.4889
  209ACOH    O110568   5.240   3.088   4.096  0.2243 -0.4329 -0.0385
  209ACOH    C110569   5.013   3.093   4.027 -0.3131 -0.5951 -0.3572
  209ACOH    H110570   4.997   3.064   3.923  1.0636  0.0963 -0.7806
  209ACOH    H210571   5.002   3.201   4.026  1.2391 -0.4176  0.8449
  209ACOH    H310572   4.927   3.059   4.084 -0.1059  1.0111  0.9428
  210ACOH    H410573   5.453   7.234   3.582 -0.6178 -0.3957 -0.6296
  210ACOH    O210574   5.550   7.223   3.585 -0.5823 -0.0289 -0.3856
  210ACOH    C210575   5.601   7.246   3.705  0.4352 -0.5887  0.3012
  210ACOH    O110576   5.549   7.310   3.795  0.2868  0.2342 -0.7747
  210ACOH    C110577   5.745   7.211   3.713 -0.6927  0.4021 -0.6959
  210ACOH    H110578   5.779   7.206   3.816  1.5185 -2.6078 -1.5061
  210ACOH    H210579   5.810   7.275   3.652 -1.1210  0.2603 -1.3140
  210ACOH    H310580   5.763   7.111   3.673 -0.8519 -0.5834  1.6447
  211ACOH    H410581   7.965   8.000   0.984  0.1495 -0.7024 -0.0178
  211ACOH    O210582   7.894   8.033   0.927  0.2204 -0.2371  0.1554
  211ACOH    C210583   7.943   8.134   0.855  0.1113  0.6021  0.4000
  211ACOH    O110584   8.067   8.157   0.851 -0.0719  0.1657  0.2028
  211ACOH    C110585   7.849   8.177   0.756  0.1408  0.3249  1.0048
  211ACOH    H110586   7.829   8.283   0.769  2.7042  0.8361  1.1387
  211ACOH    H210587   7.753   8.129   0.775  0.1044  0.9262  2.4741
  211ACOH    H310588   7.881   8.152   0.655 -2.7155 -0.8047  0.3282
  212ACOH    H410589   7.271   2.271   7.642 -2.9730  1.7058  0.3476
  212ACOH    O210590   7.300   2.351   7.595  0.0586  0.5325  0.1328
  212ACOH    C210591   7.203   2.439   7.628 -0.1171  0.2254 -0.5896
  212ACOH    O110592   7.122   2.429   7.719  0.2528 -0.2101  0.4487
  212ACOH    C110593   7.220   2.557   7.542  0.2871 -0.0163 -0.1734
  212ACOH    H110594   7.130   2.564   7.481  0.0860 -2.7256 -0.2322
  212ACOH    H210595   7.303   2.556   7.473 -1.3487  0.1689 -2.1929
  212ACOH    H310596   7.222   2.647   7.604 -1.3623 -0.0407 -0.0369
  213ACOH    H410597   7.387   8.154   4.408 -1.9993 -0.2125  0.2329
  213ACOH    O210598   7.373   8.157   4.504  0.2369 -0.0912  0.5834
  213ACOH    C210599   7.248   8.198   4.533 -0.1443  0.0741  0.2747
  213ACOH    O110600   7.160   8.198   4.443 -0.7936 -0.7605 -0.1205
  213ACOH    C110601   7.206   8.190   4.674  0.5574 -0.5022  0.3551
  213ACOH    H110602   7.127   8.263   4.690  0.1635 -1.0318  0.8070
  213ACOH    H210603   7.291   8.213   4.739  0.8886  3.8417 -1.4203
  213ACOH    H310604   7.172   8.088   4.691  0.1158 -0.2565  0.9501
  214ACOH    H410605   4.108   7.459   6.306 -3.8105 -2.2794 -0.4039
  214ACOH    O210606   4.113   7.430   6.399  0.1254  0.4134  0.3742
  214ACOH    C210607   4.242   7.413   6.428  0.4770 -0.9356  0.1492
  214ACOH    O110608   4.334   7.449   6.361 -0.0976  0.3177  0.3578
  214ACOH    C110609   4.250   7.360   6.569 -0.5473 -0.0199 -0.0749
  214ACOH    H110610   4.337   7.404   6.619  0.3063 -2.6783  0.8326
  214ACOH    H210611   4.269   7.253   6.574 -2.2783 -0.2926  0.7938
  214ACOH    H310612   4.163   7.390   6.627  0.4134 -0.5188  1.6368
  215ACOH    H410613   5.657   4.554   7.481 -1.0742  1.2683  0.8940
  215ACOH    O210614   5.642   4.586   7.390  0.2290  0.2619  0.3068
  215ACOH    C210615   5.538   4.519   7.343  0.6443  0.6234 -0.1172
  215ACOH    O110616   5.479   4.428   7.399  0.1853 -0.3115 -0.3124
  215ACOH    C110617   5.512   4.550   7.201  0.1541 -1.4729 -0.3441
  215ACOH    H110618   5.577   4.635   7.176  0.3603 -0.9992  1.7626
  215ACOH    H210619   5.408   4.577   7.185  0.2741  0.0467  1.3818
  215ACOH    H310620   5.521   4.458   7.143 -1.0367 -2.0604  0.3959
  216ACOH    H410621   4.918   2.952   6.222 -2.5981  0.6268  1.1496
  216ACOH    O210622   4.939   2.885   6.289 -0.4847  0.4067  0.3268
  216ACOH    C210623   4.842   2.905   6.382 -0.1036 -0.1406 -0.5938
  216ACOH    O110624   4.760   2.994   6.385  0.0382 -0.6019 -0.0089
  216ACOH    C110625   4.851   2.795   6.485  0.1007  0.0900  0.5818
  216ACOH    H110626   4.781   2.823   6.564 -0.3393 -1.9065  0.9197
  216ACOH    H210627   4.952   2.782   6.522  0.0932 -0.5080  0.3846
  216ACOH    H310628   4.818   2.700   6.442 -1.6065  0.6251  0.6560
  217ACOH    H410629   4.527   7.536   6.098 -1.8899  1.0004  0.5228
  217ACOH    O210630   4.473   7.524   6.018 -0.5555 -0.2731 -0.2223
  217ACOH    C210631   4.440   7.389   6.017 -0.4705 -0.0283  0.2200
  217ACOH    O110632   4.475   7.298   6.088 -0.1793 -0.0287 -0.2066
  217ACOH    C110633   4.327   7.359   5.919  0.2317 -0.1996 -0.5400
  217ACOH    H110634   4.368   7.353   5.819  2.2780  0.1550  0.2581
  217ACOH    H210635   4.262   7.446   5.910  0.8076  0.4832  1.4643
  217ACOH    H310636   4.275   7.265   5.939 -1.7839  0.3118 -3.0952
  218ACOH    H410637   7.024   0.133   8.004 -1.0305 -1.0842 -1.5694
  218ACOH    O210638   6.950   0.189   8.032  0.5506  0.1239  0.3292
  218ACOH    C210639   6.852   0.108   8.072  0.7025  0.3051  0.3135
  218ACOH    O110640   6.872  -0.008   8.103 -0.0479  0.2935  0.4815
  218ACOH    C110641   6.725   0.176   8.107 -0.3948  0.4918 -0.6435
  218ACOH    H110642   6.637   0.127   8.065 -1.2560 -0.0177  1.6815
  218ACOH    H210643   6.728   0.280   8.077  2.4536  0.6661  0.1412
  218ACOH    H310644   6.709   0.165   8.215  0.3644 -0.0141 -0.5725
  219ACOH    H410645   9.709   2.396   6.360  0.4442 -0.1290 -0.4221
  219ACOH    O210646   9.726   2.371   6.268  1.1314 -0.3156 -0.2438
  219ACOH    C210647   9.647   2.439   6.197  0.3095 -0.4141 -0.3627
  219ACOH    O110648   9.546   2.496   6.226  0.2234  0.1651  0.2548
  219ACOH    C110649   9.687   2.442   6.056  0.1066  0.3051  1.0879
  219ACOH    H110650   9.772   2.374   6.049  0.3062  0.4956  1.6726
  219ACOH    H210651   9.711   2.540   6.016  0.3926 -0.6461 -1.1306
  219ACOH    H310652   9.611   2.393   5.995  1.9984 -0.7161 -0.5000
  220ACOH    H410653   6.188   5.928   0.800  0.6322 -1.8134 -0.7393
  220ACOH    O210654   6.232   5.954   0.717  0.0597 -0.0234 -0.5061
  220ACOH    C210655   6.330   6.047   0.738 -0.1893 -0.1880  0.1574
  220ACOH    O110656   6.385   6.069   0.848 -0.3213 -0.4916  0.0990
  220ACOH    C110657   6.394   6.087   0.610  0.0760 -0.1658  0.1331
  220ACOH    H110658   6.358   6.033   0.522  1.8008  3.4139 -2.9318
  220ACOH    H210659   6.500   6.061   0.602  0.0394  0.1382 -1.7223
  220ACOH    H310660   6.386   6.195   0.593 -0.0363 -0.0926  0.6543
  221ACOH    H410661   7.177   4.062   6.308  0.3780 -0.4469  1.0362
  221ACOH    O210662   7.112   4.130   6.330  0.5451 -0.0085  0.2023
  221ACOH    C210663   7.184   4.247   6.329 -0.4458 -0.9364 -0.4258
  221ACOH    O110664   7.306   4.259   6.326  0.2266 -0.6758  0.1980
  221ACOH    C110665   7.102   4.370   6.336 -0.2055 -0.0863 -0.0914
  221ACOH    H110666   7.039   4.376   6.424 -1.5287 -0.8765 -0.9646
  221ACOH    H210667   7.032   4.373   6.252  1.1336  0.3851 -1.2146
  221ACOH    H310668   7.162   4.461   6.326 -0.8784  0.4958  1.0934
  222ACOH    H410669   7.452   5.201   6.135 -0.8745  1.5864 -0.0708
  222ACOH    O210670   7.423   5.169   6.048 -0.0884  0.5374  0.0534
  222ACOH    C210671   7.437   5.273   5.966  0.1698 -0.0471  0.4501
  222ACOH    O110672   7.474   5.383   5.993  0.1125  0.4950 -0.7097
  222ACOH    C110673   7.389   5.242   5.825 -0.3809  0.2778  0.1203
  222ACOH    H110674   7.467   5.256   5.750  0.0759 -1.3635  0.2613
  222ACOH    H210675   7.302   5.304   5.803  0.1124  0.1705 -2.2233
  222ACOH    H310676   7.353   5.139   5.826  0.3409  0.0309  1.7389
  223ACOH    H410677   7.201   7.418   2.097  3.1886 -0.1081  0.0918
  223ACOH    O210678   7.182   7.345   2.036 -0.7057  1.0677 -0.2658
  223ACOH    C210679   7.215   7.393   1.915 -0.0844 -0.3137 -0.2582
  223ACOH    O110680   7.294   7.491   1.903 -0.7188  0.1156 -0.2091
  223ACOH    C110681   7.178   7.304   1.805  0.0062  0.7037  0.1788
  223ACOH    H110682   7.229   7.328   1.712  0.1220  2.1870  0.6151
  223ACOH    H210683   7.070   7.316   1.796 -0.4041 -0.8660  2.5751
  223ACOH    H310684   7.212   7.202   1.823  2.1051  2.1436  5.3578
  224ACOH    H410685   0.177   3.604   7.717  2.1006 -2.8680 -1.3771
  224ACOH    O210686   0.219   3.589   7.803  0.1899  0.2374  0.2002
  224ACOH    C210687   0.192   3.689   7.890  0.2069  0.5369 -0.6379
  224ACOH    O110688   0.148   3.799   7.864  0.6148 -0.5618  0.0882
  224ACOH    C110689   0.214   3.646   8.029 -0.2922  0.5179  0.1541
  224ACOH    H110690   0.187   3.725   8.099  0.1868 -0.2082  1.1614
  224ACOH    H210691   0.317   3.612   8.028  0.4253  2.6403  0.2645
  224ACOH    H310692   0.148   3.559   8.041 -0.8352  0.8963 -0.0654
  225ACOH    H410693   5.990   1.574   6.306 -1.1718  1.1100 -1.0449
  225ACOH    O210694   5.915   1.602   6.362 -0.5384 -0.0303  0.3873
  225ACOH    C210695   5.960   1.699   6.446  0.1519  0.0124  0.2818
  225ACOH    O110696   6.068   1.752   6.442 -1.0166  0.5208 -0.7850
  225ACOH    C110697   5.849   1.725   6.544 -0.2195  1.0426  0.1450
  225ACOH    H110698   5.896   1.708   6.641 -1.3258  0.8972  0.6764
  225ACOH    H210699   5.763   1.657   6.548  0.0439  0.8026  2.8419
  225ACOH    H310700   5.820   1.830   6.555 -0.2816  1.0290  0.1114
  226ACOH    H410701   7.530   9.129   7.722 -0.5364 -1.2573 -0.7147
  226ACOH    O210702   7.625   9.121   7.705 -0.2688 -0.1878  0.1838
  226ACOH    C210703   7.697   9.171   7.805 -0.0497 -0.3590 -0.1886
  226ACOH    O110704   7.653   9.228   7.904 -0.2309 -0.5519  0.8787
  226ACOH    C110705   7.840   9.138   7.783 -0.0779  0.5642  0.3685
  226ACOH    H110706   7.885   9.127   7.882 -0.3545 -1.5279  0.2794
  226ACOH    H210707   7.899   9.215   7.734  1.0078 -0.8003 -0.5150
  226ACOH    H310708   7.843   9.046   7.726 -1.5281 -0.4243  1.8479
  227ACOH    H410709   5.739   7.277   3.020  0.0241 -1.9829 -0.0239
  227ACOH    O210710   5.652   7.274   2.976  0.0987 -0.2613 -0.3120
  227ACOH    C210711   5.675   7.321   2.855  0.6470 -0.3207  0.9454
  227ACOH    O110712   5.775   7.377   2.816  0.3001 -0.1415 -0.4051
  227ACOH    C110713   5.550   7.310   2.778  0.3593  0.1491 -1.0132
  227ACOH    H110714   5.563   7.300   2.671 -1.5997  1.7948 -1.4386
  227ACOH    H210715   5.493   7.401   2.796  0.9959  0.7288 -1.9272
  227ACOH    H310716   5.492   7.221   2.803  1.2076  0.0709  0.7261
  228ACOH    H410717   7.231   4.566   7.554 -0.4565  1.2347  2.1715
  228ACOH    O210718   7.182   4.489   7.587 -0.0703 -0.0908 -0.2420
  228ACOH    C210719   7.052   4.496   7.546  0.2667 -0.6527 -0.3528
  228ACOH    O110720   7.000   4.603   7.514 -0.2998 -0.2442  0.3602
  228ACOH    C110721   6.974   4.377   7.589 -0.0365  0.1529 -0.3923
  228ACOH    H110722   6.868   4.395   7.568 -0.2518  1.1794  1.4500
  228ACOH    H210723   6.986   4.373   7.697  0.7375  1.9083 -0.3910
  228ACOH    H310724   7.019   4.289   7.542  2.9732  2.0258 -1.1352
  229ACOH    H410725   5.097   9.503   7.584 -0.0978  0.1086  1.9129
  229ACOH    O210726   5.182   9.550   7.578 -0.3204  0.2795 -0.3009
  229ACOH    C210727   5.168   9.673   7.528  0.1067  0.2303  0.1770
  229ACOH    O110728   5.075   9.739   7.566 -0.1426  0.0337  0.3821
  229ACOH    C110729   5.302   9.725   7.510 -0.7214  0.2406 -0.0387
  229ACOH    H110730   5.309   9.813   7.445 -1.3101 -0.6168 -1.2755
  229ACOH    H210731   5.372   9.648   7.479  1.5307  0.9830  2.9525
  229ACOH    H310732   5.331   9.745   7.613 -0.3933  1.0531 -0.2786
  230ACOH    H410733   7.074   7.321   8.104  0.2865 -0.5973 -0.6313
  230ACOH    O210734   7.113   7.275   8.180 -0.3948  0.1179  0.1535
  230ACOH    C210735   7.095   7.152   8.159  0.0296  0.4812 -0.6461
  230ACOH    O110736   7.026   7.099   8.073 -0.7924 -0.4766 -0.3705
  230ACOH    C110737   7.171   7.073   8.251  0.1487  0.3722 -0.6530
  230ACOH    H110738   7.191   6.972   8.216  0.0453 -0.9049  2.7964
  230ACOH    H210739   7.118   7.069   8.346 -3.8708 -1.3373 -2.8168
  230ACOH    H310740   7.264   7.130   8.258  0.1925  0.1982  0.2533
  231ACOH    H410741   7.256   6.010   7.461  0.5507 -0.4773  1.0045
  231ACOH    O210742   7.222   6.088   7.507  0.2306  0.1058 -0.1981
  231ACOH    C210743   7.136   6.037   7.594 -0.3637  0.8988 -0.0911
  231ACOH    O110744   7.067   5.945   7.560  0.1454  0.0891  0.1694
  231ACOH    C110745   7.108   6.131   7.704 -0.0790  0.3994  0.4549
  231ACOH    H110746   7.184   6.119   7.781 -0.8252  0.5790  1.2262
  231ACOH    H210747   7.010   6.117   7.750  0.2589 -1.5244  0.6154
  231ACOH    H310748   7.110   6.237   7.678  0.5532  0.6178  1.3596
  232ACOH    H410749   5.120   4.762   2.177  1.8133 -0.1034 -0.1651
  232ACOH    O210750   5.106   4.668   2.158  0.0456  0.1161 -0.0827
  232ACOH    C210751   5.190   4.631   2.062  0.5495 -0.1761 -0.1234
  232ACOH    O110752   5.280   4.693   2.008 -0.8514 -0.3355 -0.2949
  232ACOH    C110753   5.142   4.495   2.011 -0.2443  0.3759  0.9668
  232ACOH    H110754   5.214   4.439   1.952 -0.0021 -0.5205  2.0873
  232ACOH    H210755   5.048   4.498   1.955  0.9593 -1.0597 -1.1909
  232ACOH    H310756   5.114   4.430   2.094  0.0510  0.6558  1.2861
  233ACOH    H410757   1.624   4.064   6.650  2.3750  0.7553  0.6127
  233ACOH    O210758   1.579   4.148   6.630  0.5020 -0.4383 -0.3270
  233ACOH    C210759   1.659   4.246   6.666  0.5588  0.2759 -0.5144
  233ACOH    O110760   1.766   4.248   6.727 -0.0605  0.0962  0.4426
  233ACOH    C110761   1.591   4.375   6.621  0.1732  0.1157 -0.5507
  233ACOH    H110762   1.660   4.456   6.597 -0.9985  1.3702  0.2868
  233ACOH    H210763   1.528   4.412   6.701  1.8282  0.7245  0.4739
  233ACOH    H310764   1.526   4.351   6.537  2.5191 -0.2015 -2.3358
  234ACOH    H410765   6.334   7.106   5.667 -0.9248  2.0985  0.9787
  234ACOH    O210766   6.392   7.090   5.743 -0.3261 -0.2489  0.0692
  234ACOH    C210767   6.315   7.064   5.850  0.4534 -0.6000  0.6066
  234ACOH    O110768   6.193   7.060   5.852  0.2988 -0.4988  0.2276
  234ACOH    C110769   6.392   7.023   5.969 -0.1658 -0.3963  0.2175
  234ACOH    H110770   6.472   7.096   5.989 -0.5436  0.8566 -2.6315
  234ACOH    H210771   6.434   6.927   5.939 -0.1873  0.3996 -2.4579
  234ACOH    H310772   6.332   7.021   6.060 -0.3875  0.6208  0.1022
  235ACOH    H410773   5.892   7.472   5.797 -3.3817 -1.7535 -1.3401
  235ACOH    O210774   5.952   7.417   5.743 -0.5042  0.2514 -0.2916
  235ACOH    C210775   5.860   7.345   5.669  0.0632  0.0061 -0.4183
  235ACOH    O110776   5.740   7.364   5.654 -0.2275  0.0906 -0.0297
  235ACOH    C110777   5.931   7.239   5.601  0.3225  0.0190 -0.5770
  235ACOH    H110778   5.995   7.187   5.673 -0.8754  0.0154  0.4993
  235ACOH    H210779   5.988   7.289   5.523  1.7882  0.0983  0.5071
  235ACOH    H310780   5.865   7.166   5.555 -0.9255  0.3887  0.5651
  236ACOH    H410781   5.729  10.078   4.950 -0.4994  0.3909  0.9295
  236ACOH    O210782   5.648  10.047   4.907  0.0422 -0.5838  0.5959
  236ACOH    C210783   5.655   9.908   4.904 -0.2012 -0.0824 -1.3165
  236ACOH    O110784   5.757   9.840   4.919 -0.1610 -0.0580 -0.1818
  236ACOH    C110785   5.529   9.847   4.858 -0.6751  0.9128  0.5333
  236ACOH    H110786   5.542   9.802   4.759  0.9816 -1.6015  1.8315
  236ACOH    H210787   5.450   9.921   4.848 -0.9871  0.8919  2.6192
  236ACOH    H310788   5.496   9.788   4.944 -3.8533  2.2202  0.2887
  237ACOH    H410789   4.999   3.747   2.072  0.8297 -0.1697  3.6110
  237ACOH    O210790   5.084   3.701   2.060  0.5914  0.2168 -0.0813
  237ACOH    C210791   5.187   3.785   2.028  0.3115  0.2074  0.1201
  237ACOH    O110792   5.192   3.905   2.025 -0.4682  0.0901 -0.6996
  237ACOH    C110793   5.319   3.713   2.028 -0.3242  0.0230  0.2386
  237ACOH    H110794   5.328   3.671   1.928 -0.9755 -0.2984  0.3160
  237ACOH    H210795   5.315   3.623   2.088  2.3696 -0.4143 -0.1398
  237ACOH    H310796   5.405   3.780   2.043  0.6454 -1.5157  1.6977
  238ACOH    H410797   9.681   3.104   0.290 -0.0259 -1.0611  2.5805
  238ACOH    O210798   9.775   3.083   0.279 -0.1667 -0.3394 -0.2886
  238ACOH    C210799   9.841   3.072   0.401  0.0123 -0.6234  0.2494
  238ACOH    O110800   9.957   3.031   0.411  0.0306 -0.7257  0.1155
  238ACOH    C110801   9.767   3.121   0.519 -0.1481  0.2740 -0.6661
  238ACOH    H110802   9.660   3.111   0.506 -0.2386 -0.8963  0.8828
  238ACOH    H210803   9.797   3.226   0.522  0.7204  0.1139 -2.5021
  238ACOH    H310804   9.810   3.074   0.607  2.1892  1.3799 -1.1744
  239ACOH    H410805   1.093   7.656   2.864 -0.5897  2.6013  0.3054
  239ACOH    O210806   1.002   7.624   2.868  0.2578  0.0035 -0.1873
  239ACOH    C210807   0.951   7.689   2.978  0.5658  0.1509 -0.0975
  239ACOH    O110808   1.007   7.775   3.046 -0.7718  0.0821  0.3275
  239ACOH    C110809   0.823   7.622   3.017 -0.7819  0.6758  0.2901
  239ACOH    H110810   0.798   7.647   3.120  1.7142 -1.5503  1.4917
  239ACOH    H210811   0.835   7.514   3.009 -0.2565  0.8047 -0.7440
  239ACOH    H310812   0.735   7.642   2.956 -0.4798  0.8061 -0.0996
  240ACOH    H410813   5.378   6.525   2.034  1.6740  0.3712 -1.4025
  240ACOH    O210814   5.425   6.449   2.071  0.4977  0.1582 -0.3111
  240ACOH    C210815   5.341   6.372   2.134 -0.2291  0.5686 -0.0276
  240ACOH    O110816   5.219   6.377   2.122  1.0636 -0.1571 -0.4162
  240ACOH    C110817   5.408   6.275   2.223  0.8740 -0.5186  0.3346
  240ACOH    H110818   5.414   6.179   2.173  0.6213 -0.9447  1.1222
  240ACOH    H210819   5.344   6.271   2.311  0.2223  1.1940 -0.0377
  240ACOH    H310820   5.507   6.313   2.247 -0.4436  1.4989  2.8479
  241ACOH    H410821   7.061   9.238   7.520  2.1266 -0.8379  0.2276
  241ACOH    O210822   6.999   9.196   7.581  0.4913  0.5577 -0.4360
  241ACOH    C210823   7.056   9.076   7.608  0.3688  0.4902 -0.5814
  241ACOH    O110824   7.160   9.030   7.563 -0.0351  0.3712  0.4197
  241ACOH    C110825   6.975   9.007   7.709  0.0449  0.4955  0.1750
  241ACOH    H110826   6.960   8.902   7.680  0.2021  0.8424 -1.2007
  241ACOH    H210827   6.880   9.058   7.721  0.5018  1.4848 -0.3990
  241ACOH    H310828   7.031   9.000   7.802 -2.9051 -0.1230  1.9611
  242ACOH    H410829   7.444   5.874   4.435 -1.0073  1.9418 -0.9993
  242ACOH    O210830   7.460   5.826   4.352 -0.3311 -0.1044  0.2784
  242ACOH    C210831   7.433   5.921   4.262  0.3975  0.1361 -0.5987
  242ACOH    O110832   7.411   6.038   4.286 -0.6103 -0.5080  0.1911
  242ACOH    C110833   7.422   5.873   4.125 -0.6513  0.1665 -0.1991
  242ACOH    H110834   7.494   5.924   4.061 -1.0066 -1.8470 -2.2371
  242ACOH    H210835   7.321   5.893   4.088 -0.3410  1.9280 -0.1694
  242ACOH    H310836   7.439   5.766   4.130 -0.0406  0.2805  0.4155
  243ACOH    H410837   3.990   6.305   4.277  1.8198 -0.3449 -0.0644
  243ACOH    O210838   3.997   6.213   4.246  0.4940 -0.4808  0.0048
  243ACOH    C210839   4.007   6.140   4.358  0.1039 -0.7743  0.8750
  243ACOH    O110840   4.003   6.188   4.470  0.5277  0.1088 -0.5907
  243ACOH    C110841   4.002   5.991   4.334 -1.0369 -0.0401  0.3439
  243ACOH    H110842   4.044   5.932   4.416  0.5219  1.1212  0.4011
  243ACOH    H210843   4.061   5.966   4.245 -3.2562  0.3489 -1.2858
  243ACOH    H310844   3.899   5.968   4.306  0.2223 -3.2100 -1.9572
  244ACOH    H410845   0.023   1.190   5.775  0.2536  3.1296 -4.0964
  244ACOH    O210846   0.092   1.243   5.818 -0.0365  0.0033  0.6202
  244ACOH    C210847   0.128   1.188   5.934  0.4756 -0.0563  0.1790
  244ACOH    O110848   0.157   1.069   5.944 -0.9873 -0.4656 -0.2061
  244ACOH    C110849   0.194   1.285   6.018 -0.1106 -0.1527  0.7022
  244ACOH    H110850   0.156   1.386   6.004  1.4650  0.7969  2.9318
  244ACOH    H210851   0.303   1.292   6.017  0.0152 -1.2811  3.0434
  244ACOH    H310852   0.177   1.267   6.124 -0.1133 -2.4578  0.3310
  245ACOH    H410853   9.569   1.783   1.568  0.2785 -2.9089  0.0497
  245ACOH    O210854   9.613   1.789   1.654 -0.0047  0.2638  0.0236
  245ACOH    C210855   9.543   1.708   1.740 -0.3022  0.0084  0.4557
  245ACOH    O110856   9.439   1.648   1.713  0.0300 -0.3801  0.1020
  245ACOH    C110857   9.614   1.687   1.868  0.4064 -0.1845  0.0868
  245ACOH    H110858   9.564   1.755   1.937  0.2404  1.0540 -1.2342
  245ACOH    H210859   9.715   1.724   1.852  0.8839 -2.6383 -3.0352
  245ACOH    H310860   9.616   1.582   1.897  1.4492 -0.2411 -0.1676
  246ACOH    H410861   6.339   5.186   1.740 -0.0706  0.3277 -0.4885
  246ACOH    O210862   6.253   5.219   1.771 -0.0322 -0.4412  0.4911
  246ACOH    C210863   6.275   5.353   1.775 -0.9441 -0.3237  0.2080
  246ACOH    O110864   6.386   5.406   1.790  0.6751 -0.1198  0.3119
  246ACOH    C110865   6.145   5.428   1.769 -0.0644 -0.2580  0.1224
  246ACOH    H110866   6.121   5.456   1.667  1.8179 -1.2292 -0.6151
  246ACOH    H210867   6.161   5.524   1.817  0.4855 -0.2389 -0.0913
  246ACOH    H310868   6.058   5.380   1.814 -0.0149 -1.2191 -0.7611
  247ACOH    H410869   4.840   3.701   6.485 -0.7063 -0.4277  0.8692
  247ACOH    O210870   4.928   3.666   6.464 -0.5648  0.2512  0.3227
  247ACOH    C210871   4.964   3.581   6.561 -0.2438  0.0022 -0.4189
  247ACOH    O110872   4.903   3.553   6.664  0.1325 -0.4490 -0.7527
  247ACOH    C110873   5.098   3.512   6.535 -0.0767  0.2695  0.1746
  247ACOH    H110874   5.137   3.467   6.626 -0.9390 -1.1606 -0.1403
  247ACOH    H210875   5.164   3.576   6.477 -0.2568 -0.5247 -0.9194
  247ACOH    H310876   5.082   3.420   6.479 -2.0146  0.9579 -0.4432
  248ACOH    H410877   3.358   5.337   3.434 -0.6191 -1.0999  0.2204
  248ACOH    O210878   3.333   5.426   3.463  0.3872 -0.8489  0.3557
  248ACOH    C210879   3.427   5.501   3.413 -0.4909 -0.2370  0.1733
  248ACOH    O110880   3.506   5.470   3.324 -0.3725 -0.2768  0.5547
  248ACOH    C110881   3.424   5.641   3.463 -0.4489  0.1190  0.4158
  248ACOH    H110882   3.375   5.643   3.560  0.7592  1.3074  1.0290
  248ACOH    H210883   3.362   5.701   3.397  0.3356  0.7159  0.2127
  248ACOH    H310884   3.525   5.683   3.460 -0.6849  0.7478  1.1772
  249ACOH    H410885   6.097   7.335   3.379 -0.1284 -1.2840 -0.4906
  249ACOH    O210886   6.125   7.337   3.286 -0.4083  0.2388 -0.5470
  249ACOH    C210887   6.257   7.374   3.280  0.6681  0.6452 -0.1239
  249ACOH    O110888   6.330   7.403   3.376 -0.1796 -0.8748 -0.2348
  249ACOH    C110889   6.315   7.348   3.147 -0.4246  0.6494  0.0862
  249ACOH    H110890   6.244   7.357   3.065  1.1750 -1.0747 -1.5502
  249ACOH    H210891   6.343   7.245   3.129  0.3187  1.1501 -1.7024
  249ACOH    H310892   6.389   7.425   3.127  0.3782  0.3298  1.7129
  250ACOH    H410893   7.422   8.036   2.213 -0.1819 -1.9528  2.3252
  250ACOH    O210894   7.464   7.985   2.143  0.0579  0.0312  0.9796
  250ACOH    C210895   7.413   7.860   2.138 -0.7200 -0.0629  0.8487
  250ACOH    O110896   7.338   7.816   2.220  0.5519 -0.0500 -0.2980
  250ACOH    C110897   7.463   7.785   2.020  1.6117  0.6412 -0.0820
  250ACOH    H110898   7.403   7.695   2.010  1.2996  0.5663  2.3076
  250ACOH    H210899   7.568   7.759   2.040  1.0331 -1.1805  0.7244
  250ACOH    H310900   7.451   7.849   1.932  0.7246  0.2852 -0.2240
  251ACOH    H410901   3.239   4.940   7.434 -0.4624 -0.8331 -0.8304
  251ACOH    O210902   3.221   5.023   7.387  0.2604 -0.2716 -0.1197
  251ACOH    C210903   3.154   5.106   7.472 -0.1087 -0.0966  0.1929
  251ACOH    O110904   3.111   5.089   7.585 -0.8316 -0.0169 -0.6381
  251ACOH    C110905   3.146   5.245   7.420 -0.3883 -0.0283 -0.1386
  251ACOH    H110906   3.177   5.245   7.315  1.5422  1.2559  0.4063
  251ACOH    H210907   3.202   5.318   7.479  2.1541 -0.8657 -1.4694
  251ACOH    H310908   3.042   5.278   7.417  0.2304  2.2335  1.9197
  252ACOH    H410909   4.465   5.365   7.489 -1.5561 -1.1253 -0.6588
  252ACOH    O210910   4.462   5.364   7.587 -1.1343 -0.0538 -0.6230
  252ACOH    C210911   4.592   5.382   7.625 -0.4035  0.8489  0.3787
  252ACOH    O110912   4.677   5.422   7.551 -0.0853 -0.8800 -0.1893
  252ACOH    C110913   4.604   5.372   7.773  0.5913 -0.1674  0.4660
  252ACOH    H110914   4.506   5.366   7.821  1.2038 -1.7045  1.5725
  252ACOH    H210915   4.664   5.456   7.808 -1.4315  0.8978  1.4396
  252ACOH    H310916   4.649   5.276   7.797  0.8974  0.0265  0.6711
  253ACOH    H410917   4.331   2.346   0.744 -1.4058 -0.5562  0.5373
  253ACOH    O210918   4.276   2.371   0.668 -0.1177 -0.0854 -0.2622
  253ACOH    C210919   4.231   2.498   0.695 -0.7385 -0.2137 -0.1136
  253ACOH    O110920   4.239   2.558   0.803 -0.2436  0.4866  0.5451
  253ACOH    C110921   4.175   2.555   0.572  0.3828  0.6491  0.0082
  253ACOH    H110922   4.247   2.627   0.534  0.6285  0.4415  0.0775
  253ACOH    H210923   4.084   2.610   0.594  1.2963  2.3708 -0.4154
  253ACOH    H310924   4.157   2.484   0.491 -0.6912 -2.6982  3.0285
  254ACOH    H410925   6.673   3.747   7.783 -0.5696 -0.1114  2.2936
  254ACOH    O210926   6.688   3.651   7.793  0.0155 -0.3527 -0.4408
  254ACOH    C210927   6.574   3.596   7.827  0.6250  0.0454  0.7578
  254ACOH    O110928   6.467   3.650   7.855  0.4405  0.3750 -0.0293
  254ACOH    C110929   6.588   3.448   7.825  0.2693  1.1576 -0.0031
  254ACOH    H110930   6.685   3.413   7.859 -0.4212 -0.3885  0.4136
  254ACOH    H210931   6.563   3.404   7.728 -2.0490  0.3218  0.9551
  254ACOH    H310932   6.514   3.394   7.883  0.0615 -1.2883 -2.4629
  255ACOH    H410933   7.133   1.944   6.606  0.1252 -0.2854  0.4818
  255ACOH    O210934   7.107   1.850   6.608  0.4463 -0.3879 -0.2522
  255ACOH    C210935   7.118   1.808   6.478 -0.6626  0.6856 -0.8534
  255ACOH    O110936   7.058   1.712   6.433 -0.4566 -0.2085 -0.0176
  255ACOH    C110937   7.163   1.904   6.378 -0.6212 -0.0213  0.4758
  255ACOH    H110938   7.074   1.947   6.332 -0.2267  1.0955  0.7248
  255ACOH    H210939   7.204   1.848   6.294 -1.9931 -1.6397  0.8677
  255ACOH    H310940   7.235   1.979   6.412 -0.3401 -0.3289  0.5692
  256ACOH    H410941   9.667   3.452   5.967  0.5929 -1.4394 -0.4563
  256ACOH    O210942   9.685   3.411   6.053 -0.1151 -0.2897  0.2553
  256ACOH    C210943   9.738   3.291   6.025  0.1239 -0.5037 -0.5755
  256ACOH    O110944   9.716   3.229   5.928  0.1096 -0.2581  0.0758
  256ACOH    C110945   9.796   3.234   6.152 -0.0859  0.3253 -0.6433
  256ACOH    H110946   9.850   3.313   6.204 -1.0620  0.2130  0.5847
  256ACOH    H210947   9.856   3.145   6.131  1.1653  1.2504 -0.9736
  256ACOH    H310948   9.712   3.204   6.216  1.1488 -2.1732 -0.1208
  257ACOH    H410949   6.815   2.151   5.983 -0.0293  0.3651  0.4084
  257ACOH    O210950   6.888   2.091   6.006 -0.1309  0.1258  0.1063
  257ACOH    C210951   6.828   1.967   6.029 -0.3486  0.2352 -0.9047
  257ACOH    O110952   6.710   1.944   6.043 -0.3463  0.0901  0.2490
  257ACOH    C110953   6.918   1.856   6.063 -0.4220  0.0200 -0.1397
  257ACOH    H110954   6.895   1.762   6.014  0.0718 -0.0341 -0.2761
  257ACOH    H210955   6.910   1.841   6.171 -1.8262 -2.2227 -0.5327
  257ACOH    H310956   7.023   1.887   6.059 -0.2056 -0.6600  0.1056
  258ACOH    H410957   7.847   8.800   2.129  0.0476 -0.7016  0.5731
  258ACOH    O210958   7.944   8.800   2.124  0.0097 -0.2334 -0.1577
  258ACOH    C210959   7.976   8.717   2.023  0.1270  0.7967 -0.1540
  258ACOH    O110960   7.908   8.639   1.958 -0.0177 -0.2101 -0.5820
  258ACOH    C110961   8.117   8.736   1.976 -0.3376  0.1144 -0.2275
  258ACOH    H110962   8.168   8.806   2.041 -1.5836  0.1225  0.7532
  258ACOH    H210963   8.116   8.771   1.873  0.3484  0.5215 -0.1001
  258ACOH    H310964   8.158   8.634   1.976 -0.6821 -0.0492  1.9750
  259ACOH    H410965   6.065   8.122   4.991 -2.7371 -0.4822  1.6884
  259ACOH    O210966   6.013   8.079   4.922 -0.1021 -0.3390 -0.4605
  259ACOH    C210967   5.906   8.158   4.904  0.0361  0.8143  0.1470
  259ACOH    O110968   5.912   8.274   4.923 -0.0069 -0.1432  0.4465
  259ACOH    C110969   5.788   8.106   4.829 -0.1330 -0.1335 -0.2157
  259ACOH    H110970   5.702   8.099   4.897 -1.8319  3.8211 -1.8008
  259ACOH    H210971   5.797   8.007   4.785  0.8545 -0.0840 -0.1339
  259ACOH    H310972   5.751   8.171   4.750 -1.7275  0.7653  1.2398
  260ACOH    H410973   4.194   0.590   6.187  1.2968 -1.2033 -0.4055
  260ACOH    O210974   4.253   0.633   6.251 -0.4035  0.1480  0.3105
  260ACOH    C210975   4.195   0.746   6.303  0.4115 -0.8275 -0.1963
  260ACOH    O110976   4.247   0.832   6.373 -0.2268 -0.5734  0.0826
  260ACOH    C110977   4.064   0.778   6.242  0.1038  0.2798  0.0056
  260ACOH    H110978   4.013   0.839   6.317 -3.0091 -1.5114 -0.5538
  260ACOH    H210979   4.006   0.686   6.235 -1.0322  1.0037 -0.2068
  260ACOH    H310980   4.070   0.813   6.139 -1.2539 -1.8610 -0.8440
  261ACOH    H410981   7.570   3.739   6.691  0.5368 -0.2146  3.1564
  261ACOH    O210982   7.499   3.802   6.711  0.3094  0.6171 -0.0209
  261ACOH    C210983   7.457   3.860   6.595  0.7749  0.5344  0.7198
  261ACOH    O110984   7.460   3.802   6.489  0.0454  0.1255  1.0890
  261ACOH    C110985   7.395   3.993   6.614 -0.0140  0.3316 -0.1488
  261ACOH    H110986   7.293   3.992   6.575 -0.0745 -1.0549  0.0117
  261ACOH    H210987   7.456   4.064   6.559 -1.6824  3.3516  1.7235
  261ACOH    H310988   7.385   4.019   6.720 -0.8927 -1.1753  0.1636
  262ACOH    H410989   7.862   3.846   1.334 -1.0423  0.4546 -1.6249
  262ACOH    O210990   7.845   3.925   1.389  0.0290 -0.1436 -0.3983
  262ACOH    C210991   7.910   4.034   1.339 -0.4306  0.1007 -0.4953
  262ACOH    O110992   7.997   4.032   1.253  0.2296  0.6075 -0.0024
  262ACOH    C110993   7.871   4.155   1.418  0.3611  0.2701  0.3554
  262ACOH    H110994   7.942   4.228   1.379 -0.4587  0.4119 -0.8715
  262ACOH    H210995   7.896   4.132   1.522  2.4124 -1.2183 -0.4309
  262ACOH    H310996   7.768   4.181   1.398  1.1501  0.8387 -3.2940
  263ACOH    H410997   5.203   4.916   5.109 -1.4361  1.3949 -1.5887
  263ACOH    O210998   5.193   4.830   5.065 -0.4696  0.5459 -0.1919
  263ACOH    C210999   5.178   4.727   5.154  1.0223  0.9570  0.2861
  263ACOH    O111000   5.122   4.741   5.262  0.2150 -0.7190  0.0238
  263ACOH    C111001   5.164   4.590   5.079 -0.1919  0.8278 -0.1813
  263ACOH    H111002   5.218   4.512   5.131  1.3316  1.9816  0.0127
  263ACOH    H211003   5.197   4.589   4.974 -0.5819 -2.1343 -0.3017
  263ACOH    H311004   5.059   4.563   5.069  0.4822 -1.5511 -1.2788
  264ACOH    H411005   0.432   1.395   7.576 -0.8429  2.5882 -0.2927
  264ACOH    O211006   0.507   1.440   7.534  0.2093  0.8887 -0.2968
  264ACOH    C211007   0.584   1.453   7.639  0.7100 -0.8714 -0.2719
  264ACOH    O111008   0.559   1.438   7.757 -0.0586 -0.1723  1.0089
  264ACOH    C111009   0.724   1.487   7.600 -0.1212  0.4188 -0.1864
  264ACOH    H111010   0.726   1.592   7.572 -1.1860  0.3683 -0.4760
  264ACOH    H211011   0.752   1.417   7.521 -2.1940 -2.0425  1.1397
  264ACOH    H311012   0.795   1.470   7.681  1.6397 -0.5259 -1.9102
  265ACOH    H411013   7.717   5.389   5.773 -2.3057 -0.8871  2.4566
  265ACOH    O211014   7.650   5.439   5.722 -0.1447 -0.0613  0.3027
  265ACOH    C211015   7.642   5.550   5.790 -0.2279  0.7301 -0.0210
  265ACOH    O111016   7.729   5.617   5.841 -0.3697  0.4650 -0.2755
  265ACOH    C111017   7.516   5.618   5.745 -0.3043  0.4256 -0.2088
  265ACOH    H111018   7.500   5.711   5.799 -0.1373  0.3887 -0.0988
  265ACOH    H211019   7.431   5.549   5.739 -0.4829  0.5315  0.9127
  265ACOH    H311020   7.525   5.634   5.637  1.5471  1.3195  0.0674
  266ACOH    H411021   7.426   6.422   4.522  2.0013 -2.0079 -0.5842
  266ACOH    O211022   7.450   6.414   4.616  0.2844  0.0086  0.0614
  266ACOH    C211023   7.418   6.533   4.672 -0.3386  0.1701  0.2097
  266ACOH    O111024   7.361   6.628   4.614 -0.1475  0.1453 -0.3096
  266ACOH    C111025   7.436   6.517   4.823  0.2034 -0.1482 -0.3534
  266ACOH    H111026   7.541   6.532   4.847  0.4655 -2.7212  0.2087
  266ACOH    H211027   7.386   6.427   4.859  0.2228  0.6831  1.8259
  266ACOH    H311028   7.380   6.594   4.876  0.1797  0.4778 -1.2711
  267ACOH    H411029   6.898   6.401   7.397 -1.2209  1.5038 -0.3311
  267ACOH    O211030   6.877   6.359   7.482  0.4971  0.2754 -0.4929
  267ACOH    C211031   6.868   6.457   7.574  0.1510 -0.5935  0.1068
  267ACOH    O111032   6.875   6.577   7.544  0.6214 -0.4219 -0.1050
  267ACOH    C111033   6.841   6.400   7.711 -0.1125 -0.1669  0.5827
  267ACOH    H111034   6.799   6.478   7.775 -0.1444  1.3291 -1.2123
  267ACOH    H211035   6.937   6.365   7.748  0.5275  1.6209  0.6683
  267ACOH    H311036   6.764   6.325   7.695 -0.4850  0.9611 -3.5487
  268ACOH    H411037   5.367   1.245   4.180 -0.6611 -0.1078 -0.7962
  268ACOH    O211038   5.341   1.325   4.228 -0.5404 -0.3195 -0.3833
  268ACOH    C211039   5.208   1.323   4.235  0.6908  1.2832 -0.1680
  268ACOH    O111040   5.140   1.231   4.200 -0.0105 -0.1386 -0.2832
  268ACOH    C111041   5.161   1.438   4.309 -0.7449 -0.1114 -0.1433
  268ACOH    H111042   5.090   1.407   4.386  0.9126  2.0928  2.3726
  268ACOH    H211043   5.106   1.501   4.240  0.0554  0.6846 -0.0610
  268ACOH    H311044   5.242   1.495   4.355  0.7785 -2.6476  0.4232
  269ACOH    H411045   7.846   8.582   0.993 -0.6089 -0.1613 -0.1385
  269ACOH    O211046   7.812   8.670   0.969  0.1426  0.2676  0.3688
  269ACOH    C211047   7.748   8.666   0.851 -0.8175 -0.3332  0.3688
  269ACOH    O111048   7.748   8.571   0.779 -0.1166  0.3407  0.6539
  269ACOH    C111049   7.678   8.796   0.843 -0.0586 -0.6939  0.0646
  269ACOH    H111050   7.581   8.781   0.892  0.4882 -0.2778  1.2942
  269ACOH    H211051   7.655   8.827   0.741  2.1711 -0.5119 -0.3998
  269ACOH    H311052   7.735   8.874   0.893  0.0738  0.6534 -2.1092
  270ACOH    H411053   4.594   8.949   0.390 -1.4682  0.1964 -3.0922
  270ACOH    O211054   4.670   8.906   0.346 -0.1704 -0.4161 -0.3762
  270ACOH    C211055   4.644   8.773   0.333  0.7167 -0.8437  0.0776
  270ACOH    O111056   4.540   8.721   0.361 -0.0085  1.1091  0.0029
  270ACOH    C111057   4.744   8.706   0.255 -0.0793  0.0072  0.4071
  270ACOH    H111058   4.705   8.693   0.155 -0.7809  0.3671  0.6320
  270ACOH    H211059   4.752   8.612   0.309 -1.0390  0.4034  1.2646
  270ACOH    H311060   4.839   8.761   0.256  0.2317 -0.5167 -0.4747
  271ACOH    H411061   7.536   2.180   6.455  0.5560 -1.0925 -1.0649
  271ACOH    O211062   7.565   2.180   6.548 -0.1197 -0.2970 -0.8463
  271ACOH    C211063   7.700   2.172   6.542 -0.4092  0.3907 -0.4779
  271ACOH    O111064   7.766   2.181   6.440  0.6923  0.1235  0.5012
  271ACOH    C111065   7.752   2.175   6.677 -0.3123  0.7820 -0.0694
  271ACOH    H111066   7.845   2.117   6.681 -0.9297 -0.1450  1.7204
  271ACOH    H211067   7.692   2.131   6.757  0.2942  0.7113  0.3519
  271ACOH    H311068   7.774   2.279   6.703 -0.0753  0.5257  0.7718
  272ACOH    H411069   4.316   6.685   4.408 -0.4359  0.1599 -0.4899
  272ACOH    O211070   4.354   6.728   4.329  0.0095 -0.1007 -0.4200
  272ACOH    C211071   4.248   6.761   4.255 -0.5009 -0.1171  0.3121
  272ACOH    O111072   4.128   6.723   4.262  0.2821 -0.8015 -0.6314
  272ACOH    C111073   4.305   6.832   4.136 -0.0993 -0.4168  0.4901
  272ACOH    H111074   4.406   6.867   4.156 -0.6914  0.2829  2.4131
  272ACOH    H211075   4.246   6.923   4.119  0.4586 -0.6477 -3.0159
  272ACOH    H311076   4.306   6.764   4.052 -1.1525 -1.0852  0.9932
  273ACOH    H411077   6.237   4.888   0.114  0.4115  0.0973 -0.6637
  273ACOH    O211078   6.259   4.815   0.175  0.3519  0.5494 -0.1005
  273ACOH    C211079   6.275   4.708   0.095  0.4855  0.2513 -0.2753
  273ACOH    O111080   6.224   4.697  -0.016 -0.0890  0.3584  0.3247
  273ACOH    C111081   6.331   4.592   0.172 -0.2125 -0.3304 -0.6157
  273ACOH    H111082   6.264   4.554   0.249  0.6343 -0.2655  0.1651
  273ACOH    H211083   6.416   4.629   0.228 -0.3779 -0.3133 -0.3747
  273ACOH    H311084   6.359   4.513   0.102 -0.3826 -0.3237 -0.6938
  274ACOH    H411085   4.506   2.553   7.373  0.0520 -0.3590 -0.5827
  274ACOH    O211086   4.519   2.631   7.317 -0.1465  0.0198 -0.1116
  274ACOH    C211087   4.525   2.590   7.187  0.2607  0.0045 -0.4378
  274ACOH    O111088   4.493   2.484   7.135 -0.7130 -0.3227  0.3480
  274ACOH    C111089   4.590   2.699   7.110 -0.0351  0.1769 -0.0485
  274ACOH    H111090   4.551   2.796   7.140  1.3881  0.6866  0.2072
  274ACOH    H211091   4.566   2.690   7.004 -0.0873 -0.8338  0.0417
  274ACOH    H311092   4.697   2.696   7.133  0.2248  0.6719 -1.1571
  275ACOH    H411093   3.521   7.139   0.405  1.6102 -0.9678  1.2807
  275ACOH    O211094   3.526   7.228   0.445  0.1896 -0.1576 -0.2715
  275ACOH    C211095   3.534   7.322   0.348 -0.3380  0.4733  0.6308
  275ACOH    O111096   3.568   7.305   0.234 -0.2865  0.3595  0.5524
  275ACOH    C111097   3.516   7.451   0.416 -0.0042 -0.0694 -0.2708
  275ACOH    H111098   3.592   7.469   0.492 -1.8141  2.9433  0.9283
  275ACOH    H211099   3.428   7.438   0.479 -0.6201  1.5341 -0.7918
  275ACOH    H311100   3.495   7.536   0.352  3.0073  0.8880 -0.0728
  276ACOH    H411101   3.627   6.414   0.113  0.0227  0.3042  0.3035
  276ACOH    O211102   3.722   6.392   0.116 -0.0533  0.0004  0.4521
  276ACOH    C211103   3.738   6.267   0.159  0.1982 -0.2497  0.1424
  276ACOH    O111104   3.658   6.209   0.226 -0.3564  0.4048  0.1841
  276ACOH    C111105   3.881   6.235   0.141  0.6353  0.1938 -0.6727
  276ACOH    H111106   3.911   6.162   0.216 -0.1429  0.3536 -0.1979
  276ACOH    H211107   3.942   6.323   0.160 -1.5525  1.4907  0.5699
  276ACOH    H311108   3.902   6.183   0.048 -2.0706 -2.8839  0.3244
  277ACOH    H411109   6.226   2.916   4.873 -3.0300 -1.2503 -3.5780
  277ACOH    O211110   6.255   2.991   4.819 -0.5927  0.5041 -0.0668
  277ACOH    C211111   6.212   2.993   4.693 -0.3204 -0.4946  1.4095
  277ACOH    O111112   6.139   2.909   4.641 -0.5123 -0.6220  0.3363
  277ACOH    C111113   6.293   3.084   4.620 -0.3664  0.1502  0.2885
  277ACOH    H111114   6.223   3.119   4.544 -1.0167  0.7113  1.1401
  277ACOH    H211115   6.369   3.027   4.567 -1.9609 -0.2305 -1.6430
  277ACOH    H311116   6.328   3.170   4.677  1.4152 -0.2037 -0.2256
  278ACOH    H411117   6.877   5.265   1.943  0.1301 -1.4944  0.1834
  278ACOH    O211118   6.868   5.316   2.025 -0.4546 -0.3338 -0.5878
  278ACOH    C211119   6.914   5.242   2.127 -0.1671 -0.4335 -0.6658
  278ACOH    O111120   6.952   5.124   2.138 -0.7840  0.2019  0.0235
  278ACOH    C111121   6.884   5.311   2.252 -0.7683  0.4540  0.7727
  278ACOH    H111122   6.779   5.301   2.280 -0.1172  0.6585  3.3700
  278ACOH    H211123   6.907   5.416   2.235 -0.7055 -0.0359 -2.5281
  278ACOH    H311124   6.950   5.265   2.325 -1.1897  0.0094  0.8719
  279ACOH    H411125   8.588   6.402   1.042  3.1870  1.2449 -2.2069
  279ACOH    O211126   8.540   6.399   0.957  0.0086  0.1306 -0.4343
  279ACOH    C211127   8.407   6.431   0.973  0.3452 -0.2845 -0.1075
  279ACOH    O111128   8.337   6.450   0.874 -0.0162 -0.1707 -0.2936
  279ACOH    C111129   8.368   6.469   1.112  0.1077 -0.2315  0.3695
  279ACOH    H111130   8.272   6.522   1.114 -0.0546 -0.3607 -2.3121
  279ACOH    H211131   8.432   6.550   1.146 -1.0430  1.6659 -1.7844
  279ACOH    H311132   8.363   6.389   1.186  1.6460 -0.8899 -0.2308
  280ACOH    H411133   7.434   7.178   1.620  1.2417  0.1153 -1.8217
  280ACOH    O211134   7.377   7.115   1.573 -0.6773 -0.0157  0.5440
  280ACOH    C211135   7.433   7.001   1.602  0.5517  0.8557  1.0995
  280ACOH    O111136   7.552   6.976   1.579  0.0856  0.5960  0.5918
  280ACOH    C111137   7.334   6.902   1.559  0.0035 -0.3898  0.3387
  280ACOH    H111138   7.327   6.901   1.451 -0.3773  4.1540  0.2279
  280ACOH    H211139   7.244   6.923   1.616 -0.7227  1.0230 -1.3357
  280ACOH    H311140   7.376   6.805   1.589 -2.0509 -0.5857  2.7437
  281ACOH    H411141   5.604   2.810   4.786  3.1055  0.8300 -1.2181
  281ACOH    O211142   5.585   2.905   4.790 -0.4026  0.1422  0.7560
  281ACOH    C211143   5.629   2.937   4.908  0.1560 -0.2493 -0.1024
  281ACOH    O111144   5.745   2.916   4.942 -0.2366 -0.1854 -0.6512
  281ACOH    C111145   5.560   3.047   4.971  0.4714 -0.1826 -0.1772
  281ACOH    H111146   5.537   3.027   5.075 -2.3843 -1.1701 -0.9752
  281ACOH    H211147   5.469   3.077   4.919  1.2160  2.9251  0.1896
  281ACOH    H311148   5.623   3.136   4.971  1.0861 -0.5997  1.9233
  282ACOH    H411149   4.818   2.586   7.778  0.0564  0.3148 -1.1648
  282ACOH    O211150   4.807   2.496   7.745  0.1257 -0.0239 -0.2600
  282ACOH    C211151   4.917   2.417   7.772 -0.6272 -0.0124  0.9944
  282ACOH    O111152   5.003   2.456   7.848 -0.4486  0.2166  0.0691
  282ACOH    C111153   4.901   2.275   7.727 -0.2296 -0.3719  0.7573
  282ACOH    H111154   4.993   2.246   7.676  0.3823  2.0498  0.4209
  282ACOH    H211155   4.819   2.266   7.656  1.2702 -0.1163 -1.0801
  282ACOH    H311156   4.884   2.206   7.809 -0.3743  0.2376  1.2446
  283ACOH    H411157   6.390   0.476   7.172 -0.8128  3.0336  0.9168
  283ACOH    O211158   6.363   0.429   7.254  0.2851  0.4090 -0.1651
  283ACOH    C211159   6.450   0.442   7.354  0.1547 -0.0722  0.0983
  283ACOH    O111160   6.553   0.511   7.353  0.0433 -0.2967  0.0864
  283ACOH    C111161   6.395   0.395   7.486 -0.6524 -0.3562 -0.3205
  283ACOH    H111162   6.465   0.413   7.567 -1.9076 -1.1077  0.9511
  283ACOH    H211163   6.371   0.289   7.484 -2.2646  0.0104 -2.1553
  283ACOH    H311164   6.305   0.455   7.499 -1.4864 -1.7347  0.3313
  284ACOH    H411165   7.044   9.568   5.820  1.8371 -0.5718  0.9283
  284ACOH    O211166   7.100   9.648   5.827  0.1336  0.6822  0.3404
  284ACOH    C211167   7.020   9.757   5.841  0.0751  0.0338  0.6812
  284ACOH    O111168   6.896   9.759   5.835 -0.0602  0.3174  0.0517
  284ACOH    C111169   7.095   9.884   5.880  0.0697 -0.0808  0.1845
  284ACOH    H111170   7.033   9.972   5.868 -0.2248 -0.2361  0.5693
  284ACOH    H211171   7.191   9.895   5.829 -0.1121  0.6541 -0.0127
  284ACOH    H311172   7.117   9.868   5.985 -1.9577 -1.2428  0.4449
  285ACOH    H411173   7.118   7.703   2.710  1.3971 -1.1232  2.9050
  285ACOH    O211174   7.097   7.609   2.697  0.0685 -0.4284 -0.4436
  285ACOH    C211175   7.215   7.552   2.659  1.0183  0.6002 -0.4257
  285ACOH    O111176   7.326   7.600   2.658 -0.3156  0.0107 -0.1838
  285ACOH    C111177   7.189   7.409   2.623  0.6622 -0.0439 -0.4747
  285ACOH    H111178   7.083   7.383   2.616  0.2596  1.2502  0.6763
  285ACOH    H211179   7.236   7.354   2.704  1.2373 -1.7412 -1.9326
  285ACOH    H311180   7.244   7.391   2.531  2.4309  2.5181  0.0324
  286ACOH    H411181   9.335   6.430   4.853 -0.0411  1.2589 -0.7091
  286ACOH    O211182   9.285   6.475   4.923 -0.3805 -0.3745  0.1203
  286ACOH    C211183   9.365   6.451   5.026  0.5608 -0.0555 -0.7654
  286ACOH    O111184   9.465   6.382   5.024  0.2493 -0.1377  0.6085
  286ACOH    C111185   9.284   6.483   5.152 -0.0068  0.4584 -0.0226
  286ACOH    H111186   9.261   6.590   5.150 -0.9026  0.3540  2.7644
  286ACOH    H211187   9.333   6.469   5.248  0.1166  0.5036 -0.0787
  286ACOH    H311188   9.186   6.435   5.148 -0.0248  0.5640 -1.3294
  287ACOH    H411189   0.178   7.253   1.551 -2.1772  0.7093  1.4404
  287ACOH    O211190   0.123   7.293   1.481 -0.2866  0.3213 -0.3136
  287ACOH    C211191   0.072   7.203   1.397 -0.3635  0.1032  0.1877
  287ACOH    O111192   0.050   7.087   1.413  0.5000 -0.0595  0.3086
  287ACOH    C111193   0.012   7.274   1.284 -0.4300  0.4096  0.3201
  287ACOH    H111194  -0.072   7.323   1.332  0.9038  2.3235  0.7640
  287ACOH    H211195  -0.010   7.203   1.205  0.6401  0.3919  0.0198
  287ACOH    H311196   0.090   7.341   1.247  1.7418 -2.0447  0.3113
  288ACOH    H411197   1.550   0.937   5.952  0.6537  0.6627  0.6761
  288ACOH    O211198   1.558   0.855   5.901 -0.6483  0.8099  0.2243
  288ACOH    C211199   1.457   0.773   5.938 -0.2882  1.2504  0.0280
  288ACOH    O111200   1.354   0.805   5.996  0.4666 -0.0480  0.2707
  288ACOH    C111201   1.467   0.638   5.877 -0.1555 -0.1034  0.1003
  288ACOH    H111202   1.422   0.633   5.778 -1.0234 -3.3691  0.5879
  288ACOH    H211203   1.416   0.559   5.933 -3.1291  1.2701 -0.6023
  288ACOH    H311204   1.573   0.617   5.863 -0.5094 -0.8879 -1.4773
  289ACOH    H411205   1.573   8.275   2.619 -1.6637  1.7884  0.3386
  289ACOH    O211206   1.652   8.329   2.633 -0.0963 -0.2399 -0.5385
  289ACOH    C211207   1.638   8.392   2.753 -0.1300  0.0592 -0.2353
  289ACOH    O111208   1.530   8.431   2.793 -0.0104 -0.1418 -0.4094
  289ACOH    C111209   1.764   8.463   2.786  0.4252 -0.4048  0.2873
  289ACOH    H111210   1.831   8.391   2.832  0.1820 -1.7691 -1.4629
  289ACOH    H211211   1.755   8.549   2.852 -1.6327 -0.3085 -0.0840
  289ACOH    H311212   1.807   8.494   2.691 -3.0027  0.2240 -1.1462
  290ACOH    H411213   5.696   1.598   7.372 -2.8271 -0.6674  0.7434
  290ACOH    O211214   5.658   1.680   7.337 -0.2390  0.3516  0.1992
  290ACOH    C211215   5.656   1.756   7.451  0.1465 -0.6815 -0.0090
  290ACOH    O111216   5.705   1.723   7.559  0.0067 -0.2485  0.2320
  290ACOH    C111217   5.583   1.887   7.437 -0.6032  0.3078  0.3272
  290ACOH    H111218   5.531   1.881   7.341  0.7348 -3.5855 -0.2707
  290ACOH    H211219   5.643   1.976   7.452 -0.9268  0.7342 -0.8222
  290ACOH    H311220   5.507   1.900   7.514  0.4715  1.3535  1.2341
  291ACOH    H411221   2.354   9.416   6.148 -0.0461 -0.6476  3.2172
  291ACOH    O211222   2.306   9.500   6.155  0.4675 -0.0909  0.6364
  291ACOH    C211223   2.276   9.513   6.287 -0.3101  0.3246  0.6820
  291ACOH    O111224   2.316   9.441   6.380 -0.4607 -0.2233 -0.6417
  291ACOH    C111225   2.202   9.635   6.305 -0.4415  0.2113 -0.1561
  291ACOH    H111226   2.255   9.695   6.379  3.1804 -1.8109 -1.0203
  291ACOH    H211227   2.108   9.606   6.352  0.9042 -3.3257  0.5169
  291ACOH    H311228   2.200   9.694   6.213  3.0801  1.5229  0.5245
  292ACOH    H411229   7.638   8.031   1.786  0.1191  1.9006  0.6332
  292ACOH    O211230   7.546   8.059   1.776 -0.5676 -0.4360 -0.0208
  292ACOH    C211231   7.544   8.189   1.749  0.0170  0.4808  0.0130
  292ACOH    O111232   7.640   8.259   1.721  0.7685  0.3783  0.2905
  292ACOH    C111233   7.408   8.235   1.752  0.4988  0.3661 -0.2587
  292ACOH    H111234   7.378   8.261   1.853 -0.1851 -3.4152  0.5893
  292ACOH    H211235   7.340   8.158   1.714  0.6416 -0.3639  0.9395
  292ACOH    H311236   7.398   8.320   1.685 -2.1929  0.7185  0.5108
  293ACOH    H411237   9.943   7.817   1.934 -0.3515 -1.7454 -2.3306
  293ACOH    O211238   9.994   7.756   1.989 -0.2820 -0.1061 -0.5405
  293ACOH    C211239   9.919   7.709   2.090 -0.8249 -0.2467  0.3959
  293ACOH    O111240   9.799   7.720   2.113  0.2949  0.6235  0.1710
  293ACOH    C111241  10.011   7.626   2.178  0.3230 -0.1102  0.2310
  293ACOH    H111242  10.018   7.675   2.275 -1.6953 -0.9272  0.8120
  293ACOH    H211243  10.113   7.617   2.140 -0.5170 -2.2973 -1.6361
  293ACOH    H311244   9.973   7.526   2.196 -1.1630  0.2524 -0.8314
  294ACOH    H411245   6.060   3.656   1.189 -0.8434 -0.3593 -0.4133
  294ACOH    O211246   6.001   3.632   1.262 -0.0660 -0.6451  0.1226
  294ACOH    C211247   6.044   3.526   1.332 -0.2971 -0.2421 -0.4239
  294ACOH    O111248   6.121   3.443   1.292  0.5211  0.3348  0.6476
  294ACOH    C111249   5.964   3.509   1.452 -0.3152 -0.4904  0.2993
  294ACOH    H111250   5.982   3.411   1.495  0.5438 -0.6238 -0.3552
  294ACOH    H211251   5.860   3.518   1.421 -0.4699 -0.9380  0.6903
  294ACOH    H311252   5.996   3.589   1.519  0.0104 -2.6007  2.7133
  295ACOH    H411253   4.833   2.555   6.033  1.4338 -0.9071 -2.9587
  295ACOH    O211254   4.825   2.648   6.005 -0.6364  0.0212  0.3618
  295ACOH    C211255   4.709   2.699   6.041  0.0609 -0.3784 -0.2643
  295ACOH    O111256   4.624   2.651   6.109  0.6034  0.3679  0.1980
  295ACOH    C111257   4.688   2.823   5.962 -0.6948 -0.0678 -0.3544
  295ACOH    H111258   4.685   2.913   6.024 -2.1445 -0.1263 -0.3260
  295ACOH    H211259   4.592   2.818   5.911 -0.7298  1.0952 -0.4251
  295ACOH    H311260   4.766   2.836   5.886 -2.6983 -1.4048 -2.7054
  296ACOH    H411261   2.478   5.235   6.970 -0.4772 -0.8248 -0.1891
  296ACOH    O211262   2.557   5.234   7.027 -0.0867  0.5535 -0.6701
  296ACOH    C211263   2.602   5.104   7.044 -0.1908  0.3767  0.3988
  296ACOH    O111264   2.600   5.025   6.954 -0.3798  0.0680 -0.0431
  296ACOH    C111265   2.682   5.089   7.168 -0.3578  0.0380  0.5452
  296ACOH    H111266   2.786   5.061   7.149 -0.0951  2.1886 -1.4080
  296ACOH    H211267   2.646   5.014   7.239  1.8458 -1.2765  0.3389
  296ACOH    H311268   2.687   5.188   7.214 -0.0892  0.5860 -0.6539
  297ACOH    H411269   8.725   0.929   4.395  1.5703 -1.8053  2.1721
  297ACOH    O211270   8.657   0.921   4.464 -0.3565  0.4972  0.6422
  297ACOH    C211271   8.543   0.968   4.413 -0.0090 -0.5360 -0.1149
  297ACOH    O111272   8.539   1.046   4.319 -0.3730 -0.3855  0.3747
  297ACOH    C111273   8.424   0.931   4.490 -0.4615 -0.0743  0.5124
  297ACOH    H111274   8.431   0.826   4.517 -0.2605  0.2298  1.6624
  297ACOH    H211275   8.328   0.950   4.443  0.3329 -0.6638 -1.4208
  297ACOH    H311276   8.426   0.985   4.585  1.0300 -0.6910  0.8504
  298ACOH    H411277   6.798   5.689   6.797  0.5290 -0.8142 -0.9916
  298ACOH    O211278   6.704   5.685   6.775  0.0913  0.1250  0.6396
  298ACOH    C211279   6.687   5.719   6.647 -0.4175  0.3150 -0.9775
  298ACOH    O111280   6.774   5.752   6.569  0.0716  0.3905  0.1899
  298ACOH    C111281   6.544   5.723   6.609 -0.3307  0.0409  0.7149
  298ACOH    H111282   6.520   5.616   6.612  1.3486 -0.3783 -0.0622
  298ACOH    H211283   6.514   5.768   6.515 -0.8605  2.1106  1.8426
  298ACOH    H311284   6.480   5.766   6.686 -0.5878 -2.6718  2.1015
  299ACOH    H411285   5.545   2.051   3.092 -0.0202 -0.2317 -1.0719
  299ACOH    O211286   5.525   2.144   3.070  0.1866  0.0639 -0.0641
  299ACOH    C211287   5.494   2.141   2.945  0.8661  0.5673  0.0383
  299ACOH    O111288   5.456   2.041   2.883  0.0048  0.1494  0.2192
  299ACOH    C111289   5.463   2.281   2.896 -0.0382 -0.0331 -0.1200
  299ACOH    H111290   5.487   2.360   2.967 -0.0802 -0.3050  0.2015
  299ACOH    H211291   5.356   2.282   2.879  0.3027 -1.2988 -2.5920
  299ACOH    H311292   5.515   2.297   2.802 -0.0497 -2.5410 -0.6020
  300ACOH    H411293   4.854   4.466   5.251  2.5718 -0.6239 -1.8474
  300ACOH    O211294   4.905   4.448   5.331  0.6417  0.2601 -0.3758
  300ACOH    C211295   4.893   4.545   5.419  0.2227  0.0921 -0.0952
  300ACOH    O111296   4.795   4.621   5.421  0.2611 -0.3174 -0.1532
  300ACOH    C111297   4.982   4.526   5.535 -0.3206  0.6110 -0.1115
  300ACOH    H111298   4.939   4.445   5.594  3.2400 -0.8349  0.5812
  300ACOH    H211299   4.971   4.618   5.593  0.5310  0.3891  0.4063
  300ACOH    H311300   5.081   4.502   5.499 -0.0531  0.8536  0.4503
  301ACOH    H411301   2.562   7.438   5.062 -0.6103 -0.5682 -1.0583
  301ACOH    O211302   2.479   7.389   5.077 -0.7321 -0.0801 -0.1233
  301ACOH    C211303   2.392   7.438   4.991  0.2002 -1.1878  0.3617
  301ACOH    O111304   2.399   7.540   4.925  0.1190 -0.2180 -0.7172
  301ACOH    C111305   2.275   7.355   4.983 -0.6098  0.0213  0.2181
  301ACOH    H111306   2.306   7.264   4.931 -0.3826  0.8101 -1.0437
  301ACOH    H211307   2.196   7.400   4.924  1.4083  1.7421 -1.2683
  301ACOH    H311308   2.244   7.322   5.082  0.5003  1.0599  0.9350
  302ACOH    H411309   7.515   0.812   2.492  1.7537  0.1180  1.2100
  302ACOH    O211310   7.469   0.843   2.572  0.2795 -0.0676  0.4587
  302ACOH    C211311   7.354   0.892   2.528  0.0305 -0.0669 -0.5226
  302ACOH    O111312   7.295   0.861   2.428  0.0034 -0.1967 -0.0829
  302ACOH    C111313   7.280   0.955   2.634  0.5573  0.3076 -1.0834
  302ACOH    H111314   7.253   1.053   2.594  0.2257  0.9719  0.7310
  302ACOH    H211315   7.332   0.984   2.725  2.8150  0.0028 -2.2344
  302ACOH    H311316   7.194   0.894   2.659 -1.1225  2.6217 -1.0285
  303ACOH    H411317   7.802   5.177   5.741 -1.8976  0.8949 -0.7000
  303ACOH    O211318   7.841   5.127   5.668  0.0505  0.8871  0.3195
  303ACOH    C211319   7.754   5.029   5.632 -0.5029 -1.0264  0.6869
  303ACOH    O111320   7.664   4.984   5.700  0.5510  0.4403  0.0358
  303ACOH    C111321   7.774   4.982   5.495 -0.0738 -0.0026  0.4587
  303ACOH    H111322   7.852   4.905   5.492  0.0502  0.0991  1.0434
  303ACOH    H211323   7.787   5.069   5.430 -0.4165  1.0397  1.7498
  303ACOH    H311324   7.685   4.932   5.458  2.3419 -2.1822 -2.6853
  304ACOH    H411325   1.980   3.083   3.413  0.3221 -0.3724  3.1388
  304ACOH    O211326   2.076   3.091   3.400 -0.0651  0.1757  0.2616
  304ACOH    C211327   2.126   2.998   3.322 -0.2612 -0.2358  0.2942
  304ACOH    O111328   2.060   2.905   3.277 -0.0851  0.1409  0.1803
  304ACOH    C111329   2.273   3.016   3.312 -0.2101  0.7864 -0.0455
  304ACOH    H111330   2.307   3.093   3.243  0.8321 -0.9166 -1.4976
  304ACOH    H211331   2.323   2.922   3.287  0.3109  0.4900  2.0180
  304ACOH    H311332   2.315   3.046   3.408 -1.5196  0.5715  0.5978
  305ACOH    H411333   5.054   4.170   4.242 -0.0882 -1.0717  1.2636
  305ACOH    O211334   5.137   4.123   4.224  0.3515  0.0542  0.3569
  305ACOH    C211335   5.180   4.185   4.109  0.3047 -0.5000  0.1438
  305ACOH    O111336   5.118   4.273   4.050 -0.6154 -0.3704  0.2506
  305ACOH    C111337   5.294   4.121   4.044  0.3008 -0.0419 -0.6193
  305ACOH    H111338   5.384   4.182   4.033  1.7912 -1.6772  1.9527
  305ACOH    H211339   5.266   4.085   3.945 -1.5768  2.1195 -0.9128
  305ACOH    H311340   5.323   4.032   4.101  1.7982  0.8771  0.0819
  306ACOH    H411341   3.021   9.367   2.865  0.0232 -0.0465 -1.1243
  306ACOH    O211342   3.053   9.459   2.873  0.0165 -0.1278 -0.1139
  306ACOH    C211343   3.103   9.488   2.754  0.8153 -0.1250 -0.0788
  306ACOH    O111344   3.110   9.418   2.656 -0.0686  0.6816  0.2117
  306ACOH    C111345   3.170   9.620   2.767  0.2561 -0.1248  0.0273
  306ACOH    H111346   3.258   9.610   2.831  0.1217  0.9831  0.3955
  306ACOH    H211347   3.100   9.697   2.800  0.4312  0.2071 -0.3633
  306ACOH    H311348   3.212   9.654   2.672  0.5981 -2.1922 -0.5765
  307ACOH    H411349   3.948   5.716   7.160  1.0262  0.2843 -1.2015
  307ACOH    O211350   3.897   5.799   7.152 -0.0934 -0.3134 -0.2755
  307ACOH    C211351   3.897   5.847   7.276 -0.5504 -0.5828 -0.0189
  307ACOH    O111352   3.895   5.780   7.376  0.2724 -0.6203 -0.0709
  307ACOH    C111353   3.877   5.998   7.286 -0.7012  0.0590  0.0376
  307ACOH    H111354   3.811   6.031   7.205 -0.5229  0.9398  0.2504
  307ACOH    H211355   3.973   6.049   7.283 -0.4836 -0.2396  1.5524
  307ACOH    H311356   3.811   6.016   7.371  0.2708  0.8109  0.6405
  308ACOH    H411357   6.223   2.144   3.143 -1.2285  0.7986  0.5773
  308ACOH    O211358   6.153   2.083   3.115 -0.2502 -0.2208  0.3063
  308ACOH    C211359   6.207   2.012   3.017 -0.1271 -0.7209 -0.8059
  308ACOH    O111360   6.321   2.027   2.979 -0.0281 -0.4654  0.0122
  308ACOH    C111361   6.118   1.897   2.988  0.3880 -0.2223  0.0234
  308ACOH    H111362   6.127   1.829   3.073 -1.0415  1.0945  1.2757
  308ACOH    H211363   6.146   1.847   2.895 -0.6254 -0.9946  0.1235
  308ACOH    H311364   6.012   1.922   2.988  0.5812  0.6296 -0.6274
  309ACOH    H411365   4.478   2.031   3.001  0.3341  2.7430  1.5302
  309ACOH    O211366   4.552   2.036   2.938 -0.1887 -0.2186  0.5960
  309ACOH    C211367   4.619   2.146   2.972  0.0270  0.9443  0.6300
  309ACOH    O111368   4.571   2.235   3.040 -0.2520 -0.3276  0.3236
  309ACOH    C111369   4.743   2.167   2.886 -0.4897 -0.1358 -0.3400
  309ACOH    H111370   4.713   2.167   2.781  2.0752 -0.2485 -1.1043
  309ACOH    H211371   4.811   2.082   2.892 -0.0451  0.0392 -2.3705
  309ACOH    H311372   4.804   2.248   2.924  0.2616 -0.6765 -0.3943
  310ACOH    H411373   1.720   9.648   3.493 -2.5141  1.6895  0.9685
  310ACOH    O211374   1.751   9.712   3.428 -0.0174 -0.4980 -0.0910
  310ACOH    C211375   1.701   9.670   3.311  0.2182  0.1901 -0.0932
  310ACOH    O111376   1.639   9.567   3.289  0.3003 -0.0179  0.0285
  310ACOH    C111377   1.759   9.756   3.203  0.7601  0.3471 -0.6768
  310ACOH    H111378   1.866   9.768   3.222  0.8042 -0.3182 -0.5018
  310ACOH    H211379   1.703   9.849   3.193  1.7083  1.2548  2.0737
  310ACOH    H311380   1.755   9.708   3.106 -1.1304  0.0085 -0.4465
  311ACOH    H411381   4.823   3.803   3.355  0.1166  0.0015  3.2624
  311ACOH    O211382   4.909   3.848   3.361 -0.1865  1.1285  0.2698
  311ACOH    C211383   4.910   3.957   3.287  0.6502 -0.6760  0.7161
  311ACOH    O111384   4.815   4.001   3.224 -0.3312 -0.0794  0.5250
  311ACOH    C111385   5.034   4.034   3.317 -0.1910 -0.8475  0.1533
  311ACOH    H111386   5.099   3.965   3.370  0.4634 -0.4953 -0.1798
  311ACOH    H211387   5.015   4.117   3.385 -1.0044  0.3548 -1.5097
  311ACOH    H311388   5.082   4.083   3.232  0.3426 -2.0385 -0.2416
  312ACOH    H411389   5.989   9.657   1.673  0.3655  2.1127  2.8703
  312ACOH    O211390   6.080   9.628   1.694  0.4220 -0.2561 -0.2048
  312ACOH    C211391   6.049   9.503   1.740  0.0346 -0.4366 -0.1081
  312ACOH    O111392   5.947   9.439   1.714 -0.3529  0.4302 -0.4511
  312ACOH    C111393   6.158   9.446   1.818 -0.4675 -0.8487  0.4823
  312ACOH    H111394   6.242   9.514   1.832 -0.5549 -0.1216 -2.1387
  312ACOH    H211395   6.189   9.355   1.766  1.7689  0.7504 -1.0869
  312ACOH    H311396   6.116   9.413   1.913 -1.2859 -0.5997  0.2104
  313ACOH    H411397   5.021   7.383   1.774 -1.1251  2.2819 -1.5761
  313ACOH    O211398   5.098   7.443   1.777  0.1927  0.5330  0.1984
  313ACOH    C211399   5.097   7.501   1.655  0.3009 -0.5189  0.3660
  313ACOH    O111400   5.014   7.493   1.568 -0.6623  0.8909  0.7338
  313ACOH    C111401   5.203   7.608   1.655  0.2718  0.2959  0.2660
  313ACOH    H111402   5.302   7.564   1.659 -0.9692 -2.8288 -1.7371
  313ACOH    H211403   5.188   7.675   1.740  2.0803  1.4548 -0.3089
  313ACOH    H311404   5.197   7.653   1.556 -2.3961  1.6162  0.9591
  314ACOH    H411405   7.662   6.916   2.650 -1.0280  1.0355  0.3480
  314ACOH    O211406   7.585   6.885   2.600 -0.1540 -0.2144 -0.2353
  314ACOH    C211407   7.507   6.994   2.586 -0.7242 -0.3965 -0.3156
  314ACOH    O111408   7.537   7.108   2.618  0.1231  0.8021  0.1632
  314ACOH    C111409   7.393   6.962   2.495  0.5209 -0.3502 -0.3757
  314ACOH    H111410   7.317   6.930   2.566 -0.8860  1.6451 -0.9340
  314ACOH    H211411   7.426   6.881   2.430  0.4971 -0.4593 -0.2510
  314ACOH    H311412   7.354   7.045   2.436  0.2918 -0.7856 -0.8391
  315ACOH    H411413   4.501   7.784   5.704 -1.2611  0.9533 -0.5566
  315ACOH    O211414   4.505   7.809   5.798 -0.0584 -0.1134 -0.3228
  315ACOH    C211415   4.628   7.795   5.844 -0.1667  0.8363  0.1466
  315ACOH    O111416   4.697   7.698   5.802 -0.0057 -0.6159 -0.7530
  315ACOH    C111417   4.657   7.878   5.962 -0.1260 -0.0295  0.0633
  315ACOH    H111418   4.588   7.861   6.046 -0.6600 -0.7113 -0.5045
  315ACOH    H211419   4.652   7.984   5.939 -2.6918  0.4424  2.5004
  315ACOH    H311420   4.759   7.855   5.993 -0.3411  1.1716  1.7275
  316ACOH    H411421   6.185   3.917   7.504 -1.4897  1.9861  0.0507
  316ACOH    O211422   6.238   3.963   7.436 -0.0148  0.0064 -0.1883
  316ACOH    C211423   6.172   4.063   7.387  0.1458  1.1263  0.0805
  316ACOH    O111424   6.060   4.102   7.420 -0.0614  0.4687  0.2457
  316ACOH    C111425   6.257   4.151   7.305  1.0114  0.1589  0.9746
  316ACOH    H111426   6.197   4.233   7.265 -0.1334 -0.8422  0.5854
  316ACOH    H211427   6.302   4.094   7.224  0.1058  2.1224 -0.9798
  316ACOH    H311428   6.327   4.206   7.367 -0.6407  5.0903 -1.2561
  317ACOH    H411429   5.388   0.708   7.508  0.9913  0.6068 -0.5163
  317ACOH    O211430   5.442   0.685   7.586  0.0773 -0.2092 -0.1096
  317ACOH    C211431   5.519   0.792   7.619 -0.1466 -0.1139 -0.5607
  317ACOH    O111432   5.523   0.904   7.572  0.1226  0.3293 -0.1478
  317ACOH    C111433   5.619   0.758   7.727 -0.5711  0.6156  0.5238
  317ACOH    H111434   5.646   0.653   7.714 -0.1137  0.8068 -0.0581
  317ACOH    H211435   5.565   0.772   7.821 -0.4804 -1.1040  0.8471
  317ACOH    H311436   5.703   0.826   7.715 -1.4461  1.6517  0.1601
  318ACOH    H411437   9.963   3.121   1.152  0.4258 -0.8733  1.0002
  318ACOH    O211438   9.911   3.065   1.212 -0.7391 -0.3405  0.5028
  318ACOH    C211439   9.988   3.023   1.315 -0.3516 -0.5528 -0.4366
  318ACOH    O111440  10.093   3.071   1.355  0.3576  0.2915  0.0239
  318ACOH    C111441   9.920   2.912   1.380  0.2465  0.5781  0.1822
  318ACOH    H111442   9.924   2.941   1.485  0.6570 -0.5926  0.4952
  318ACOH    H211443   9.980   2.822   1.369 -0.6295 -0.0523  0.4264
  318ACOH    H311444   9.814   2.900   1.354  0.0582 -0.7755  1.5221
  319ACOH    H411445   7.147   7.755   3.849  2.8811  1.4162 -1.3212
  319ACOH    O211446   7.091   7.805   3.786  0.2710  0.1865 -0.0451
  319ACOH    C211447   7.155   7.926   3.769 -0.0950  0.5025  0.3867
  319ACOH    O111448   7.269   7.952   3.798 -0.3888 -0.0382 -0.0777
  319ACOH    C111449   7.069   8.030   3.707 -0.0607  0.2188 -0.5225
  319ACOH    H111450   7.063   8.122   3.765  1.5285  2.1768 -3.3334
  319ACOH    H211451   6.968   7.995   3.684  0.2489 -0.6509 -0.5706
  319ACOH    H311452   7.111   8.054   3.609 -2.4178  2.7431 -0.9658
  320ACOH    H411453   5.802   4.442   7.277 -1.9880 -0.1816 -1.4110
  320ACOH    O211454   5.865   4.385   7.229 -0.5194  0.4004 -0.2269
  320ACOH    C211455   5.802   4.272   7.205  0.0416 -1.0594  0.1773
  320ACOH    O111456   5.682   4.263   7.204  0.0051  0.2174  0.7166
  320ACOH    C111457   5.897   4.172   7.149 -0.4944  0.2521  0.0135
  320ACOH    H111458   5.864   4.144   7.048 -0.9616 -0.5766  0.3901
  320ACOH    H211459   5.901   4.081   7.209  0.3027 -0.9482 -1.7892
  320ACOH    H311460   5.997   4.215   7.145 -0.7169  0.9281  1.5906
  321ACOH    H411461   4.440   6.124   8.162  1.0302  0.6578  1.7807
  321ACOH    O211462   4.470   6.196   8.104  0.1213 -0.0387  0.4360
  321ACOH    C211463   4.579   6.147   8.049  0.3807 -0.4501  0.6548
  321ACOH    O111464   4.623   6.032   8.055 -0.1968  0.4510 -0.4231
  321ACOH    C111465   4.655   6.248   7.969 -0.4078  0.0876  0.0491
  321ACOH    H111466   4.585   6.320   7.925 -1.3687 -2.0564 -2.0132
  321ACOH    H211467   4.701   6.209   7.879  1.9192 -0.1381  1.3030
  321ACOH    H311468   4.729   6.295   8.034  0.6779 -4.4127  2.2848
  322ACOH    H411469   1.100   1.401   2.546  1.9299 -0.7458 -0.3954
  322ACOH    O211470   1.063   1.356   2.468 -0.2049  0.1314  0.0755
  322ACOH    C211471   1.078   1.224   2.475 -0.0950  0.0599 -0.0459
  322ACOH    O111472   1.165   1.172   2.540  0.0447 -0.1342  0.6755
  322ACOH    C111473   0.996   1.150   2.378 -0.6515 -0.0127 -0.4452
  322ACOH    H111474   1.008   1.041   2.374 -1.0867 -0.0147 -1.7217
  322ACOH    H211475   1.010   1.187   2.276 -1.0029 -0.9807 -0.8517
  322ACOH    H311476   0.894   1.176   2.406  0.3296  0.6795  2.7327
  323ACOH    H411477   1.189   3.961   2.757 -1.3946 -1.3911  2.2082
  323ACOH    O211478   1.244   3.883   2.737 -0.0010  0.2192 -0.3928
  323ACOH    C211479   1.158   3.782   2.710 -0.7060 -0.2850  0.8756
  323ACOH    O111480   1.035   3.783   2.700 -0.6231 -0.0607  0.5448
  323ACOH    C111481   1.243   3.666   2.696 -0.0598 -0.1389 -0.6786
  323ACOH    H111482   1.298   3.631   2.783 -0.2007  0.5846 -0.3011
  323ACOH    H211483   1.329   3.688   2.633  0.6241  0.4994  0.4628
  323ACOH    H311484   1.186   3.579   2.662  1.0538 -0.2147 -2.4276
  324ACOH    H411485   4.038   4.484   5.612 -0.1137 -1.8990  0.2902
  324ACOH    O211486   4.093   4.492   5.692 -0.4384 -0.1246  0.3656
  324ACOH    C211487   4.225   4.455   5.659 -0.0896  0.0267 -0.5482
  324ACOH    O111488   4.259   4.403   5.557  0.2019 -0.0949  0.4711
  324ACOH    C111489   4.305   4.458   5.779 -0.4534  0.3165 -0.4382
  324ACOH    H111490   4.275   4.535   5.850 -1.0877 -0.2624 -0.0802
  324ACOH    H211491   4.410   4.478   5.757 -0.6052  1.6972  0.0191
  324ACOH    H311492   4.306   4.362   5.830 -0.1731  0.2982 -0.4726
  325ACOH    H411493   8.345   6.114   0.564  0.9230  0.1057 -0.7866
  325ACOH    O211494   8.295   6.073   0.492  0.3420 -0.6180  0.0034
  325ACOH    C211495   8.368   5.976   0.440 -0.2230  1.0748  0.2862
  325ACOH    O111496   8.475   5.933   0.484  0.0513 -0.7271  0.0594
  325ACOH    C111497   8.297   5.916   0.322 -0.2012 -0.6996  0.3178
  325ACOH    H111498   8.293   5.982   0.235  1.0953 -0.3592  0.4938
  325ACOH    H211499   8.193   5.906   0.350 -0.7843  2.4953 -0.4734
  325ACOH    H311500   8.331   5.818   0.288 -1.0648 -0.0200 -2.6247
  326ACOH    H411501   4.633   7.207   6.146  0.9739  1.3700  0.0947
  326ACOH    O211502   4.719   7.182   6.184  0.5694  0.3610  0.3638
  326ACOH    C211503   4.810   7.260   6.135  0.1941 -0.0558 -0.1042
  326ACOH    O111504   4.803   7.304   6.022 -0.2330  0.4859 -0.2543
  326ACOH    C111505   4.945   7.218   6.191  0.2619  0.0032  0.7934
  326ACOH    H111506   4.987   7.132   6.138  1.3145  0.1762  1.3324
  326ACOH    H211507   4.932   7.188   6.295  0.5411 -1.8412  0.3125
  326ACOH    H311508   5.023   7.294   6.183  0.0566  0.3107  1.6487
  327ACOH    H411509   7.087   3.489   6.137 -0.0252 -0.7664  1.5783
  327ACOH    O211510   7.039   3.404   6.139 -0.4441 -0.5927  0.1102
  327ACOH    C211511   6.998   3.381   6.011  0.0768  0.6457 -0.0887
  327ACOH    O111512   6.956   3.464   5.933 -0.6900  0.2490  0.4322
  327ACOH    C111513   6.972   3.233   5.994 -0.4503 -0.2628 -0.4743
  327ACOH    H111514   7.022   3.189   5.908 -0.0015 -0.4069 -0.1387
  327ACOH    H211515   6.864   3.223   5.982 -0.9654  1.2230  2.4080
  327ACOH    H311516   7.004   3.182   6.085 -0.0752  0.2606 -0.3109
  328ACOH    H411517   5.057   4.842   5.422  1.9114  2.3367  1.2890
  328ACOH    O211518   4.987   4.852   5.489 -0.3402  0.2722 -0.6537
  328ACOH    C211519   4.963   4.981   5.496 -0.5629 -0.8934  0.5731
  328ACOH    O111520   5.022   5.074   5.438  0.0281  0.1609 -0.3417
  328ACOH    C111521   4.844   5.008   5.577  0.5723 -0.3249  0.7926
  328ACOH    H111522   4.811   4.918   5.628 -1.0913 -0.9776 -1.3364
  328ACOH    H211523   4.761   5.045   5.516  2.5014  0.1108 -1.6391
  328ACOH    H311524   4.860   5.085   5.653 -2.4174  0.8511  0.3171
  329ACOH    H411525   6.965   9.324   1.670  0.4530 -0.6561  1.6028
  329ACOH    O211526   6.959   9.241   1.620  0.1765  0.1106  0.3455
  329ACOH    C211527   7.071   9.239   1.544  0.6002  0.2103  0.1191
  329ACOH    O111528   7.172   9.302   1.556  0.1025 -0.3514 -0.0247
  329ACOH    C111529   7.065   9.130   1.446  0.0231  0.0728  0.0639
  329ACOH    H111530   7.135   9.049   1.467  0.7411  0.7457  0.2603
  329ACOH    H211531   7.097   9.167   1.348  0.3186 -0.6864 -0.1280
  329ACOH    H311532   6.967   9.081   1.441  0.1204 -0.4022  2.3706
  330ACOH    H411533   8.237   1.232   0.338 -0.3421 -1.2575  2.0058
  330ACOH    O211534   8.160   1.204   0.286  0.8345 -0.3581 -0.2992
  330ACOH    C211535   8.195   1.177   0.162 -0.0150 -0.5568  0.3394
  330ACOH    O111536   8.295   1.224   0.111  0.2018 -0.3231 -0.1098
  330ACOH    C111537   8.081   1.118   0.084  0.5459 -0.5935 -0.0017
  330ACOH    H111538   8.047   1.193   0.013 -0.9279 -0.1998  1.0854
  330ACOH    H211539   8.006   1.081   0.155  0.0198  2.6804  1.2424
  330ACOH    H311540   8.124   1.034   0.030  3.2658 -0.7452  2.3037
  331ACOH    H411541   1.559   2.219   0.524 -1.0528  0.7276  0.2034
  331ACOH    O211542   1.632   2.227   0.588 -0.6958  0.4395 -0.1618
  331ACOH    C211543   1.693   2.345   0.560  0.8307  1.5062  0.5078
  331ACOH    O111544   1.697   2.401   0.452 -0.0080  0.0037  0.1842
  331ACOH    C111545   1.785   2.380   0.665 -0.7073 -0.7632 -0.2341
  331ACOH    H111546   1.879   2.329   0.644 -0.6021 -0.2116 -1.1248
  331ACOH    H211547   1.736   2.358   0.760  0.7911  0.3823  0.8325
  331ACOH    H311548   1.808   2.487   0.668 -2.1316 -0.4576  0.3406
  332ACOH    H411549   4.829   8.984   1.401 -0.5445 -0.1850 -1.1313
  332ACOH    O211550   4.922   8.976   1.372 -0.1538  0.7709 -0.1747
  332ACOH    C211551   4.931   8.840   1.371 -0.1904 -0.0476 -0.7553
  332ACOH    O111552   4.839   8.759   1.391 -0.3715 -0.3549  0.0990
  332ACOH    C111553   5.073   8.802   1.333  0.1528  0.4369  0.6202
  332ACOH    H111554   5.125   8.785   1.428 -1.3443  0.7578  1.5188
  332ACOH    H211555   5.124   8.886   1.288  0.9820  0.1698  1.0448
  332ACOH    H311556   5.067   8.719   1.263 -2.0668  1.0846 -0.0041
  333ACOH    H411557   9.102   3.052   6.153 -2.7966  0.0021  0.2393
  333ACOH    O211558   9.082   2.961   6.126 -0.6868 -0.2973 -0.3682
  333ACOH    C211559   9.177   2.924   6.038  0.0864  0.1607  0.3325
  333ACOH    O111560   9.256   2.996   5.987 -0.4046  0.2108 -0.0071
  333ACOH    C111561   9.145   2.789   5.981 -0.5437 -0.2321 -0.8083
  333ACOH    H111562   9.041   2.763   6.001 -0.2745 -1.2977 -0.7680
  333ACOH    H211563   9.207   2.714   6.030  1.0140  0.9930 -0.8293
  333ACOH    H311564   9.161   2.795   5.874  2.9938 -0.2828 -0.3395
  334ACOH    H411565   5.963   0.922   2.168 -0.0869 -1.2309  0.9219
  334ACOH    O211566   5.907   0.880   2.100  0.0786  0.3429 -0.2119
  334ACOH    C211567   5.996   0.815   2.019  0.7523  0.0421 -0.5807
  334ACOH    O111568   6.115   0.798   2.039  0.5760 -0.4694 -0.2973
  334ACOH    C111569   5.942   0.788   1.886 -0.4027  0.3773  0.0279
  334ACOH    H111570   5.977   0.867   1.819  0.4201  0.5740  0.6924
  334ACOH    H211571   5.833   0.799   1.879 -0.2458  0.1634 -3.5093
  334ACOH    H311572   5.973   0.691   1.847  0.6851  0.7156  0.0368
  335ACOH    H411573   5.137   7.074   2.929  0.4062  2.4867 -0.5544
  335ACOH    O211574   5.202   7.051   2.860  0.3509 -0.2380  0.2147
  335ACOH    C211575   5.136   7.005   2.751  0.4092  0.0013 -0.4840
  335ACOH    O111576   5.017   7.001   2.723  0.1559  0.1809  0.1404
  335ACOH    C111577   5.229   6.958   2.656  0.1286 -0.3405 -0.3251
  335ACOH    H111578   5.244   6.850   2.648 -2.7986 -0.7462 -0.7959
  335ACOH    H211579   5.325   7.005   2.678 -0.4143  1.2967 -1.3803
  335ACOH    H311580   5.198   6.994   2.558 -2.0539 -0.0679  0.4311
  336ACOH    H411581   1.743   6.711   1.624 -0.6073  0.1219  0.0081
  336ACOH    O211582   1.825   6.755   1.652 -0.4928 -0.0616 -0.0402
  336ACOH    C211583   1.811   6.886   1.669 -0.1459  0.5090  0.2298
  336ACOH    O111584   1.724   6.960   1.630  0.1546  0.0849  0.3625
  336ACOH    C111585   1.946   6.924   1.716  0.4537 -0.0336  0.2496
  336ACOH    H111586   2.025   6.884   1.652 -0.1443  2.4322 -2.1218
  336ACOH    H211587   1.957   6.887   1.818 -1.6780  0.1502  0.5723
  336ACOH    H311588   1.951   7.032   1.727 -0.8225  0.2536 -1.6962
  337ACOH    H411589   7.674   2.004   7.027  0.5474 -0.3365  0.2953
  337ACOH    O211590   7.725   2.072   6.981 -0.5437  0.2281 -0.1178
  337ACOH    C211591   7.822   2.097   7.065 -0.0874 -0.8876 -0.0722
  337ACOH    O111592   7.888   2.004   7.111  0.3554 -0.2217  0.0586
  337ACOH    C111593   7.877   2.226   7.022  0.0192  0.1792 -0.4414
  337ACOH    H111594   7.954   2.261   7.090 -1.9959  0.8856  1.5230
  337ACOH    H211595   7.795   2.298   7.027 -2.2096 -2.2934  0.0622
  337ACOH    H311596   7.905   2.213   6.917 -0.4149  0.3871 -0.5853
  338ACOH    H411597   5.505   3.027   4.478 -3.1088 -2.0664 -0.5393
  338ACOH    O211598   5.439   3.098   4.487 -0.2392  0.7434 -0.5403
  338ACOH    C211599   5.322   3.040   4.480  0.3636 -0.1374  0.7609
  338ACOH    O111600   5.308   2.923   4.494  0.3158  0.2512 -0.0660
  338ACOH    C111601   5.201   3.131   4.486  0.3891  0.4531 -0.3199
  338ACOH    H111602   5.159   3.127   4.586 -1.8315  0.0920 -1.2382
  338ACOH    H211603   5.122   3.109   4.415 -1.5733  2.6059  1.1359
  338ACOH    H311604   5.231   3.235   4.469 -1.4863  0.7963 -1.6881
  339ACOH    H411605   5.416   6.676   1.891  1.6720  0.1618  0.4486
  339ACOH    O211606   5.491   6.689   1.830  1.4006  0.0400  0.0844
  339ACOH    C211607   5.490   6.577   1.755 -0.4968 -0.4972 -0.0652
  339ACOH    O111608   5.420   6.480   1.769 -0.0878 -0.4696  0.3434
  339ACOH    C111609   5.597   6.574   1.653  0.1781 -0.2203  0.2833
  339ACOH    H111610   5.690   6.576   1.708 -0.6449 -2.2280  1.7772
  339ACOH    H211611   5.594   6.665   1.592  0.9534  0.0331  0.6167
  339ACOH    H311612   5.595   6.488   1.586 -0.1211  0.5202 -0.6884
  340ACOH    H411613   1.437   9.794   7.971  0.2074  0.4489 -0.7536
  340ACOH    O211614   1.354   9.800   7.921  0.1364 -0.0472 -0.7076
  340ACOH    C211615   1.291   9.900   7.982  0.3383  0.2505  0.2360
  340ACOH    O111616   1.342   9.980   8.055  1.0033 -0.5200  0.0254
  340ACOH    C111617   1.153   9.921   7.923 -0.1124 -0.4516  0.0702
  340ACOH    H111618   1.168   9.914   7.816  1.0845  0.7074  0.1566
  340ACOH    H211619   1.124  10.022   7.950  1.6810 -0.0569  0.5753
  340ACOH    H311620   1.077   9.851   7.959 -0.0661 -1.5671 -1.9129
  341ACOH    H411621  -0.124   3.161   6.770 -0.9760 -0.3566  2.0187
  341ACOH    O211622  -0.053   3.096   6.783 -0.3638 -0.1149  0.0276
  341ACOH    C211623   0.067   3.158   6.791 -0.0260 -0.8401  0.6745
  341ACOH    O111624   0.084   3.277   6.799  0.1275 -0.3261 -0.4607
  341ACOH    C111625   0.169   3.054   6.795  0.4315 -0.2571  0.2401
  341ACOH    H111626   0.203   3.031   6.694  2.8463 -2.6579  1.5357
  341ACOH    H211627   0.133   2.965   6.846 -1.4794  0.2570 -0.1956
  341ACOH    H311628   0.253   3.097   6.850 -1.1910  2.0368  0.9923
  342ACOH    H411629   5.266   8.435   7.586  2.2258 -0.2286 -0.8371
  342ACOH    O211630   5.303   8.414   7.673  0.3613  0.1010  0.0400
  342ACOH    C211631   5.327   8.529   7.742 -0.7723 -0.2614 -0.0380
  342ACOH    O111632   5.344   8.635   7.680  0.5848 -0.3507 -0.2712
  342ACOH    C111633   5.323   8.523   7.888 -0.7688  0.2922  0.4082
  342ACOH    H111634   5.268   8.433   7.917 -1.7841  0.4727 -0.9018
  342ACOH    H211635   5.283   8.614   7.932  1.5240  1.5141  0.0342
  342ACOH    H311636   5.424   8.501   7.923 -1.5481 -2.0945  1.3108
  343ACOH    H411637   6.994   3.222   5.167 -1.9690  1.4996  0.2664
  343ACOH    O211638   7.055   3.297   5.155  0.0013 -0.1369 -0.2023
  343ACOH    C211639   7.131   3.287   5.048  0.5478  0.1247  0.5663
  343ACOH    O111640   7.097   3.249   4.943  0.7535  0.3489  0.0170
  343ACOH    C111641   7.249   3.372   5.058 -0.2433 -0.0687  0.4261
  343ACOH    H111642   7.232   3.463   5.002 -1.7560 -1.0041 -0.6963
  343ACOH    H211643   7.329   3.312   5.015 -1.1236 -1.1843  0.3197
  343ACOH    H311644   7.273   3.401   5.160  0.9930  0.9629 -0.1496
  344ACOH    H411645   3.901   9.705   3.172  0.1448  0.6044 -0.0717
  344ACOH    O211646   3.805   9.699   3.158  0.1596  0.3758 -0.0727
  344ACOH    C211647   3.737   9.664   3.264 -0.2805 -0.4628 -0.1944
  344ACOH    O111648   3.777   9.658   3.377  0.0082  0.1788  0.3643
  344ACOH    C111649   3.591   9.649   3.242  0.4016  0.3127 -0.4751
  344ACOH    H111650   3.535   9.726   3.295  2.5062 -0.5759  3.1280
  344ACOH    H211651   3.560   9.546   3.258  1.4025 -0.0970 -1.1850
  344ACOH    H311652   3.570   9.657   3.135 -1.7701  1.9742  0.0379
  345ACOH    H411653   6.754   2.806   2.086  0.6125  0.5570  0.1922
  345ACOH    O211654   6.684   2.844   2.031  0.1075  0.1856  0.5646
  345ACOH    C211655   6.596   2.741   2.048 -0.1319  0.3964 -0.2531
  345ACOH    O111656   6.628   2.624   2.047  0.5246  0.0444  0.3690
  345ACOH    C111657   6.462   2.787   2.006  0.4614  0.0530  0.8106
  345ACOH    H111658   6.394   2.763   2.087  0.2526 -0.5377  0.4722
  345ACOH    H211659   6.431   2.733   1.916  1.1485  2.0246 -0.6341
  345ACOH    H311660   6.466   2.894   1.987  1.6386  0.3703  2.7683
  346ACOH    H411661   2.552   4.048   3.023 -3.2311 -1.2856 -2.1055
  346ACOH    O211662   2.590   3.958   3.030 -0.0048  0.1201  0.0540
  346ACOH    C211663   2.673   3.951   3.128  0.8043  0.4236 -0.0606
  346ACOH    O111664   2.698   4.031   3.215  0.1801 -0.0697 -0.0381
  346ACOH    C111665   2.746   3.825   3.131  0.9556  0.2965  0.1770
  346ACOH    H111666   2.675   3.748   3.099  0.9073  0.9727 -1.4275
  346ACOH    H211667   2.778   3.802   3.232  1.0643  1.0131  0.3086
  346ACOH    H311668   2.832   3.822   3.064  1.2023  0.0538  0.5056
  347ACOH    H411669   5.810   4.124   1.837  0.9416 -2.5446 -1.0254
  347ACOH    O211670   5.896   4.164   1.856 -0.0943 -0.6557 -0.1355
  347ACOH    C211671   5.893   4.301   1.846 -0.7505  0.2722 -0.2495
  347ACOH    O111672   5.787   4.363   1.843  0.0361  0.4476 -0.1227
  347ACOH    C111673   6.032   4.354   1.849  0.6604 -0.9205 -0.0541
  347ACOH    H111674   6.096   4.293   1.786  0.5618 -0.1523 -0.9107
  347ACOH    H211675   6.074   4.367   1.949  0.1648 -0.2403  0.0691
  347ACOH    H311676   6.039   4.454   1.806 -2.7214 -0.5768  0.0661
  348ACOH    H411677   0.338   3.257   8.009 -0.9189  1.8622  2.5474
  348ACOH    O211678   0.418   3.218   8.047 -0.8931 -0.3838  0.3355
  348ACOH    C211679   0.453   3.119   7.965 -0.3960 -0.3326 -0.0384
  348ACOH    O111680   0.421   3.103   7.850  1.0009  0.2949 -0.0916
  348ACOH    C111681   0.566   3.038   8.006  0.0947  0.6327  0.6494
  348ACOH    H111682   0.595   3.055   8.110 -0.1652  0.6552  0.7179
  348ACOH    H211683   0.656   3.047   7.945 -1.2902  2.1113 -1.2011
  348ACOH    H311684   0.540   2.932   8.003 -0.7070  0.8647 -2.6051
  349ACOH    H411685   9.773   0.536   1.707 -0.2176 -0.9476  1.0255
  349ACOH    O211686   9.758   0.566   1.798  0.0234  0.5018  0.5995
  349ACOH    C211687   9.642   0.634   1.794 -0.0931  0.6390 -0.6518
  349ACOH    O111688   9.592   0.681   1.690  0.0738 -0.3185  0.2313
  349ACOH    C111689   9.587   0.673   1.920 -0.1013 -0.7561 -0.4127
  349ACOH    H111690   9.654   0.750   1.959  0.4816 -1.2854 -0.3730
  349ACOH    H211691   9.588   0.592   1.993  0.6484  2.3464  3.1725
  349ACOH    H311692   9.491   0.726   1.916  0.6379  0.8854  2.2285
  350ACOH    H411693   6.626   6.535   6.240 -1.3030 -1.0465 -1.5778
  350ACOH    O211694   6.619   6.449   6.286  0.0482 -0.4005 -0.1337
  350ACOH    C211695   6.520   6.374   6.244 -0.2134 -0.5749  0.3856
  350ACOH    O111696   6.415   6.408   6.181 -0.3443  0.5566 -0.6993
  350ACOH    C111697   6.536   6.234   6.296  0.5428  0.1892 -0.6193
  350ACOH    H111698   6.520   6.230   6.404  5.3733  2.1855  0.3245
  350ACOH    H211699   6.638   6.195   6.295  0.9466  1.2436 -1.9585
  350ACOH    H311700   6.479   6.161   6.238  0.8896 -0.1721 -0.5084
  351ACOH    H411701   4.197   9.508   4.765  1.8916  0.4871  1.4859
  351ACOH    O211702   4.191   9.594   4.721 -0.3614 -0.3005  0.2029
  351ACOH    C211703   4.266   9.587   4.609  0.0570 -0.2013  0.2658
  351ACOH    O111704   4.304   9.481   4.562 -0.8061  0.6736 -0.3184
  351ACOH    C111705   4.257   9.716   4.536 -0.7602  0.0052 -0.1423
  351ACOH    H111706   4.287   9.794   4.607 -0.9529  0.1138 -0.1800
  351ACOH    H211707   4.156   9.729   4.500 -1.4951 -3.2984  0.5634
  351ACOH    H311708   4.327   9.719   4.453  0.2320  0.0282  0.6712
  352ACOH    H411709   7.532   1.311   3.163  2.1797 -3.3145  1.9031
  352ACOH    O211710   7.591   1.307   3.086 -0.0111  0.0174 -0.0779
  352ACOH    C211711   7.555   1.191   3.019 -0.1907 -0.5981 -0.5527
  352ACOH    O111712   7.438   1.165   3.004  1.0179 -0.0846 -0.3763
  352ACOH    C111713   7.658   1.155   2.917  0.0146 -0.5854  0.2914
  352ACOH    H111714   7.618   1.101   2.831  3.2909 -0.7683 -1.1763
  352ACOH    H211715   7.739   1.095   2.959 -0.0696 -1.4985 -0.8399
  352ACOH    H311716   7.702   1.246   2.877  0.4932 -1.1002 -0.3743
  353ACOH    H411717   7.680   3.261   7.136 -0.4311 -0.0610  2.1743
  353ACOH    O211718   7.640   3.174   7.117  0.6933 -0.2748  0.6704
  353ACOH    C211719   7.744   3.093   7.113 -0.7680  0.1512  0.0208
  353ACOH    O111720   7.866   3.118   7.128 -0.1642  0.4941  0.2389
  353ACOH    C111721   7.705   2.954   7.085 -0.8605  0.9180 -0.8053
  353ACOH    H111722   7.639   2.954   6.998 -1.1342 -0.1676 -0.6025
  353ACOH    H211723   7.653   2.920   7.174 -0.0406  2.1990  0.1777
  353ACOH    H311724   7.787   2.884   7.070 -2.5267 -0.6290 -3.0255
  354ACOH    H411725   7.275   3.345   4.165 -1.3493  0.7658 -1.8891
  354ACOH    O211726   7.261   3.423   4.222 -0.3724 -0.2368 -0.2222
  354ACOH    C211727   7.369   3.438   4.300  0.3369  0.0876 -0.1413
  354ACOH    O111728   7.479   3.389   4.276  0.0975 -0.4403  0.0231
  354ACOH    C111729   7.352   3.550   4.398  0.8465  0.3481 -0.1517
  354ACOH    H111730   7.273   3.521   4.468  0.4900 -1.4550 -1.2662
  354ACOH    H211731   7.341   3.647   4.350  0.0741  0.5541  0.4251
  354ACOH    H311732   7.440   3.554   4.462 -0.8394  2.4221  2.1364
  355ACOH    H411733   3.315   2.796   1.545 -0.0309  0.7874  1.0349
  355ACOH    O211734   3.355   2.822   1.460 -0.3392 -0.0594  0.6200
  355ACOH    C211735   3.454   2.914   1.481 -0.0769  0.5908  0.0908
  355ACOH    O111736   3.476   2.960   1.590 -0.5543  0.2285  0.5041
  355ACOH    C111737   3.510   2.944   1.345  0.0182 -0.4310 -0.4684
  355ACOH    H111738   3.506   3.047   1.311  1.5984  0.2558  1.3517
  355ACOH    H211739   3.468   2.887   1.262  1.2732  0.0466 -1.4314
  355ACOH    H311740   3.614   2.913   1.339 -0.6992 -3.0189 -0.0655
  356ACOH    H411741   3.808   5.962   5.040 -1.9519  2.4143 -0.5524
  356ACOH    O211742   3.869   6.005   4.977  0.2064  0.2989  0.0353
  356ACOH    C211743   3.822   5.982   4.856  0.3082  0.0119  0.0920
  356ACOH    O111744   3.707   5.947   4.834  0.3434  0.0133 -0.1976
  356ACOH    C111745   3.902   6.047   4.754 -0.4693  0.3838  0.3631
  356ACOH    H111746   3.903   5.995   4.659 -0.7694  0.2347  0.4423
  356ACOH    H211747   4.005   6.058   4.788 -0.2048 -0.7016 -0.0726
  356ACOH    H311748   3.860   6.146   4.733 -0.5251  0.1419 -0.6731
  357ACOH    H411749   2.329   0.726   7.548 -0.7226 -1.6446 -0.5202
  357ACOH    O211750   2.277   0.709   7.628  0.0182 -0.8915  0.1375
  357ACOH    C211751   2.156   0.764   7.617 -0.1655 -0.0759  0.2504
  357ACOH    O111752   2.110   0.853   7.547  0.1316  0.1971  0.3151
  357ACOH    C111753   2.080   0.715   7.736 -0.4744 -0.2223 -0.8035
  357ACOH    H111754   1.981   0.759   7.740  0.1173  1.1242 -0.8741
  357ACOH    H211755   2.144   0.742   7.820 -0.9318  0.2571 -0.6076
  357ACOH    H311756   2.078   0.606   7.747  0.3437 -0.1538  0.0607
  358ACOH    H411757   2.534   6.163   6.477  0.9989  1.1002 -0.3866
  358ACOH    O211758   2.487   6.179   6.393 -0.3462  0.3469  0.2099
  358ACOH    C211759   2.562   6.258   6.311 -0.8246 -0.0693  0.0798
  358ACOH    O111760   2.680   6.279   6.317 -0.0455  0.5614  0.0022
  358ACOH    C111761   2.484   6.326   6.202  0.1636  0.0746 -0.6919
  358ACOH    H111762   2.445   6.243   6.144 -2.7797 -0.3670  1.8426
  358ACOH    H211763   2.549   6.392   6.144 -0.4136 -0.2345 -1.6977
  358ACOH    H311764   2.398   6.376   6.245 -0.1440  0.3720 -1.6254
  359ACOH    H411765   4.974   9.282   8.006  0.8470  1.8874 -2.1082
  359ACOH    O211766   5.008   9.366   8.041  0.9449  0.7399  0.6549
  359ACOH    C211767   5.112   9.398   7.957 -0.6624  0.1804  0.2703
  359ACOH    O111768   5.161   9.336   7.868 -0.5131  0.8349  0.1477
  359ACOH    C111769   5.162   9.523   8.011 -0.6844  0.6554  0.5199
  359ACOH    H111770   5.269   9.515   8.025 -0.0390  1.8820 -2.9503
  359ACOH    H211771   5.111   9.569   8.096  1.3340  1.7863  1.1357
  359ACOH    H311772   5.138   9.601   7.937 -5.4130 -1.8046 -0.7707
  360ACOH    H411773   6.545   8.982   2.299 -0.4638 -0.8310  1.4429
  360ACOH    O211774   6.603   8.905   2.287  0.0868 -0.2227  0.0625
  360ACOH    C211775   6.534   8.807   2.353  0.8174 -0.7514  0.0830
  360ACOH    O111776   6.453   8.825   2.440  0.2797  0.0616 -0.5580
  360ACOH    C111777   6.598   8.672   2.321  0.1884  0.1512 -0.3891
  360ACOH    H111778   6.694   8.669   2.374 -0.0330  1.3930  0.0997
  360ACOH    H211779   6.613   8.676   2.214 -1.4427 -0.2452 -0.6369
  360ACOH    H311780   6.531   8.589   2.344 -1.9625  2.2939  1.3043
  361ACOH    H411781   7.188   4.379   7.204 -0.7188 -0.2095 -1.2798
  361ACOH    O211782   7.254   4.307   7.204  0.3485  0.7572 -0.8186
  361ACOH    C211783   7.188   4.192   7.233  0.5827  0.4262  0.4223
  361ACOH    O111784   7.083   4.183   7.292 -0.2852  0.2557  0.1814
  361ACOH    C111785   7.266   4.071   7.197  0.1977  0.1276  0.0472
  361ACOH    H111786   7.260   4.013   7.289  1.5002  0.3586  0.2897
  361ACOH    H211787   7.371   4.095   7.176  0.3592 -0.5705  0.0500
  361ACOH    H311788   7.217   4.018   7.116 -1.0681  0.9364  0.2737
  362ACOH    H411789   5.974   0.976   0.859 -0.9913  0.3743 -0.3851
  362ACOH    O211790   5.989   0.975   0.763  0.8421 -0.0732 -0.1010
  362ACOH    C211791   5.900   0.883   0.717  0.0479 -0.3598 -0.2091
  362ACOH    O111792   5.820   0.826   0.784 -0.4762 -0.0601 -0.4168
  362ACOH    C111793   5.904   0.854   0.574  0.1017 -0.9929  0.3477
  362ACOH    H111794   5.817   0.795   0.545 -0.6679  1.1399 -1.8120
  362ACOH    H211795   6.002   0.811   0.554  0.9204  0.9922 -0.0167
  362ACOH    H311796   5.895   0.950   0.523  0.4793 -0.0666  1.9988
  363ACOH    H411797   5.645   0.615   7.335 -2.1400 -2.3004 -0.8553
  363ACOH    O211798   5.659   0.557   7.412  0.2864 -0.5457  0.0928
  363ACOH    C211799   5.573   0.454   7.396  0.1818  0.1383  0.5125
  363ACOH    O111800   5.511   0.429   7.298  0.5072  0.0284  0.0869
  363ACOH    C111801   5.599   0.353   7.502 -0.1369 -0.7481 -0.2594
  363ACOH    H111802   5.673   0.283   7.463 -0.9742 -0.3956 -2.5842
  363ACOH    H211803   5.506   0.305   7.533  1.3542 -2.7703  1.1857
  363ACOH    H311804   5.627   0.410   7.590 -0.7167 -1.3357  0.3121
  364ACOH    H411805   5.398   2.056   2.706  4.3788 -0.4826 -0.6816
  364ACOH    O211806   5.383   2.111   2.628 -0.0994  0.3244  0.6056
  364ACOH    C211807   5.325   2.039   2.530 -0.1440 -0.4197  0.1379
  364ACOH    O111808   5.353   1.923   2.505 -0.1056  0.1208  0.4937
  364ACOH    C111809   5.238   2.126   2.449 -0.3111  0.4954 -0.2104
  364ACOH    H111810   5.137   2.088   2.434 -0.4062  0.5956  0.1718
  364ACOH    H211811   5.282   2.132   2.349 -2.8193 -2.5815 -1.5945
  364ACOH    H311812   5.227   2.227   2.490  1.3861  0.8942 -0.6977
  365ACOH    H411813   7.134   9.916   0.727  2.5999  1.8713  1.6171
  365ACOH    O211814   7.204   9.859   0.691  0.0141 -0.3050 -0.1923
  365ACOH    C211815   7.160   9.811   0.572 -0.6756  0.3350  1.0618
  365ACOH    O111816   7.076   9.863   0.502  0.1776  0.4874  0.0860
  365ACOH    C111817   7.263   9.717   0.522  0.7112  0.2786 -0.2132
  365ACOH    H111818   7.259   9.709   0.414 -2.4688 -0.6807 -0.0694
  365ACOH    H211819   7.244   9.618   0.563 -0.3573  0.0744 -1.1664
  365ACOH    H311820   7.363   9.749   0.551  0.8381 -0.9182  0.7466
  366ACOH    H411821   7.859   3.877   4.542  0.3656  3.1849  0.2740
  366ACOH    O211822   7.783   3.871   4.601  0.0986 -0.2130 -0.3524
  366ACOH    C211823   7.746   3.998   4.616 -0.0349  0.0072 -0.4020
  366ACOH    O111824   7.790   4.094   4.551  0.4216 -0.7300 -0.7170
  366ACOH    C111825   7.641   4.012   4.715  0.5301  0.7201 -0.3397
  366ACOH    H111826   7.594   3.919   4.747  2.0396  0.6202  1.6220
  366ACOH    H211827   7.568   4.082   4.673 -0.5176  2.6283  4.3351
  366ACOH    H311828   7.686   4.066   4.798  1.9428 -0.0607 -0.5880
  367ACOH    H411829   2.916   5.380   5.502 -1.5206  0.9125 -0.1640
  367ACOH    O211830   2.913   5.297   5.553 -0.1466  0.5422 -0.6475
  367ACOH    C211831   3.034   5.289   5.620  0.0411  0.2825 -0.2147
  367ACOH    O111832   3.119   5.370   5.642 -0.3524  0.2218  0.0051
  367ACOH    C111833   3.045   5.155   5.677 -0.0033 -0.1223  0.1942
  367ACOH    H111834   3.143   5.130   5.717  0.7819  1.8516 -0.4508
  367ACOH    H211835   3.012   5.078   5.608 -2.1724  0.9864 -0.0629
  367ACOH    H311836   2.969   5.151   5.756  1.2931  1.8141  1.6048
  368ACOH    H411837   5.137   3.362   1.616 -2.5145 -1.7014 -0.9098
  368ACOH    O211838   5.152   3.314   1.699 -0.7067 -0.6992 -0.6203
  368ACOH    C211839   5.168   3.402   1.799 -0.1170  0.4135 -0.6321
  368ACOH    O111840   5.146   3.521   1.791 -0.3620  0.3772  0.1936
  368ACOH    C111841   5.186   3.339   1.933  0.5421 -0.0397  0.1977
  368ACOH    H111842   5.086   3.326   1.974 -0.0070  2.8140 -0.1283
  368ACOH    H211843   5.232   3.414   1.997 -0.3343  0.8817 -0.2371
  368ACOH    H311844   5.242   3.247   1.923 -0.4644 -0.4420 -1.9569
  369ACOH    H411845   7.360   4.904   3.377  0.4294  1.0616  0.2125
  369ACOH    O211846   7.281   4.923   3.430  0.0315 -0.9851  0.4050
  369ACOH    C211847   7.170   4.911   3.346 -0.0014  0.0297  0.1479
  369ACOH    O111848   7.153   4.877   3.229  0.4792  0.1208 -0.2105
  369ACOH    C111849   7.054   4.971   3.417  0.1825 -0.8413  0.0322
  369ACOH    H111850   6.968   4.984   3.351 -0.0945  0.5293  0.6483
  369ACOH    H211851   7.083   5.071   3.451  1.0788 -0.8337 -0.7690
  369ACOH    H311852   7.021   4.910   3.502  0.6908 -0.2592  0.6560
  370ACOH    H411853   6.813   6.181   5.698  2.2825 -3.6660 -0.6149
  370ACOH    O211854   6.730   6.131   5.706 -0.3400  0.5088  0.0382
  370ACOH    C211855   6.749   6.020   5.629 -0.3268 -0.3002 -0.0604
  370ACOH    O111856   6.849   5.995   5.561  0.2395  0.3245 -0.7099
  370ACOH    C111857   6.621   5.955   5.609  0.2375 -0.2780  0.0419
  370ACOH    H111858   6.632   5.846   5.605 -0.0232 -0.2370 -2.8325
  370ACOH    H211859   6.566   5.995   5.524  1.6620  0.3574 -0.5858
  370ACOH    H311860   6.563   5.968   5.700  0.0125  1.7311 -0.3651
  371ACOH    H411861   6.910   4.206   7.298 -0.5767 -0.7356 -1.2148
  371ACOH    O211862   6.819   4.238   7.308 -0.2818 -0.3527  0.3679
  371ACOH    C211863   6.751   4.155   7.385  0.0168 -0.0071 -0.3017
  371ACOH    O111864   6.775   4.037   7.401  0.2790  0.7330  0.2819
  371ACOH    C111865   6.618   4.219   7.422  0.0875  0.5817  0.1244
  371ACOH    H111866   6.649   4.288   7.500 -2.5372 -0.1876  1.8962
  371ACOH    H211867   6.547   4.152   7.470 -1.4175  1.2384 -1.1536
  371ACOH    H311868   6.586   4.271   7.331  0.9669  1.5958  0.3887
  372ACOH    H411869   6.692   7.412   3.256  1.1928 -2.2840  0.4982
  372ACOH    O211870   6.743   7.438   3.178  0.1164 -0.3501  0.4048
  372ACOH    C211871   6.783   7.319   3.131  1.0145  0.4540  0.5934
  372ACOH    O111872   6.736   7.208   3.163 -0.6952 -0.6252  0.0275
  372ACOH    C111873   6.850   7.311   2.996 -0.2061  0.3118 -0.0499
  372ACOH    H111874   6.867   7.410   2.953  2.7979 -1.1982 -2.6099
  372ACOH    H211875   6.788   7.251   2.929 -1.1140 -0.9796  1.9306
  372ACOH    H311876   6.948   7.264   3.002  0.0248  0.6322 -1.1997
  373ACOH    H411877   4.679   7.200   5.886 -0.2718 -0.1044 -0.9606
  373ACOH    O211878   4.629   7.120   5.863 -0.5843 -0.1692 -0.0741
  373ACOH    C211879   4.548   7.150   5.760  0.2144 -0.5823 -0.3388
  373ACOH    O111880   4.570   7.224   5.670  0.8695 -0.1370 -0.1544
  373ACOH    C111881   4.433   7.051   5.765 -0.2157  0.2408  0.0188
  373ACOH    H111882   4.454   6.960   5.707  0.1159 -1.3661  2.5959
  373ACOH    H211883   4.344   7.102   5.730 -1.8597 -2.0181  0.7734
  373ACOH    H311884   4.418   7.028   5.870  0.3272  1.8466  0.4621
  374ACOH    H411885   4.628   3.203   2.181  0.3813 -1.6546 -0.0033
  374ACOH    O211886   4.718   3.217   2.147  0.2654 -0.2432  0.2140
  374ACOH    C211887   4.782   3.311   2.220  0.1792 -0.0499 -0.6234
  374ACOH    O111888   4.730   3.387   2.304 -1.2149 -0.1445 -0.3004
  374ACOH    C111889   4.921   3.308   2.178 -0.6772 -0.3078 -0.1517
  374ACOH    H111890   4.980   3.362   2.252  0.4036 -0.8510 -0.6087
  374ACOH    H211891   4.919   3.357   2.080  0.2735  0.3537  0.1497
  374ACOH    H311892   4.954   3.204   2.175 -1.2938 -0.4607 -2.4131
  375ACOH    H411893   4.870   5.538   3.305  0.0785  0.8519 -0.3572
  375ACOH    O211894   4.965   5.518   3.298 -0.0045  0.5124 -0.5486
  375ACOH    C211895   4.970   5.390   3.248  0.8743 -0.0080 -0.8290
  375ACOH    O111896   4.888   5.340   3.171  0.1038 -0.0820 -0.7409
  375ACOH    C111897   5.107   5.343   3.266 -0.3594  0.3471  0.1184
  375ACOH    H111898   5.132   5.254   3.208  0.0201 -0.8210  2.0199
  375ACOH    H211899   5.122   5.330   3.373 -4.2281  1.2704  0.8209
  375ACOH    H311900   5.179   5.414   3.225 -1.1321  1.1511  0.1665
  376ACOH    H411901   4.440   7.539   7.184 -1.5126 -0.6004  0.1832
  376ACOH    O211902   4.457   7.480   7.259 -0.2300 -0.2590  0.1626
  376ACOH    C211903   4.547   7.537   7.341 -0.3057 -0.1849 -0.0741
  376ACOH    O111904   4.589   7.652   7.329 -0.0277 -0.0500 -0.4138
  376ACOH    C111905   4.590   7.439   7.436 -0.5668 -0.5585  0.4671
  376ACOH    H111906   4.586   7.479   7.537  1.6991 -2.2285  1.2649
  376ACOH    H211907   4.690   7.398   7.422 -1.0190 -1.5950  0.1469
  376ACOH    H311908   4.522   7.354   7.446 -0.1381 -0.8377  1.0325
  377ACOH    H411909   6.252   7.082   4.978 -2.2274 -0.7703  0.0570
  377ACOH    O211910   6.263   7.016   4.908 -0.3213 -0.4039 -0.0050
  377ACOH    C211911   6.309   6.906   4.965 -0.7398  0.0010  0.4947
  377ACOH    O111912   6.335   6.885   5.082  0.4144 -0.6158  0.7243
  377ACOH    C111913   6.332   6.802   4.866  0.0840 -0.0446 -0.2239
  377ACOH    H111914   6.249   6.800   4.796  0.2593  2.4276 -0.5304
  377ACOH    H211915   6.327   6.700   4.904 -1.6431  0.4069  0.8180
  377ACOH    H311916   6.423   6.818   4.807 -0.8895 -0.8390 -1.9879
  378ACOH    H411917   4.670   8.421   6.679  2.4721  1.6795  0.2744
  378ACOH    O211918   4.645   8.480   6.606 -0.3091  0.2265 -0.0298
  378ACOH    C211919   4.656   8.412   6.496  0.7368 -0.2107 -0.4947
  378ACOH    O111920   4.693   8.299   6.495 -0.5622  0.6387 -0.1631
  378ACOH    C111921   4.660   8.501   6.381  0.1881  0.6402  0.1007
  378ACOH    H111922   4.656   8.447   6.286 -0.4555  1.4286 -0.3229
  378ACOH    H211923   4.758   8.549   6.394  0.8580 -1.2490  2.2888
  378ACOH    H311924   4.575   8.569   6.384 -1.0275 -0.8594 -0.2217
  379ACOH    H411925   7.574   4.435   4.156  1.1461  1.0849 -0.9082
  379ACOH    O211926   7.507   4.501   4.131  0.1619 -0.0542 -1.3194
  379ACOH    C211927   7.545   4.560   4.015  0.0182  0.4312  0.1362
  379ACOH    O111928   7.659   4.556   3.974  0.5251  0.2558  0.2406
  379ACOH    C111929   7.452   4.671   3.974 -0.3006  0.0862 -0.3094
  379ACOH    H111930   7.359   4.650   4.025 -0.4607 -2.6651 -1.6455
  379ACOH    H211931   7.421   4.670   3.869 -1.0091 -1.6990 -0.0956
  379ACOH    H311932   7.485   4.772   4.001 -0.9009 -0.1633  1.3613
  380ACOH    H411933   1.338   0.151   7.904 -0.7889 -0.9263 -0.6191
  380ACOH    O211934   1.328   0.220   7.838  0.3330 -0.2192 -0.0619
  380ACOH    C211935   1.419   0.312   7.864  0.1224  0.4971  0.5477
  380ACOH    O111936   1.492   0.315   7.959  0.2818  0.3114  0.3214
  380ACOH    C111937   1.437   0.425   7.773  0.2121 -0.4556 -0.1128
  380ACOH    H111938   1.537   0.467   7.778  0.3898 -0.9199  0.2774
  380ACOH    H211939   1.368   0.502   7.806 -0.2781 -1.0563  0.2756
  380ACOH    H311940   1.403   0.395   7.674 -1.4279  0.2477  0.2322
  381ACOH    H411941   7.022   8.256   7.250 -0.0608  2.3994 -2.0076
  381ACOH    O211942   6.944   8.301   7.287 -0.1837  0.2978  0.4966
  381ACOH    C211943   6.922   8.424   7.231  0.1287  0.1262 -0.5752
  381ACOH    O111944   7.002   8.494   7.178  0.2081 -0.4577 -0.2339
  381ACOH    C111945   6.782   8.464   7.249 -0.0713 -0.1468  0.1547
  381ACOH    H111946   6.781   8.561   7.299 -1.6970 -0.0714 -0.0013
  381ACOH    H211947   6.726   8.398   7.316 -2.1417  1.0883 -0.3218
  381ACOH    H311948   6.725   8.479   7.157  0.9561 -0.5105 -0.5486
  382ACOH    H411949   4.794   4.631   3.967 -3.4450  1.1110 -0.4235
  382ACOH    O211950   4.820   4.722   3.990  0.0885  0.0445  0.1129
  382ACOH    C211951   4.953   4.739   3.985 -0.0945 -0.5880 -0.4461
  382ACOH    O111952   5.013   4.845   4.004 -0.2738  0.4485  0.0498
  382ACOH    C111953   5.030   4.624   3.923 -0.1840  0.7816  0.2856
  382ACOH    H111954   5.035   4.534   3.984 -2.8758 -1.7974 -3.0680
  382ACOH    H211955   5.129   4.661   3.896  0.4518 -0.6711  0.5767
  382ACOH    H311956   4.984   4.589   3.830 -1.0511 -1.4028  1.5094
  383ACOH    H411957   7.603   5.678   2.335  0.9171 -0.5307  0.6488
  383ACOH    O211958   7.570   5.648   2.249  0.7208  0.0260  0.5331
  383ACOH    C211959   7.544   5.518   2.263 -0.1712  0.3830 -0.5528
  383ACOH    O111960   7.523   5.448   2.364  0.1800  0.0769  0.1295
  383ACOH    C111961   7.535   5.450   2.134  0.9325  0.1395 -0.0608
  383ACOH    H111962   7.466   5.500   2.066  1.2274  0.1735 -0.3380
  383ACOH    H211963   7.498   5.349   2.148  0.9132 -0.2871 -2.9157
  383ACOH    H311964   7.632   5.448   2.085 -0.2915  0.5144 -2.5964
  384ACOH    H411965   6.210   5.868   1.524  1.7469  0.3465 -1.8730
  384ACOH    O211966   6.265   5.935   1.568 -0.2026  0.7152  0.0869
  384ACOH    C211967   6.388   5.906   1.545  0.0474  0.6670  0.2566
  384ACOH    O111968   6.422   5.792   1.515  0.2804  0.0376  1.0532
  384ACOH    C111969   6.484   6.011   1.576  0.3927  0.1056  0.5411
  384ACOH    H111970   6.436   6.077   1.649 -1.7018 -2.4661  1.5824
  384ACOH    H211971   6.516   6.055   1.482 -0.9687 -1.1705 -0.5432
  384ACOH    H311972   6.571   5.968   1.625 -0.0582  0.0119  1.2639
  385ACOH    H411973   6.617   3.025   5.352  0.4794 -0.5462 -0.1021
  385ACOH    O211974   6.674   3.102   5.369  0.4496 -0.3453 -0.8903
  385ACOH    C211975   6.705   3.100   5.498  0.5180 -0.4195  0.2235
  385ACOH    O111976   6.680   3.013   5.580  0.0034  0.6674 -0.0840
  385ACOH    C111977   6.786   3.212   5.547 -0.2607 -0.0299 -0.3627
  385ACOH    H111978   6.881   3.165   5.576 -1.1219 -1.6471 -0.1053
  385ACOH    H211979   6.744   3.263   5.634 -0.3112  0.5288 -0.7148
  385ACOH    H311980   6.813   3.278   5.465  2.6162  1.2810  1.5177
  386ACOH    H411981   7.237   3.529   7.751  0.7399  2.0914  0.8875
  386ACOH    O211982   7.198   3.569   7.671  0.3891  0.4116  0.1900
  386ACOH    C211983   7.070   3.538   7.698  0.1798  0.6931  0.1448
  386ACOH    O111984   7.008   3.524   7.801  0.2690  0.0599 -0.2373
  386ACOH    C111985   7.005   3.547   7.565 -0.0965 -0.7874  0.0691
  386ACOH    H111986   6.901   3.516   7.574 -1.4615  3.4431  0.0007
  386ACOH    H211987   7.054   3.484   7.491  0.3815  0.6348 -0.8481
  386ACOH    H311988   7.015   3.651   7.533  2.5526 -0.6958  1.0444
  387ACOH    H411989   5.378   4.205   0.788 -2.0067 -0.4128 -0.3619
  387ACOH    O211990   5.377   4.113   0.758 -0.1101 -0.7242  0.4277
  387ACOH    C211991   5.255   4.068   0.733 -0.2965 -0.2592  0.5154
  387ACOH    O111992   5.168   4.150   0.705  0.3784 -0.1816 -0.3590
  387ACOH    C111993   5.251   3.933   0.676  0.1921  0.2026 -0.1461
  387ACOH    H111994   5.340   3.884   0.715  0.4944  0.9986  0.1693
  387ACOH    H211995   5.256   3.952   0.569  1.5605  0.9618  0.0461
  387ACOH    H311996   5.154   3.886   0.693 -0.4032  2.6040  3.7587
  388ACOH    H411997   7.426   8.483   1.917 -0.1307 -2.5252 -0.9512
  388ACOH    O211998   7.414   8.526   1.831 -0.1945  0.2994  0.3847
  388ACOH    C211999   7.525   8.610   1.819  0.4841  0.3325  0.1029
  388ACOH    O112000   7.591   8.652   1.908  0.0204 -0.3480  0.2314
  388ACOH    C112001   7.524   8.668   1.682 -0.5072  0.1797  0.1468
  388ACOH    H112002   7.543   8.580   1.622  0.6570  0.2512  0.4034
  388ACOH    H212003   7.600   8.746   1.685  0.5211 -0.8349  1.0801
  388ACOH    H312004   7.421   8.698   1.664  0.0774  1.3869 -1.3632
  389ACOH    H412005  -0.006   3.382   5.573  0.1528 -1.8870  1.5510
  389ACOH    O212006   0.048   3.444   5.624 -0.8816  0.1035  0.3123
  389ACOH    C212007   0.142   3.374   5.690  0.4239  0.0917 -0.6846
  389ACOH    O112008   0.252   3.413   5.724 -0.5409  0.5490  0.3721
  389ACOH    C112009   0.105   3.232   5.712 -0.1868  0.0133 -0.0898
  389ACOH    H112010   0.183   3.178   5.658  0.0117 -1.3244  1.5027
  389ACOH    H212011   0.004   3.201   5.687  0.0041  0.8199 -1.9781
  389ACOH    H312012   0.112   3.209   5.818  0.5038 -1.6533 -0.4884
  390ACOH    H412013   5.912   2.062   5.424  2.1834  1.4554  2.3996
  390ACOH    O212014   5.857   2.024   5.496  0.0649 -0.2511 -0.0336
  390ACOH    C212015   5.806   2.130   5.560  0.5653 -0.1901  0.4771
  390ACOH    O112016   5.813   2.246   5.532 -0.3449 -0.3533 -0.8818
  390ACOH    C112017   5.738   2.089   5.689  0.2508 -0.1308  0.6570
  390ACOH    H112018   5.629   2.085   5.678  0.0264  3.0027  1.2132
  390ACOH    H212019   5.756   2.165   5.765 -0.5299  0.2917  0.4353
  390ACOH    H312020   5.779   1.994   5.721  0.6794  0.1091  0.8163
  391ACOH    H412021   3.672   5.957   6.678  1.2817  0.3028  0.1450
  391ACOH    O212022   3.698   5.978   6.769  0.0277  0.1182  0.5587
  391ACOH    C212023   3.663   6.103   6.803  0.9124 -0.0830  0.4609
  391ACOH    O112024   3.570   6.173   6.759 -0.5027  0.6467 -0.1615
  391ACOH    C112025   3.750   6.139   6.921  0.0659 -0.4785  0.4089
  391ACOH    H112026   3.856   6.139   6.899  0.3120 -0.7329  1.5603
  391ACOH    H212027   3.738   6.067   7.002  4.4267 -1.6838  0.0755
  391ACOH    H312028   3.724   6.236   6.963 -0.5032 -0.8347  0.8892
  392ACOH    H412029   5.023   8.673   8.048  0.6234 -2.0013 -1.4483
  392ACOH    O212030   5.108   8.717   8.064 -0.7222  0.3703 -0.4994
  392ACOH    C212031   5.102   8.779   8.179  0.3180  0.4995 -0.1957
  392ACOH    O112032   5.005   8.777   8.252  0.0282  0.0340  0.0258
  392ACOH    C112033   5.233   8.829   8.228  0.3063 -0.5254 -0.0435
  392ACOH    H112034   5.320   8.765   8.227  1.0501  0.4734 -0.2305
  392ACOH    H212035   5.230   8.870   8.329  0.3965 -3.2442  1.0824
  392ACOH    H312036   5.259   8.913   8.164  0.4229  0.3285  1.1043
  393ACOH    H412037   4.637   5.344   4.210  0.2617 -0.6622 -0.1958
  393ACOH    O212038   4.722   5.375   4.244 -0.0643 -0.2798  0.2683
  393ACOH    C212039   4.789   5.274   4.300 -0.4644 -0.4785  0.3612
  393ACOH    O112040   4.767   5.157   4.277  0.4054  0.0813  0.1493
  393ACOH    C112041   4.911   5.323   4.359  0.1496 -0.4165  0.2586
  393ACOH    H112042   4.885   5.421   4.399 -1.5252 -1.6279  2.2148
  393ACOH    H212043   4.996   5.345   4.294  0.9740  1.3953  1.8663
  393ACOH    H312044   4.945   5.255   4.438  0.8013 -2.2666 -1.5823
  394ACOH    H412045   8.069   9.568   1.119  3.8944  0.3539 -1.6304
  394ACOH    O212046   8.046   9.480   1.085 -0.1819  0.5478  0.3808
  394ACOH    C212047   7.993   9.411   1.187  0.3136 -0.7114  0.2557
  394ACOH    O112048   8.006   9.428   1.308  0.5986  0.3184 -0.0562
  394ACOH    C112049   7.942   9.287   1.135  0.6414  0.4799  0.1257
  394ACOH    H112050   7.896   9.228   1.214 -1.1597 -1.0885 -2.0540
  394ACOH    H212051   8.031   9.234   1.099 -0.2624 -1.5071  0.7300
  394ACOH    H312052   7.871   9.297   1.053  1.5883  1.1828 -0.6238
  395ACOH    H412053   8.381   1.839   6.189  2.3177 -1.8310  1.6086
  395ACOH    O212054   8.345   1.843   6.279 -0.1185 -0.0951  0.6166
  395ACOH    C212055   8.448   1.858   6.365 -1.0980 -0.4014 -0.0130
  395ACOH    O112056   8.570   1.864   6.337  0.0613 -0.4883 -0.2895
  395ACOH    C112057   8.403   1.884   6.504 -0.5582 -0.2000 -0.4880
  395ACOH    H112058   8.298   1.911   6.513  0.1349  1.9747  1.6819
  395ACOH    H212059   8.468   1.966   6.535  0.0398 -0.2866 -1.4894
  395ACOH    H312060   8.411   1.793   6.563 -0.1759 -1.2508 -2.1401
  396ACOH    H412061   4.826   2.407   6.517  0.4384  0.8865  1.3590
  396ACOH    O212062   4.884   2.478   6.487  0.1675  0.4145 -0.4007
  396ACOH    C212063   4.953   2.432   6.383 -0.4927 -0.2810  0.2149
  396ACOH    O112064   4.944   2.324   6.331  0.3792 -0.0775  0.3066
  396ACOH    C112065   5.032   2.544   6.336 -0.0278 -0.3276  0.0660
  396ACOH    H112066   4.958   2.603   6.282  0.1088 -0.0334  0.2031
  396ACOH    H212067   5.109   2.503   6.272  0.4058  2.5440 -1.3193
  396ACOH    H312068   5.084   2.596   6.416  0.4711  0.4815 -0.7768
  397ACOH    H412069   2.690   1.028   1.790  2.2850  0.9140  6.1428
  397ACOH    O212070   2.641   0.945   1.805  1.0194  0.1580 -0.6038
  397ACOH    C212071   2.617   0.891   1.679  0.0037 -0.5185 -0.2179
  397ACOH    O112072   2.674   0.921   1.576  0.6494  0.4673  0.1427
  397ACOH    C112073   2.566   0.756   1.706 -0.5728 -0.8418  0.0831
  397ACOH    H112074   2.531   0.754   1.809  2.5782 -0.3304  1.2152
  397ACOH    H212075   2.634   0.671   1.697  0.2680 -0.0957 -0.7076
  397ACOH    H312076   2.482   0.745   1.637  0.1604  0.7526 -1.0957
  398ACOH    H412077   1.603  -0.103   5.533  0.0820 -1.4482 -1.4728
  398ACOH    O212078   1.700  -0.100   5.532  0.0614  1.2636  0.2052
  398ACOH    C212079   1.724   0.026   5.491 -0.3389 -0.3765  0.1224
  398ACOH    O112080   1.660   0.125   5.519  0.4203  0.1389  0.1011
  398ACOH    C112081   1.867   0.036   5.462  0.0027 -0.3773 -0.6169
  398ACOH    H112082   1.894   0.142   5.460 -0.6524 -0.1728  0.5494
  398ACOH    H212083   1.892  -0.014   5.369  3.9656 -0.6523  0.4915
  398ACOH    H312084   1.932  -0.011   5.536  0.9250 -2.2193 -2.5730
  399ACOH    H412085   4.720   6.644   3.227  0.7064 -2.9753  2.6240
  399ACOH    O212086   4.809   6.678   3.245  0.1097  0.3377 -0.2447
  399ACOH    C212087   4.808   6.775   3.148  0.4268 -0.0890  0.1540
  399ACOH    O112088   4.757   6.778   3.035  0.5083  0.1387  0.0873
  399ACOH    C112089   4.922   6.872   3.160 -0.7845  0.5638 -0.2464
  399ACOH    H112090   4.944   6.924   3.066  0.4888  0.1972 -0.1651
  399ACOH    H212091   5.009   6.812   3.189 -1.1549  0.3058  0.3349
  399ACOH    H312092   4.908   6.948   3.237  2.1768  0.0962  0.8330
  400ACOH    H412093   6.255   5.065   7.491  1.7505  1.4772 -1.8841
  400ACOH    O212094   6.185   5.119   7.451 -0.4401  0.0078 -0.1260
  400ACOH    C212095   6.081   5.123   7.537  0.2000 -0.5597  0.2993
  400ACOH    O112096   6.051   5.028   7.607 -0.0933  0.0234  0.0697
  400ACOH    C112097   5.987   5.234   7.507  0.6798  0.0625  0.2397
  400ACOH    H112098   6.052   5.315   7.476  1.4213  0.0728  1.7448
  400ACOH    H212099   5.931   5.257   7.599 -1.2019  0.5410 -0.9962
  400ACOH    H312100   5.918   5.204   7.428  1.8197  0.3135 -0.8585
  401ACOH    H412101   4.302   0.462   3.562  0.4793  0.0495  0.5316
  401ACOH    O212102   4.306   0.383   3.505 -0.1246  0.3288  0.1031
  401ACOH    C212103   4.199   0.407   3.420 -0.6072  0.9343  0.1956
  401ACOH    O112104   4.115   0.494   3.420  0.3139  0.1312 -0.1506
  401ACOH    C112105   4.179   0.283   3.343 -0.4108  0.3526 -0.1262
  401ACOH    H112106   4.081   0.278   3.295 -0.3937 -1.0637 -0.0245
  401ACOH    H212107   4.201   0.188   3.392 -2.1729 -0.9136 -1.6928
  401ACOH    H312108   4.244   0.290   3.256  0.2905 -1.2098  0.2521
  402ACOH    H412109   7.541   3.910   3.871  0.1450  0.2039  1.2596
  402ACOH    O212110   7.466   3.879   3.925 -0.2645 -0.3006  0.4269
  402ACOH    C212111   7.436   3.750   3.906  0.5182  0.2996  0.1505
  402ACOH    O112112   7.480   3.687   3.811  0.0102  0.1812 -0.4143
  402ACOH    C112113   7.346   3.713   4.015  0.5441  0.3002 -0.1644
  402ACOH    H112114   7.339   3.604   4.021  0.4022  0.2964 -0.4047
  402ACOH    H212115   7.247   3.754   3.997  0.4724  1.3588  2.3828
  402ACOH    H312116   7.383   3.748   4.111 -0.6478  0.6034  0.1994
  403ACOH    H412117   6.955   0.919   6.562  2.6113  3.8083  1.0503
  403ACOH    O212118   7.031   0.859   6.558 -0.4294 -0.1593 -0.6710
  403ACOH    C212119   7.135   0.924   6.495  0.2032  0.1269  0.2032
  403ACOH    O112120   7.114   0.996   6.398  0.3534  0.4841  0.3165
  403ACOH    C112121   7.268   0.862   6.517  0.6376 -0.5537  0.0378
  403ACOH    H112122   7.295   0.889   6.619  1.2647 -1.6564  0.1616
  403ACOH    H212123   7.339   0.895   6.441  0.4846 -1.0037 -0.2986
  403ACOH    H312124   7.261   0.754   6.507 -4.5299 -0.2333 -1.6443
  404ACOH    H412125   6.359   0.621   0.924 -0.3449 -1.0768 -0.3457
  404ACOH    O212126   6.271   0.641   0.888  0.1064 -0.0011 -0.8584
  404ACOH    C212127   6.212   0.531   0.847  0.3933 -0.2993 -0.0677
  404ACOH    O112128   6.235   0.419   0.888  0.5319  0.0344 -0.3415
  404ACOH    C112129   6.088   0.566   0.780 -0.0010  0.0574  0.0570
  404ACOH    H112130   6.090   0.507   0.688  1.0069 -2.0119  1.3673
  404ACOH    H212131   6.085   0.672   0.753 -1.0247 -0.7407 -3.2956
  404ACOH    H312132   6.001   0.532   0.835 -0.4829  0.7312 -0.2708
  405ACOH    H412133   7.329   4.918   6.355 -0.4792 -0.7422 -1.4265
  405ACOH    O212134   7.261   4.891   6.419  0.2646  0.3955 -0.1110
  405ACOH    C212135   7.305   4.775   6.472 -0.3781 -0.0749  0.2751
  405ACOH    O112136   7.362   4.687   6.417 -0.3996  0.1044  0.4281
  405ACOH    C112137   7.260   4.752   6.610 -0.4978 -0.1159  1.3897
  405ACOH    H112138   7.343   4.768   6.679  0.1905  2.7269 -0.0194
  405ACOH    H212139   7.215   4.653   6.621  0.3352 -1.0388 -2.7440
  405ACOH    H312140   7.186   4.828   6.634 -1.0711  1.0192 -3.5091
  406ACOH    H412141   6.151   7.382   4.843  0.1603  0.3993 -0.4299
  406ACOH    O212142   6.139   7.301   4.790 -0.6462  0.3167 -0.1277
  406ACOH    C212143   6.046   7.333   4.697  0.3644 -0.3922  0.0759
  406ACOH    O112144   5.976   7.435   4.691 -0.5418  0.8021 -0.2833
  406ACOH    C112145   6.026   7.222   4.597 -0.3160 -0.2994  0.3634
  406ACOH    H112146   6.070   7.130   4.636  1.1447  0.9079  1.6203
  406ACOH    H212147   6.085   7.245   4.508  0.8526 -1.9035  0.7144
  406ACOH    H312148   5.919   7.211   4.577 -0.3710  0.2415  0.3580
  407ACOH    H412149   9.670   1.075   5.848 -0.2121  1.5135 -1.1984
  407ACOH    O212150   9.698   0.989   5.811 -0.9837  0.6599  0.1575
  407ACOH    C212151   9.820   0.992   5.764 -0.5639  0.0174  0.1575
  407ACOH    O112152   9.890   1.093   5.749 -0.4862  0.6661 -0.0282
  407ACOH    C112153   9.863   0.853   5.730  0.8373 -0.0427 -0.8491
  407ACOH    H112154   9.782   0.781   5.720  1.8505 -1.6126  1.6236
  407ACOH    H212155   9.924   0.824   5.816  0.0851  2.8350  0.6960
  407ACOH    H312156   9.920   0.849   5.637 -0.1717  1.5544 -1.5440
  408ACOH    H412157   5.497   3.459   1.000  0.6566  2.1045  2.2615
  408ACOH    O212158   5.512   3.380   1.055 -0.2025  0.0578 -0.3177
  408ACOH    C212159   5.627   3.404   1.120  0.6168  0.3454 -0.6723
  408ACOH    O112160   5.661   3.519   1.156 -0.1854  0.6114  0.4426
  408ACOH    C112161   5.679   3.283   1.185 -0.7294  0.4969  0.2898
  408ACOH    H112162   5.599   3.231   1.238  0.0230  0.2131  1.1735
  408ACOH    H212163   5.758   3.316   1.253  0.3342  1.2930 -1.3076
  408ACOH    H312164   5.734   3.220   1.115  0.4111  1.9674 -0.1659
  409ACOH    H412165   5.327   6.740   1.307  0.1809  0.3628  1.0018
  409ACOH    O212166   5.333   6.833   1.281 -0.0123  0.0818 -0.0682
  409ACOH    C212167   5.400   6.845   1.166  0.7698 -0.6598 -0.6185
  409ACOH    O112168   5.450   6.757   1.104 -0.4227 -0.1998  0.8583
  409ACOH    C112169   5.416   6.991   1.132  0.3600  0.0629 -1.1437
  409ACOH    H112170   5.390   7.057   1.214 -2.2935 -2.3657  0.0585
  409ACOH    H212171   5.345   7.008   1.051  0.0476  2.8201 -0.3217
  409ACOH    H312172   5.517   7.012   1.096  0.5006  1.4107  0.0092
  410ACOH    H412173   2.457   7.458   0.798  0.1547 -3.0615  0.1611
  410ACOH    O212174   2.360   7.454   0.800 -0.0515  0.5178 -0.0216
  410ACOH    C212175   2.342   7.418   0.928  0.1360  0.9304  0.4500
  410ACOH    O112176   2.425   7.400   1.016 -0.0869 -0.1204 -0.0025
  410ACOH    C112177   2.200   7.397   0.961  0.1649  0.5239 -0.1027
  410ACOH    H112178   2.149   7.494   0.954  1.2415  1.0388 -0.9450
  410ACOH    H212179   2.181   7.360   1.062 -0.1145 -0.4023 -0.4955
  410ACOH    H312180   2.157   7.325   0.891 -0.7990  1.3177 -0.3507
  411ACOH    H412181   6.171   1.765   1.068 -0.8027 -1.0266 -0.9253
  411ACOH    O212182   6.119   1.836   1.026  0.2183  0.1833 -0.1671
  411ACOH    C212183   6.065   1.771   0.922  0.0279 -1.2326  0.0122
  411ACOH    O112184   6.013   1.664   0.921  0.3749 -0.1306 -0.0216
  411ACOH    C112185   6.034   1.869   0.812 -0.0206 -0.1772 -0.2943
  411ACOH    H112186   6.053   1.818   0.718 -0.1330 -0.5007 -0.1437
  411ACOH    H212187   6.092   1.961   0.820  0.9795 -0.8336  0.1944
  411ACOH    H312188   5.927   1.887   0.805  0.3934  2.0215 -1.3701
  412ACOH    H412189   1.036   5.451   0.370 -0.9605  0.3736 -0.9047
  412ACOH    O212190   1.081   5.536   0.355  0.0852 -0.1181 -0.6308
  412ACOH    C212191   1.211   5.513   0.379 -0.7019 -0.8124 -0.2710
  412ACOH    O112192   1.272   5.407   0.393  0.4142  0.1210  0.0918
  412ACOH    C112193   1.290   5.641   0.362  0.1257 -0.1970  0.2276
  412ACOH    H112194   1.253   5.719   0.428 -0.2120  0.1186 -0.3322
  412ACOH    H212195   1.262   5.666   0.260  1.8221 -1.8243 -0.6569
  412ACOH    H312196   1.396   5.630   0.382 -0.1007 -0.3831  1.3735
  413ACOH    H412197   7.953   7.875   6.483  0.4264  0.5959  0.6301
  413ACOH    O212198   7.920   7.961   6.516 -0.1964  0.7150 -0.2790
  413ACOH    C212199   7.816   7.947   6.600  0.8386 -0.0904  0.8146
  413ACOH    O112200   7.768   7.841   6.627 -0.0502 -0.4194  0.1530
  413ACOH    C112201   7.791   8.079   6.668 -0.2890 -0.0893  0.3823
  413ACOH    H112202   7.697   8.076   6.724 -0.1822  1.4472  0.6738
  413ACOH    H212203   7.775   8.156   6.593  0.7874  0.4862  0.7242
  413ACOH    H312204   7.872   8.114   6.733  1.1182 -2.6282  0.0587
  414ACOH    H412205   0.095   0.453   4.541  0.2622  1.0141  0.6569
  414ACOH    O212206   0.048   0.525   4.495 -0.5748  0.1436  0.1395
  414ACOH    C212207   0.152   0.614   4.482  1.1852 -0.1877 -0.1240
  414ACOH    O112208   0.269   0.601   4.510 -0.4399 -0.4486 -0.2045
  414ACOH    C112209   0.115   0.749   4.426 -0.1113 -0.5665  0.0946
  414ACOH    H112210   0.065   0.739   4.329 -0.8103 -0.5834  0.4599
  414ACOH    H212211   0.198   0.818   4.410 -0.6726 -0.3873 -2.3308
  414ACOH    H312212   0.053   0.789   4.505 -2.0799 -1.4222 -0.9877
  415ACOH    H412213   9.300   0.413   7.904 -0.2456  1.2203 -0.5137
  415ACOH    O212214   9.355   0.369   7.837 -0.5699  0.5711 -0.3625
  415ACOH    C212215   9.283   0.292   7.757  0.1732  0.3190  0.5574
  415ACOH    O112216   9.164   0.306   7.738 -0.5226  0.1361 -0.0698
  415ACOH    C112217   9.366   0.242   7.643  0.2148  0.1539 -0.0478
  415ACOH    H112218   9.353   0.134   7.646 -0.6512  0.2904  2.5301
  415ACOH    H212219   9.468   0.278   7.660  0.0337  2.0202 -2.7327
  415ACOH    H312220   9.342   0.276   7.543 -1.8556 -0.8287  0.0953
  416ACOH    H412221   7.969   6.818   0.061  0.0852 -0.2575  1.4852
  416ACOH    O212222   7.958   6.914   0.046  0.4603 -0.5061 -0.6031
  416ACOH    C212223   7.843   6.949   0.110 -0.6944 -0.1347  0.1380
  416ACOH    O112224   7.746   6.880   0.094 -0.2130  0.4356  0.2113
  416ACOH    C112225   7.828   7.099   0.139 -0.8352 -0.2423 -0.0184
  416ACOH    H112226   7.932   7.131   0.133 -0.9937  0.0356 -1.5665
  416ACOH    H212227   7.803   7.105   0.245 -1.4877  0.8510 -0.2204
  416ACOH    H312228   7.762   7.155   0.072  1.0174 -0.1009 -1.7695
  417ACOH    H412229   5.037   3.906   3.689  1.6644 -0.4274  0.3320
  417ACOH    O212230   5.043   3.993   3.646 -0.2008 -0.1237  0.6474
  417ACOH    C212231   5.029   4.073   3.753  0.1889  0.1215 -0.3470
  417ACOH    O112232   4.994   4.038   3.861 -0.0525 -0.0114  0.3042
  417ACOH    C112233   5.046   4.216   3.717 -0.2330 -0.0767 -0.2065
  417ACOH    H112234   4.971   4.279   3.765 -0.0515 -0.4343  0.5510
  417ACOH    H212235   5.021   4.221   3.611  0.8442  0.1692 -0.4524
  417ACOH    H312236   5.146   4.256   3.734  1.0786 -3.0170 -0.7171
  418ACOH    H412237   5.214   6.409   2.605  0.0771  0.4446 -0.3768
  418ACOH    O212238   5.253   6.355   2.676 -0.2119  0.0333 -0.5285
  418ACOH    C212239   5.283   6.230   2.634  0.1645 -0.1769 -0.6179
  418ACOH    O112240   5.267   6.196   2.517 -0.1106 -0.1127  0.0752
  418ACOH    C112241   5.332   6.135   2.743  0.9782 -0.5076 -0.2289
  418ACOH    H112242   5.424   6.089   2.707  0.6230 -1.2834 -0.1536
  418ACOH    H212243   5.255   6.059   2.758  1.8310 -1.4353 -0.4975
  418ACOH    H312244   5.351   6.183   2.839  2.3008 -1.0475 -0.2175
  419ACOH    H412245   8.241   7.598   0.493 -0.7374  1.8259 -2.1864
  419ACOH    O212246   8.150   7.609   0.524 -0.2826  0.1929 -0.1812
  419ACOH    C212247   8.067   7.657   0.431  0.1756  0.3655  0.6700
  419ACOH    O112248   8.102   7.670   0.316 -0.0869 -0.1020 -0.1659
  419ACOH    C112249   7.924   7.665   0.469 -0.4829  0.1720  0.2415
  419ACOH    H112250   7.889   7.751   0.413 -0.0464 -0.6286 -1.2963
  419ACOH    H212251   7.914   7.699   0.572  0.4606  2.8023 -0.5082
  419ACOH    H312252   7.860   7.579   0.450 -1.3596  1.0191 -0.6758
  420ACOH    H412253   4.911   1.246   4.041  0.7038 -0.1606  0.7328
  420ACOH    O212254   4.853   1.218   4.113 -0.0679  0.0367  0.1961
  420ACOH    C212255   4.724   1.246   4.073 -0.6079  0.7895  0.7383
  420ACOH    O112256   4.692   1.335   3.997 -0.4388  0.0765 -0.1501
  420ACOH    C112257   4.628   1.187   4.164 -0.0642 -0.9557 -0.0193
  420ACOH    H112258   4.666   1.093   4.202 -0.9617 -0.9864  0.8395
  420ACOH    H212259   4.529   1.166   4.123  0.7670 -2.6203 -1.2199
  420ACOH    H312260   4.623   1.260   4.245 -0.5039 -0.5261 -0.4243
  421ACOH    H412261   6.006   2.843   7.711  2.7731  0.4780 -0.1631
  421ACOH    O212262   5.972   2.902   7.642 -0.2164 -0.1609  0.6885
  421ACOH    C212263   5.850   2.852   7.620  0.0408 -0.0812  0.2057
  421ACOH    O112264   5.797   2.751   7.658  0.2653 -0.4717 -0.4451
  421ACOH    C112265   5.790   2.954   7.531  1.0126 -0.4141 -0.5245
  421ACOH    H112266   5.826   3.053   7.559  1.5216 -0.5637 -0.6333
  421ACOH    H212267   5.685   2.945   7.558  0.8843  0.2259 -0.8056
  421ACOH    H312268   5.801   2.931   7.425 -0.7076 -2.6093 -0.2652
  422ACOH    H412269   3.290   5.540   4.179 -0.2151 -0.4329 -1.2642
  422ACOH    O212270   3.371   5.555   4.128  0.0198  0.8381 -0.5418
  422ACOH    C212271   3.460   5.465   4.166  0.3852 -0.1402 -0.1762
  422ACOH    O112272   3.451   5.401   4.269  0.1252 -0.3125  0.2676
  422ACOH    C112273   3.577   5.450   4.073  0.0207 -0.4527  0.0475
  422ACOH    H112274   3.532   5.473   3.977 -0.3717 -0.9064  0.1253
  422ACOH    H212275   3.625   5.352   4.073  0.9832  0.0081  0.6766
  422ACOH    H312276   3.657   5.518   4.103 -1.2260  0.8030  0.5834
  423ACOH    H412277   0.184   4.910   4.878 -0.8932 -0.5197 -0.7180
  423ACOH    O212278   0.157   5.003   4.890 -0.2554 -0.4394  0.1032
  423ACOH    C212279   0.244   5.040   4.986  0.1483 -0.6072 -0.2310
  423ACOH    O112280   0.295   4.972   5.071 -0.0344  0.3125 -0.5084
  423ACOH    C112281   0.262   5.184   4.988 -0.4943  0.2190 -0.0680
  423ACOH    H112282   0.246   5.217   5.091  2.7717 -0.6240  0.7648
  423ACOH    H212283   0.191   5.236   4.923 -0.0905 -0.5483 -1.1279
  423ACOH    H312284   0.367   5.201   4.966 -0.2384  1.5983  2.0352
  424ACOH    H412285   0.982  10.062   7.511  1.6536 -1.1817 -0.8763
  424ACOH    O212286   0.964   9.978   7.558  0.0522 -0.4049 -0.0629
  424ACOH    C212287   0.984   9.874   7.477  0.5252  0.2840 -0.7117
  424ACOH    O112288   1.049   9.878   7.369 -0.0552 -0.6481 -0.4265
  424ACOH    C112289   0.949   9.748   7.544  0.4170 -0.7523 -0.0964
  424ACOH    H112290   1.041   9.701   7.578 -0.4137 -1.1225  1.7424
  424ACOH    H212291   0.899   9.683   7.472  0.9191 -0.9390 -0.2798
  424ACOH    H312292   0.886   9.761   7.632 -0.1886 -0.6335 -0.5430
  425ACOH    H412293   7.726   6.384   0.554  0.2877 -0.3917 -0.2470
  425ACOH    O212294   7.708   6.448   0.483 -0.4767 -0.1739  0.1370
  425ACOH    C212295   7.786   6.401   0.384  0.5768 -0.6208  0.5524
  425ACOH    O112296   7.888   6.340   0.392  0.0456  0.0763  0.3661
  425ACOH    C112297   7.747   6.475   0.261 -0.3852  0.7087 -0.3822
  425ACOH    H112298   7.691   6.404   0.201 -0.6934  0.9589 -0.3877
  425ACOH    H212299   7.834   6.504   0.202  1.1333 -0.4800  1.1824
  425ACOH    H312300   7.685   6.563   0.277  1.7840  1.9530  1.6855
  426ACOH    H412301   0.903   0.805   7.547  1.5050 -1.2544 -0.6363
  426ACOH    O212302   0.946   0.891   7.539  0.0716 -0.4796 -0.3013
  426ACOH    C212303   1.078   0.866   7.568  0.3034 -0.1977  0.1176
  426ACOH    O112304   1.154   0.959   7.598 -0.1248  0.2150 -0.2923
  426ACOH    C112305   1.119   0.725   7.584  0.0814  0.3223  0.1817
  426ACOH    H112306   1.224   0.718   7.612 -0.0938  0.3399  0.8720
  426ACOH    H212307   1.094   0.667   7.496  1.0146 -0.1405  0.2232
  426ACOH    H312308   1.053   0.689   7.663 -1.0110 -0.4771 -1.0749
  427ACOH    H412309   6.346   6.648   5.590 -1.1487  2.2871  1.0982
  427ACOH    O212310   6.344   6.595   5.671  0.4682  0.4180 -0.0356
  427ACOH    C212311   6.432   6.642   5.762  0.3485 -0.0291 -0.2352
  427ACOH    O112312   6.496   6.744   5.748 -0.0038 -0.0337  0.0437
  427ACOH    C112313   6.453   6.543   5.874  0.9715 -0.0021  0.4939
  427ACOH    H112314   6.363   6.549   5.936  1.1995 -0.0836  0.8335
  427ACOH    H212315   6.539   6.552   5.940  0.9181 -2.0311  0.8862
  427ACOH    H312316   6.461   6.447   5.822  2.1162  0.3112  0.0698
  428ACOH    H412317   4.283   2.850   2.335 -1.4231 -1.5995 -0.8817
  428ACOH    O212318   4.323   2.770   2.371  0.6178 -0.2711 -0.0723
  428ACOH    C212319   4.434   2.740   2.306 -0.0179  0.2334 -0.3303
  428ACOH    O112320   4.492   2.818   2.230  0.0501  0.2508  0.0888
  428ACOH    C112321   4.492   2.619   2.371  0.0650  0.5084  0.0957
  428ACOH    H112322   4.434   2.535   2.333  0.7152 -0.1417  0.5311
  428ACOH    H212323   4.460   2.628   2.475 -0.8801 -0.1803 -0.1257
  428ACOH    H312324   4.598   2.607   2.348  0.1857  0.9054  0.4359
  429ACOH    H412325   3.755   5.540   5.561  1.3609 -2.4645 -1.7409
  429ACOH    O212326   3.662   5.533   5.533  0.6442 -0.0506 -0.1179
  429ACOH    C212327   3.645   5.604   5.424  0.1508  0.3407 -0.0585
  429ACOH    O112328   3.730   5.640   5.349  0.3819  0.0680  0.5341
  429ACOH    C112329   3.505   5.608   5.383  0.8405  0.0655  0.2145
  429ACOH    H112330   3.448   5.669   5.454 -1.2665 -2.1246  0.4486
  429ACOH    H212331   3.465   5.507   5.384 -2.0464  1.1640 -0.5794
  429ACOH    H312332   3.489   5.640   5.280 -0.0198 -0.7721  0.0893
  430ACOH    H412333   7.698   5.374   2.735  1.3901  0.3778  1.2320
  430ACOH    O212334   7.680   5.288   2.776  0.2075 -0.2580 -0.5873
  430ACOH    C212335   7.797   5.230   2.809  0.2993  0.3607 -0.4842
  430ACOH    O112336   7.892   5.286   2.860 -0.0555 -0.1781 -0.1241
  430ACOH    C112337   7.775   5.086   2.811 -0.0159  0.2697 -0.0591
  430ACOH    H112338   7.759   5.059   2.916 -1.4326 -1.0791 -0.6005
  430ACOH    H212339   7.860   5.031   2.770 -0.0252 -0.5807  1.0351
  430ACOH    H312340   7.684   5.065   2.756  0.9139  0.3085 -1.6343
  431ACOH    H412341   4.669   9.736   1.404 -0.4313 -1.6266  1.6433
  431ACOH    O212342   4.603   9.689   1.349 -0.0223 -0.1745 -0.1588
  431ACOH    C212343   4.653   9.665   1.228  0.2100 -0.4350 -1.3031
  431ACOH    O112344   4.770   9.689   1.197  0.1871 -0.0389 -0.3001
  431ACOH    C112345   4.542   9.620   1.140  0.0710 -0.6389 -0.5797
  431ACOH    H112346   4.531   9.691   1.058 -0.9892  0.4176  0.4576
  431ACOH    H212347   4.449   9.616   1.196  0.6205 -0.2836  0.3921
  431ACOH    H312348   4.564   9.517   1.113  1.7958 -0.7550  1.0862
  432ACOH    H412349   6.712   1.523   6.654  0.0503 -0.6120 -1.0036
  432ACOH    O212350   6.696   1.617   6.640 -0.0577 -0.5216 -0.3019
  432ACOH    C212351   6.605   1.644   6.736  0.3858  0.3750  0.2816
  432ACOH    O112352   6.530   1.562   6.790 -0.7293  0.2899  0.1917
  432ACOH    C112353   6.599   1.790   6.747 -0.8639  0.8735  0.6137
  432ACOH    H112354   6.495   1.820   6.733 -0.8701 -0.4150 -2.6606
  432ACOH    H212355   6.674   1.835   6.682  0.5029 -1.2059  0.7105
  432ACOH    H312356   6.619   1.811   6.852 -1.7588  0.6438  0.8331
  433ACOH    H412357   1.315   8.643   4.458 -4.1335  3.5374 -2.3308
  433ACOH    O212358   1.340   8.714   4.520 -0.1539  0.1637  0.2488
  433ACOH    C212359   1.472   8.725   4.539 -0.6221 -0.6869  0.3304
  433ACOH    O112360   1.549   8.652   4.481  0.7607 -0.3048 -0.2464
  433ACOH    C112361   1.507   8.843   4.619 -0.6009  0.0100 -0.5352
  433ACOH    H112362   1.439   8.921   4.584 -0.5818  0.2654 -0.0009
  433ACOH    H212363   1.610   8.878   4.619 -0.6242  0.0785  0.5414
  433ACOH    H312364   1.476   8.816   4.720 -0.2578  1.1465 -0.1228
  434ACOH    H412365   5.264   3.811   7.939  0.5648  0.2083  1.1966
  434ACOH    O212366   5.348   3.763   7.930  0.1638 -0.2417 -0.3424
  434ACOH    C212367   5.388   3.784   7.809 -0.4887 -0.0730 -0.3250
  434ACOH    O112368   5.313   3.795   7.715  0.0268 -0.1005  0.0617
  434ACOH    C112369   5.532   3.738   7.796 -0.3381  0.1845 -0.3895
  434ACOH    H112370   5.558   3.691   7.891 -0.3298 -0.4929 -0.7233
  434ACOH    H212371   5.597   3.824   7.780  0.6133 -0.4175  0.1988
  434ACOH    H312372   5.530   3.668   7.712 -0.1079  1.1364 -1.1956
  435ACOH    H412373   5.627   3.305   4.173 -2.2407  1.8242 -1.5423
  435ACOH    O212374   5.709   3.333   4.129 -0.6211 -0.3293 -0.0119
  435ACOH    C212375   5.809   3.253   4.166  0.9644 -0.1908  0.0756
  435ACOH    O112376   5.792   3.171   4.255  0.1683  0.0300  0.1364
  435ACOH    C112377   5.943   3.272   4.097 -0.4182  0.1609  0.3273
  435ACOH    H112378   5.984   3.177   4.062  1.4000  1.2343 -0.4800
  435ACOH    H212379   6.006   3.316   4.175  0.7591 -2.6490  1.0202
  435ACOH    H312380   5.937   3.343   4.015 -2.9051  1.2775  1.4282
  436ACOH    H412381   2.309   8.645   3.610  0.0508 -0.9762  0.2267
  436ACOH    O212382   2.370   8.643   3.534  0.2629 -0.7447  0.3920
  436ACOH    C212383   2.307   8.658   3.419  0.7043 -0.2165 -0.2219
  436ACOH    O112384   2.190   8.683   3.395 -0.2008 -0.2534 -0.0486
  436ACOH    C112385   2.405   8.626   3.315 -0.1502  0.1199 -0.0115
  436ACOH    H112386   2.354   8.594   3.223  1.2950 -1.1141 -0.3952
  436ACOH    H212387   2.468   8.545   3.353 -0.4769  0.5495  1.4690
  436ACOH    H312388   2.469   8.713   3.305 -0.6778  0.5854  0.6431
  437ACOH    H412389   6.850   6.791   7.857 -2.9337  4.0085  0.1446
  437ACOH    O212390   6.776   6.744   7.814  0.2305 -0.2116 -0.9144
  437ACOH    C212391   6.718   6.836   7.727 -0.0898  0.3325 -0.6495
  437ACOH    O112392   6.729   6.954   7.726 -0.4553  0.0174 -0.3450
  437ACOH    C112393   6.594   6.785   7.659  0.0831  0.2550  0.8537
  437ACOH    H112394   6.594   6.820   7.556 -0.8383  0.2524  0.8564
  437ACOH    H212395   6.508   6.826   7.712 -1.9824 -1.6449 -0.9509
  437ACOH    H312396   6.585   6.677   7.655 -2.4358  0.4480  0.7442
  438ACOH    H412397   7.011   6.165  -0.017  0.7884 -0.3004 -0.2029
  438ACOH    O212398   6.946   6.197   0.047  0.4266 -0.1301 -0.6503
  438ACOH    C212399   6.957   6.126   0.160 -0.1550 -0.0734  0.3073
  438ACOH    O112400   7.052   6.057   0.197 -0.1158  0.8282  0.6031
  438ACOH    C112401   6.842   6.149   0.245  0.8442 -0.1230  0.3319
  438ACOH    H112402   6.881   6.179   0.342  1.0102  1.9647 -0.3503
  438ACOH    H212403   6.779   6.061   0.257 -0.0884  0.8513  2.8105
  438ACOH    H312404   6.773   6.226   0.211  0.2767 -0.3776  0.8983
  439ACOH    H412405   6.828   4.138   2.537 -0.7606  0.1981 -0.7553
  439ACOH    O212406   6.808   4.050   2.501 -0.1535 -0.4666  0.5328
  439ACOH    C212407   6.853   3.958   2.595 -0.4992  0.4653  0.0280
  439ACOH    O112408   6.887   3.986   2.704  0.6419 -0.1650  0.4597
  439ACOH    C112409   6.820   3.818   2.564  0.1140 -0.0396  0.4598
  439ACOH    H112410   6.895   3.740   2.580  1.2128  0.6282 -1.2980
  439ACOH    H212411   6.788   3.806   2.460  1.3705 -0.8160  0.1449
  439ACOH    H312412   6.733   3.788   2.623 -0.3078 -0.1183 -0.1929
  440ACOH    H412413   4.919   5.391   7.167 -2.2879 -2.1539  0.7983
  440ACOH    O212414   4.907   5.399   7.071  0.2521  0.0999  0.6088
  440ACOH    C212415   4.951   5.285   7.019 -0.0830 -0.2179 -0.0754
  440ACOH    O112416   4.981   5.187   7.085  0.7644  0.0711 -0.5012
  440ACOH    C112417   4.950   5.288   6.866  0.3653 -0.0240  0.6649
  440ACOH    H112418   5.002   5.208   6.814 -3.6582 -1.8528 -0.7033
  440ACOH    H212419   4.990   5.385   6.835  0.2075 -0.1835 -0.0493
  440ACOH    H312420   4.850   5.286   6.822  0.1721  0.0318  1.0945
  441ACOH    H412421   8.108   6.921   0.582 -1.9353  0.5198  0.6707
  441ACOH    O212422   8.068   6.834   0.562 -0.2295 -0.2117  0.3069
  441ACOH    C212423   7.963   6.846   0.485  0.0198  0.0585  0.5941
  441ACOH    O112424   7.912   6.950   0.446 -0.1524  0.2234 -0.2016
  441ACOH    C112425   7.930   6.704   0.441 -0.1326  0.1229  1.1040
  441ACOH    H112426   7.869   6.652   0.515 -0.8307 -1.0603 -0.2798
  441ACOH    H212427   8.019   6.641   0.432  1.2502  2.1499  0.1801
  441ACOH    H312428   7.870   6.701   0.351 -0.3295  1.3730  1.1874
  442ACOH    H412429   4.628   5.229   6.720 -0.0981 -0.1038  0.0421
  442ACOH    O212430   4.680   5.160   6.676  0.1639  0.0394  0.1311
  442ACOH    C212431   4.603   5.126   6.570  0.5733 -0.8268 -0.3444
  442ACOH    O112432   4.510   5.192   6.535  0.0007  0.2638 -0.3398
  442ACOH    C112433   4.665   5.021   6.478 -0.0062  0.0475 -0.2004
  442ACOH    H112434   4.755   4.979   6.522 -1.2751 -1.7704  0.7450
  442ACOH    H212435   4.696   5.068   6.385  4.2789 -1.2308  0.4629
  442ACOH    H312436   4.597   4.938   6.463  0.5683 -0.5832  0.6359
  443ACOH    H412437   3.739   6.353   6.235 -3.0119  0.9526  0.0044
  443ACOH    O212438   3.757   6.449   6.239  0.0847  0.3999  0.4527
  443ACOH    C212439   3.832   6.478   6.132 -0.2521 -0.2774 -0.3051
  443ACOH    O112440   3.879   6.399   6.055 -0.0300  0.6703 -0.3512
  443ACOH    C112441   3.886   6.617   6.134 -0.3785 -0.5919  0.2426
  443ACOH    H112442   3.819   6.691   6.091  2.1106  1.5106 -0.1446
  443ACOH    H212443   3.979   6.632   6.080  0.0082 -0.0472  1.0390
  443ACOH    H312444   3.901   6.644   6.239  0.2120 -0.7715  0.2041
  444ACOH    H412445   4.253   6.866   1.290  0.5691  0.3418 -1.3986
  444ACOH    O212446   4.180   6.929   1.305  0.2771 -0.3052 -0.0194
  444ACOH    C212447   4.183   6.967   1.434 -0.1928 -0.4217  0.0585
  444ACOH    O112448   4.290   6.992   1.489  0.5582  0.2529 -0.3175
  444ACOH    C112449   4.063   7.048   1.454 -0.8096  0.1203  0.5807
  444ACOH    H112450   4.037   7.056   1.560 -1.7124 -1.6454  0.5065
  444ACOH    H212451   3.979   6.997   1.408  0.2089  0.3185 -1.5267
  444ACOH    H312452   4.081   7.147   1.413  1.4773 -0.2297  0.6805
  445ACOH    H412453   6.247   0.781   7.913  0.3730  0.5435  0.4587
  445ACOH    O212454   6.306   0.736   7.976  0.0210 -0.1076  0.3296
  445ACOH    C212455   6.424   0.737   7.922 -0.0262  0.0185 -0.8291
  445ACOH    O112456   6.480   0.802   7.834  0.4840  0.0374 -0.2032
  445ACOH    C112457   6.488   0.609   7.971  0.2665 -0.0539 -0.8254
  445ACOH    H112458   6.568   0.577   7.904 -0.2510  1.0810 -1.9983
  445ACOH    H212459   6.413   0.531   7.978  1.3997 -1.0438  0.4167
  445ACOH    H312460   6.524   0.629   8.072 -3.8972  2.0825  0.3473
  446ACOH    H412461   4.639   4.368   4.449  1.2951  2.3418 -1.8705
  446ACOH    O212462   4.672   4.409   4.532 -0.0724  0.0547 -0.1592
  446ACOH    C212463   4.634   4.537   4.520  0.0784  0.3014  0.6790
  446ACOH    O112464   4.551   4.580   4.440  0.3017  0.5318  0.2009
  446ACOH    C112465   4.726   4.631   4.587 -0.8695  0.0921  0.3655
  446ACOH    H112466   4.815   4.584   4.629  0.3006  0.9601 -1.0965
  446ACOH    H212467   4.678   4.695   4.661 -1.3271  0.2638 -0.0802
  446ACOH    H312468   4.768   4.697   4.511 -0.3897 -0.6245 -0.0009
  447ACOH    H412469   6.797   4.932   7.582 -1.1817 -0.2308  1.7299
  447ACOH    O212470   6.724   4.947   7.520  0.2109  0.0175  0.1144
  447ACOH    C212471   6.780   4.966   7.396  0.0943 -0.2502  0.1217
  447ACOH    O112472   6.865   5.049   7.383 -0.0125 -0.3098 -0.1029
  447ACOH    C112473   6.680   4.943   7.289  0.4123  0.6428  0.2042
  447ACOH    H112474   6.732   4.948   7.193 -0.5407  0.3889 -0.3323
  447ACOH    H212475   6.610   5.026   7.299 -0.6144  0.0099 -1.4266
  447ACOH    H312476   6.629   4.849   7.309  0.3555 -0.0682 -2.9464
  448ACOH    H412477   5.293   5.222   8.196  2.0720 -1.0044  1.4786
  448ACOH    O212478   5.315   5.307   8.237  0.8821  0.3787 -0.6571
  448ACOH    C212479   5.239   5.393   8.172  0.5390 -0.7351  0.2022
  448ACOH    O112480   5.173   5.372   8.074  0.7361 -0.0695 -0.3549
  448ACOH    C112481   5.250   5.524   8.232  0.5964 -0.0924  0.0513
  448ACOH    H112482   5.267   5.601   8.157 -2.4844  2.9092  2.2384
  448ACOH    H212483   5.322   5.522   8.314  0.5778 -0.4613  0.0615
  448ACOH    H312484   5.155   5.551   8.279  0.1148  1.9145 -2.0065
  449ACOH    H412485   1.955   5.485   2.543 -0.0847  0.2944 -0.0901
  449ACOH    O212486   2.009   5.562   2.518  0.3627  0.0793  0.2123
  449ACOH    C212487   2.118   5.545   2.592 -0.6243  0.2347 -0.3350
  449ACOH    O112488   2.137   5.460   2.679 -0.6544 -0.2996 -0.1854
  449ACOH    C112489   2.206   5.655   2.560 -0.0805 -0.1164 -0.0177
  449ACOH    H112490   2.181   5.704   2.466  0.7155  0.4989  0.0846
  449ACOH    H212491   2.311   5.627   2.560  0.0062  0.2118  0.0797
  449ACOH    H312492   2.191   5.731   2.637 -0.5800 -0.2737  0.0442
  450ACOH    H412493   4.779   6.694   0.386 -0.1115  0.1290 -0.3912
  450ACOH    O212494   4.785   6.655   0.297 -0.7848 -0.9890  0.0331
  450ACOH    C212495   4.728   6.537   0.296 -0.0563 -0.5030  0.2896
  450ACOH    O112496   4.717   6.460   0.389  0.3247  0.1704 -0.4296
  450ACOH    C112497   4.702   6.490   0.156  0.4751  0.4947 -0.0588
  450ACOH    H112498   4.725   6.573   0.089 -0.8052  1.8545  1.1654
  450ACOH    H212499   4.599   6.460   0.138  1.0415 -0.9655 -0.9010
  450ACOH    H312500   4.769   6.408   0.133  0.5658  0.7973 -0.8882
  451ACOH    H412501   5.596   8.175   2.214 -0.6630  0.0632 -0.4133
  451ACOH    O212502   5.606   8.197   2.120 -0.0739 -0.1264 -0.3935
  451ACOH    C212503   5.492   8.206   2.053 -0.2247 -0.0807 -0.5441
  451ACOH    O112504   5.380   8.184   2.096 -0.2403 -0.4754  0.1369
  451ACOH    C112505   5.512   8.235   1.908 -0.2278  0.6463  0.2027
  451ACOH    H112506   5.616   8.216   1.881 -0.8029 -0.1458 -1.5009
  451ACOH    H212507   5.487   8.341   1.902 -1.0372  0.4449 -0.0246
  451ACOH    H312508   5.437   8.180   1.852  0.6353 -2.3577  1.8841
  452ACOH    H412509   6.723   0.159   0.658 -1.2119  2.2618 -2.0000
  452ACOH    O212510   6.650   0.158   0.721  0.9327 -0.3411  0.5989
  452ACOH    C212511   6.695   0.145   0.848 -0.0086  0.1099 -0.0096
  452ACOH    O112512   6.813   0.127   0.876 -0.2056  0.2586  0.3053
  452ACOH    C112513   6.589   0.148   0.940  0.8292 -0.9043  0.5722
  452ACOH    H112514   6.529   0.235   0.914 -0.6559 -2.3225 -0.8203
  452ACOH    H212515   6.614   0.161   1.045 -1.4210 -0.7843  1.1057
  452ACOH    H312516   6.525   0.060   0.934  0.1467 -0.4290  0.7790
  453ACOH    H412517   6.089   7.285   4.249 -0.0323 -0.6474 -1.7086
  453ACOH    O212518   6.016   7.224   4.269  0.2606 -0.3865  0.2379
  453ACOH    C212519   5.916   7.263   4.188 -0.3179  0.5186 -0.2754
  453ACOH    O112520   5.918   7.341   4.098 -0.0010  0.0258  0.4078
  453ACOH    C112521   5.805   7.162   4.200 -0.0322 -0.3099 -0.0521
  453ACOH    H112522   5.791   7.096   4.114  0.4192  1.2387 -1.3430
  453ACOH    H212523   5.714   7.219   4.220  0.6959  0.1240  2.1433
  453ACOH    H312524   5.820   7.104   4.291 -0.9377 -1.0153 -0.3363
  454ACOH    H412525   7.599   4.689   5.343  0.4589  0.1363  1.8155
  454ACOH    O212526   7.514   4.712   5.385 -0.3404 -0.3562  0.4869
  454ACOH    C212527   7.428   4.631   5.324  0.1543 -0.3752  0.5272
  454ACOH    O112528   7.444   4.540   5.247 -0.1902  0.3475  0.4496
  454ACOH    C112529   7.296   4.642   5.393 -0.2905 -0.6520  0.4437
  454ACOH    H112530   7.218   4.588   5.340 -0.2749  0.5186 -0.7894
  454ACOH    H212531   7.275   4.748   5.403  0.5862 -0.2697 -1.5689
  454ACOH    H312532   7.292   4.604   5.495  0.6290 -1.6780  0.1185
  455ACOH    H412533   8.044   5.164   4.984 -2.9699  2.0533 -1.2435
  455ACOH    O212534   8.074   5.150   4.893  0.0197 -0.3495 -0.0083
  455ACOH    C212535   8.018   5.032   4.842  0.1270  0.8813  0.0773
  455ACOH    O112536   7.945   4.972   4.918 -0.0340 -0.1353  0.6117
  455ACOH    C112537   8.069   4.996   4.709 -0.1237 -0.2684 -0.2340
  455ACOH    H112538   7.998   4.925   4.668 -0.8001  0.4443 -0.3184
  455ACOH    H212539   8.156   4.931   4.714 -0.3240 -0.7584 -2.5372
  455ACOH    H312540   8.099   5.080   4.645  0.6946  0.7096  1.3912
  456ACOH    H412541   7.182   3.340   3.590 -1.7526  3.0036 -1.0386
  456ACOH    O212542   7.118   3.321   3.661  0.3917  0.2367  0.2536
  456ACOH    C212543   7.161   3.391   3.763 -0.2159  0.1952 -0.4488
  456ACOH    O112544   7.236   3.490   3.762 -0.3625  0.3052 -0.2693
  456ACOH    C112545   7.099   3.351   3.891 -0.0267 -0.6540 -0.0506
  456ACOH    H112546   7.023   3.424   3.921  0.1254 -0.1239 -0.9388
  456ACOH    H212547   7.182   3.343   3.962  0.7631 -1.2378 -1.0259
  456ACOH    H312548   7.040   3.261   3.882 -1.1934 -0.1178  1.9787
  457ACOH    H412549   6.303   7.888   2.800 -0.2731 -1.2034 -5.0356
  457ACOH    O212550   6.396   7.857   2.802 -0.0460 -0.5427  0.0664
  457ACOH    C212551   6.484   7.958   2.831  0.6715  0.4692  0.4686
  457ACOH    O112552   6.448   8.074   2.834  0.7939  0.0745  0.3024
  457ACOH    C112553   6.624   7.904   2.840 -0.4192  0.1072 -0.7427
  457ACOH    H112554   6.699   7.983   2.833 -1.9177  1.5732 -0.5638
  457ACOH    H212555   6.643   7.827   2.765 -1.8949  0.4439 -1.4911
  457ACOH    H312556   6.641   7.862   2.939  0.7786 -1.0651 -1.4317
  458ACOH    H412557   4.796   3.897   2.760 -0.5718  1.2029  2.3241
  458ACOH    O212558   4.815   3.810   2.798 -0.6832  0.2336  0.2261
  458ACOH    C212559   4.792   3.708   2.716  0.6116  0.1607  0.2012
  458ACOH    O112560   4.733   3.717   2.610  0.1713 -0.0124  0.4766
  458ACOH    C112561   4.834   3.583   2.788 -0.3001  0.1114  0.0826
  458ACOH    H112562   4.901   3.524   2.727  0.1762  0.7815 -0.0463
  458ACOH    H212563   4.755   3.513   2.815  0.2752 -1.2761 -1.7514
  458ACOH    H312564   4.894   3.601   2.877  0.6191 -0.0686 -0.5047
  459ACOH    H412565   6.646   3.765   1.435  0.5533 -0.1876  0.5401
  459ACOH    O212566   6.615   3.673   1.449 -0.2903 -0.0446 -0.3297
  459ACOH    C212567   6.663   3.640   1.572 -0.5852 -0.6495 -0.0249
  459ACOH    O112568   6.746   3.704   1.637  0.1379 -0.2560 -0.6150
  459ACOH    C112569   6.635   3.500   1.609 -0.1657  0.2779 -0.5362
  459ACOH    H112570   6.579   3.455   1.528 -0.8942  0.1023  0.0620
  459ACOH    H212571   6.590   3.501   1.709 -0.0474  1.3647 -0.4884
  459ACOH    H312572   6.733   3.456   1.628 -0.9017 -0.3169  2.0660
  460ACOH    H412573   8.018   5.980   3.532 -0.9608  2.2372  0.1345
  460ACOH    O212574   7.980   5.959   3.619 -0.0170  0.3722  0.1202
  460ACOH    C212575   7.847   5.947   3.602  0.1372  0.4203 -0.0216
  460ACOH    O112576   7.780   6.019   3.533 -0.0346  0.0926 -0.5860
  460ACOH    C112577   7.789   5.897   3.731 -0.4727  0.0901  0.1401
  460ACOH    H112578   7.804   5.791   3.754 -1.2104  0.2255  1.2776
  460ACOH    H212579   7.683   5.917   3.743 -0.1382  1.1947  1.4680
  460ACOH    H312580   7.840   5.951   3.811  0.4864  0.7420 -0.8934
  461ACOH    H412581   1.638   3.189   4.744 -0.1087  0.7838 -0.4810
  461ACOH    O212582   1.579   3.140   4.685  0.2437 -0.1288 -0.0799
  461ACOH    C212583   1.471   3.214   4.687  0.2010 -0.3379 -0.3006
  461ACOH    O112584   1.426   3.297   4.762  0.1770 -0.9049 -0.0202
  461ACOH    C112585   1.376   3.158   4.586 -0.1331  0.6319 -0.1762
  461ACOH    H112586   1.288   3.111   4.630  1.2291 -0.1641  1.7694
  461ACOH    H212587   1.421   3.083   4.520 -1.2603  0.7072 -1.0389
  461ACOH    H312588   1.343   3.237   4.520 -0.2607 -0.1586 -1.0734
  462ACOH    H412589   6.456   5.962   0.973  0.0721 -0.3710 -0.4136
  462ACOH    O212590   6.523   5.905   1.014 -0.4934  0.0450  1.1173
  462ACOH    C212591   6.485   5.879   1.140  0.0151 -0.1892 -0.3380
  462ACOH    O112592   6.397   5.933   1.199 -0.3659 -0.1131  0.3485
  462ACOH    C112593   6.591   5.798   1.206  0.1296  0.5379 -0.3945
  462ACOH    H112594   6.568   5.783   1.312  1.4645 -1.1447 -0.3191
  462ACOH    H212595   6.690   5.841   1.194  0.6057 -0.4382  0.0186
  462ACOH    H312596   6.600   5.700   1.159  1.2687  0.8491 -0.8285
  463ACOH    H412597   7.368  -0.099   6.751  3.2716 -0.3894 -0.4669
  463ACOH    O212598   7.398  -0.016   6.793  0.3233  0.5391 -0.0720
  463ACOH    C212599   7.288   0.056   6.817  0.3185 -0.6831 -0.4647
  463ACOH    O112600   7.174   0.041   6.783 -0.6118  0.3506  0.3411
  463ACOH    C112601   7.326   0.167   6.907 -0.4785 -0.0972  0.4931
  463ACOH    H112602   7.282   0.257   6.866 -0.1427  0.0037  0.3496
  463ACOH    H212603   7.433   0.184   6.923 -0.6802  0.7773  0.9569
  463ACOH    H312604   7.277   0.151   7.003  0.6893  0.0484  1.1290
  464ACOH    H412605   1.663   4.591   2.531 -3.7676 -0.8390 -0.9113
  464ACOH    O212606   1.648   4.687   2.521  0.4925  0.0235 -0.0474
  464ACOH    C212607   1.761   4.747   2.484 -0.8491 -0.5183 -0.4717
  464ACOH    O112608   1.870   4.687   2.465 -0.6074  0.4172  0.1768
  464ACOH    C112609   1.745   4.891   2.468  0.2092 -0.1373  0.0937
  464ACOH    H112610   1.681   4.905   2.381  0.4380 -2.1481 -0.4313
  464ACOH    H212611   1.843   4.932   2.447  0.4105 -2.2309 -3.3812
  464ACOH    H312612   1.695   4.942   2.551  0.1761 -2.1090  1.3160
  465ACOH    H412613   4.975   5.821   3.111 -1.6624 -1.8897  1.5962
  465ACOH    O212614   5.042   5.789   3.173  0.8396  0.0497 -0.0168
  465ACOH    C212615   5.004   5.798   3.300 -0.4378 -0.3956 -0.3766
  465ACOH    O112616   4.890   5.829   3.338  0.4992 -0.1878 -0.4558
  465ACOH    C112617   5.121   5.778   3.387  0.3756 -0.4701  0.3141
  465ACOH    H112618   5.216   5.775   3.335  1.3422  0.3669  2.0101
  465ACOH    H212619   5.109   5.678   3.429 -1.5101 -0.6645 -0.6142
  465ACOH    H312620   5.122   5.851   3.468 -0.6525  1.3386 -1.2583
  466ACOH    H412621   7.788   9.192   2.001 -0.5839 -0.0900  1.4345
  466ACOH    O212622   7.753   9.105   1.974  0.2407 -0.0209  0.1148
  466ACOH    C212623   7.812   9.059   1.862  0.3942 -0.0840  0.3705
  466ACOH    O112624   7.907   9.100   1.804 -0.1727 -0.7585  0.3570
  466ACOH    C112625   7.735   8.940   1.809  0.7413 -0.5574  0.2897
  466ACOH    H112626   7.740   8.939   1.700  3.3279 -0.3378  0.3978
  466ACOH    H212627   7.631   8.932   1.843  0.0965  1.3216 -1.1175
  466ACOH    H312628   7.785   8.850   1.842  1.0261 -1.1076 -1.6243
  467ACOH    H412629   6.657   4.087   1.884 -0.1580 -0.0052 -0.1236
  467ACOH    O212630   6.572   4.112   1.924 -0.3338 -0.9048  0.0772
  467ACOH    C212631   6.546   4.031   2.027 -0.1168 -0.9194  0.3034
  467ACOH    O112632   6.625   3.960   2.084 -0.1326 -0.2650 -0.5817
  467ACOH    C112633   6.402   4.064   2.071  0.3270 -0.1707  0.0436
  467ACOH    H112634   6.385   4.169   2.049  2.7523  0.1691 -0.3426
  467ACOH    H212635   6.390   4.041   2.176  1.4380 -0.2406  0.1649
  467ACOH    H312636   6.335   4.006   2.007 -0.0070  1.5607 -1.2265
  468ACOH    H412637   2.937   3.442   7.133 -2.0420  0.9632  0.6173
  468ACOH    O212638   2.958   3.426   7.226  0.5305  0.2168 -0.0252
  468ACOH    C212639   3.029   3.314   7.211  0.4766 -0.9396  0.2862
  468ACOH    O112640   3.020   3.227   7.128  0.1281  0.5015  0.0965
  468ACOH    C112641   3.113   3.291   7.335  0.2029 -0.3569 -0.0069
  468ACOH    H112642   3.202   3.238   7.302  0.1507 -0.2245 -0.3627
  468ACOH    H212643   3.055   3.228   7.403 -1.1867 -0.2778 -1.0874
  468ACOH    H312644   3.141   3.384   7.384 -1.4606  1.0061 -1.5550
  469ACOH    H412645   4.910   4.280   2.563  0.3288 -0.2223  0.8550
  469ACOH    O212646   4.948   4.342   2.627 -0.1700 -0.3429  1.2633
  469ACOH    C212647   4.854   4.415   2.691  0.4663 -0.7755  0.2903
  469ACOH    O112648   4.738   4.413   2.661  0.0405 -0.4396 -0.5875
  469ACOH    C112649   4.913   4.518   2.781  0.0675 -0.1031  0.4169
  469ACOH    H112650   4.873   4.489   2.878 -2.0494  1.0729 -0.0702
  469ACOH    H212651   4.891   4.621   2.755  1.6750  0.1075 -0.1375
  469ACOH    H312652   5.021   4.506   2.778  0.2307  0.5948  2.7457
  470ACOH    H412653   5.310   7.362   6.067 -0.3092 -1.4903 -0.8812
  470ACOH    O212654   5.340   7.296   6.130 -0.3883 -0.5848  0.1155
  470ACOH    C212655   5.332   7.364   6.246  0.6211  0.1810  0.2215
  470ACOH    O112656   5.251   7.451   6.269  0.0120 -0.1984 -0.3750
  470ACOH    C112657   5.399   7.294   6.357  0.5149  0.3729 -0.0900
  470ACOH    H112658   5.333   7.280   6.442 -0.6105  2.0969 -0.6376
  470ACOH    H212659   5.477   7.358   6.397  1.5996  0.1504 -1.7734
  470ACOH    H312660   5.446   7.201   6.326  2.7368  1.6949 -0.8273
  471ACOH    H412661   5.658   7.176   4.531 -1.9547  0.1721  1.2212
  471ACOH    O212662   5.690   7.105   4.589  0.6056  0.1862 -0.1006
  471ACOH    C212663   5.659   7.154   4.712 -0.0216 -0.3571 -0.7016
  471ACOH    O112664   5.597   7.259   4.740 -0.0756  0.0720 -0.4309
  471ACOH    C112665   5.701   7.058   4.820 -0.5012  0.1150  0.4295
  471ACOH    H112666   5.808   7.061   4.838 -0.2338  3.1025 -1.3706
  471ACOH    H212667   5.666   6.958   4.794  0.5268  0.1081 -1.0241
  471ACOH    H312668   5.654   7.087   4.914  0.0544 -0.2909  0.8349
  472ACOH    H412669   4.996   9.420   1.358 -0.5013  0.8619  0.7133
  472ACOH    O212670   5.071   9.482   1.357  0.0579  0.1748 -0.1998
  472ACOH    C212671   5.185   9.418   1.388 -0.2390 -0.1201  0.2708
  472ACOH    O112672   5.187   9.297   1.409 -0.0041 -0.2321 -0.4270
  472ACOH    C112673   5.304   9.507   1.381  0.3006 -0.0815  0.0207
  472ACOH    H112674   5.356   9.483   1.288  1.3539 -0.3333  0.6628
  472ACOH    H212675   5.366   9.486   1.468 -1.4047  0.0379  1.2829
  472ACOH    H312676   5.260   9.607   1.383 -1.2591 -0.6319 -3.3082
  473ACOH    H412677   7.244   5.699   2.043 -1.2319 -0.6330  0.1334
  473ACOH    O212678   7.255   5.697   2.139 -0.1211  0.1033  0.0341
  473ACOH    C212679   7.154   5.639   2.204  0.5772 -0.0206  0.1009
  473ACOH    O112680   7.049   5.624   2.155  0.1039 -0.2742  0.3756
  473ACOH    C112681   7.186   5.597   2.345 -0.3503 -0.2952  0.5878
  473ACOH    H112682   7.188   5.488   2.345 -1.9267 -0.3329  0.6392
  473ACOH    H212683   7.106   5.633   2.409 -1.4143 -0.5538 -0.5632
  473ACOH    H312684   7.276   5.651   2.374  0.6654 -0.9109 -1.3091
  474ACOH    H412685   4.836   6.111   3.165 -0.5955 -1.5185  0.9851
  474ACOH    O212686   4.927   6.079   3.178  0.0667  0.1235  0.4841
  474ACOH    C212687   4.997   6.133   3.079 -0.3124  0.0738  0.2640
  474ACOH    O112688   4.964   6.222   3.004 -0.0914  0.1882 -0.0812
  474ACOH    C112689   5.125   6.063   3.058  0.3546  0.7497  0.4316
  474ACOH    H112690   5.121   5.991   2.977 -1.1214  0.8708  0.3935
  474ACOH    H212691   5.151   6.016   3.153  1.2629  2.4577  1.0662
  474ACOH    H312692   5.199   6.138   3.030 -0.5921  1.5343 -0.0050
  475ACOH    H412693   5.864   1.932   0.505  0.0302 -0.1530  4.0134
  475ACOH    O212694   5.769   1.915   0.512 -0.3020 -0.4570  0.1328
  475ACOH    C212695   5.724   2.030   0.570 -0.2577  0.3373  0.4847
  475ACOH    O112696   5.785   2.125   0.615 -0.1712  0.1685 -0.7346
  475ACOH    C112697   5.579   2.028   0.576  0.4420 -0.6370  0.4638
  475ACOH    H112698   5.538   2.054   0.479  2.3508  1.0443  0.0991
  475ACOH    H212699   5.551   2.103   0.650 -0.7630 -0.1326 -0.4832
  475ACOH    H312700   5.526   1.936   0.602  0.9807 -1.0908 -0.0284
  476ACOH    H412701   3.777   1.247   4.545 -1.7987  0.1746 -2.0589
  476ACOH    O212702   3.732   1.321   4.590  0.0984  0.1508 -0.0371
  476ACOH    C212703   3.791   1.340   4.709 -0.2922 -0.5358  0.2099
  476ACOH    O112704   3.896   1.302   4.757  0.2339  0.2863  0.4317
  476ACOH    C112705   3.691   1.426   4.783  0.1513  0.1660  0.3926
  476ACOH    H112706   3.657   1.504   4.716 -0.7150 -0.6813 -0.1661
  476ACOH    H212707   3.749   1.482   4.857 -1.9094  0.8711  1.4991
  476ACOH    H312708   3.612   1.372   4.835  0.2259 -0.5983 -0.2856
  477ACOH    H412709   4.945   3.884   6.180  0.1319  1.1513  0.7457
  477ACOH    O212710   5.040   3.902   6.169  0.3149  0.0618  0.4477
  477ACOH    C212711   5.099   3.783   6.155 -0.3116 -0.3288  0.8742
  477ACOH    O112712   5.070   3.698   6.071  0.3373 -0.2531  0.3726
  477ACOH    C112713   5.240   3.795   6.208  0.0370 -0.1615 -0.4398
  477ACOH    H112714   5.307   3.712   6.184  0.2747 -0.0621 -0.1272
  477ACOH    H212715   5.228   3.806   6.315 -1.0453 -0.3886 -0.5329
  477ACOH    H312716   5.275   3.885   6.157 -2.6245  1.3110  0.2558
  478ACOH    H412717   8.860   0.496   6.262  1.3755 -0.4932  0.1918
  478ACOH    O212718   8.910   0.570   6.224  0.1922  0.3929  0.3664
  478ACOH    C212719   9.029   0.535   6.177 -0.1097  0.3754 -0.2066
  478ACOH    O112720   9.075   0.425   6.187  0.0166 -0.4682 -0.1449
  478ACOH    C112721   9.109   0.654   6.138 -0.4615  0.8588  0.1300
  478ACOH    H112722   9.102   0.740   6.205  0.9695 -0.2325  1.7305
  478ACOH    H212723   9.080   0.683   6.037 -1.0002 -0.1456 -0.0151
  478ACOH    H312724   9.213   0.623   6.133 -0.7051 -0.0678  0.5744
  479ACOH    H412725   7.540   3.346   4.977 -0.0193 -0.2420 -0.5754
  479ACOH    O212726   7.544   3.439   4.949  0.2647 -0.0399  0.1096
  479ACOH    C212727   7.520   3.436   4.814 -0.5721 -0.1326  0.6389
  479ACOH    O112728   7.438   3.359   4.764  1.5587 -0.0463 -1.0555
  479ACOH    C112729   7.555   3.560   4.749 -0.0846 -0.4259  0.5373
  479ACOH    H112730   7.638   3.613   4.797 -0.4104 -1.0169  1.7893
  479ACOH    H212731   7.470   3.627   4.740 -0.1279 -0.3987  1.0763
  479ACOH    H312732   7.595   3.535   4.651  0.0616  0.7000  0.3083
  480ACOH    H412733   6.436   2.990   3.720 -1.2754 -0.9042  1.5639
  480ACOH    O212734   6.392   3.075   3.701  0.2981 -0.3647  0.1792
  480ACOH    C212735   6.464   3.144   3.612 -0.5344 -0.1812 -0.6665
  480ACOH    O112736   6.570   3.111   3.567 -0.0344 -0.7246 -0.0736
  480ACOH    C112737   6.397   3.265   3.567 -0.0739  0.3273  0.1078
  480ACOH    H112738   6.353   3.312   3.655  0.8381  3.0723 -0.8329
  480ACOH    H212739   6.316   3.244   3.497  0.3097 -1.3743  0.1652
  480ACOH    H312740   6.463   3.342   3.526  1.3677 -0.3332  1.1683
  481ACOH    H412741   6.736   6.903   5.121 -0.6632 -0.9690 -1.3396
  481ACOH    O212742   6.805   6.943   5.065 -0.2069 -0.1347 -0.1929
  481ACOH    C212743   6.758   6.979   4.936 -0.0594  0.5077 -0.4338
  481ACOH    O112744   6.645   6.979   4.893 -1.1551 -0.7228  0.3215
  481ACOH    C112745   6.873   7.024   4.857  0.1470  0.4512  0.2689
  481ACOH    H112746   6.856   7.068   4.758 -1.8554  0.2193  0.4906
  481ACOH    H212747   6.932   6.934   4.837  2.1442  1.2368  2.4648
  481ACOH    H312748   6.937   7.081   4.924  1.6656  0.0735 -0.8222
  482ACOH    H412749   5.819   4.178   1.303 -0.5618 -0.5849  1.0476
  482ACOH    O212750   5.908   4.142   1.318 -0.1291  0.0442  0.0451
  482ACOH    C212751   5.947   4.169   1.439  0.1193  0.1241 -0.3564
  482ACOH    O112752   5.908   4.261   1.507 -0.6368  1.0579 -0.0749
  482ACOH    C112753   6.056   4.075   1.473 -0.2735 -0.5602 -0.7155
  482ACOH    H112754   6.143   4.123   1.518 -0.0451 -0.5501 -1.1606
  482ACOH    H212755   6.101   4.016   1.393 -0.6767 -1.7762 -0.0710
  482ACOH    H312756   6.014   4.003   1.544 -0.1642 -1.4849 -1.5675
  483ACOH    H412757   5.952   2.610   3.993 -0.0267  0.5917  1.4881
  483ACOH    O212758   6.019   2.679   3.980 -0.0006  0.3160  0.1260
  483ACOH    C212759   6.016   2.746   4.095 -0.6102 -0.9860 -0.6508
  483ACOH    O112760   6.001   2.696   4.204 -0.4466  0.6761  0.0812
  483ACOH    C112761   6.071   2.876   4.070 -0.6759  0.0537 -0.3567
  483ACOH    H112762   6.026   2.912   3.977 -2.8591  0.7279  0.9228
  483ACOH    H212763   6.180   2.879   4.068 -0.5386 -2.5363  1.3301
  483ACOH    H312764   6.034   2.943   4.149  3.5067  1.4573  0.5197
  484ACOH    H412765   6.793   5.421   7.265 -1.5382  1.0987  0.7604
  484ACOH    O212766   6.774   5.459   7.177 -0.5962 -0.4631 -0.1519
  484ACOH    C212767   6.737   5.363   7.087 -0.2966 -0.1570  0.8951
  484ACOH    O112768   6.705   5.246   7.111  0.3192  0.6177 -0.1687
  484ACOH    C112769   6.720   5.420   6.953  0.2880  0.4782 -0.3278
  484ACOH    H112770   6.729   5.349   6.871  1.3146  0.4846 -0.2165
  484ACOH    H212771   6.785   5.501   6.921  0.0025  0.2219 -1.5883
  484ACOH    H312772   6.615   5.451   6.948 -0.2083 -0.7308  1.9689
  485ACOH    H412773   6.751   9.038   7.473 -0.7410 -0.9722 -1.0356
  485ACOH    O212774   6.806   8.958   7.476  0.6768  0.0365  0.1687
  485ACOH    C212775   6.840   8.916   7.352  0.7878  0.0676  0.3161
  485ACOH    O112776   6.802   8.963   7.245  0.2018  0.1711 -0.6198
  485ACOH    C112777   6.941   8.813   7.364 -0.0377 -1.3215 -0.4070
  485ACOH    H112778   6.958   8.767   7.266  0.6074 -1.2549 -0.3287
  485ACOH    H212779   6.916   8.741   7.441  0.5911 -2.3306 -1.1399
  485ACOH    H312780   7.036   8.857   7.394 -0.0965 -2.6726  1.8150
  486ACOH    H412781   6.932   3.506   5.753  0.8595  1.2872 -0.3468
  486ACOH    O212782   6.906   3.513   5.660  0.1913 -0.0758 -0.2629
  486ACOH    C212783   7.011   3.470   5.589 -0.8183  0.0127 -0.0847
  486ACOH    O112784   7.102   3.411   5.643 -0.8027  0.6718 -0.6007
  486ACOH    C112785   7.018   3.502   5.447 -0.2798  0.8613  0.4070
  486ACOH    H112786   7.103   3.565   5.418 -0.5559  0.9835 -0.1386
  486ACOH    H212787   6.922   3.544   5.417  0.7123  1.6216 -1.7843
  486ACOH    H312788   7.032   3.410   5.391  0.5501  0.4035  1.3495
  487ACOH    H412789   7.079   6.710   3.581  3.7047 -2.4230  1.6935
  487ACOH    O212790   7.018   6.662   3.639 -0.3224 -0.4308 -0.6786
  487ACOH    C212791   7.111   6.621   3.723 -0.3132  0.1340  0.8278
  487ACOH    O112792   7.229   6.625   3.718 -0.2911 -0.3609  0.0990
  487ACOH    C112793   7.029   6.546   3.822  0.1453 -0.0826  0.3858
  487ACOH    H112794   6.961   6.473   3.780 -0.4307  0.7903 -0.2297
  487ACOH    H212795   6.965   6.609   3.884  0.1901 -0.7479  1.1071
  487ACOH    H312796   7.097   6.499   3.893  0.5647 -0.0035  0.0424
  488ACOH    H412797   2.087   0.772   0.979 -0.8886 -0.6936  0.1084
  488ACOH    O212798   2.124   0.724   1.056  0.0934  0.4646  0.3814
  488ACOH    C212799   2.026   0.711   1.148  0.3586  0.2704  0.0264
  488ACOH    O112800   1.909   0.713   1.126 -0.4507 -0.3809 -0.0146
  488ACOH    C112801   2.072   0.640   1.264 -0.4433 -0.1380  0.2028
  488ACOH    H112802   2.010   0.553   1.285 -1.4040  0.7575  1.1602
  488ACOH    H212803   2.066   0.712   1.346 -1.2708 -0.4066  0.3804
  488ACOH    H312804   2.177   0.619   1.246 -0.7437 -0.7534 -0.8471
  489ACOH    H412805   9.267   9.933   4.791  2.4751 -1.3551  2.4526
  489ACOH    O212806   9.251   9.849   4.745  0.2429  0.2855  0.0716
  489ACOH    C212807   9.119   9.840   4.730  0.0473 -0.3183 -0.2885
  489ACOH    O112808   9.039   9.915   4.783  0.1865 -0.1107  1.2945
  489ACOH    C112809   9.097   9.722   4.652  0.3506  0.3503  0.0645
  489ACOH    H112810   9.132   9.732   4.549 -0.7547  1.1804 -0.2419
  489ACOH    H212811   8.989   9.704   4.653  0.5660 -1.0321 -0.2057
  489ACOH    H312812   9.144   9.639   4.704 -0.2871  0.0030  0.0926
  490ACOH    H412813   5.402   2.814   8.266  1.3683  0.2627  0.3157
  490ACOH    O212814   5.454   2.836   8.188  0.6352  0.2535 -0.1771
  490ACOH    C212815   5.379   2.911   8.101  0.5222  0.5045  0.2871
  490ACOH    O112816   5.258   2.930   8.104  0.3973 -0.5860 -0.7306
  490ACOH    C112817   5.452   2.942   7.976  0.4358 -0.1138 -0.2290
  490ACOH    H112818   5.389   2.940   7.887  1.2035  0.0742 -0.7806
  490ACOH    H212819   5.536   2.875   7.960  1.8641  1.1326  1.8499
  490ACOH    H312820   5.486   3.043   8.000  1.3366 -0.2029 -1.1268
  491ACOH    H412821   2.679   9.450   5.757  0.3921 -0.9398 -0.3132
  491ACOH    O212822   2.726   9.497   5.686  0.1010  0.1042  0.1701
  491ACOH    C212823   2.714   9.437   5.568  1.0680  0.0126 -0.0564
  491ACOH    O112824   2.673   9.324   5.545 -0.5083 -0.5177 -0.4607
  491ACOH    C112825   2.747   9.532   5.460  0.3316 -0.7324  0.8846
  491ACOH    H112826   2.856   9.541   5.455  0.2346  0.0859  0.0576
  491ACOH    H212827   2.709   9.628   5.495  2.1580  0.5652 -0.6060
  491ACOH    H312828   2.707   9.503   5.363 -1.3576 -2.0289  1.9471
  492ACOH    H412829   6.794   7.984   7.081 -1.4727  0.8978 -0.7800
  492ACOH    O212830   6.765   7.891   7.079  0.3566  0.2928 -0.4744
  492ACOH    C212831   6.629   7.905   7.076 -0.3619 -0.1819 -0.0791
  492ACOH    O112832   6.568   8.011   7.049 -0.1497  0.5350  0.0852
  492ACOH    C112833   6.577   7.766   7.085  0.5914  0.1069  0.0587
  492ACOH    H112834   6.603   7.713   6.993  0.0244  1.3347 -0.8258
  492ACOH    H212835   6.469   7.760   7.103  0.7882 -3.2202  0.4927
  492ACOH    H312836   6.622   7.712   7.168 -0.9043  3.7904  3.4211
  493ACOH    H412837   6.005   8.852   2.322 -2.4800  0.4589  2.4196
  493ACOH    O212838   6.029   8.762   2.350 -0.0116  0.2812  0.0138
  493ACOH    C212839   6.102   8.779   2.460 -0.3739  0.0501  0.7158
  493ACOH    O112840   6.122   8.881   2.521 -0.5118  0.1694 -0.1406
  493ACOH    C112841   6.160   8.651   2.506  0.4963 -0.8942 -0.0670
  493ACOH    H112842   6.131   8.623   2.608 -2.1447 -2.7723 -1.2722
  493ACOH    H212843   6.268   8.667   2.504  0.2743  0.5681 -2.4229
  493ACOH    H312844   6.131   8.568   2.441 -0.7421 -1.3119  0.9868
  494ACOH    H412845   7.464   6.755   2.849 -1.9191 -0.9133  0.1367
  494ACOH    O212846   7.496   6.664   2.861  0.0621 -0.1850  0.5741
  494ACOH    C212847   7.447   6.619   2.981  0.6269 -0.3065  1.0713
  494ACOH    O112848   7.356   6.661   3.052 -0.0363  0.5134  0.2199
  494ACOH    C112849   7.515   6.491   3.016 -0.3686 -0.8613  0.4399
  494ACOH    H112850   7.471   6.403   2.971  0.4420 -0.3219 -1.4306
  494ACOH    H212851   7.507   6.481   3.125  0.0402  0.5674  0.6181
  494ACOH    H312852   7.616   6.495   2.976  0.2351 -1.3559  1.8664
  495ACOH    H412853   6.425   2.951   1.307  1.1858 -0.4022  0.7354
  495ACOH    O212854   6.389   2.866   1.279  0.4173  0.2300 -0.2146
  495ACOH    C212855   6.475   2.764   1.291 -0.3386 -0.3839  0.0416
  495ACOH    O112856   6.563   2.757   1.373 -0.4132  0.0291  0.5227
  495ACOH    C112857   6.456   2.664   1.186  0.4770 -0.1745  0.3255
  495ACOH    H112858   6.358   2.618   1.189  0.7502 -0.7579  0.2931
  495ACOH    H212859   6.530   2.585   1.200  1.4470  0.6959  0.1913
  495ACOH    H312860   6.459   2.701   1.084 -4.7758 -0.6309 -0.1207
  496ACOH    H412861   2.346   5.904   0.036  1.3477  0.6191  0.2114
  496ACOH    O212862   2.382   5.843   0.102 -0.4769 -0.3610  0.3220
  496ACOH    C212863   2.285   5.749   0.111 -0.6719  0.3680 -0.8742
  496ACOH    O112864   2.173   5.754   0.061  0.6111  0.1993 -0.0011
  496ACOH    C112865   2.325   5.628   0.186  0.7429 -0.1116  0.3414
  496ACOH    H112866   2.421   5.598   0.144 -0.6011 -1.4268 -1.8961
  496ACOH    H212867   2.255   5.548   0.160  0.9487 -0.0585 -0.3894
  496ACOH    H312868   2.327   5.644   0.293 -2.1576 -0.3587  0.4504
  497ACOH    H412869  -0.007   6.849   5.294 -0.0958 -0.2626 -1.2630
  497ACOH    O212870   0.006   6.923   5.232  0.1319  0.6862 -0.1085
  497ACOH    C212871   0.128   6.921   5.175  0.7417  0.5512 -0.2186
  497ACOH    O112872   0.212   6.838   5.195 -0.2520  0.3726 -0.0541
  497ACOH    C112873   0.132   7.036   5.082 -0.2456 -0.2668  0.2919
  497ACOH    H112874   0.234   7.052   5.047 -0.3151 -1.2888 -0.3848
  497ACOH    H212875   0.103   7.129   5.131 -0.2883 -0.1006 -0.0560
  497ACOH    H312876   0.068   7.022   4.995  0.3544  0.0332 -0.1992
  498ACOH    H412877   8.200   5.736   6.888  2.0023 -2.0559 -1.8564
  498ACOH    O212878   8.277   5.794   6.900  0.2212 -0.0243  0.0062
  498ACOH    C212879   8.377   5.708   6.897 -0.2657  0.2299  0.6276
  498ACOH    O112880   8.369   5.605   6.829  0.1028 -0.1927 -0.4294
  498ACOH    C112881   8.506   5.773   6.924  0.0489 -0.1098 -0.2795
  498ACOH    H112882   8.481   5.870   6.966  0.7357  1.4892 -3.4551
  498ACOH    H212883   8.555   5.799   6.831 -1.0864  0.9345 -0.6021
  498ACOH    H312884   8.564   5.705   6.987  0.7500  0.2467 -0.5321
  499ACOH    H412885   5.759   6.359   1.036 -0.2210 -0.2152  0.2808
  499ACOH    O212886   5.737   6.448   1.004  0.2958 -0.2468 -0.1668
  499ACOH    C212887   5.853   6.502   0.973  0.2046 -0.1423 -0.2152
  499ACOH    O112888   5.964   6.446   0.977  0.1638 -0.8074 -0.0774
  499ACOH    C112889   5.840   6.648   0.945  0.1747 -0.5068 -0.5130
  499ACOH    H112890   5.762   6.691   1.009  1.1260  3.2425 -1.7666
  499ACOH    H212891   5.817   6.660   0.839 -1.3714  1.3948  0.0012
  499ACOH    H312892   5.927   6.709   0.966  0.3834 -1.6189  2.0508
  500ACOH    H412893   4.246   9.095   0.186 -2.9638 -1.6927  2.2727
  500ACOH    O212894   4.252   9.014   0.131 -0.4493 -0.1173  0.1256
  500ACOH    C212895   4.209   8.921   0.216  0.4277 -0.6054  0.9527
  500ACOH    O112896   4.131   8.938   0.311 -0.7249 -0.2409 -0.8138
  500ACOH    C112897   4.243   8.786   0.174  0.7872  1.0179  0.4806
  500ACOH    H112898   4.348   8.762   0.187  1.0048  2.4280  1.4054
  500ACOH    H212899   4.217   8.772   0.069  0.3174 -0.9466  0.8297
  500ACOH    H312900   4.188   8.705   0.222  0.4823  0.8240 -0.1908
  501ACOH    H412901   0.437   3.170   4.896  0.0276  0.6469  0.9624
  501ACOH    O212902   0.478   3.090   4.932 -0.6775 -0.2284 -0.1813
  501ACOH    C212903   0.479   3.113   5.064  0.0334 -0.0893 -0.1341
  501ACOH    O112904   0.528   3.220   5.107  0.3561 -0.5862  0.2349
  501ACOH    C112905   0.498   2.985   5.137 -0.3011 -0.2153  1.6931
  501ACOH    H112906   0.448   2.984   5.234 -0.5304 -3.5184  1.5782
  501ACOH    H212907   0.601   2.965   5.165 -0.0260 -0.5275  0.4737
  501ACOH    H312908   0.451   2.904   5.082  0.8438  0.5350 -0.4577
  502ACOH    H412909   7.005   3.271   3.139 -1.1624 -1.8994  0.9380
  502ACOH    O212910   6.932   3.325   3.174 -0.1110  0.1586  0.1045
  502ACOH    C212911   6.961   3.457   3.171  0.7915  0.2248  0.0051
  502ACOH    O112912   7.051   3.520   3.117  0.0850 -0.2360  0.5181
  502ACOH    C112913   6.865   3.526   3.261 -0.1610  0.2420  0.0893
  502ACOH    H112914   6.770   3.473   3.269  0.7467 -1.3730  0.4042
  502ACOH    H212915   6.840   3.627   3.228  2.6521  0.6556 -0.9663
  502ACOH    H312916   6.907   3.528   3.362 -0.5570 -2.3504  0.3501
  503ACOH    H412917   5.370   8.680   1.826  1.4349 -0.2680 -1.0451
  503ACOH    O212918   5.342   8.590   1.801  0.2196 -0.1685 -0.1163
  503ACOH    C212919   5.206   8.583   1.778  1.0541 -0.2358 -0.6948
  503ACOH    O112920   5.127   8.674   1.772 -0.0312  0.1327  0.7759
  503ACOH    C112921   5.164   8.444   1.744 -0.5798  0.0441 -0.4898
  503ACOH    H112922   5.058   8.445   1.719 -0.7948 -1.0165  0.3522
  503ACOH    H212923   5.185   8.380   1.830  1.7057  1.2848 -0.1007
  503ACOH    H312924   5.224   8.411   1.660  0.9875  1.1157  0.1877
  504ACOH    H412925   0.117   4.803   3.443  1.5501 -1.0011 -1.7202
  504ACOH    O212926   0.098   4.896   3.426  0.2240 -0.8414  0.5286
  504ACOH    C212927   0.174   4.967   3.520 -0.6956  0.7614 -0.1789
  504ACOH    O112928   0.258   4.924   3.597 -0.1401  0.2478  0.0001
  504ACOH    C112929   0.130   5.109   3.544 -0.2333 -0.3228  0.6114
  504ACOH    H112930   0.022   5.105   3.551 -0.4259 -2.2531 -2.2973
  504ACOH    H212931   0.163   5.167   3.457 -0.6564  0.8518  1.2190
  504ACOH    H312932   0.173   5.151   3.635  0.0090  0.4965  0.1244
  505ACOH    H412933   7.236   6.287   1.352 -1.0206 -0.7606  0.5632
  505ACOH    O212934   7.165   6.323   1.296  0.1261  0.1152 -0.3593
  505ACOH    C212935   7.214   6.443   1.258  0.5293 -0.2228  0.0592
  505ACOH    O112936   7.305   6.498   1.322  0.5792 -0.5500 -0.0863
  505ACOH    C112937   7.125   6.503   1.153 -0.0108  0.3471  0.8182
  505ACOH    H112938   7.170   6.591   1.106 -0.4724 -1.4352 -3.1691
  505ACOH    H212939   7.031   6.528   1.203  0.9637  1.1586  2.2848
  505ACOH    H312940   7.096   6.427   1.080 -3.8435  1.7009  0.7894
  506ACOH    H412941   5.074   1.619   3.549 -0.0785 -0.1761  2.1856
  506ACOH    O212942   4.980   1.610   3.525  0.3903  0.1689  0.1969
  506ACOH    C212943   4.964   1.618   3.391  0.0837  0.4822  0.5467
  506ACOH    O112944   5.057   1.625   3.312 -0.1202  0.2385 -0.3284
  506ACOH    C112945   4.826   1.591   3.354 -0.0713  0.2774  0.1703
  506ACOH    H112946   4.776   1.684   3.326  1.5117  0.5286 -1.8370
  506ACOH    H212947   4.765   1.546   3.433  1.8066  1.1460  2.1546
  506ACOH    H312948   4.816   1.533   3.263 -0.6025 -0.8723  0.9493
  507ACOH    H412949   2.933   8.409   3.346 -0.1196  0.1152  0.8118
  507ACOH    O212950   2.853   8.455   3.377 -0.8034 -0.3036 -0.3367
  507ACOH    C212951   2.845   8.440   3.508 -0.7952 -0.0834  0.3190
  507ACOH    O112952   2.921   8.396   3.587  0.5015 -0.5409 -1.2089
  507ACOH    C112953   2.728   8.524   3.540 -0.5252  0.2061  0.5875
  507ACOH    H112954   2.695   8.527   3.644  1.8105  1.3280  1.3358
  507ACOH    H212955   2.642   8.473   3.498  0.1066 -1.1039  0.8427
  507ACOH    H312956   2.727   8.624   3.498 -1.3619  0.1116  0.3864
  508ACOH    H412957   7.061   6.051   7.162  0.1773 -0.5106  2.1150
  508ACOH    O212958   6.998   5.980   7.139  0.8218 -0.4276 -0.0034
  508ACOH    C212959   6.873   6.018   7.149 -0.6925  0.3405 -0.4633
  508ACOH    O112960   6.834   6.114   7.204  0.0224 -0.7933 -0.0533
  508ACOH    C112961   6.790   5.916   7.089 -0.1680 -0.1287 -0.1058
  508ACOH    H112962   6.844   5.846   7.025 -0.4587 -0.3517 -0.1086
  508ACOH    H212963   6.707   5.965   7.039 -0.3996  1.8055  2.0836
  508ACOH    H312964   6.742   5.858   7.168  1.2907 -1.9794 -0.5367
  509ACOH    H412965   9.226   9.551   8.019 -0.5639 -0.3473 -0.8298
  509ACOH    O212966   9.263   9.601   7.944 -0.3036  0.3579 -0.2301
  509ACOH    C212967   9.197   9.718   7.942 -0.3421 -0.2160  0.3253
  509ACOH    O112968   9.110   9.756   8.024 -0.5313  0.1193  0.0699
  509ACOH    C112969   9.239   9.793   7.822  0.3601  0.1823  0.2497
  509ACOH    H112970   9.212   9.737   7.733 -1.1657  0.5505  0.4635
  509ACOH    H212971   9.347   9.808   7.811  0.2724  1.1147  0.6577
  509ACOH    H312972   9.193   9.892   7.816  0.0857 -0.0066 -0.7789
  510ACOH    H412973   5.731   4.963   7.476 -1.3894  0.5980 -0.5799
  510ACOH    O212974   5.755   5.023   7.403 -0.2309  0.5651 -0.2359
  510ACOH    C212975   5.820   4.950   7.309  0.1780  1.1477 -0.4439
  510ACOH    O112976   5.884   4.849   7.331 -0.6700 -0.4730  0.4675
  510ACOH    C112977   5.813   5.012   7.170  0.1433 -0.1380 -0.2007
  510ACOH    H112978   5.708   5.011   7.140  0.3861 -0.4455 -1.0548
  510ACOH    H212979   5.876   4.973   7.090 -0.7047  2.0023 -1.9934
  510ACOH    H312980   5.837   5.119   7.173  0.7153 -0.2887  0.6547
  511ACOH    H412981   4.549  10.004   0.500 -2.4339  1.1193 -0.6881
  511ACOH    O212982   4.527   9.915   0.468  0.7916 -0.2925  0.7823
  511ACOH    C212983   4.545   9.924   0.336 -0.3696  0.0846 -0.9820
  511ACOH    O112984   4.586  10.022   0.273  0.0468  0.1260 -0.3914
  511ACOH    C112985   4.507   9.799   0.266 -0.3017 -0.1429 -0.1683
  511ACOH    H112986   4.431   9.824   0.192  1.2528  2.1899 -1.0308
  511ACOH    H212987   4.458   9.735   0.340  1.1929  0.3094  1.2516
  511ACOH    H312988   4.585   9.746   0.210  1.8167  2.4655  0.2019
  512ACOH    H412989   0.078   3.305  -0.169 -0.1535  2.1051 -0.9542
  512ACOH    O212990  -0.002   3.302  -0.113  0.2610 -0.1884 -0.4259
  512ACOH    C212991   0.027   3.331   0.014  0.6807  0.1455  0.3383
  512ACOH    O112992   0.145   3.350   0.043 -0.8848  0.2715  0.1080
  512ACOH    C112993  -0.086   3.338   0.109 -0.2072  0.3037  0.3857
  512ACOH    H112994  -0.085   3.433   0.162  0.0220  0.2540  0.4678
  512ACOH    H212995  -0.067   3.254   0.175  0.3629  1.5781  1.8586
  512ACOH    H312996  -0.182   3.324   0.059 -0.3548 -1.9619  1.2435
  513ACOH    H412997   7.369   2.269   6.725  1.3869 -0.6856 -1.7042
  513ACOH    O212998   7.393   2.199   6.787 -0.1885  0.1250 -0.1171
  513ACOH    C212999   7.351   2.080   6.733  0.0626 -0.2053 -0.0574
  513ACOH    O113000   7.246   2.072   6.671  0.4499  0.0602 -0.1558
  513ACOH    C113001   7.411   1.966   6.808 -0.4919 -0.2445 -0.1766
  513ACOH    H113002   7.342   1.882   6.802  0.7608 -1.1704 -2.5162
  513ACOH    H213003   7.411   1.994   6.913 -3.0402 -0.8375  0.0055
  513ACOH    H313004   7.516   1.954   6.780  0.1410 -0.7498  2.3565
  514ACOH    H413005   0.292   4.707   7.536 -0.1552  1.8158  0.2940
  514ACOH    O213006   0.322   4.711   7.444  0.1365  0.0391  0.2979
  514ACOH    C213007   0.239   4.669   7.350  0.1199  0.3826 -0.4504
  514ACOH    O113008   0.161   4.578   7.377 -0.2446  0.1314  0.1888
  514ACOH    C113009   0.285   4.698   7.216 -0.1413  0.3003  0.2908
  514ACOH    H113010   0.389   4.731   7.215 -0.3362  0.9159 -1.4036
  514ACOH    H213011   0.227   4.784   7.182  1.2388  0.8395 -0.7536
  514ACOH    H313012   0.263   4.615   7.149 -2.1487  0.1976  1.0541
  515ACOH    H413013   1.819   6.526   4.039 -0.5016 -0.3506 -1.6996
  515ACOH    O213014   1.730   6.498   4.065 -0.1823  0.6657  0.5910
  515ACOH    C213015   1.762   6.440   4.186 -0.0344  0.3657  0.5452
  515ACOH    O113016   1.861   6.462   4.252 -0.2142 -0.6873 -0.1975
  515ACOH    C113017   1.661   6.338   4.234 -0.5944  0.3925  0.0607
  515ACOH    H113018   1.578   6.337   4.162 -0.3285  1.2843 -0.2647
  515ACOH    H213019   1.637   6.363   4.337  0.3525  0.8091  0.1845
  515ACOH    H313020   1.701   6.238   4.225 -0.9858  0.4865 -3.4783
  516ACOH    H413021   7.402   2.484   6.625 -0.3925  0.3469 -2.4773
  516ACOH    O213022   7.336   2.413   6.620 -0.4437  0.2229 -0.4439
  516ACOH    C213023   7.256   2.446   6.516 -0.7962 -0.3661 -0.4229
  516ACOH    O113024   7.251   2.559   6.471  0.2230  0.6383  0.2860
  516ACOH    C113025   7.161   2.339   6.486  0.2534 -0.1889 -0.5972
  516ACOH    H113026   7.073   2.376   6.433 -0.4301 -0.3877  0.3824
  516ACOH    H213027   7.139   2.308   6.588  1.1098 -0.7016 -0.5663
  516ACOH    H313028   7.198   2.251   6.434 -0.5978 -1.5473  1.0308
  517ACOH    H413029   6.066   1.774   5.787  1.2894 -1.6506  0.5894
  517ACOH    O213030   6.155   1.798   5.817  0.8432  0.2843  0.3889
  517ACOH    C213031   6.247   1.766   5.725 -0.3605  0.6690  0.0033
  517ACOH    O113032   6.218   1.710   5.621  0.2973  0.3265 -0.0711
  517ACOH    C113033   6.384   1.784   5.770 -0.8377  0.1849  0.5762
  517ACOH    H113034   6.454   1.720   5.715 -1.0333 -1.0558  1.7368
  517ACOH    H213035   6.403   1.754   5.873 -2.1518 -2.4866  0.0830
  517ACOH    H313036   6.423   1.884   5.751 -1.5178  0.1687 -0.9692
  518ACOH    H413037   5.598   0.091   6.759  0.3796 -1.4221  0.8365
  518ACOH    O213038   5.548   0.133   6.832  0.0798 -0.0023 -0.1576
  518ACOH    C213039   5.624   0.136   6.943  0.1543  0.2305  0.0081
  518ACOH    O113040   5.713   0.055   6.962 -0.3983  0.5058 -0.1414
  518ACOH    C113041   5.581   0.223   7.053 -0.1928 -0.1215 -0.9918
  518ACOH    H113042   5.632   0.316   7.028 -1.6070  0.3460 -2.2330
  518ACOH    H213043   5.599   0.196   7.157  1.4818 -1.9889 -1.7302
  518ACOH    H313044   5.473   0.235   7.039 -0.4534  0.3192  1.2887
  519ACOH    H413045   6.693   0.249   7.226 -0.9983  0.0117  1.0203
  519ACOH    O213046   6.617   0.230   7.168 -0.5369  0.4146  0.2807
  519ACOH    C213047   6.534   0.154   7.241 -0.3221 -1.2725 -0.2063
  519ACOH    O113048   6.554   0.125   7.359 -0.1339  0.0267  0.2279
  519ACOH    C113049   6.419   0.109   7.165  0.1079 -0.5874  0.4099
  519ACOH    H113050   6.386   0.013   7.205  1.6347 -0.4887  1.9712
  519ACOH    H213051   6.446   0.092   7.060  0.3034  1.2797  0.1379
  519ACOH    H313052   6.332   0.175   7.170  1.3141  0.9221  1.6461
  520ACOH    H413053   7.089   7.068   3.064 -0.9201  2.3205 -1.5648
  520ACOH    O213054   7.010   7.014   3.047  0.2024  0.3059 -0.4120
  520ACOH    C213055   6.991   7.003   2.917  0.9764  0.8173 -0.5981
  520ACOH    O113056   7.069   7.037   2.829 -0.5278  0.4319  0.3666
  520ACOH    C113057   6.854   6.954   2.896  0.1930 -0.9380 -0.2869
  520ACOH    H113058   6.863   6.849   2.868 -1.4687 -2.1051  3.1895
  520ACOH    H213059   6.783   7.007   2.833  1.9325 -0.1467 -1.5953
  520ACOH    H313060   6.797   6.954   2.990  0.9339 -1.8636  0.1745
  521ACOH    H413061   5.061   6.900   1.755  1.1086 -1.3649  0.0167
  521ACOH    O213062   5.138   6.958   1.766  0.1481 -0.1060  0.2136
  521ACOH    C213063   5.239   6.920   1.691  0.1062 -0.2202  0.5247
  521ACOH    O113064   5.250   6.808   1.644  0.0171 -0.0428  0.3420
  521ACOH    C113065   5.348   7.020   1.692 -0.1158  0.2806 -0.3447
  521ACOH    H113066   5.354   7.062   1.591 -1.6625  0.6602 -0.2906
  521ACOH    H213067   5.440   6.972   1.726 -1.3614 -2.4343 -0.7101
  521ACOH    H313068   5.325   7.100   1.762  1.2273  1.2732 -1.0134
  522ACOH    H413069   6.618   4.877   2.416  0.4161  1.0075 -1.2237
  522ACOH    O213070   6.577   4.960   2.448 -0.1902  0.2692 -0.0240
  522ACOH    C213071   6.490   4.991   2.348 -0.6366 -0.3308 -0.4321
  522ACOH    O113072   6.522   4.980   2.227  0.3377 -0.8495  0.5532
  522ACOH    C113073   6.390   5.081   2.405  0.0737 -0.7107  0.2937
  522ACOH    H113074   6.290   5.043   2.383  0.2376 -0.4023 -1.0337
  522ACOH    H213075   6.394   5.178   2.356 -5.7105 -0.2190  0.3962
  522ACOH    H313076   6.402   5.087   2.513 -0.5308  0.4005  0.3011
  523ACOH    H413077   5.852   5.628   1.848 -0.8451  1.5067  1.2047
  523ACOH    O213078   5.864   5.608   1.942  0.2902 -0.1516  0.7336
  523ACOH    C213079   5.882   5.717   2.014 -0.4576 -0.0492 -0.3839
  523ACOH    O113080   5.895   5.832   1.981 -0.2795 -0.0625 -0.5736
  523ACOH    C113081   5.893   5.683   2.163  0.0438 -0.7189 -0.0159
  523ACOH    H113082   5.808   5.632   2.209 -0.5870  1.2396  1.0346
  523ACOH    H213083   5.908   5.772   2.224 -0.7442 -1.2557  0.9872
  523ACOH    H313084   5.984   5.627   2.184  0.6489  0.6609  1.1430
  524ACOH    H413085   0.772   5.424   4.786 -0.3511  1.0021  0.0452
  524ACOH    O213086   0.696   5.364   4.794  0.4635 -0.1059 -0.3456
  524ACOH    C213087   0.638   5.365   4.669  0.5211 -0.2461  0.2862
  524ACOH    O113088   0.681   5.406   4.562  0.5332  0.3042 -0.0220
  524ACOH    C113089   0.508   5.302   4.696 -0.6303  0.3067 -0.4550
  524ACOH    H113090   0.445   5.345   4.774 -0.0660 -2.3628  1.5504
  524ACOH    H213091   0.535   5.202   4.729  0.0661  0.8088  0.5146
  524ACOH    H313092   0.449   5.286   4.606 -1.5445 -1.3790  0.4229
  525ACOH    H413093   7.749   6.912   1.255  0.5430  1.7294  0.8865
  525ACOH    O213094   7.767   6.960   1.172  0.2842 -0.1336 -0.2600
  525ACOH    C213095   7.844   7.061   1.200 -0.5805 -0.1933 -0.0579
  525ACOH    O113096   7.917   7.064   1.293 -0.0363 -0.3047  0.2709
  525ACOH    C113097   7.869   7.133   1.072 -0.1751  0.8058  0.0937
  525ACOH    H113098   7.906   7.234   1.091 -1.8881  1.0896  2.0940
  525ACOH    H213099   7.777   7.151   1.016  0.8673 -1.3945 -2.4506
  525ACOH    H313100   7.937   7.078   1.007 -1.0803  2.3767 -2.2481
  526ACOH    H413101   8.224   2.490   2.308  0.5525  1.4041 -0.1069
  526ACOH    O213102   8.153   2.502   2.373  0.1509  0.1804 -0.2942
  526ACOH    C213103   8.192   2.444   2.486 -0.3453 -0.0753  0.5689
  526ACOH    O113104   8.162   2.491   2.592 -0.6347 -0.6262 -0.2587
  526ACOH    C113105   8.246   2.306   2.484  0.0007  0.5567 -0.4096
  526ACOH    H113106   8.323   2.303   2.407  0.5372  4.2417 -0.0946
  526ACOH    H213107   8.172   2.228   2.468 -0.4104  0.6764  0.8620
  526ACOH    H313108   8.306   2.281   2.572 -0.5360  0.9502  0.0678
  527ACOH    H413109   7.852   8.111   0.408  0.2282  0.0565 -0.5753
  527ACOH    O213110   7.761   8.110   0.440  0.4564 -0.0549  0.0757
  527ACOH    C213111   7.717   7.987   0.416  0.2159  0.5617 -0.0564
  527ACOH    O113112   7.742   7.914   0.320 -0.6338 -0.4671 -0.0064
  527ACOH    C113113   7.622   7.940   0.524 -0.1825 -0.2174  0.6586
  527ACOH    H113114   7.613   7.832   0.517 -3.4265  0.0991 -0.9482
  527ACOH    H213115   7.526   7.975   0.485 -0.7341 -0.9802  1.3182
  527ACOH    H313116   7.634   7.984   0.623 -0.3172  1.2991  0.0279
  528ACOH    H413117   3.929   5.273   4.619 -0.0032 -1.8794  0.3687
  528ACOH    O213118   4.024   5.285   4.633 -0.2807  0.4753  0.4549
  528ACOH    C213119   4.080   5.308   4.513  0.2433 -0.1987 -0.6680
  528ACOH    O113120   4.020   5.319   4.409  0.7898 -0.1927  0.4351
  528ACOH    C113121   4.224   5.303   4.518  0.3721  0.4558  0.2432
  528ACOH    H113122   4.273   5.401   4.520  0.6370  0.3149  1.7517
  528ACOH    H213123   4.259   5.243   4.435 -1.3514  0.0779 -0.2269
  528ACOH    H313124   4.241   5.263   4.618 -1.4943  3.6312  1.9109
  529ACOH    H413125   5.070   3.527   4.203 -1.9353 -0.9408  0.1165
  529ACOH    O213126   5.021   3.536   4.120 -0.0454  0.4244 -0.8863
  529ACOH    C213127   4.913   3.464   4.142 -0.6268  0.3212  0.5433
  529ACOH    O113128   4.894   3.381   4.225 -0.2657  0.2361 -0.7623
  529ACOH    C113129   4.818   3.479   4.029  0.3494 -0.0627  0.0916
  529ACOH    H113130   4.740   3.547   4.062 -0.2026 -0.2820 -0.7381
  529ACOH    H213131   4.768   3.386   4.004  0.6052 -0.6916  1.8490
  529ACOH    H313132   4.862   3.508   3.933 -1.2228  0.1200 -0.5793
  530ACOH    H413133   7.052   7.315   4.723  0.2673  4.1823  2.6768
  530ACOH    O213134   7.018   7.360   4.644 -0.1840  0.1828  0.4587
  530ACOH    C213135   6.886   7.327   4.632  0.5648 -0.7860  0.0069
  530ACOH    O113136   6.810   7.315   4.727  0.3031  0.1319  0.6126
  530ACOH    C113137   6.849   7.337   4.490  0.6545  0.7580  0.7208
  530ACOH    H113138   6.741   7.330   4.480  0.7453  0.3443  0.0361
  530ACOH    H213139   6.892   7.254   4.434 -1.0316  0.6248 -0.3976
  530ACOH    H313140   6.885   7.428   4.441 -0.7826  0.6271 -0.6183
  531ACOH    H413141   1.658   6.352   2.227  0.4096  0.3421 -1.1302
  531ACOH    O213142   1.692   6.437   2.261 -0.3574  0.0360  0.4229
  531ACOH    C213143   1.609   6.541   2.233  0.1430  0.2772  0.7706
  531ACOH    O113144   1.519   6.539   2.146 -0.0772  0.4963 -0.6841
  531ACOH    C113145   1.680   6.669   2.266  0.0875  0.2512 -0.3697
  531ACOH    H113146   1.620   6.725   2.338  1.5274 -1.9307  2.6527
  531ACOH    H213147   1.679   6.736   2.180  1.3966 -1.0131 -1.3991
  531ACOH    H313148   1.779   6.647   2.307 -0.8341  0.9118  2.3412
  532ACOH    H413149   6.289   2.087   5.983 -0.5826  0.9313 -1.1090
  532ACOH    O213150   6.208   2.057   6.028  0.2229  0.3460 -0.0391
  532ACOH    C213151   6.100   2.064   5.946  0.3407  0.4858 -0.0705
  532ACOH    O113152   6.107   2.091   5.827  0.1825 -0.8346  0.3566
  532ACOH    C113153   5.973   2.002   6.003  0.2091 -0.3546 -0.2673
  532ACOH    H113154   5.999   1.910   6.054 -1.6694 -0.9147 -0.2674
  532ACOH    H213155   5.908   1.980   5.918  0.0645  0.8758 -0.4790
  532ACOH    H313156   5.929   2.072   6.074  1.9104  0.0864  0.3777
  533ACOH    H413157   5.690   2.204   3.364 -0.5799  1.4056  0.2775
  533ACOH    O213158   5.785   2.204   3.347 -0.5848 -0.5035  0.1332
  533ACOH    C213159   5.845   2.261   3.452 -0.1398 -0.2985 -0.8982
  533ACOH    O113160   5.792   2.340   3.533  0.3571 -0.3387 -0.2617
  533ACOH    C113161   5.994   2.242   3.447 -0.0188  0.2214 -0.4387
  533ACOH    H113162   6.020   2.190   3.539 -0.6201  0.3604 -0.1929
  533ACOH    H213163   6.043   2.340   3.449 -1.5993  1.0757 -1.8341
  533ACOH    H313164   6.024   2.183   3.360  1.5925 -0.5351  0.6037
  534ACOH    H413165   8.885   4.170   0.453  1.7186  0.0413  1.3293
  534ACOH    O213166   8.836   4.136   0.529  0.6564 -0.7901  0.2949
  534ACOH    C213167   8.723   4.078   0.500 -0.0472  0.3312  0.7557
  534ACOH    O113168   8.657   4.104   0.404 -0.5121  0.1463  0.2100
  534ACOH    C113169   8.655   4.018   0.623 -0.2194  0.1635  0.4198
  534ACOH    H113170   8.640   4.099   0.695  0.8793  0.4758  0.3074
  534ACOH    H213171   8.722   3.940   0.658  0.2830  0.2949 -0.2442
  534ACOH    H313172   8.557   3.974   0.604 -0.3815  1.6461 -2.4667
  535ACOH    H413173   5.604   1.658   2.944 -0.3494  0.6730  1.0573
  535ACOH    O213174   5.640   1.745   2.919 -0.3223  0.5067  0.5166
  535ACOH    C213175   5.663   1.760   2.791 -0.5637  0.0361 -0.0832
  535ACOH    O113176   5.664   1.667   2.709  0.1934 -0.0683  0.0494
  535ACOH    C113177   5.724   1.891   2.761  0.2089 -0.5440  0.0266
  535ACOH    H113178   5.800   1.905   2.838 -0.4469  0.7087  0.4552
  535ACOH    H213179   5.656   1.974   2.775 -0.1502 -0.9136  0.5272
  535ACOH    H313180   5.764   1.893   2.660 -2.1254 -0.4566 -0.9318
  536ACOH    H413181   6.693   2.409   7.733 -0.1564  1.3022 -2.0285
  536ACOH    O213182   6.631   2.342   7.698  0.0329  0.1615 -0.2094
  536ACOH    C213183   6.533   2.336   7.789  0.7945  0.2460  0.3919
  536ACOH    O113184   6.533   2.398   7.891 -0.0822 -0.7187  0.0020
  536ACOH    C113185   6.426   2.240   7.755 -0.0180 -0.0990 -0.0909
  536ACOH    H113186   6.442   2.153   7.819  1.9469  0.2040 -0.1484
  536ACOH    H213187   6.428   2.206   7.651  3.7119 -2.1714  0.5515
  536ACOH    H313188   6.329   2.283   7.778 -2.3073 -4.3677 -1.1731
  537ACOH    H413189   2.329   3.006   3.645  0.6570 -2.1615  2.0405
  537ACOH    O213190   2.233   3.006   3.662  0.3792  0.2901  0.7037
  537ACOH    C213191   2.219   2.967   3.790 -0.4965 -0.3237 -0.0644
  537ACOH    O113192   2.307   2.972   3.878  0.3530  0.0473 -0.5412
  537ACOH    C113193   2.072   2.928   3.813 -0.4324  0.2813  0.5534
  537ACOH    H113194   2.007   3.001   3.765 -0.9231  0.0538  0.8636
  537ACOH    H213195   2.065   2.927   3.922  1.5861  0.0924  0.6958
  537ACOH    H313196   2.054   2.827   3.776  2.1328 -0.2646  0.7374
  538ACOH    H413197   7.728   4.294   5.873 -0.8641 -0.7628 -0.0622
  538ACOH    O213198   7.738   4.361   5.803  0.8127 -0.3068  0.6020
  538ACOH    C213199   7.681   4.472   5.845  0.8468  0.0810  0.7025
  538ACOH    O113200   7.607   4.487   5.941 -0.2628 -0.3660 -0.2227
  538ACOH    C113201   7.704   4.585   5.745  0.6258 -0.3153 -0.0234
  538ACOH    H113202   7.679   4.681   5.790  1.1602  0.4096 -1.2431
  538ACOH    H213203   7.629   4.562   5.669  1.2401 -0.1641 -0.6733
  538ACOH    H313204   7.807   4.581   5.711  0.2152 -2.9543 -1.1352
  539ACOH    H413205   4.859   4.653   6.952  1.0871 -0.9464 -0.2948
  539ACOH    O213206   4.891   4.744   6.949 -0.3953 -0.3913  0.0833
  539ACOH    C213207   4.805   4.821   6.884 -0.1268  0.1535 -0.0697
  539ACOH    O113208   4.709   4.784   6.811 -0.1245  0.0447 -0.1927
  539ACOH    C113209   4.826   4.965   6.927  0.0470 -0.0804 -0.8204
  539ACOH    H113210   4.926   4.990   6.962 -1.6545  3.2561  1.8595
  539ACOH    H213211   4.760   4.981   7.011  0.5344  1.2933 -0.6947
  539ACOH    H313212   4.801   5.033   6.845 -1.5086  1.2559  0.7409
  540ACOH    H413213   1.064   9.236   0.298 -0.6202 -0.6006  1.3823
  540ACOH    O213214   1.143   9.179   0.297 -0.1669  0.0330  0.1960
  540ACOH    C213215   1.238   9.246   0.363  0.6981 -0.0658  0.0689
  540ACOH    O113216   1.228   9.351   0.424  0.3899  0.3230 -0.3864
  540ACOH    C113217   1.358   9.157   0.370 -0.0937 -0.0057 -0.3657
  540ACOH    H113218   1.341   9.069   0.432  1.4488 -0.6087 -0.7707
  540ACOH    H213219   1.444   9.205   0.416  1.3582 -2.4335 -0.4929
  540ACOH    H313220   1.384   9.114   0.274  2.4112 -0.6543  0.5768
  541ACOH    H413221   7.041   8.689   2.307  1.7902 -3.0969  2.8931
  541ACOH    O213222   7.054   8.643   2.223 -0.1267 -0.0872  0.8711
  541ACOH    C213223   7.128   8.726   2.148  0.0321 -0.6123 -0.0567
  541ACOH    O113224   7.113   8.847   2.146 -0.2805  0.3277  0.3168
  541ACOH    C113225   7.186   8.650   2.032 -0.1566  0.0634 -0.0764
  541ACOH    H113226   7.096   8.605   1.991  0.0169  1.7420 -2.3967
  541ACOH    H213227   7.258   8.578   2.068  0.8022 -0.5608 -3.1200
  541ACOH    H313228   7.236   8.707   1.954 -0.0274 -1.3354 -1.0318
  542ACOH    H413229   3.291   0.102   6.329 -0.9911 -1.2170  2.4441
  542ACOH    O213230   3.342   0.177   6.365 -0.6162 -0.0448 -0.3680
  542ACOH    C213231   3.423   0.211   6.265 -0.1044  0.4436  0.0725
  542ACOH    O113232   3.388   0.202   6.147 -0.5953  0.6773  0.5786
  542ACOH    C113233   3.534   0.298   6.314 -0.9139  1.2276  0.3079
  542ACOH    H113234   3.515   0.401   6.283 -1.9067  0.6443 -1.0716
  542ACOH    H213235   3.626   0.264   6.268 -1.9017  0.2426 -0.9868
  542ACOH    H313236   3.552   0.304   6.421  0.0366  2.8368  0.0733
  543ACOH    H413237   5.708   3.429   7.959  1.4037  1.4378  2.1289
  543ACOH    O213238   5.729   3.503   7.900 -0.7489  0.4415  0.0421
  543ACOH    C213239   5.851   3.467   7.846 -0.5390  0.2299 -0.3569
  543ACOH    O113240   5.910   3.357   7.857  0.3141 -0.0945 -0.0702
  543ACOH    C113241   5.924   3.590   7.791  0.2087  0.1697 -0.7080
  543ACOH    H113242   6.032   3.574   7.790  0.1959 -0.0246  0.2424
  543ACOH    H213243   5.917   3.678   7.856  2.2198  0.3487 -0.6999
  543ACOH    H313244   5.888   3.611   7.691 -1.7922  0.6103  0.0758
  544ACOH    H413245   1.086   8.832   4.055  1.5549 -0.6685  1.8382
  544ACOH    O213246   1.069   8.913   4.104 -0.0739 -0.1454  0.4455
  544ACOH    C213247   1.046   9.013   4.014  0.6626  0.3293 -0.5072
  544ACOH    O113248   0.989   8.995   3.908 -0.7493 -0.1782 -0.0541
  544ACOH    C113249   1.042   9.155   4.064  0.0039  0.3849  0.2105
  544ACOH    H113250   1.074   9.168   4.167 -1.0134 -1.9813  0.8581
  544ACOH    H213251   0.942   9.198   4.057 -0.5017 -1.2168 -3.2356
  544ACOH    H313252   1.113   9.206   4.000  0.9705 -1.4486 -0.2089
  545ACOH    H413253   8.026   8.698   8.134  1.8769 -0.7463  1.0907
  545ACOH    O213254   8.020   8.755   8.212  0.0207  0.5020  0.0679
  545ACOH    C213255   7.996   8.878   8.165 -0.6889 -0.1087  0.4512
  545ACOH    O113256   8.021   8.928   8.057 -0.2837  0.1598 -0.0832
  545ACOH    C113257   7.971   8.970   8.278 -0.3527 -0.1593 -0.5953
  545ACOH    H113258   7.944   8.921   8.372 -1.3615 -2.7000 -2.1508
  545ACOH    H213259   7.889   9.035   8.249 -0.4012  0.0160 -0.0613
  545ACOH    H313260   8.054   9.036   8.301 -0.3458 -0.7798  1.2401
  546ACOH    H413261   5.665   7.296   5.305  0.1440  0.6239 -0.7452
  546ACOH    O213262   5.735   7.243   5.263 -0.0585  0.0695 -0.3879
  546ACOH    C213263   5.775   7.314   5.155  0.4817 -1.0333  0.0874
  546ACOH    O113264   5.702   7.382   5.086 -0.1839  0.5492  0.7510
  546ACOH    C113265   5.909   7.258   5.103  0.2884 -0.4650 -0.7611
  546ACOH    H113266   5.983   7.308   5.165  0.0999 -1.8877  0.6346
  546ACOH    H213267   5.932   7.281   4.999  0.3933  0.5109 -0.5219
  546ACOH    H313268   5.928   7.153   5.125  0.2514 -0.3535 -0.1873
  547ACOH    H413269   8.937   0.274   1.486  0.1660 -1.1299 -0.5415
  547ACOH    O213270   8.841   0.270   1.497  0.2173 -0.0025  0.4401
  547ACOH    C213271   8.778   0.374   1.437  0.0829 -0.7583  0.3471
  547ACOH    O113272   8.657   0.377   1.434  0.2734  0.0467  0.4252
  547ACOH    C113273   8.869   0.479   1.394 -0.0526  0.3167  0.8563
  547ACOH    H113274   8.809   0.569   1.387  0.7546  0.8841  1.1870
  547ACOH    H213275   8.913   0.456   1.297  1.0390  1.5607  1.0403
  547ACOH    H313276   8.943   0.501   1.472  1.5059 -0.2471 -0.4301
  548ACOH    H413277   5.168   5.155   5.395 -0.4488  0.3597  3.9190
  548ACOH    O213278   5.252   5.201   5.380 -0.4370 -0.8188 -0.2266
  548ACOH    C213279   5.330   5.132   5.295  0.0693 -0.1387  0.1759
  548ACOH    O113280   5.302   5.028   5.238  0.7382  0.2596  0.4184
  548ACOH    C113281   5.465   5.196   5.272  0.5792  0.3669 -0.0354
  548ACOH    H113282   5.494   5.264   5.351  0.3300  1.3493 -0.7733
  548ACOH    H213283   5.459   5.252   5.178 -1.3308 -0.5137 -0.4675
  548ACOH    H313284   5.544   5.121   5.268  0.4853  0.0617  2.9365
  549ACOH    H413285   9.257   7.569   6.892 -0.0914 -0.3128  0.0567
  549ACOH    O213286   9.310   7.541   6.968 -0.2049 -0.0261  0.2436
  549ACOH    C213287   9.253   7.598   7.076 -1.0779  0.3076  0.2629
  549ACOH    O113288   9.134   7.607   7.092  1.0393 -0.2641 -0.6113
  549ACOH    C113289   9.342   7.604   7.196  0.8100  0.8273  0.8951
  549ACOH    H113290   9.337   7.509   7.250  0.5490 -0.9586 -2.1415
  549ACOH    H213291   9.304   7.679   7.265  1.0716  1.7739  0.0159
  549ACOH    H313292   9.447   7.623   7.173  0.7253  0.6079  0.3101
  550ACOH    H413293   7.316   4.742   5.744 -1.2331 -0.8141 -1.4082
  550ACOH    O213294   7.256   4.693   5.804 -0.1667 -0.3994  0.0224
  550ACOH    C213295   7.305   4.741   5.922  0.4470 -0.6450  0.0201
  550ACOH    O113296   7.384   4.837   5.943  0.0522  0.0456 -0.1431
  550ACOH    C113297   7.262   4.654   6.032 -0.2826 -0.2620 -0.4683
  550ACOH    H113298   7.164   4.620   6.000  0.4782 -2.8012 -0.2304
  550ACOH    H213299   7.257   4.705   6.128  0.5510 -1.5640  0.2808
  550ACOH    H313300   7.328   4.567   6.041 -1.4603 -1.2098 -0.8470
  551ACOH    H413301   7.431   9.862   1.195  0.2229  2.3664 -0.8848
  551ACOH    O213302   7.526   9.838   1.199 -0.3685  0.0317 -0.2025
  551ACOH    C213303   7.543   9.741   1.288 -0.5631  0.2418  0.4911
  551ACOH    O113304   7.468   9.700   1.373  0.2214  0.4507 -0.2356
  551ACOH    C113305   7.685   9.687   1.279  0.5346 -0.3363 -0.2381
  551ACOH    H113306   7.730   9.670   1.377 -3.7271  0.3957  1.9794
  551ACOH    H213307   7.756   9.754   1.232  2.3534 -0.6025  2.0224
  551ACOH    H313308   7.681   9.591   1.229  0.2772  0.3209 -1.4818
  552SOL     OW13309   4.190   5.833   1.763 -0.7651  0.3723 -0.3805
  552SOL    HW113310   4.140   5.746   1.766 -0.9799  0.5378  1.2935
  552SOL    HW213311   4.239   5.846   1.849  0.6108  1.1383 -1.2646
  553SOL     OW13312   1.920   6.721   5.780 -0.3778 -0.2995  0.9195
  553SOL    HW113313   1.948   6.731   5.685 -1.8557  2.0263  0.6781
  553SOL    HW213314   1.883   6.629   5.794  1.1471 -1.1288 -0.3945
  554SOL     OW13315   7.075   0.717   3.837 -0.0148  0.1465 -0.3292
  554SOL    HW113316   7.087   0.805   3.884 -2.0019  0.3856 -0.2304
  554SOL    HW213317   6.979   0.705   3.813  0.2537 -1.9918 -0.4155
  555SOL     OW13318   1.116   1.568   3.003  0.5463 -0.2298 -0.1641
  555SOL    HW113319   1.053   1.620   3.061  1.7516 -0.8036  1.6756
  555SOL    HW213320   1.172   1.631   2.950  0.1537  0.3093  0.0565
  556SOL     OW13321   2.180   1.352   7.421 -0.1259  0.0009 -0.1442
  556SOL    HW113322   2.260   1.375   7.476  1.9214 -0.9622 -2.6456
  556SOL    HW213323   2.198   1.269   7.368 -2.9098 -0.4209 -0.5236
  557SOL     OW13324   1.189   1.050   2.038  0.3029 -0.3309  0.1112
  557SOL    HW113325   1.113   0.988   2.057 -0.2541  0.4327  0.4065
  557SOL    HW213326   1.176   1.092   1.948 -1.6076  2.6538  1.7204
  558SOL     OW13327   7.819   9.430   3.400  0.8774  0.0037  0.5416
  558SOL    HW113328   7.842   9.333   3.413  0.4158  0.0148  1.4095
  558SOL    HW213329   7.747   9.438   3.331  0.0927 -0.3483  1.3159
  559SOL     OW13330   0.488   9.945   2.954 -0.5409  0.0327  0.2287
  559SOL    HW113331   0.507  10.027   2.901 -1.2806 -0.2615 -0.4982
  559SOL    HW213332   0.541   9.947   3.039 -0.6257  1.3026  0.2596
  560SOL     OW13333   5.336   4.045   7.529 -0.2507  0.2673 -0.3398
  560SOL    HW113334   5.302   3.990   7.605  1.3739 -1.0667 -0.5301
  560SOL    HW213335   5.396   4.117   7.564  1.2069 -0.8944 -0.3828
  561SOL     OW13336   7.638   9.418   3.199  0.3445 -0.9232  0.3294
  561SOL    HW113337   7.550   9.397   3.242 -0.0030 -2.9187 -1.2635
  561SOL    HW213338   7.671   9.338   3.149  1.8938  0.5589 -1.1091
  562SOL     OW13339   0.868   9.633   1.134 -0.0392  0.0781  0.0445
  562SOL    HW113340   0.866   9.703   1.205  0.7120 -0.4333  0.5810
  562SOL    HW213341   0.929   9.663   1.060 -0.6402  0.5061 -0.2857
  563SOL     OW13342   2.667   4.611   1.341 -0.3428 -0.2813 -0.1616
  563SOL    HW113343   2.754   4.642   1.303 -0.2684  0.4062  0.5484
  563SOL    HW213344   2.639   4.674   1.415 -0.2956 -1.8033  1.1726
  564SOL     OW13345   8.438   1.429   5.849 -0.0154  0.2368 -0.0231
  564SOL    HW113346   8.454   1.341   5.805 -0.5412 -0.4315  1.1178
  564SOL    HW213347   8.351   1.427   5.899  0.1431  1.2776  0.3206
  565SOL     OW13348   4.879   0.977   3.187  0.1340  0.2001  0.3026
  565SOL    HW113349   4.934   0.938   3.113  0.0869  1.0680 -0.2079
  565SOL    HW213350   4.914   0.946   3.275  1.5164  0.8397 -0.0118
  566SOL     OW13351   7.256   6.204   5.421  0.4882 -0.2171  0.5621
  566SOL    HW113352   7.303   6.229   5.336  0.9521  1.5176  1.3021
  566SOL    HW213353   7.304   6.246   5.499 -0.4547 -1.0474  1.6040
  567SOL     OW13354   5.065   0.797   7.939 -0.0670  0.2620 -0.4665
  567SOL    HW113355   5.089   0.720   7.999 -0.1673  1.9071  1.7353
  567SOL    HW213356   5.003   0.859   7.987  2.2718  3.2387 -1.1279
  568SOL     OW13357   0.469   8.482   0.870  0.2242  0.2376  0.0053
  568SOL    HW113358   0.430   8.556   0.924 -1.2272  0.2017 -0.9671
  568SOL    HW213359   0.497   8.517   0.781  0.3835 -0.2027 -0.1203
  569SOL     OW13360   1.529   1.580   0.105  0.8908 -0.0335  1.0590
  569SOL    HW113361   1.516   1.561   0.008 -1.6456  0.3985  1.2654
  569SOL    HW213362   1.597   1.652   0.117  1.0977  0.0176 -0.4012
  570SOL     OW13363   2.061   9.744   1.387 -0.3479  0.2183 -0.1470
  570SOL    HW113364   2.098   9.653   1.365 -2.3415 -0.2200 -1.8391
  570SOL    HW213365   1.989   9.734   1.456 -1.5714  0.3138 -1.3866
  571SOL     OW13366   0.785   6.072   1.356 -0.1661  0.4802  0.2611
  571SOL    HW113367   0.870   6.020   1.367 -0.0462  0.6054 -0.0750
  571SOL    HW213368   0.790   6.156   1.411 -0.7724 -0.3554  1.6238
  572SOL     OW13369   8.648   8.888   0.383 -0.2398  0.3572 -0.3898
  572SOL    HW113370   8.623   8.874   0.479 -0.9225 -3.7289 -1.0711
  572SOL    HW213371   8.565   8.908   0.329 -0.1550  0.5861 -0.4340
  573SOL     OW13372   5.115   0.569   3.933  0.1379 -0.0942 -0.3171
  573SOL    HW113373   5.046   0.582   3.861 -0.8779 -0.5410  0.5720
  573SOL    HW213374   5.141   0.658   3.970 -0.3117  0.0454 -0.3282
  574SOL     OW13375   1.330   6.908   5.942 -0.5615  0.5949  0.3853
  574SOL    HW113376   1.413   6.930   5.993 -0.5792 -0.2166  0.7734
  574SOL    HW213377   1.250   6.919   6.002 -0.6198  0.0630  0.4024
  575SOL     OW13378   9.147   7.023   1.692  0.3905 -0.1251 -0.5901
  575SOL    HW113379   9.172   6.939   1.740  0.2508 -0.2267 -0.6961
  575SOL    HW213380   9.094   7.001   1.611 -2.2599  0.2176  1.0036
  576SOL     OW13381   7.954   2.242   3.201  0.0650 -0.9020  0.0712
  576SOL    HW113382   8.036   2.186   3.188  0.4515 -0.1268 -0.9289
  576SOL    HW213383   7.952   2.315   3.132 -1.3818 -0.8078  0.1949
  577SOL     OW13384   3.487   4.073   4.626 -0.7178 -0.4199 -0.1776
  577SOL    HW113385   3.565   4.099   4.570  0.7709 -0.9780  1.6036
  577SOL    HW213386   3.505   3.985   4.669 -1.5661  0.2923  1.6797
  578SOL     OW13387   9.918   3.564   0.480  0.6281 -0.0866 -0.7112
  578SOL    HW113388   9.974   3.593   0.402  0.7800  1.4824 -0.0329
  578SOL    HW213389   9.955   3.602   0.564 -1.4586  1.0285 -0.2655
  579SOL     OW13390   9.842   7.855   3.443  0.1933 -0.1309 -0.5108
  579SOL    HW113391   9.808   7.941   3.404  0.3666  0.0430 -0.2800
  579SOL    HW213392   9.767   7.790   3.452  0.1112 -0.0924 -0.9275
  580SOL     OW13393   7.952   1.945   2.727  0.2932 -0.0918 -0.1750
  580SOL    HW113394   8.037   1.895   2.746  0.8260  0.9515  0.2383
  580SOL    HW213395   7.917   1.985   2.812  0.2320  0.7811 -0.6005
  581SOL     OW13396   2.678   3.663   3.608  0.2942  0.0935  0.4613
  581SOL    HW113397   2.714   3.631   3.696 -1.1646 -0.4956  0.8617
  581SOL    HW213398   2.582   3.636   3.600  0.8583 -1.3285 -2.0454
  582SOL     OW13399   5.258   9.711   2.283 -0.5649  0.4611 -0.2107
  582SOL    HW113400   5.268   9.655   2.365 -1.3030 -0.2006 -0.5594
  582SOL    HW213401   5.272   9.654   2.202 -2.1945  0.5586 -0.5943
  583SOL     OW13402   2.534   4.236   0.452 -0.7281 -0.5503  0.4990
  583SOL    HW113403   2.447   4.238   0.502 -0.2264 -0.8074  1.3835
  583SOL    HW213404   2.565   4.142   0.445 -2.2394 -0.8769 -2.8278
  584SOL     OW13405   1.362   0.274   2.607 -0.2936  0.2681  0.1157
  584SOL    HW113406   1.431   0.291   2.537 -0.6342  2.4146  0.2475
  584SOL    HW213407   1.292   0.212   2.571  1.0226 -0.8938 -0.4551
  585SOL     OW13408   0.423   5.603   4.718  0.1291  0.3640 -0.1757
  585SOL    HW113409   0.461   5.696   4.717  0.2218  0.3329  0.2407
  585SOL    HW213410   0.407   5.572   4.624 -0.1453  0.9003 -0.3102
  586SOL     OW13411   8.009   6.489   7.016 -0.5198  0.1638 -0.2103
  586SOL    HW113412   7.979   6.524   6.928 -1.7998  0.5646  0.3749
  586SOL    HW213413   8.043   6.395   7.005 -0.3389  0.3361 -1.1750
  587SOL     OW13414   9.594   2.065   3.114  0.4434  0.0789 -0.3639
  587SOL    HW113415   9.632   1.973   3.120  1.5854  0.5823  0.2038
  587SOL    HW213416   9.541   2.085   3.197  0.6162  0.1207 -0.2638
  588SOL     OW13417   4.850   2.046   6.012  0.3822  0.1628  0.8083
  588SOL    HW113418   4.924   2.076   5.952 -1.1670  0.9223 -0.7654
  588SOL    HW213419   4.787   1.989   5.960 -2.1491  2.5835  1.1346
  589SOL     OW13420   8.169   2.713   1.167 -0.3608  0.2522  0.6186
  589SOL    HW113421   8.206   2.622   1.182 -1.7850 -0.3730  0.3916
  589SOL    HW213422   8.076   2.718   1.204  0.0847  1.9220  1.5697
  590SOL     OW13423   1.925   3.593   6.459 -0.3335  0.3701 -0.2830
  590SOL    HW113424   1.990   3.519   6.479  0.5665  1.1689 -0.2511
  590SOL    HW213425   1.888   3.580   6.366 -0.1262 -0.0766 -0.3055
  591SOL     OW13426   5.118   1.457   2.644  0.1108  0.2812 -0.3707
  591SOL    HW113427   5.116   1.554   2.665  1.2838  0.1699  0.3338
  591SOL    HW213428   5.121   1.445   2.545  0.2701  0.9798 -0.4557
  592SOL     OW13429   7.652   9.165   4.054 -0.1309  0.5020  0.0046
  592SOL    HW113430   7.614   9.074   4.040  0.4647  0.5502 -2.0363
  592SOL    HW213431   7.751   9.161   4.051 -0.0444  0.9451  1.7500
  593SOL     OW13432   2.451   1.830   6.522 -0.1117  0.1226 -0.1401
  593SOL    HW113433   2.530   1.796   6.471 -2.7442 -2.1816 -2.9079
  593SOL    HW213434   2.428   1.766   6.595 -0.5217 -0.1562 -0.5131
  594SOL     OW13435   9.562   7.352   1.918 -0.3026 -0.1131  0.1775
  594SOL    HW113436   9.510   7.277   1.879 -0.2504  0.0001 -0.1150
  594SOL    HW213437   9.617   7.319   1.995  0.3657 -0.5521 -0.4836
  595SOL     OW13438   3.449   1.133   5.537 -0.2914 -0.1465 -0.0419
  595SOL    HW113439   3.482   1.227   5.527 -0.6274 -0.0243 -0.0026
  595SOL    HW213440   3.356   1.134   5.574  0.4104 -0.5500  1.7578
  596SOL     OW13441   1.323   3.717   8.126  0.4820 -0.3590  0.0081
  596SOL    HW113442   1.382   3.764   8.060  1.2011  1.1786  1.6804
  596SOL    HW213443   1.227   3.737   8.104  0.5409 -2.5983 -2.5240
  597SOL     OW13444   0.593   5.547   5.098 -0.2429 -0.2604  0.0741
  597SOL    HW113445   0.565   5.588   5.185  1.2144 -1.4334  1.1080
  597SOL    HW213446   0.512   5.512   5.051 -1.3784  2.7811 -0.3320
  598SOL     OW13447   7.982   8.850   4.930  0.3175  0.0801 -0.3329
  598SOL    HW113448   7.978   8.851   4.831  0.9370 -0.1174 -0.3644
  598SOL    HW213449   7.931   8.770   4.965  1.3677 -0.6960 -0.5630
  599SOL     OW13450   0.222   0.134   4.727  0.7625 -0.1519 -0.0438
  599SOL    HW113451   0.208   0.062   4.659  0.6875 -0.3134  0.1426
  599SOL    HW213452   0.196   0.222   4.688 -1.4655 -0.5303  0.5381
  600SOL     OW13453   9.869   8.743   1.727 -0.2665 -0.3831  0.5411
  600SOL    HW113454   9.890   8.687   1.807  0.8678  1.2470  1.4073
  600SOL    HW213455   9.951   8.756   1.671 -0.1567  1.5307  1.0903
  601SOL     OW13456   9.824   5.203   1.467 -0.3709 -0.0493  0.5962
  601SOL    HW113457   9.869   5.293   1.466 -0.0539 -0.2189 -0.9291
  601SOL    HW213458   9.726   5.215   1.479 -0.2555  0.4628  1.0558
  602SOL     OW13459   9.420   5.972   4.965 -0.0966 -0.6786  0.6418
  602SOL    HW113460   9.337   5.937   5.009 -0.7808  0.1449  0.0249
  602SOL    HW213461   9.499   5.958   5.025 -1.1521  1.3018  2.5752
  603SOL     OW13462   2.638   2.746   0.959 -0.3472 -0.1781  0.1233
  603SOL    HW113463   2.694   2.678   1.007  1.4530  0.5028 -0.9844
  603SOL    HW213464   2.586   2.700   0.887  0.1374 -0.5427  0.0008
  604SOL     OW13465   1.919   8.831   1.425 -0.9038  0.0769  0.0080
  604SOL    HW113466   1.978   8.891   1.480 -0.3181  0.8491 -1.4436
  604SOL    HW213467   1.846   8.886   1.384  0.8383  0.2054 -3.0193
  605SOL     OW13468   4.792   2.801   0.113 -1.4068  0.1275  0.2094
  605SOL    HW113469   4.702   2.759   0.122 -1.6059  0.1148 -1.5832
  605SOL    HW213470   4.857   2.733   0.080 -1.4482  0.8819 -1.4738
  606SOL     OW13471   8.759   1.460   7.500 -0.3269 -0.3290  0.0403
  606SOL    HW113472   8.836   1.497   7.448  0.3069 -0.5326  0.8140
  606SOL    HW213473   8.707   1.397   7.443  0.4437 -0.6628 -0.3068
  607SOL     OW13474   9.153   7.091   1.317  0.0148 -0.4087  0.2397
  607SOL    HW113475   9.115   7.182   1.332  0.2873  0.1820 -2.3982
  607SOL    HW213476   9.096   7.023   1.363 -1.7778  0.8586 -0.0761
  608SOL     OW13477   7.406   0.286   1.430  0.0804  0.4161 -0.1526
  608SOL    HW113478   7.398   0.386   1.433  0.7834  0.4971 -0.9206
  608SOL    HW213479   7.322   0.245   1.466 -0.3347  1.2820 -0.1256
  609SOL     OW13480   9.492   5.902   3.709  0.5234 -0.2280 -0.1601
  609SOL    HW113481   9.502   5.805   3.685 -2.7380 -0.6542 -0.0733
  609SOL    HW213482   9.534   5.958   3.638 -0.6981 -1.6696 -2.0878
  610SOL     OW13483   5.323   1.543   1.516 -0.0531  0.1769 -0.4886
  610SOL    HW113484   5.324   1.621   1.578  1.1247 -0.1917 -0.0430
  610SOL    HW213485   5.284   1.464   1.563 -1.1969  0.4657 -0.9235
  611SOL     OW13486   2.362   4.993   8.143  0.1997 -0.0061  0.1776
  611SOL    HW113487   2.270   4.954   8.150 -0.1303  0.9591  1.3653
  611SOL    HW213488   2.403   4.999   8.234  2.1136 -1.9833 -0.5021
  612SOL     OW13489   1.122   5.266   3.060 -0.1529 -0.8104  0.1560
  612SOL    HW113490   1.219   5.252   3.080 -0.0061  0.6043  0.4544
  612SOL    HW213491   1.067   5.223   3.131  0.2686 -0.8550  0.4579
  613SOL     OW13492   4.211   2.216   5.961 -0.0050  0.4632 -0.0585
  613SOL    HW113493   4.121   2.206   6.003 -0.5408 -0.6921 -1.4390
  613SOL    HW213494   4.231   2.313   5.948  0.8992  0.9514  4.3346
  614SOL     OW13495   3.058   8.067   2.376 -0.0247 -0.1839  0.4582
  614SOL    HW113496   3.079   8.031   2.285 -0.4146  0.1667  0.2294
  614SOL    HW213497   3.047   7.990   2.440 -2.5724 -0.6086 -0.3889
  615SOL     OW13498   5.373   0.918   2.072  0.3687 -0.7166 -1.0098
  615SOL    HW113499   5.342   1.004   2.113  0.1899 -0.5272 -1.5294
  615SOL    HW213500   5.471   0.908   2.087  0.2782 -0.7202 -0.4141
  616SOL     OW13501   0.402   1.042   6.396  0.4570 -0.0166 -0.2657
  616SOL    HW113502   0.406   1.140   6.416 -1.5816  0.2160 -0.8876
  616SOL    HW213503   0.356   0.994   6.470  1.2613 -0.5012 -0.0631
  617SOL     OW13504   3.218   4.169   4.591 -0.2907  0.0156  0.3987
  617SOL    HW113505   3.167   4.185   4.675 -0.2295  1.5981  0.1507
  617SOL    HW213506   3.316   4.165   4.611 -0.1145  2.6227  0.1046
  618SOL     OW13507   9.844   8.680   5.505 -0.2509  0.1328 -0.1720
  618SOL    HW113508   9.911   8.618   5.545 -0.6995 -0.1339  0.1654
  618SOL    HW213509   9.840   8.764   5.559 -1.0377 -0.3294  0.4981
  619SOL     OW13510   7.691   3.126   4.378  0.1165  0.1077 -0.2270
  619SOL    HW113511   7.591   3.123   4.377  0.1270  0.0076 -1.4119
  619SOL    HW213512   7.724   3.173   4.296  1.0727 -1.3261 -0.6896
  620SOL     OW13513   9.765   6.965   0.162 -0.3489  0.1950 -0.4365
  620SOL    HW113514   9.816   6.899   0.217 -0.4219  0.3681 -0.1582
  620SOL    HW213515   9.793   7.058   0.187 -0.5584  0.2808 -0.5203
  621SOL     OW13516   2.265   5.785   2.133 -0.4789  0.0685 -0.1254
  621SOL    HW113517   2.334   5.841   2.087 -1.4749  0.2915 -1.4143
  621SOL    HW213518   2.205   5.844   2.187  0.5377 -0.1651  1.2791
  622SOL     OW13519   2.077   6.048   1.573  0.1427  0.6713 -0.2916
  622SOL    HW113520   2.123   6.049   1.485 -1.1334 -1.0108 -1.0003
  622SOL    HW213521   1.993   6.103   1.568  0.2978  0.9390  0.0024
  623SOL     OW13522   7.152   2.791   0.075 -0.0343  0.2148  0.4809
  623SOL    HW113523   7.242   2.818   0.041 -0.0845  0.1136  0.2679
  623SOL    HW213524   7.115   2.864   0.132 -0.7286  1.1533 -1.1366
  624SOL     OW13525   7.659   2.041   5.752 -0.3230  0.3573  0.1577
  624SOL    HW113526   7.634   1.945   5.762 -1.9068  0.6118 -1.1313
  624SOL    HW213527   7.612   2.095   5.822 -1.8986  0.5797 -1.0491
  625SOL     OW13528   2.451   0.268   7.350 -0.2769  0.5816 -0.3447
  625SOL    HW113529   2.511   0.207   7.298  0.7169  0.8457  0.4563
  625SOL    HW213530   2.366   0.220   7.371 -0.7751  0.5505 -2.3611
  626SOL     OW13531   7.574   3.973   2.524  0.0154 -0.1831  0.0757
  626SOL    HW113532   7.538   3.881   2.516  0.0050 -0.2118  0.4436
  626SOL    HW213533   7.499   4.039   2.520 -0.1004 -0.2531  1.0639
  627SOL     OW13534   4.053   1.245   1.289  0.0403  0.8133  0.2533
  627SOL    HW113535   3.954   1.227   1.282 -0.3983  3.3164 -0.5121
  627SOL    HW213536   4.103   1.161   1.269 -1.9254 -0.3297 -0.0742
  628SOL     OW13537   2.969   9.017   6.437 -0.8047 -0.0422 -0.1713
  628SOL    HW113538   2.875   8.990   6.457 -0.7192  0.4152  0.8508
  628SOL    HW213539   2.968   9.107   6.392 -0.9220 -0.5692 -1.2539
  629SOL     OW13540   7.908   4.254   1.992  0.1412  0.1345 -0.2998
  629SOL    HW113541   7.983   4.202   2.033  0.3348 -0.4107 -1.3481
  629SOL    HW213542   7.923   4.352   2.008  1.4666  0.0815 -1.1414
  630SOL     OW13543   1.470   8.702   5.607 -0.3186  0.4131  0.3461
  630SOL    HW113544   1.522   8.761   5.669 -0.8297 -0.3694  1.5525
  630SOL    HW213545   1.386   8.673   5.652 -0.6923 -0.1798 -0.7239
  631SOL     OW13546   9.509   4.924   1.993 -0.5470  0.4822  0.4996
  631SOL    HW113547   9.539   4.860   2.063 -2.1165 -1.0442 -0.1768
  631SOL    HW213548   9.446   4.878   1.931 -2.1363  2.8242  0.2991
  632SOL     OW13549   7.877   2.011   2.993  0.3658  0.0766 -0.1869
  632SOL    HW113550   7.920   2.002   3.083  2.2362  0.2561 -1.0348
  632SOL    HW213551   7.802   1.946   2.985  1.4934 -1.3834  0.7813
  633SOL     OW13552   7.294   9.559   1.553  0.0586 -0.0441  0.2500
  633SOL    HW113553   7.376   9.578   1.499  0.7375 -0.6927  1.0280
  633SOL    HW213554   7.269   9.463   1.543 -0.3755  0.0611  0.3162
  634SOL     OW13555   6.321   1.590   6.359 -0.0870 -0.2191  0.3025
  634SOL    HW113556   6.364   1.654   6.296  0.4196  0.9484  1.7994
  634SOL    HW213557   6.222   1.607   6.363 -0.2368 -0.8107 -0.7424
  635SOL     OW13558   9.911   0.665   2.363  0.2862 -0.0294  0.1751
  635SOL    HW113559   9.816   0.644   2.341  0.0098  1.3082 -0.0023
  635SOL    HW213560   9.943   0.604   2.436 -1.1449  0.3958  1.1875
  636SOL     OW13561   4.352   2.373   6.208 -0.3082 -0.2914  0.1025
  636SOL    HW113562   4.401   2.419   6.134  1.7533  0.9532  2.1956
  636SOL    HW213563   4.256   2.401   6.206  0.2015  1.4735 -0.7291
  637SOL     OW13564   9.906   1.470   1.282  0.9946  0.0476  0.5666
  637SOL    HW113565   9.841   1.484   1.357  0.4293 -0.1285  0.1209
  637SOL    HW213566   9.861   1.417   1.209  1.6719 -0.1537  0.2904
  638SOL     OW13567   1.647   9.326   8.144  0.2521 -0.0952  0.1393
  638SOL    HW113568   1.636   9.416   8.186 -0.2928 -1.0962  2.2193
  638SOL    HW213569   1.692   9.265   8.208  0.1823 -1.4467 -1.0720
  639SOL     OW13570   8.725   8.419   2.079  0.2480  0.1526  0.0511
  639SOL    HW113571   8.706   8.321   2.071  0.2568  0.0368  1.3453
  639SOL    HW213572   8.821   8.436   2.056  0.4151 -0.2282  0.4618
  640SOL     OW13573   7.013   8.373   2.376 -1.2259 -0.3121 -0.4719
  640SOL    HW113574   6.948   8.429   2.427 -1.8985 -0.6429 -0.9448
  640SOL    HW213575   7.024   8.411   2.284 -0.5086 -0.0797 -0.2903
  641SOL     OW13576   8.427   8.352   4.567 -0.0069  0.1190 -0.2999
  641SOL    HW113577   8.465   8.331   4.477 -1.8165 -1.0350 -0.8295
  641SOL    HW213578   8.383   8.442   4.565 -1.5267 -0.6195 -1.0844
  642SOL     OW13579   9.627   2.405   2.089  0.4776 -0.0388  0.3178
  642SOL    HW113580   9.619   2.328   2.026  0.2188 -1.0219  1.5390
  642SOL    HW213581   9.648   2.488   2.037 -0.6673 -0.6450 -1.1661
  643SOL     OW13582   2.143   4.925   7.214 -0.0234  0.0101 -0.2591
  643SOL    HW113583   2.138   4.839   7.162  1.9029 -1.0138  1.1712
  643SOL    HW213584   2.143   5.002   7.151  0.1993 -1.1224 -1.6805
  644SOL     OW13585   9.811   1.986   1.666 -0.1340 -0.5754  0.2451
  644SOL    HW113586   9.849   1.980   1.758 -0.3268 -2.1069  0.2305
  644SOL    HW213587   9.787   1.895   1.633  0.6526 -0.1377 -1.6326
  645SOL     OW13588   3.393   7.902   6.511  0.4722  0.2525 -0.3061
  645SOL    HW113589   3.403   7.959   6.430 -0.9498  0.1546 -0.5623
  645SOL    HW213590   3.368   7.809   6.483 -1.9468  0.6814  0.2894
  646SOL     OW13591   5.339   2.124   3.685 -0.0866 -0.0479 -0.0992
  646SOL    HW113592   5.274   2.184   3.730 -0.0280  0.6642 -0.9484
  646SOL    HW213593   5.291   2.071   3.614 -0.2600 -1.4434  1.0397
  647SOL     OW13594   2.634   8.004   1.786  0.4546 -0.3582  0.2661
  647SOL    HW113595   2.692   7.958   1.852  1.4048  0.6940  0.1826
  647SOL    HW213596   2.660   8.100   1.779 -0.3997 -0.1814 -0.7771
  648SOL     OW13597   9.572   1.208   0.632  0.4748 -0.3119 -0.1403
  648SOL    HW113598   9.589   1.115   0.598 -1.4290 -0.5569 -0.4858
  648SOL    HW213599   9.569   1.271   0.554  0.0357 -0.2552 -0.0820
  649SOL     OW13600   5.150   9.519   4.082 -0.5871 -0.3147  0.0244
  649SOL    HW113601   5.211   9.592   4.111 -0.6331  0.0002 -0.6663
  649SOL    HW213602   5.161   9.440   4.143 -0.0757  0.0326  0.3821
  650SOL     OW13603   0.201   9.699   4.510 -0.0892 -0.0723  0.0223
  650SOL    HW113604   0.124   9.686   4.572  1.8388 -1.6748  2.1729
  650SOL    HW213605   0.168   9.701   4.416 -2.9042  0.8951  0.9709
  651SOL     OW13606   3.702   2.577   6.645 -0.3333  0.1074 -0.0352
  651SOL    HW113607   3.713   2.669   6.684  1.4699 -0.2096  0.2189
  651SOL    HW213608   3.608   2.546   6.661 -0.1084  0.6673  2.6029
  652SOL     OW13609   1.307   7.835   3.412  0.8900 -0.4247  0.1724
  652SOL    HW113610   1.213   7.814   3.384  0.6438  0.1808  0.5140
  652SOL    HW213611   1.358   7.751   3.428  0.3314 -0.7546  0.2119
  653SOL     OW13612   7.133   0.996   1.212 -0.2792 -0.3926  0.2540
  653SOL    HW113613   7.143   1.032   1.305 -4.2144  1.3348  0.1128
  653SOL    HW213614   7.106   0.900   1.217  1.5376 -0.8860  0.8358
  654SOL     OW13615   8.349   4.727   5.862 -0.1585  0.2355 -0.1930
  654SOL    HW113616   8.358   4.764   5.769  2.4973 -2.8052 -1.2282
  654SOL    HW213617   8.438   4.728   5.907 -0.4832 -2.4844  0.6134
  655SOL     OW13618   2.951   7.603   2.852  0.4596  0.5395  0.0420
  655SOL    HW113619   3.048   7.597   2.828  0.5987  0.7067  0.5617
  655SOL    HW213620   2.935   7.556   2.939  0.1102  0.6865  0.0579
  656SOL     OW13621   6.919   8.595   3.152 -0.1581  0.1052  0.1641
  656SOL    HW113622   6.862   8.525   3.194 -0.5491  0.6935  0.6010
  656SOL    HW213623   6.869   8.681   3.145  0.4166  0.4239 -0.1243
  657SOL     OW13624   9.727   8.979   4.516  0.2809 -0.1390 -0.2147
  657SOL    HW113625   9.787   8.919   4.463  0.6695  0.6604 -0.6871
  657SOL    HW213626   9.681   8.926   4.587 -0.9625 -1.4314 -1.9198
  658SOL     OW13627   1.084   3.658   7.748 -0.1731 -0.0627  0.1690
  658SOL    HW113628   1.133   3.735   7.706  0.6310 -0.4387  0.4151
  658SOL    HW213629   1.138   3.622   7.824 -1.3075  0.1810  1.1142
  659SOL     OW13630   4.606   1.731   7.057 -1.2064 -0.0618 -0.6553
  659SOL    HW113631   4.705   1.715   7.054 -1.1154  0.5192 -0.7423
  659SOL    HW213632   4.577   1.775   6.972 -1.8521 -2.0234 -1.4787
  660SOL     OW13633   8.887   6.322   6.512 -0.0594 -0.0437 -0.6764
  660SOL    HW113634   8.965   6.379   6.487  0.0247 -0.1139 -0.5730
  660SOL    HW213635   8.823   6.375   6.567  0.2741 -0.2008 -0.1338
  661SOL     OW13636   9.321   4.168   4.547 -0.7151 -0.1160  0.2868
  661SOL    HW113637   9.339   4.136   4.454 -0.3679 -0.1920  0.3769
  661SOL    HW213638   9.257   4.245   4.545 -1.8586 -1.0602  0.0978
  662SOL     OW13639   1.946   6.697   5.236  0.2082 -0.1601  0.0461
  662SOL    HW113640   1.915   6.789   5.212  1.6826  0.3935  0.1856
  662SOL    HW213641   1.880   6.654   5.297 -0.7562  0.6009 -0.4499
  663SOL     OW13642   3.195   6.024   0.913  0.7540 -0.1365  0.5338
  663SOL    HW113643   3.264   5.992   0.979  1.1401 -0.4494 -0.0191
  663SOL    HW213644   3.228   6.009   0.820 -0.0904 -0.3285  0.2627
  664SOL     OW13645   8.610   1.798   0.395  0.3394  0.5158 -0.2504
  664SOL    HW113646   8.703   1.781   0.361  0.5137  1.4651 -0.2531
  664SOL    HW213647   8.550   1.823   0.319  0.1708  0.2710 -0.1972
  665SOL     OW13648   9.548   9.378   0.196 -0.2075  0.5892  0.2248
  665SOL    HW113649   9.636   9.365   0.243  0.3900  0.5263 -0.9021
  665SOL    HW213650   9.563   9.420   0.107 -0.9963 -2.2091 -1.3067
  666SOL     OW13651   7.640   2.328   4.985 -0.2326  0.3108  0.5572
  666SOL    HW113652   7.653   2.418   5.027  0.1342  0.5640 -0.0883
  666SOL    HW213653   7.600   2.266   5.051  1.8777  0.2367  1.7960
  667SOL     OW13654   7.141   2.789   5.692 -0.0270 -0.1272  0.7083
  667SOL    HW113655   7.176   2.748   5.776  0.1280  0.0570  0.7339
  667SOL    HW213656   7.162   2.729   5.615  1.7474  0.7032  0.5066
  668SOL     OW13657   7.729   8.609   2.859 -0.5243  0.3078 -0.0126
  668SOL    HW113658   7.774   8.541   2.917 -1.4471  0.2775  0.6980
  668SOL    HW213659   7.640   8.631   2.899 -0.3072  1.7952 -0.3439
  669SOL     OW13660   8.392   8.893   5.574 -0.6667  0.0090  0.0281
  669SOL    HW113661   8.440   8.949   5.642 -2.3318  1.8573 -0.2476
  669SOL    HW213662   8.405   8.933   5.483 -0.6010 -0.9603 -0.3958
  670SOL     OW13663   2.582   1.141   6.568  0.2276 -0.5035  0.2560
  670SOL    HW113664   2.682   1.147   6.564  0.3176 -2.0635  0.1878
  670SOL    HW213665   2.549   1.074   6.502 -0.9263  0.4564 -0.1656
  671SOL     OW13666   9.216   0.490   8.031 -0.2386 -0.4216  0.2010
  671SOL    HW113667   9.274   0.479   8.111  0.7732  2.1875 -0.1357
  671SOL    HW213668   9.136   0.545   8.054 -0.0995  0.0847 -0.4758
  672SOL     OW13669   9.877   2.027   2.985 -0.4180 -0.0114  0.2584
  672SOL    HW113670   9.965   2.020   2.940 -0.8091  1.1286 -0.6953
  672SOL    HW213671   9.815   1.957   2.950  0.3196 -1.2790  1.4499
  673SOL     OW13672   9.946   5.263   3.274 -0.3183  0.5033 -0.3035
  673SOL    HW113673   9.853   5.245   3.306  0.4038 -0.4971  1.2799
  673SOL    HW213674   9.976   5.189   3.215 -0.1118  0.2752  0.0899
  674SOL     OW13675   8.914   8.284   1.243  0.0561 -0.0222 -0.1880
  674SOL    HW113676   8.968   8.335   1.176 -0.7302 -0.5899 -1.2842
  674SOL    HW213677   8.842   8.342   1.279 -0.3419 -0.1048 -0.8363
  675SOL     OW13678   1.593   4.941   1.553  0.3924  0.7572  0.4226
  675SOL    HW113679   1.531   4.989   1.615 -0.4982 -0.4151  0.4568
  675SOL    HW213680   1.540   4.879   1.495  1.4604  0.2620 -0.0312
  676SOL     OW13681   1.199   2.195   7.529 -0.0231 -0.0922  0.3526
  676SOL    HW113682   1.230   2.276   7.578 -0.7808 -0.1907  1.0035
  676SOL    HW213683   1.256   2.181   7.448  0.6136  0.6292  0.6718
  677SOL     OW13684   4.491   3.131   2.252 -0.6017  0.9237  0.1299
  677SOL    HW113685   4.453   3.206   2.306  1.6132  0.6300  2.1177
  677SOL    HW213686   4.449   3.045   2.280  0.2351  0.8264  1.0827
  678SOL     OW13687   8.851   7.521   1.324  0.4281 -0.1958  0.0417
  678SOL    HW113688   8.810   7.612   1.321  1.1904  0.2630  2.6190
  678SOL    HW213689   8.795   7.461   1.381  1.0636 -0.7519  0.0890
  679SOL     OW13690   0.180   4.973   8.052 -0.1369 -0.4056  0.4126
  679SOL    HW113691   0.243   4.926   8.113  0.0038 -2.6893 -1.4187
  679SOL    HW213692   0.086   4.944   8.071 -0.2512  0.0625  0.5728
  680SOL     OW13693   9.059   4.290   7.384  0.3467  0.3345 -0.1896
  680SOL    HW113694   9.014   4.277   7.473 -0.1230  2.5505 -0.0616
  680SOL    HW213695   8.990   4.286   7.312  1.3053 -5.9571 -0.9626
  681SOL     OW13696   4.159   4.295   0.893 -0.2376 -0.1426 -0.1169
  681SOL    HW113697   4.176   4.310   0.990  0.0091  0.0960 -0.1955
  681SOL    HW213698   4.209   4.363   0.839 -1.1609  0.3609 -0.3645
  682SOL     OW13699   3.948   0.689   4.920 -0.3999 -0.2507 -0.4396
  682SOL    HW113700   3.865   0.700   4.974 -1.6338 -1.7722 -1.9949
  682SOL    HW213701   3.979   0.594   4.926  1.5946  0.4288  0.6122
  683SOL     OW13702   1.034   6.667   4.267  0.1730 -0.2896  0.0507
  683SOL    HW113703   1.118   6.684   4.319  1.5287 -2.6141 -1.3247
  683SOL    HW213704   1.014   6.747   4.211 -0.1996  1.4531  2.5692
  684SOL     OW13705   2.329   9.948   5.892  0.0830 -0.0689  0.2539
  684SOL    HW113706   2.309  10.022   5.957 -0.1115  0.9167 -0.8978
  684SOL    HW213707   2.246   9.927   5.840  1.2627  2.1596 -2.6646
  685SOL     OW13708   8.374   0.757   7.449  0.4825 -0.3220  0.0143
  685SOL    HW113709   8.359   0.746   7.547 -1.7988  3.1011  0.1301
  685SOL    HW213710   8.293   0.727   7.399  0.5348  0.6410 -0.6516
  686SOL     OW13711   9.787   3.217   1.568  0.7150 -0.3600 -0.2229
  686SOL    HW113712   9.870   3.194   1.518  0.6685  0.0497 -0.4939
  686SOL    HW213713   9.783   3.316   1.580 -0.1914 -0.3001 -1.0000
  687SOL     OW13714   9.429   5.878   5.501 -0.0159 -0.0424  0.3879
  687SOL    HW113715   9.481   5.796   5.525 -0.3659 -0.3190  0.1976
  687SOL    HW213716   9.395   5.871   5.407  0.2723  0.4866  0.2389
  688SOL     OW13717   4.801   0.114   2.687 -0.2740 -0.2491 -0.2622
  688SOL    HW113718   4.751   0.045   2.740 -0.2024  0.1922  0.3954
  688SOL    HW213719   4.754   0.202   2.695  0.8135  0.2619  0.6859
  689SOL     OW13720   6.984   7.381   5.731 -0.0859 -0.2696 -0.7904
  689SOL    HW113721   6.961   7.417   5.822  1.3625 -0.7379 -0.2264
  689SOL    HW213722   6.940   7.437   5.661 -0.5705  0.5785  0.1808
  690SOL     OW13723   7.221   1.548   3.667 -0.1610  0.1228 -0.0548
  690SOL    HW113724   7.237   1.642   3.639  0.7639  0.1268  0.4708
  690SOL    HW213725   7.222   1.541   3.767  3.6154 -1.0294 -0.0616
  691SOL     OW13726   1.080   2.074   8.125  0.4647 -0.3288 -0.1630
  691SOL    HW113727   1.133   2.052   8.207 -0.0550 -1.1327 -0.0350
  691SOL    HW213728   0.999   2.015   8.121  0.2044  0.0768 -0.9729
  692SOL     OW13729   8.500   0.158   7.989  0.2524  0.3454  0.0116
  692SOL    HW113730   8.574   0.220   8.014 -0.6702  1.6943 -0.5180
  692SOL    HW213731   8.498   0.148   7.889 -0.5589  0.6813 -0.0094
  693SOL     OW13732   9.790   5.868   3.843 -0.6174 -0.3450  0.4599
  693SOL    HW113733   9.753   5.801   3.779  1.5957  0.1643 -1.4526
  693SOL    HW213734   9.716   5.910   3.895 -2.2836 -2.2080 -0.3526
  694SOL     OW13735   0.246   5.078   3.057 -0.1811  0.3075  0.2031
  694SOL    HW113736   0.327   5.072   3.115 -0.6029  4.0232  1.2696
  694SOL    HW213737   0.168   5.035   3.104  0.6986 -1.6377 -0.0542
  695SOL     OW13738   2.556   6.961   5.777 -0.0640  0.1308  0.2333
  695SOL    HW113739   2.513   7.039   5.733  0.8836  0.1843 -0.6156
  695SOL    HW213740   2.635   6.993   5.831  0.4900 -0.2714 -0.3372
  696SOL     OW13741   2.462   9.096   5.756 -1.3219  0.3731  0.3976
  696SOL    HW113742   2.439   9.038   5.834  0.1124 -0.6357  0.1055
  696SOL    HW213743   2.447   9.045   5.671 -1.2743  0.8749  0.0865
  697SOL     OW13744   6.319   0.944   3.781  0.0064  0.3230 -0.2092
  697SOL    HW113745   6.268   1.012   3.833 -0.6564 -0.5913  0.3342
  697SOL    HW213746   6.417   0.967   3.784 -0.0430  0.3799  1.2907
  698SOL     OW13747   8.796   9.335   3.390 -0.2324  0.2697 -0.7210
  698SOL    HW113748   8.859   9.406   3.422 -2.3585  0.9942  1.9924
  698SOL    HW213749   8.728   9.376   3.330  0.0487  0.0280 -1.2109
  699SOL     OW13750   7.735   5.189   0.910  0.3578 -0.4172 -0.5571
  699SOL    HW113751   7.648   5.236   0.895  0.0656 -0.8245 -0.1439
  699SOL    HW213752   7.747   5.118   0.840 -0.5125 -1.6052  0.4835
  700SOL     OW13753   3.337   1.585   0.781 -0.5140 -0.7097 -0.1966
  700SOL    HW113754   3.246   1.621   0.797 -0.4422 -1.6079  2.4967
  700SOL    HW213755   3.401   1.622   0.848  0.8716 -0.9731 -1.3300
  701SOL     OW13756   4.470   1.959   0.248 -0.7551 -0.2352 -0.5574
  701SOL    HW113757   4.457   2.014   0.165 -0.7839 -0.4431 -0.6901
  701SOL    HW213758   4.539   2.002   0.306  0.0395 -0.6611 -1.1799
  702SOL     OW13759   9.011   7.250   4.317  0.0212 -0.2258 -0.3218
  702SOL    HW113760   9.055   7.176   4.265 -0.6431 -1.0536  0.2769
  702SOL    HW213761   8.911   7.241   4.308 -0.0487  0.8904 -0.6465
  703SOL     OW13762   3.076   5.097   0.231  0.2930 -0.0100 -0.0978
  703SOL    HW113763   3.000   5.162   0.223 -0.0823 -0.5865 -1.4573
  703SOL    HW213764   3.056   5.031   0.303 -0.8861 -0.6491 -0.9901
  704SOL     OW13765   4.229   8.503   6.006 -0.0194 -0.3003 -0.5500
  704SOL    HW113766   4.268   8.537   6.091  0.8642 -0.5992 -0.8246
  704SOL    HW213767   4.133   8.477   6.021  0.0856 -0.2093  0.3081
  705SOL     OW13768   8.371   1.426   0.665  0.4875  0.3533  0.0274
  705SOL    HW113769   8.464   1.460   0.653  0.4648 -0.1059 -1.4920
  705SOL    HW213770   8.312   1.500   0.696  0.7310  1.3576 -1.8569
  706SOL     OW13771   4.019   1.803   4.648  0.9656  0.1817 -0.3924
  706SOL    HW113772   4.106   1.848   4.667  0.6380  1.3731 -1.5878
  706SOL    HW213773   3.944   1.864   4.672  0.5095  0.1649 -1.7116
  707SOL     OW13774   7.336   3.128   2.367  0.2065 -0.0846  0.2098
  707SOL    HW113775   7.269   3.202   2.372 -0.4476 -0.6812  0.3332
  707SOL    HW213776   7.336   3.089   2.274 -0.0885 -0.5131  0.3861
  708SOL     OW13777   2.736   3.356   0.951 -0.0607  0.1393 -0.3159
  708SOL    HW113778   2.698   3.267   0.978  0.7874 -0.2431 -0.3739
  708SOL    HW213779   2.828   3.344   0.915  0.5455  1.1939  0.8379
  709SOL     OW13780   0.627   0.072   0.779  0.0432  0.5502  0.4213
  709SOL    HW113781   0.567   0.151   0.788 -0.7400 -0.0437  0.4598
  709SOL    HW213782   0.617   0.033   0.687  0.2103  0.3276  0.4983
  710SOL     OW13783   4.279   7.879   4.664  0.1138  0.1983  0.4375
  710SOL    HW113784   4.250   7.942   4.591 -1.9301 -1.3329 -0.1093
  710SOL    HW213785   4.242   7.911   4.751 -0.5131  0.0199  0.2372
  711SOL     OW13786   8.867   6.178   2.640  0.3710 -0.0357  0.5472
  711SOL    HW113787   8.961   6.158   2.611  0.7891  0.3683  1.5913
  711SOL    HW213788   8.815   6.213   2.562  0.4675 -2.3256 -0.5849
  712SOL     OW13789   9.771   4.861   6.259  0.2563 -0.3586  0.0789
  712SOL    HW113790   9.807   4.769   6.245  1.4142 -0.0035  0.7188
  712SOL    HW213791   9.761   4.878   6.357 -1.2949 -0.3045 -0.0634
  713SOL     OW13792   2.326   0.969   7.890  0.9287 -0.0508  0.0703
  713SOL    HW113793   2.392   0.951   7.817 -0.3800  2.4012 -1.8108
  713SOL    HW213794   2.340   1.062   7.925  0.8558 -0.8283  2.2459
  714SOL     OW13795   3.454   5.727   2.291 -0.3398  0.4027  0.2655
  714SOL    HW113796   3.532   5.666   2.301 -0.9466 -0.4800 -0.2932
  714SOL    HW213797   3.432   5.768   2.380  1.8881  2.1013  0.0596
  715SOL     OW13798   3.858   0.572   2.840  0.0300 -0.4919  0.4056
  715SOL    HW113799   3.772   0.591   2.792 -0.0605  0.4227  0.9373
  715SOL    HW213800   3.928   0.547   2.773  0.3614  2.4262 -0.3892
  716SOL     OW13801   4.378   1.392   4.127 -0.2621 -0.1061 -0.1388
  716SOL    HW113802   4.395   1.487   4.153 -1.0087  0.7067 -2.4405
  716SOL    HW213803   4.406   1.331   4.201  1.6989  1.8103  0.7457
  717SOL     OW13804   9.467   5.604   1.833  0.1460  0.4496 -0.2742
  717SOL    HW113805   9.416   5.521   1.857  1.8195  0.2037  2.7754
  717SOL    HW213806   9.413   5.661   1.772 -2.9863 -0.6203  1.4375
  718SOL     OW13807   4.489   3.183   3.081 -0.7909 -0.0098  0.2237
  718SOL    HW113808   4.488   3.112   3.011 -0.0975  0.3512 -0.1541
  718SOL    HW213809   4.526   3.146   3.166 -1.2301 -0.3301  0.2773
  719SOL     OW13810   4.020   4.535   7.846  0.0376 -0.2124 -0.3336
  719SOL    HW113811   3.962   4.512   7.924 -0.7575  0.0388 -0.8546
  719SOL    HW213812   4.040   4.633   7.846 -2.2947  0.3074 -2.0167
  720SOL     OW13813   9.884   0.781   0.002 -0.0931  0.3058  0.1360
  720SOL    HW113814   9.831   0.701  -0.026  1.0247  0.3891 -2.2753
  720SOL    HW213815   9.913   0.769   0.097 -3.5162 -0.1967  1.2046
  721SOL     OW13816   8.063   1.122   4.738 -0.3937  0.1133  0.2606
  721SOL    HW113817   8.027   1.101   4.829  0.7755  0.7270  0.8668
  721SOL    HW213818   8.101   1.039   4.697 -0.4868 -0.0627  0.5270
  722SOL     OW13819   3.551   5.425   7.901 -0.2598 -0.2977  0.0143
  722SOL    HW113820   3.634   5.431   7.847 -0.7496 -0.7952 -0.8119
  722SOL    HW213821   3.477   5.387   7.845 -1.3445  1.2105  0.4026
  723SOL     OW13822   7.387   8.728   4.433  0.0919  1.0422 -0.1734
  723SOL    HW113823   7.304   8.689   4.391  1.0603 -0.8562 -0.3948
  723SOL    HW213824   7.386   8.827   4.422 -0.6321  0.7872 -2.9772
  724SOL     OW13825   6.265   0.836   3.165  0.0490  0.1304  0.1824
  724SOL    HW113826   6.207   0.759   3.190  0.8055 -0.9679 -1.3510
  724SOL    HW213827   6.310   0.871   3.247  0.0119 -1.3332  0.8530
  725SOL     OW13828   3.184   7.469   6.156 -0.6501 -0.2851 -0.4208
  725SOL    HW113829   3.246   7.529   6.206 -1.7966  0.0826  0.5705
  725SOL    HW213830   3.229   7.437   6.072  0.7151  0.3052  0.0777
  726SOL     OW13831   8.508   8.406   1.003 -0.7112 -0.5452  1.4505
  726SOL    HW113832   8.592   8.373   0.961 -0.7415  1.5685 -0.3965
  726SOL    HW213833   8.447   8.329   1.020  0.9253 -1.9122  1.2973
  727SOL     OW13834   1.607   6.193   2.192 -0.4904  0.4104  0.8429
  727SOL    HW113835   1.655   6.106   2.202  0.0473  0.8710  2.3728
  727SOL    HW213836   1.515   6.177   2.156  0.7219 -0.5023 -2.0462
  728SOL     OW13837   3.447   2.948   0.576 -0.1202  0.1819 -0.3175
  728SOL    HW113838   3.499   2.907   0.651  2.1906 -0.1050 -2.0233
  728SOL    HW213839   3.374   2.885   0.548 -0.4038 -0.1117  1.0632
  729SOL     OW13840   4.512   7.428   3.967 -0.1651 -0.3472  0.1787
  729SOL    HW113841   4.425   7.469   3.938  0.3429  0.4580 -0.2160
  729SOL    HW213842   4.496   7.333   3.995 -0.8368 -0.8266 -1.7783
  730SOL     OW13843   2.856   2.026   1.055  0.2595  0.0522 -0.2351
  730SOL    HW113844   2.955   2.028   1.061  0.2423 -1.5233  0.8204
  730SOL    HW213845   2.817   2.102   1.108  0.7970 -1.3104  2.1348
  731SOL     OW13846   7.083   0.386   0.468  0.1197 -0.0391 -0.4250
  731SOL    HW113847   7.077   0.308   0.405  0.8218  0.5248 -1.2007
  731SOL    HW213848   7.134   0.460   0.424  0.3371  0.4784  0.6969
  732SOL     OW13849   9.118   2.916   4.464  0.4845 -0.4603 -0.4559
  732SOL    HW113850   9.070   3.000   4.490  1.0236 -0.4075  0.4103
  732SOL    HW213851   9.052   2.849   4.430 -0.2201 -0.3948  0.7370
  733SOL     OW13852   4.613   0.734   5.504 -0.0640  0.6324  0.4450
  733SOL    HW113853   4.689   0.669   5.496  2.0298  3.1042 -0.3695
  733SOL    HW213854   4.527   0.683   5.510  1.4498 -2.2093 -0.6951
  734SOL     OW13855   9.603   8.690   3.064 -0.0197  0.0986  0.0340
  734SOL    HW113856   9.659   8.611   3.087  2.4568  1.1989 -1.9482
  734SOL    HW213857   9.530   8.663   3.002 -0.4095 -0.9843  0.9644
  735SOL     OW13858   9.161   6.110   3.295  0.0140 -0.2787  0.2361
  735SOL    HW113859   9.075   6.059   3.293 -0.5442  0.5824  1.5693
  735SOL    HW213860   9.149   6.199   3.250  0.4860 -0.5571 -0.4579
  736SOL     OW13861   9.330   1.287   3.388 -0.5132 -0.2050 -0.5515
  736SOL    HW113862   9.418   1.240   3.373 -0.7629 -0.8995  0.1351
  736SOL    HW213863   9.273   1.232   3.449 -0.6449  1.1996  0.6128
  737SOL     OW13864   5.150   8.551   4.340  0.3676 -0.0215 -0.0659
  737SOL    HW113865   5.087   8.503   4.401  0.1469  0.4161  0.0533
  737SOL    HW213866   5.187   8.631   4.387 -1.8625  1.8580 -1.4226
  738SOL     OW13867   9.223   7.782   3.550 -0.6441  0.2642 -0.0383
  738SOL    HW113868   9.268   7.695   3.528 -0.7160  0.2112  0.0256
  738SOL    HW213869   9.288   7.843   3.596  0.0425  1.0486 -1.9895
  739SOL     OW13870   7.403   3.196   0.536  0.5000 -0.0698  0.0857
  739SOL    HW113871   7.369   3.256   0.464  3.0635  1.0973 -0.2247
  739SOL    HW213872   7.354   3.214   0.621 -0.9654  0.1688 -0.8015
  740SOL     OW13873   5.368   1.294   6.250 -0.4806 -0.3954 -0.5506
  740SOL    HW113874   5.396   1.209   6.205  1.2079  0.2880 -0.8601
  740SOL    HW213875   5.361   1.367   6.181  1.9804  0.6308  0.2276
  741SOL     OW13876   0.858   0.876   0.988 -0.4417 -0.0557  0.0253
  741SOL    HW113877   0.837   0.917   0.899  1.2415  1.5847  0.3582
  741SOL    HW213878   0.864   0.948   1.058  2.5196 -0.8214  0.6306
  742SOL     OW13879   5.916   4.879   2.033 -0.5591  0.0041  0.0519
  742SOL    HW113880   5.913   4.812   1.958  2.8427  1.1564 -1.2282
  742SOL    HW213881   5.990   4.855   2.096  0.7351  2.4625 -0.4401
  743SOL     OW13882   2.884   1.669   0.116  0.5504 -0.4349  0.0595
  743SOL    HW113883   2.830   1.745   0.080  0.7283  0.2106  1.1523
  743SOL    HW213884   2.970   1.702   0.153  1.9319 -1.5215 -2.0577
  744SOL     OW13885   8.787   4.678   5.936 -0.2954  0.0639  0.0982
  744SOL    HW113886   8.784   4.593   5.882 -0.0335 -0.5941  1.1061
  744SOL    HW213887   8.755   4.754   5.880 -1.1444 -0.8054 -0.6170
  745SOL     OW13888   6.569   2.002   1.759 -0.5545 -0.2759  0.1993
  745SOL    HW113889   6.474   1.992   1.728 -0.6854 -1.2833  0.8965
  745SOL    HW213890   6.630   1.997   1.680 -1.0876  0.4296 -0.2602
  746SOL     OW13891   0.045   6.231   3.627 -1.1397  0.1233  0.3751
  746SOL    HW113892   0.049   6.263   3.532  0.8029 -2.7815 -0.6373
  746SOL    HW213893  -0.016   6.152   3.633  1.9581 -2.3735  0.5708
  747SOL     OW13894   3.913   4.035   3.897  0.3685  0.2363 -0.0638
  747SOL    HW113895   3.961   4.047   3.983 -0.7995  0.3588  0.5903
  747SOL    HW213896   3.938   4.108   3.834 -0.2014  1.2428  0.8538
  748SOL     OW13897   8.219   2.323   0.128 -0.3080 -0.2455 -0.4549
  748SOL    HW113898   8.174   2.245   0.085 -1.7471  0.9880 -1.2496
  748SOL    HW213899   8.312   2.298   0.153 -0.5708 -2.0449 -1.1960
  749SOL     OW13900   8.001   6.422   8.140  0.0851  0.4118 -0.1902
  749SOL    HW113901   7.940   6.377   8.075  0.2058 -0.6133  0.3829
  749SOL    HW213902   8.063   6.354   8.180  1.0411  1.2953 -0.1476
  750SOL     OW13903   8.123   8.615   6.689  0.1842 -0.6660  0.7219
  750SOL    HW113904   8.062   8.579   6.618 -0.0758  0.7592  0.2042
  750SOL    HW213905   8.123   8.553   6.768 -1.2898 -1.1002  0.3946
  751SOL     OW13906   2.481   4.585   1.847 -0.0829 -0.1340  0.0205
  751SOL    HW113907   2.419   4.630   1.783  0.5473 -0.4201 -0.8053
  751SOL    HW213908   2.575   4.613   1.827  0.2062 -0.9741  0.2078
  752SOL     OW13909   2.325   5.963   1.012 -1.1010  0.2086 -0.1563
  752SOL    HW113910   2.310   6.038   0.947 -0.6128 -0.0328 -0.5533
  752SOL    HW213911   2.319   5.876   0.964 -0.2750  0.0451  0.0372
  753SOL     OW13912   9.473   7.570   7.600 -0.2536 -0.0915 -0.5708
  753SOL    HW113913   9.544   7.504   7.572  0.2542  0.4174 -0.4880
  753SOL    HW213914   9.460   7.564   7.699  0.7139  0.8297 -0.3754
  754SOL     OW13915   7.870   6.634   5.521 -0.2135  0.2151 -0.2117
  754SOL    HW113916   7.772   6.613   5.514 -0.1824  0.7140 -2.7685
  754SOL    HW213917   7.922   6.549   5.518 -0.4972  0.0593 -0.9697
  755SOL     OW13918   1.163   0.190   6.316 -0.3610  0.3570  0.5091
  755SOL    HW113919   1.206   0.125   6.253 -2.8982 -0.3210 -0.5774
  755SOL    HW213920   1.228   0.213   6.389  0.6501 -3.2859  0.8602
  756SOL     OW13921   4.235   9.497   5.278  0.1403 -0.3080  0.4875
  756SOL    HW113922   4.184   9.552   5.212  0.8416 -0.4723 -0.1936
  756SOL    HW213923   4.302   9.555   5.325  0.8385 -0.5484 -0.1898
  757SOL     OW13924   3.870   0.704   6.646 -0.2677 -0.1227 -0.1409
  757SOL    HW113925   3.845   0.748   6.732 -2.2116  0.4524 -0.9739
  757SOL    HW213926   3.970   0.695   6.642 -0.0795  0.7005  1.7418
  758SOL     OW13927   1.923   4.825   3.227 -0.6619  0.5586  0.8123
  758SOL    HW113928   1.872   4.745   3.195  1.0452 -0.7943  1.3692
  758SOL    HW213929   1.994   4.849   3.161 -2.1541  2.6253 -0.1090
  759SOL     OW13930   1.844   5.440   4.665  0.6085  0.2903 -0.1728
  759SOL    HW113931   1.791   5.431   4.749 -1.3910 -0.0573 -1.4362
  759SOL    HW213932   1.831   5.359   4.608  2.0803  0.4400 -0.7571
  760SOL     OW13933   0.956   7.719   2.076 -0.1000 -0.1047  0.0079
  760SOL    HW113934   1.042   7.715   2.128  0.5323  2.2690 -0.7544
  760SOL    HW213935   0.976   7.705   1.979 -0.8668 -1.5601  0.0541
  761SOL     OW13936   0.459   3.921   0.792  0.1168 -0.4233 -0.1044
  761SOL    HW113937   0.458   3.969   0.880 -0.3934 -1.3769  0.4134
  761SOL    HW213938   0.532   3.853   0.792  1.6988  1.2100 -1.3251
  762SOL     OW13939   3.057   0.186   7.215  0.0638 -0.1164 -0.7931
  762SOL    HW113940   3.111   0.265   7.241  1.1180 -0.8896 -0.6018
  762SOL    HW213941   3.039   0.129   7.296 -0.9742  0.0879 -0.8663
  763SOL     OW13942   1.638   4.325   7.867  0.0177 -0.4064 -0.3844
  763SOL    HW113943   1.581   4.391   7.818  0.1777  0.1464  0.1617
  763SOL    HW213944   1.692   4.373   7.936 -1.0794 -1.3082  1.1442
  764SOL     OW13945   6.189   8.363   4.785 -0.5422  0.0755  0.0171
  764SOL    HW113946   6.275   8.377   4.835  0.2196  1.1199 -1.5585
  764SOL    HW213947   6.114   8.355   4.851  0.3563  2.0706  1.3537
  765SOL     OW13948   6.848   2.717   5.624 -0.1896  0.3144 -0.1192
  765SOL    HW113949   6.804   2.688   5.709  1.2384 -0.6623  0.3180
  765SOL    HW213950   6.932   2.767   5.645  0.7967 -0.9430 -0.9347
  766SOL     OW13951   4.255   2.219   3.695  0.0831  0.0498 -0.0220
  766SOL    HW113952   4.306   2.158   3.757 -0.2660 -0.4115 -0.1861
  766SOL    HW213953   4.201   2.164   3.631 -0.1297  0.5338 -0.2614
  767SOL     OW13954   3.640   2.397   2.208  0.4260 -0.0915  0.4350
  767SOL    HW113955   3.619   2.300   2.192  0.7892  0.0038 -0.6123
  767SOL    HW213956   3.623   2.449   2.125 -0.8482  0.9382  1.3177
  768SOL     OW13957   8.008   2.718   0.922  0.7599 -0.3267  0.2741
  768SOL    HW113958   8.097   2.706   0.966  0.9538  2.7787  0.7926
  768SOL    HW213959   8.009   2.801   0.866 -2.1988  0.3909  1.2247
  769SOL     OW13960   0.252   2.311   1.267 -0.4279 -0.0475 -0.3407
  769SOL    HW113961   0.221   2.330   1.360  1.2946  1.5339 -0.0578
  769SOL    HW213962   0.316   2.233   1.269  0.1859  0.4594 -0.0876
  770SOL     OW13963   0.329   4.104   1.008  0.0720  0.1174 -0.1017
  770SOL    HW113964   0.302   4.048   1.086  0.8592 -1.0777 -0.6632
  770SOL    HW213965   0.372   4.189   1.040 -3.5836  1.7122  0.7817
  771SOL     OW13966   8.038   4.855   6.301  0.3366  0.0919  0.3795
  771SOL    HW113967   8.008   4.788   6.370 -0.8028 -1.0729 -1.2131
  771SOL    HW213968   8.125   4.825   6.262 -0.4745 -0.8060 -0.7666
  772SOL     OW13969   2.309   1.690   6.250 -0.0462 -0.0900 -0.3094
  772SOL    HW113970   2.320   1.591   6.241 -0.4962 -0.2777  1.1132
  772SOL    HW213971   2.398   1.732   6.265 -0.2758 -0.7280  3.0921
  773SOL     OW13972   6.895   5.609   0.984 -0.1284  0.5181 -0.2321
  773SOL    HW113973   6.858   5.667   0.911 -0.1035 -2.1170 -2.4593
  773SOL    HW213974   6.994   5.598   0.970 -0.4036 -1.3698 -0.8461
  774SOL     OW13975   3.984   8.148   5.094 -0.0459  0.5147 -0.1152
  774SOL    HW113976   4.082   8.171   5.095  0.3160 -0.9014 -0.4689
  774SOL    HW213977   3.930   8.230   5.110  1.1941  1.4151 -0.4378
  775SOL     OW13978   2.766   8.898   0.688 -0.2267  0.9551 -0.1301
  775SOL    HW113979   2.792   8.857   0.776  2.1888  2.0788 -0.2927
  775SOL    HW213980   2.753   8.996   0.700 -0.7790  0.9717 -0.8562
  776SOL     OW13981   8.854   2.507   1.637  0.1021 -0.7901 -0.0212
  776SOL    HW113982   8.832   2.592   1.588  1.7416  0.2761  1.0406
  776SOL    HW213983   8.771   2.474   1.684 -0.5084  0.3506 -0.2617
  777SOL     OW13984   0.693   5.404   2.223  0.1432 -0.4447 -0.0004
  777SOL    HW113985   0.725   5.343   2.296 -0.5800 -1.1463 -0.2574
  777SOL    HW213986   0.646   5.482   2.264  2.1490  0.5956  0.3800
  778SOL     OW13987   8.967   2.577   0.179 -0.3402  0.3186 -0.0904
  778SOL    HW113988   9.040   2.636   0.143  0.6522 -0.7103  0.2185
  778SOL    HW213989   8.937   2.613   0.268  1.5719 -0.6774  0.9891
  779SOL     OW13990   4.134   8.476   4.327  0.1978 -0.6562  0.3306
  779SOL    HW113991   4.100   8.476   4.421 -0.5149  0.0303  0.0849
  779SOL    HW213992   4.224   8.520   4.324  0.6965 -1.6478  0.8495
  780SOL     OW13993   9.252   3.808   5.213 -0.1682  0.1008  0.4927
  780SOL    HW113994   9.219   3.872   5.282  2.0594  1.5874  0.2336
  780SOL    HW213995   9.300   3.732   5.258  1.4166  1.1476  0.6090
  781SOL     OW13996   6.906   6.395   6.094 -0.4747  0.2252  0.2251
  781SOL    HW113997   6.965   6.320   6.064 -1.9677 -2.6180  4.0273
  781SOL    HW213998   6.818   6.388   6.047  0.1204  0.8891 -1.0023
  782SOL     OW13999   3.422   3.804   6.214  0.5508  0.2156 -0.0934
  782SOL    HW114000   3.520   3.819   6.207  0.4358  1.0996  0.0759
  782SOL    HW214001   3.387   3.770   6.127  0.7905  1.2230 -0.5898
  783SOL     OW14002   7.913   3.626   7.557 -0.8264  0.3196 -0.3381
  783SOL    HW114003   7.821   3.659   7.578 -0.9022 -0.1956  0.1493
  783SOL    HW214004   7.936   3.550   7.618 -0.0267  0.5312 -0.3747
  784SOL     OW14005   1.085   8.947   6.651  0.2735  0.4368  0.0464
  784SOL    HW114006   1.180   8.918   6.663  0.7638  2.3675  1.0327
  784SOL    HW214007   1.036   8.940   6.738  0.5829  3.0866  0.4754
  785SOL     OW14008   3.707   0.208   8.122 -0.5227  0.1912 -0.1010
  785SOL    HW114009   3.635   0.151   8.083 -2.0955  3.3392 -2.0048
  785SOL    HW214010   3.738   0.274   8.054  2.3543  0.6232  1.5336
  786SOL     OW14011   7.298   2.716   2.345  0.0225  0.5779  0.3394
  786SOL    HW114012   7.368   2.644   2.353 -0.5484  0.0531  0.6738
  786SOL    HW214013   7.235   2.692   2.272  0.4757  1.2992 -0.2912
  787SOL     OW14014   0.181   0.542   7.645  0.2742 -0.3186 -0.2678
  787SOL    HW114015   0.243   0.557   7.568  2.6355  1.7526  1.9660
  787SOL    HW214016   0.158   0.630   7.687 -0.4859 -1.4506  1.7470
  788SOL     OW14017   9.140   2.593   3.302  0.2780  0.0416  0.3410
  788SOL    HW114018   9.062   2.636   3.255  0.7323 -0.5082 -0.9466
  788SOL    HW214019   9.141   2.621   3.398 -0.9833  0.7721  0.1508
  789SOL     OW14020   5.949   0.966   1.010  0.2790 -0.1572 -0.0685
  789SOL    HW114021   5.892   1.019   1.074  1.2048  0.8521 -0.0662
  789SOL    HW214022   5.971   0.877   1.051 -1.5341 -0.6768 -0.1881
  790SOL     OW14023   4.392   8.873   1.582 -0.0097  0.5169 -0.0500
  790SOL    HW114024   4.394   8.968   1.549 -1.7150  1.2658  1.8709
  790SOL    HW214025   4.485   8.836   1.583  0.9704  2.8707  1.0605
  791SOL     OW14026   4.799   0.390   1.290 -0.3535 -0.4438 -0.2960
  791SOL    HW114027   4.805   0.301   1.244 -0.3390 -0.3135 -0.5459
  791SOL    HW214028   4.890   0.432   1.294 -0.5523  0.0608 -1.1698
  792SOL     OW14029   3.055   6.945   6.247  0.2203  0.0446 -0.4815
  792SOL    HW114030   2.974   6.967   6.300 -0.0005 -2.1980  0.1742
  792SOL    HW214031   3.051   6.990   6.158 -1.1250  0.9484  0.0328
  793SOL     OW14032   9.209   1.357   5.029  0.3047 -0.6088 -0.3298
  793SOL    HW114033   9.118   1.342   4.991 -0.0611  0.8932 -0.0920
  793SOL    HW214034   9.237   1.452   5.013  1.0217 -0.5276  1.2714
  794SOL     OW14035   7.357   4.004   1.792 -0.2425 -0.0305 -0.0418
  794SOL    HW114036   7.341   4.102   1.783  0.8238  0.0140 -1.5667
  794SOL    HW214037   7.446   3.989   1.836  0.3047 -0.3250 -1.2468
  795SOL     OW14038   5.405   9.612   3.072  0.5833  0.0613 -0.1453
  795SOL    HW114039   5.355   9.527   3.055  0.6028 -0.0768  0.4958
  795SOL    HW214040   5.504   9.593   3.066  0.5972 -0.0447  0.3742
  796SOL     OW14041   1.967   0.255   5.249 -0.4984 -0.5093 -0.4798
  796SOL    HW114042   1.897   0.275   5.318 -2.0773 -1.4727 -1.7601
  796SOL    HW214043   2.058   0.274   5.287 -1.3227 -1.1858  1.9063
  797SOL     OW14044   7.051   0.297   5.889  0.2681 -0.4252  0.1267
  797SOL    HW114045   7.023   0.248   5.806  1.2894 -2.0850  0.7302
  797SOL    HW214046   7.119   0.367   5.865 -1.7313  1.2414 -0.8408
  798SOL     OW14047   2.510   7.070   3.365 -0.0446  0.4855  0.2928
  798SOL    HW114048   2.467   7.119   3.441 -0.2503 -0.9851  1.1360
  798SOL    HW214049   2.505   7.126   3.282 -0.3208  1.8632  1.2264
  799SOL     OW14050   0.716   0.631   7.136 -0.3888 -0.9415 -0.8116
  799SOL    HW114051   0.772   0.619   7.054 -1.4317  1.2917 -1.8817
  799SOL    HW214052   0.715   0.728   7.162 -0.4058 -1.5559  1.6162
  800SOL     OW14053   2.539   6.053   5.283  0.3651  0.6294 -0.3364
  800SOL    HW114054   2.574   5.960   5.297  4.0355  1.8197 -1.1088
  800SOL    HW214055   2.525   6.097   5.372 -0.5150 -0.3253  0.0123
  801SOL     OW14056   0.155   1.441   1.842  0.1011 -0.5290 -0.0340
  801SOL    HW114057   0.064   1.409   1.869 -0.3256  0.3266 -0.4335
  801SOL    HW214058   0.185   1.391   1.760 -0.7001  0.2945 -0.8454
  802SOL     OW14059   1.753   5.284   8.071  0.2224 -0.3460 -0.8547
  802SOL    HW114060   1.829   5.324   8.021  0.9425 -0.5507  0.0699
  802SOL    HW214061   1.787   5.234   8.151 -0.9881  1.3106  0.7596
  803SOL     OW14062   9.938   0.778   4.734 -0.3752 -0.1462 -0.4443
  803SOL    HW114063   9.868   0.800   4.666 -0.7799 -0.4125 -0.1164
  803SOL    HW214064   9.993   0.859   4.753 -2.4196  0.8215  1.4252
  804SOL     OW14065   3.962   3.477   4.227  0.0396 -0.1687  0.1674
  804SOL    HW114066   3.950   3.512   4.319 -0.9501 -1.3124  0.4955
  804SOL    HW214067   4.022   3.397   4.229 -0.9014 -0.8919 -0.0088
  805SOL     OW14068   0.924   7.554   7.794 -0.1167 -0.0459 -0.0032
  805SOL    HW114069   1.001   7.583   7.852  0.0861  0.1933 -0.3916
  805SOL    HW214070   0.958   7.532   7.702 -0.2035 -1.8721  0.3799
  806SOL     OW14071   3.087   0.727   3.164  0.4191 -0.3692 -0.4328
  806SOL    HW114072   3.175   0.757   3.203  0.2655 -0.2620 -0.1689
  806SOL    HW214073   3.063   0.788   3.089  1.7209 -1.7876 -2.0446
  807SOL     OW14074   2.029   4.425   2.089  0.1504 -0.3797 -0.3843
  807SOL    HW114075   2.020   4.485   2.010 -0.7146  2.3893  1.7399
  807SOL    HW214076   1.943   4.424   2.140  0.9898 -1.3667  1.0506
  808SOL     OW14077   6.660   5.426   7.595 -0.7565  0.4783  0.1989
  808SOL    HW114078   6.635   5.347   7.651  1.6745 -0.0779  0.5509
  808SOL    HW214079   6.600   5.503   7.618 -0.4216  0.0011  2.9242
  809SOL     OW14080   0.948   5.549   0.619 -0.1136  0.3887 -0.0142
  809SOL    HW114081   1.008   5.629   0.618 -2.6420  2.3662 -1.4710
  809SOL    HW214082   0.972   5.488   0.543  0.6989  0.6278  0.0462
  810SOL     OW14083   0.638   5.824   2.852 -0.0046  0.2004 -0.4080
  810SOL    HW114084   0.711   5.793   2.790 -0.3469  0.2621 -0.8472
  810SOL    HW214085   0.592   5.744   2.891 -0.5874  0.1471 -1.1863
  811SOL     OW14086   4.391   2.587   7.962  0.2351 -0.0570 -0.4875
  811SOL    HW114087   4.401   2.683   7.936  0.1553  0.3031  0.8109
  811SOL    HW214088   4.453   2.531   7.906  2.0214  1.0068  0.3824
  812SOL     OW14089   0.129   9.474   3.423  0.0421 -0.1521 -0.4074
  812SOL    HW114090   0.073   9.392   3.434 -0.7574  0.2408 -1.4120
  812SOL    HW214091   0.133   9.525   3.509  0.0873 -0.9604  0.0655
  813SOL     OW14092   9.213   2.197   7.550  0.0635  0.2825 -0.2918
  813SOL    HW114093   9.194   2.113   7.499  0.4484 -1.0768  1.7471
  813SOL    HW214094   9.185   2.276   7.495 -1.8207 -1.2172 -1.5716
  814SOL     OW14095   7.754   0.736   7.582  0.4706  0.5728  0.2528
  814SOL    HW114096   7.739   0.833   7.601  0.7103  0.7898 -0.6374
  814SOL    HW214097   7.850   0.721   7.558 -0.0277  0.4752 -1.7340
  815SOL     OW14098   5.793   9.650   5.857 -0.1142  0.0734  0.0027
  815SOL    HW114099   5.713   9.702   5.886  1.8708  2.4072  1.5332
  815SOL    HW214100   5.817   9.584   5.928  0.8027  1.1675  0.7333
  816SOL     OW14101   2.404   0.727   7.405  0.1546  0.1824 -0.0420
  816SOL    HW114102   2.397   0.806   7.344  0.9148  1.9100  2.0159
  816SOL    HW214103   2.459   0.656   7.362  0.0831  1.0708 -1.6405
  817SOL     OW14104   7.306   3.842   1.006 -0.6585  0.1182 -0.0811
  817SOL    HW114105   7.386   3.784   0.998 -2.2903 -2.3398  0.8559
  817SOL    HW214106   7.330   3.927   1.052  1.0332 -1.3808  1.8772
  818SOL     OW14107   3.427   4.061   7.450 -0.5170  0.2543  0.1362
  818SOL    HW114108   3.462   4.103   7.534 -0.2676 -0.1598  0.2369
  818SOL    HW214109   3.351   4.000   7.473 -0.9776  0.7640 -0.0266
  819SOL     OW14110   0.948   5.288   3.672 -0.3543 -0.1835 -0.0231
  819SOL    HW114111   1.038   5.330   3.688  0.6559 -2.3864  0.3151
  819SOL    HW214112   0.960   5.192   3.647 -2.6088 -0.3623 -0.5275
  820SOL     OW14113   7.215   1.633   6.809  0.3480 -0.4400  0.2272
  820SOL    HW114114   7.189   1.594   6.720  1.2330 -1.4312  0.3928
  820SOL    HW214115   7.132   1.657   6.860 -0.2135 -1.9254  0.0407
  821SOL     OW14116   1.478   2.064   7.647  0.3359 -0.3558 -0.1546
  821SOL    HW114117   1.440   2.126   7.578  0.0177 -1.7324 -1.2497
  821SOL    HW214118   1.403   2.018   7.695  0.5768 -1.3149 -0.6817
  822SOL     OW14119   7.573   7.771   7.382 -0.1999 -0.1868  0.0964
  822SOL    HW114120   7.480   7.762   7.418 -0.9668 -0.4063 -1.8571
  822SOL    HW214121   7.569   7.801   7.287  1.7824  1.0481  0.3750
  823SOL     OW14122   6.691   1.730   2.257  0.4873 -0.3163 -0.1166
  823SOL    HW114123   6.644   1.795   2.197  1.4914 -0.3446 -0.9408
  823SOL    HW214124   6.661   1.637   2.236  1.0347 -0.3487 -0.7555
  824SOL     OW14125   0.941   2.967   3.853  0.1839  0.5081 -0.6181
  824SOL    HW114126   0.963   2.980   3.756 -2.3361  0.3582 -1.2584
  824SOL    HW214127   0.902   3.052   3.889 -0.2679  0.0960 -0.1423
  825SOL     OW14128   1.938   8.796   1.121  0.5453 -0.4110 -0.1698
  825SOL    HW114129   1.994   8.745   1.186  0.9449  0.7955  0.4524
  825SOL    HW214130   1.874   8.734   1.077  0.8321 -1.3976  0.7678
  826SOL     OW14131   2.696   2.412   4.996 -0.2313  0.0827  0.3283
  826SOL    HW114132   2.711   2.493   4.941 -0.7717  0.8073  1.2302
  826SOL    HW214133   2.598   2.391   4.999 -0.0470 -0.9085 -0.3314
  827SOL     OW14134   4.740   8.389   7.176 -0.0568 -0.2802 -0.2539
  827SOL    HW114135   4.659   8.366   7.122 -0.5037  0.0412  0.2731
  827SOL    HW214136   4.778   8.476   7.144 -0.5903  0.1426  0.2397
  828SOL     OW14137   0.208   4.446   7.830  0.1986 -0.2024 -0.4738
  828SOL    HW114138   0.258   4.529   7.808 -2.1866  1.9231  1.8484
  828SOL    HW214139   0.156   4.416   7.749 -0.4193  1.6652 -0.7905
  829SOL     OW14140   4.081   8.207   6.533 -0.4906 -0.1111 -0.2065
  829SOL    HW114141   4.181   8.207   6.522 -0.5674  0.7174 -0.9232
  829SOL    HW214142   4.044   8.295   6.505 -1.5717 -0.8935 -1.3135
  830SOL     OW14143   8.326   4.900   6.558  0.5078 -0.7207  0.5408
  830SOL    HW114144   8.367   4.829   6.615  1.0433  0.1065  1.2088
  830SOL    HW214145   8.394   4.971   6.540  0.2893 -0.8804 -0.9853
  831SOL     OW14146   0.127   5.609   7.982 -0.3653  0.4825 -0.0905
  831SOL    HW114147   0.032   5.610   7.950 -0.6730 -0.3803  0.7861
  831SOL    HW214148   0.129   5.590   8.080  0.8092 -1.2067 -0.4245
  832SOL     OW14149   7.305   1.864   3.192 -0.5193 -0.2493  0.7065
  832SOL    HW114150   7.327   1.783   3.247 -1.4174 -2.1443 -1.6654
  832SOL    HW214151   7.249   1.837   3.114  1.2078  2.2929 -1.4879
  833SOL     OW14152   1.882   1.628   3.026  0.5174 -0.3744 -0.1566
  833SOL    HW114153   1.976   1.661   3.013 -0.4143  4.3131  3.5240
  833SOL    HW214154   1.874   1.582   3.114 -0.6984 -0.4881 -0.3118
  834SOL     OW14155   9.314   1.228   7.735 -0.2501  0.4095 -0.0256
  834SOL    HW114156   9.225   1.195   7.704 -0.2656  0.8695 -0.4770
  834SOL    HW214157   9.316   1.230   7.835 -0.6942  0.2591 -0.0145
  835SOL     OW14158   0.148   9.568   5.593 -0.9869  0.1057 -0.7959
  835SOL    HW114159   0.205   9.487   5.578  1.4677  1.7901 -0.7775
  835SOL    HW214160   0.129   9.577   5.691  1.4148  1.2985 -0.4212
  836SOL     OW14161   0.033   8.263   3.348  0.1488  0.5663 -0.1049
  836SOL    HW114162   0.049   8.223   3.258 -0.4762  1.3993 -0.5921
  836SOL    HW214163   0.115   8.312   3.378  0.9207 -1.0557  0.4979
  837SOL     OW14164   2.915   0.951   2.275 -0.2404 -0.0438  0.4901
  837SOL    HW114165   2.874   1.033   2.316 -2.2375 -1.1280  0.7204
  837SOL    HW214166   3.014   0.961   2.274 -0.4271  2.1816  0.9479
  838SOL     OW14167   7.931   5.612   0.224  1.0588  0.0197  0.4731
  838SOL    HW114168   8.002   5.575   0.285  0.3856  0.6932  1.6827
  838SOL    HW214169   7.974   5.669   0.154  1.7060  0.4509  1.2188
  839SOL     OW14170   1.507   5.529   4.768  0.0682  0.1711 -0.0710
  839SOL    HW114171   1.492   5.430   4.763  0.0401  0.0966  1.1768
  839SOL    HW214172   1.547   5.561   4.683 -0.9466 -0.7314 -0.9034
  840SOL     OW14173  -0.006   5.615   6.255  0.5075 -0.0963 -0.5320
  840SOL    HW114174   0.063   5.601   6.184  1.0975 -0.8171  0.1843
  840SOL    HW214175   0.036   5.655   6.336 -0.7129  3.7928 -1.6685
  841SOL     OW14176   8.401   7.357   1.407 -0.4506 -0.2541 -0.3211
  841SOL    HW114177   8.328   7.294   1.380 -2.8056  2.4679 -0.4939
  841SOL    HW214178   8.386   7.447   1.366  1.3696  1.2131  2.0442
  842SOL     OW14179   9.723   8.302   2.290  0.4290 -0.3173  0.3833
  842SOL    HW114180   9.739   8.212   2.332 -0.2071 -1.1761 -1.1732
  842SOL    HW214181   9.625   8.321   2.288  0.4637 -0.2166 -0.5553
  843SOL     OW14182   2.168   5.192   6.530 -0.7378 -0.0864 -0.0697
  843SOL    HW114183   2.202   5.155   6.444  0.1329 -0.5686  0.4762
  843SOL    HW214184   2.069   5.207   6.523 -1.1463 -2.6566 -0.2478
  844SOL     OW14185   1.290   0.310   5.306  0.0507  0.2394  0.1061
  844SOL    HW114186   1.233   0.368   5.247 -1.5968 -1.2664  0.1584
  844SOL    HW214187   1.306   0.356   5.393  0.8264  1.6328 -0.7464
  845SOL     OW14188   1.041   3.275   3.539 -0.2363  0.3803  0.2487
  845SOL    HW114189   1.102   3.303   3.613 -1.2975  2.6525  0.3086
  845SOL    HW214190   1.079   3.308   3.452 -0.0523 -0.4889 -0.0068
  846SOL     OW14191   2.795   9.861   1.411 -0.3394  0.0013 -0.4696
  846SOL    HW114192   2.706   9.873   1.367 -0.2084 -0.6209 -0.9218
  846SOL    HW214193   2.845   9.947   1.409 -1.2709  0.5724  0.5547
  847SOL     OW14194   3.460   0.859   7.324  0.4187  0.2855 -0.2072
  847SOL    HW114195   3.493   0.931   7.384  2.3921 -1.4621  0.8740
  847SOL    HW214196   3.360   0.863   7.319  0.2863  1.0350  2.4620
  848SOL     OW14197   9.423   8.485   7.621 -0.3180  0.1148 -0.1166
  848SOL    HW114198   9.364   8.541   7.564  0.6938  1.0371 -0.2807
  848SOL    HW214199   9.483   8.430   7.563 -0.1784  0.0974  0.0444
  849SOL     OW14200   7.288   4.265   1.909  0.4847 -0.0142 -0.2835
  849SOL    HW114201   7.299   4.361   1.882 -0.2431  0.9205  2.5122
  849SOL    HW214202   7.366   4.239   1.966 -0.1102 -0.5733  0.2779
  850SOL     OW14203   5.770   2.414   0.363  0.0810 -0.2107 -0.3941
  850SOL    HW114204   5.685   2.433   0.313 -0.5473 -1.0124  0.3655
  850SOL    HW214205   5.846   2.462   0.319 -0.3402 -1.4622 -2.5849
  851SOL     OW14206   3.368   9.140   8.127  0.0150 -0.1900 -0.0570
  851SOL    HW114207   3.439   9.073   8.104  0.5291  0.3544 -0.0790
  851SOL    HW214208   3.322   9.112   8.211 -1.8746 -2.1762 -1.7342
  852SOL     OW14209   5.819   0.680   1.469  0.0232 -0.7012  0.2658
  852SOL    HW114210   5.918   0.678   1.486  0.2418 -0.4266 -0.9217
  852SOL    HW214211   5.781   0.589   1.487  0.2450 -0.4408  2.1171
  853SOL     OW14212   5.154   1.850   4.966  0.0133  0.9615  0.3997
  853SOL    HW114213   5.146   1.759   5.005  0.2212  0.7346 -0.0779
  853SOL    HW214214   5.173   1.916   5.038  3.1944  0.1629  0.3775
  854SOL     OW14215   8.273   3.398   4.062 -0.1040  0.7894 -0.6410
  854SOL    HW114216   8.228   3.372   4.148 -1.4852  0.0994 -1.5512
  854SOL    HW214217   8.298   3.495   4.066 -3.1240  1.6256 -0.6842
  855SOL     OW14218   8.973   4.301   4.159 -0.2124  0.4849  0.8566
  855SOL    HW114219   8.976   4.353   4.244  0.1642  1.3648  0.3053
  855SOL    HW214220   8.898   4.335   4.102  0.5218  0.9592  0.1590
  856SOL     OW14221   6.667   3.497   0.376 -0.6118  0.5187  0.6884
  856SOL    HW114222   6.587   3.456   0.332 -1.7103  1.9732  1.2798
  856SOL    HW214223   6.700   3.573   0.320 -0.2972  0.5926  0.9738
  857SOL     OW14224   4.938   8.338   2.991  0.1921  0.4118 -0.1618
  857SOL    HW114225   4.851   8.335   2.943  0.3886  1.3812 -0.5895
  857SOL    HW214226   4.941   8.417   3.052 -0.0354 -0.7785  1.4406
  858SOL     OW14227   2.541   8.067   6.098 -0.7013 -0.3092 -0.0201
  858SOL    HW114228   2.512   8.032   6.009  0.4274 -0.0714 -0.4933
  858SOL    HW214229   2.494   8.153   6.117  0.2682  0.4830 -1.1389
  859SOL     OW14230   9.890   6.630   1.081  0.3882  0.0646  0.4121
  859SOL    HW114231   9.989   6.639   1.076  0.7333 -2.5149  1.8627
  859SOL    HW214232   9.865   6.578   1.162 -2.1620  0.5195 -0.0262
  860SOL     OW14233   4.519   0.361   0.032 -0.1011  0.0862  0.3234
  860SOL    HW114234   4.581   0.320   0.099 -0.4602  2.7253  2.3815
  860SOL    HW214235   4.560   0.357  -0.059  0.6856 -3.0030  0.7476
  861SOL     OW14236   9.200   6.680   5.942 -0.4581  0.0886  0.3807
  861SOL    HW114237   9.238   6.710   6.029  1.0009 -0.5698 -0.0032
  861SOL    HW214238   9.275   6.664   5.877 -1.4773 -0.1276 -0.7688
  862SOL     OW14239   5.181   6.021   1.087  0.8266  0.3447 -0.1302
  862SOL    HW114240   5.136   6.110   1.095 -0.4368 -0.1920 -1.1218
  862SOL    HW214241   5.178   5.973   1.174 -0.5519  0.3019 -0.2005
  863SOL     OW14242   0.444   2.104   1.205 -0.0175  0.0185 -0.1464
  863SOL    HW114243   0.418   2.097   1.109  2.0239 -1.7367 -0.6110
  863SOL    HW214244   0.440   2.014   1.248 -0.7788  0.7651  1.4073
  864SOL     OW14245   1.116   9.813   4.046 -0.2453  0.1158  0.3381
  864SOL    HW114246   1.126   9.841   3.950 -0.5128  0.0809  0.2981
  864SOL    HW214247   1.163   9.878   4.105 -0.2429  0.2440  0.1959
  865SOL     OW14248   5.406   7.758   3.896  0.1612  0.4692  0.1860
  865SOL    HW114249   5.389   7.762   3.797 -0.7939 -0.6189  0.3009
  865SOL    HW214250   5.347   7.690   3.937  0.0818  1.3941  1.6303
  866SOL     OW14251   8.789   3.794   1.303 -0.3578 -0.2237  0.7363
  866SOL    HW114252   8.878   3.833   1.279  0.4711 -1.6903  1.3353
  866SOL    HW214253   8.737   3.776   1.220  1.2174 -2.3394  0.1710
  867SOL     OW14254   2.136   6.036   3.541  0.0740 -0.2672 -0.7778
  867SOL    HW114255   2.184   6.120   3.563  0.2166 -0.7934  0.9698
  867SOL    HW214256   2.046   6.058   3.502  0.4271  0.6880 -1.0612
  868SOL     OW14257   0.018   0.659   2.848  0.0359 -0.2867 -0.0926
  868SOL    HW114258  -0.056   0.658   2.915 -3.9731  2.3807 -4.2656
  868SOL    HW214259   0.054   0.752   2.840  1.5598 -0.9018 -0.5704
  869SOL     OW14260   1.315   9.512   3.233  0.4088 -0.0107  0.7433
  869SOL    HW114261   1.348   9.599   3.270 -1.9576  1.2396  0.0356
  869SOL    HW214262   1.287   9.453   3.309  0.0553  0.6825  1.1640
  870SOL     OW14263   9.799   1.991   6.363  0.0860 -0.1539  0.1325
  870SOL    HW114264   9.746   2.008   6.279  0.3105 -1.1358 -0.2191
  870SOL    HW214265   9.759   2.042   6.439  0.4094  1.4576 -0.7576
  871SOL     OW14266   5.318   8.049   3.375  0.0886 -0.2625  0.6963
  871SOL    HW114267   5.372   7.994   3.440  0.5045 -0.1489  0.4445
  871SOL    HW214268   5.333   8.015   3.282  0.5901  0.4848  0.5057
  872SOL     OW14269   5.132   7.507   6.521  0.0898 -0.2130  0.4843
  872SOL    HW114270   5.202   7.545   6.581 -0.3747  1.6057 -0.0848
  872SOL    HW214271   5.171   7.486   6.432  0.2985 -0.8798  0.7297
  873SOL     OW14272   1.341   8.985   4.357 -0.4497 -0.3764 -0.1667
  873SOL    HW114273   1.268   8.946   4.414  0.6900 -0.1553  1.4932
  873SOL    HW214274   1.367   8.918   4.288 -0.5450 -1.4248  0.7845
  874SOL     OW14275   8.904   8.387   5.926  0.2781  0.1643  0.1342
  874SOL    HW114276   8.952   8.313   5.879  1.2819  0.5250  0.5819
  874SOL    HW214277   8.966   8.464   5.939  0.4119 -0.4066  3.2033
  875SOL     OW14278   0.862   7.073   2.703 -0.2169 -0.4603 -0.1385
  875SOL    HW114279   0.789   7.114   2.647 -0.3304 -0.6471 -0.1255
  875SOL    HW214280   0.910   7.146   2.752  0.3538 -0.2095 -1.0395
  876SOL     OW14281   9.898   5.303   2.423  0.4190 -0.8052  0.2041
  876SOL    HW114282   9.903   5.204   2.409 -1.2333 -0.8153 -0.4948
  876SOL    HW214283   9.824   5.324   2.486  0.6926 -0.0081  0.2627
  877SOL     OW14284   2.030   7.871   2.583 -0.2754  0.4304 -0.5073
  877SOL    HW114285   2.110   7.903   2.532 -0.6620  0.7101 -0.9357
  877SOL    HW214286   1.994   7.946   2.638 -0.4437  0.3943 -0.5686
  878SOL     OW14287   3.651   4.993   5.345 -0.3471  0.6460  0.1738
  878SOL    HW114288   3.676   5.067   5.406  0.6120  0.3464  0.1498
  878SOL    HW214289   3.600   5.030   5.267  3.1168  1.8323 -1.6725
  879SOL     OW14290   9.012   0.317   2.743 -0.5009 -0.0843 -0.5752
  879SOL    HW114291   8.952   0.345   2.818 -0.4150 -0.4194 -0.3783
  879SOL    HW214292   8.969   0.243   2.691 -2.0265  2.3182 -2.8752
  880SOL     OW14293   7.063   9.898   5.564  0.4345  0.4939 -0.2251
  880SOL    HW114294   6.986   9.838   5.545  1.1233  0.2152 -2.3035
  880SOL    HW214295   7.146   9.843   5.578  0.5822  0.8578  0.3592
  881SOL     OW14296   3.881   5.372   4.136  0.4663 -0.1069  0.3718
  881SOL    HW114297   3.902   5.453   4.081  3.6570 -1.6795 -0.8205
  881SOL    HW214298   3.960   5.351   4.195 -0.0930 -2.6649  0.2573
  882SOL     OW14299   8.753   9.989   2.822 -0.5339  0.0991 -0.1760
  882SOL    HW114300   8.853   9.999   2.820 -0.6061  1.4775  1.8455
  882SOL    HW214301   8.722   9.950   2.735  1.8593 -1.3370 -0.4518
  883SOL     OW14302   5.608   1.913   3.150  0.3501 -0.0557 -0.2249
  883SOL    HW114303   5.530   1.859   3.179  1.6052 -1.3720  0.7637
  883SOL    HW214304   5.684   1.853   3.126  2.2506  1.2632  2.2492
  884SOL     OW14305   0.800   3.740   6.276 -0.0099 -0.1389 -0.1579
  884SOL    HW114306   0.900   3.737   6.283 -0.0313  1.2347  0.8377
  884SOL    HW214307   0.760   3.698   6.357 -0.2492 -0.5422 -0.4828
  885SOL     OW14308   8.217   0.594   3.858 -0.1270  0.2997 -0.4199
  885SOL    HW114309   8.299   0.641   3.823 -0.0072  0.5691  0.2212
  885SOL    HW214310   8.191   0.633   3.946 -0.9891  0.2528 -0.6551
  886SOL     OW14311   0.587   3.410   0.257  0.1987  0.0969 -0.1650
  886SOL    HW114312   0.633   3.496   0.232  1.2351 -0.7481 -1.2042
  886SOL    HW214313   0.488   3.424   0.255  0.3565  1.3044 -0.1963
  887SOL     OW14314   0.909   9.936   0.498  0.3082 -0.4264  0.1207
  887SOL    HW114315   0.815   9.946   0.463 -0.0578 -2.8664  0.3008
  887SOL    HW214316   0.934  10.017   0.550 -2.7008 -0.8174  2.2973
  888SOL     OW14317   4.955   0.432   2.712 -0.0878 -0.0872 -0.5001
  888SOL    HW114318   5.025   0.360   2.709 -1.4433 -1.5114  0.8002
  888SOL    HW214319   4.902   0.430   2.628 -0.2962 -0.7978 -0.3550
  889SOL     OW14320   9.747   0.561   8.116  0.0367  0.4144 -0.2765
  889SOL    HW114321   9.703   0.546   8.028 -0.5034  0.2447  0.0224
  889SOL    HW214322   9.743   0.478   8.171  3.6134 -0.6373 -1.4930
  890SOL     OW14323   8.593   5.842   7.841 -0.3391  0.3973  0.3658
  890SOL    HW114324   8.578   5.830   7.939  1.4246 -0.4880  0.5565
  890SOL    HW214325   8.570   5.936   7.816 -1.0325  0.5708  1.5758
  891SOL     OW14326   6.407   8.967   4.918 -0.4052  0.4544 -0.0790
  891SOL    HW114327   6.446   8.924   4.836  2.4989  2.7636 -0.0092
  891SOL    HW214328   6.307   8.970   4.910 -0.3909 -2.4607 -1.9367
  892SOL     OW14329   2.413   7.053   3.989 -0.1461 -0.1738  0.3224
  892SOL    HW114330   2.428   7.054   4.088  1.0650  0.2454  0.1551
  892SOL    HW214331   2.435   6.963   3.952  2.5881  0.5471  0.0239
  893SOL     OW14332   2.245   5.538   2.966  0.7675 -0.7302  0.0395
  893SOL    HW114333   2.195   5.547   2.880  0.3679 -2.7834  0.0267
  893SOL    HW214334   2.306   5.616   2.977 -0.4279  0.4293 -1.2692
  894SOL     OW14335   7.221   4.646   1.040  0.6266  0.9976  0.5770
  894SOL    HW114336   7.175   4.635   1.128 -0.4425  0.0580 -0.0789
  894SOL    HW214337   7.270   4.562   1.018 -0.9433  0.4006 -0.7409
  895SOL     OW14338   3.445   4.387   2.028 -0.2076  0.0948 -0.5455
  895SOL    HW114339   3.424   4.291   2.049 -2.0687  0.4077 -0.8939
  895SOL    HW214340   3.421   4.443   2.107  3.7795 -0.0297  0.8655
  896SOL     OW14341   7.156   1.543   7.476  0.1276  0.0809  0.5601
  896SOL    HW114342   7.059   1.522   7.468  0.3229 -1.0195  0.9473
  896SOL    HW214343   7.168   1.640   7.497 -0.8824  0.2157  0.5355
  897SOL     OW14344   4.804   0.133   4.663 -0.0647 -0.4279 -0.1074
  897SOL    HW114345   4.901   0.120   4.642 -0.0881  0.4077 -0.7618
  897SOL    HW214346   4.751   0.128   4.579 -0.7170 -1.8909  0.3728
  898SOL     OW14347   4.717   3.964   7.664  0.1293 -0.1562  0.2616
  898SOL    HW114348   4.726   4.045   7.722  0.3018 -0.6395  0.9039
  898SOL    HW214349   4.676   3.991   7.576  0.2765  0.6437  0.4337
  899SOL     OW14350   4.385   9.757   5.473  0.8530  0.5533  0.0133
  899SOL    HW114351   4.417   9.842   5.514  1.6996 -0.0772  0.6896
  899SOL    HW214352   4.346   9.698   5.543  0.0436  0.4851 -0.4913
  900SOL     OW14353   3.050   6.651   1.667  0.0120  0.6827  0.3792
  900SOL    HW114354   3.110   6.599   1.607  0.4730  2.3033 -0.6045
  900SOL    HW214355   2.985   6.590   1.711 -0.2058 -0.5581 -1.6293
  901SOL     OW14356   7.696   8.824   3.058  0.2864  0.2106 -0.3383
  901SOL    HW114357   7.727   8.733   3.085  2.1186  0.5092 -1.3419
  901SOL    HW214358   7.702   8.885   3.137 -0.4993 -0.4147  0.2171
  902SOL     OW14359   4.725   9.936   5.592 -0.0114 -0.1606 -0.2674
  902SOL    HW114360   4.632   9.924   5.624  0.5517 -0.8793  1.1371
  902SOL    HW214361   4.744  10.033   5.579 -0.6089  0.0574  0.4868
  903SOL     OW14362   0.935   1.945   3.463 -0.0497 -0.3446  0.2413
  903SOL    HW114363   0.988   1.875   3.415  0.5471  0.1847  0.1214
  903SOL    HW214364   0.997   2.016   3.497 -0.5278 -0.4330  1.3200
  904SOL     OW14365   1.156   3.551   5.723  0.2983 -0.2725  0.9051
  904SOL    HW114366   1.217   3.625   5.752 -0.5955  0.9831 -0.3547
  904SOL    HW214367   1.108   3.514   5.803  0.4785  0.7606  1.5061
  905SOL     OW14368   5.542   9.238   4.011 -0.2773  0.0292  0.6189
  905SOL    HW114369   5.629   9.189   4.006  0.6424  1.5922  0.9738
  905SOL    HW214370   5.535   9.286   4.099 -1.1740  0.5012  0.3010
  906SOL     OW14371   7.177   1.734   2.985 -0.1958  0.0362  0.3367
  906SOL    HW114372   7.217   1.737   2.893 -1.1921 -1.1808 -0.1479
  906SOL    HW214373   7.094   1.790   2.988 -0.3938 -0.2592  0.3813
  907SOL     OW14374   2.237   0.177   1.500  0.7977 -0.5214 -0.2463
  907SOL    HW114375   2.236   0.235   1.581  0.0894  0.3165 -0.8492
  907SOL    HW214376   2.152   0.188   1.450  0.8084 -1.8234 -0.5536
  908SOL     OW14377   7.449   0.420   6.103  0.2333  0.0471  0.5253
  908SOL    HW114378   7.357   0.382   6.113 -0.2728  1.5550  1.7599
  908SOL    HW214379   7.463   0.451   6.009 -0.0336 -1.4119 -0.0048
  909SOL     OW14380   2.027   1.834   2.136  0.5185 -0.0143 -0.3300
  909SOL    HW114381   2.114   1.849   2.184  0.9292  0.1603 -1.1128
  909SOL    HW214382   2.012   1.736   2.124 -1.2227 -0.2200  3.0858
  910SOL     OW14383   0.250   2.324   0.235 -0.0869  0.5772 -0.2896
  910SOL    HW114384   0.310   2.376   0.175  1.2468  0.7767  1.1775
  910SOL    HW214385   0.243   2.370   0.324  0.3406 -1.2035  0.6986
  911SOL     OW14386   0.350   8.549   2.792 -0.3385 -0.4895 -0.0232
  911SOL    HW114387   0.274   8.495   2.755 -1.1580  1.1746 -0.7927
  911SOL    HW214388   0.353   8.538   2.892  0.6106 -3.3570 -0.3149
  912SOL     OW14389   6.637   2.638   5.415 -0.2604 -0.4479  0.2683
  912SOL    HW114390   6.687   2.682   5.489  1.3812  0.8758 -1.5687
  912SOL    HW214391   6.699   2.579   5.363 -1.1103 -0.5025 -0.7134
  913SOL     OW14392   8.498   8.994   7.598  0.1933  0.0527  0.1433
  913SOL    HW114393   8.451   8.948   7.523  0.2513 -1.7827  1.1955
  913SOL    HW214394   8.595   9.005   7.575  0.3791 -1.2490  0.2632
  914SOL     OW14395   1.618   0.619   0.500  0.2209 -0.3674 -0.2356
  914SOL    HW114396   1.582   0.622   0.407 -0.4527 -1.5502 -0.0238
  914SOL    HW214397   1.611   0.525   0.535  1.0757 -0.0590  0.7625
  915SOL     OW14398   6.977   3.038   4.196 -0.7203  0.3249 -0.4086
  915SOL    HW114399   6.964   2.981   4.115  2.6413 -1.9925  0.5422
  915SOL    HW214400   6.916   3.007   4.269 -0.8235 -0.3018 -0.7610
  916SOL     OW14401   4.486   9.598   1.631  0.4381 -0.0553  0.1002
  916SOL    HW114402   4.561   9.664   1.628  0.3573  0.0254 -0.3028
  916SOL    HW214403   4.406   9.638   1.585  1.2479 -1.5174 -2.6668
  917SOL     OW14404   7.032   7.974   6.771 -0.0926  0.1960 -0.4688
  917SOL    HW114405   6.932   7.976   6.767 -0.0604 -0.1093 -1.5298
  917SOL    HW214406   7.063   7.879   6.769  0.2492  0.3177 -0.9514
  918SOL     OW14407   5.998   2.099   4.482 -0.0783  0.5235  0.1101
  918SOL    HW114408   6.091   2.111   4.448 -0.0018  0.1581  0.1860
  918SOL    HW214409   6.001   2.077   4.579 -0.2627  0.8676  0.1954
  919SOL     OW14410   3.133   8.401   1.634  0.6115 -0.2383  0.3377
  919SOL    HW114411   3.118   8.427   1.539 -1.6228  1.1188  1.0307
  919SOL    HW214412   3.096   8.472   1.694 -0.9562 -2.6108  2.2531
  920SOL     OW14413   8.965   6.130   0.595  0.1674  0.1746  0.3866
  920SOL    HW114414   9.061   6.156   0.593  0.3378 -0.4870 -0.4151
  920SOL    HW214415   8.947   6.062   0.523 -1.0899  0.9650 -0.0700
  921SOL     OW14416   6.318   1.952   1.188 -0.1834 -0.8889  0.1451
  921SOL    HW114417   6.284   1.961   1.281  0.9942  1.4410  0.3807
  921SOL    HW214418   6.250   1.905   1.132 -1.1883 -1.7021  2.0030
  922SOL     OW14419   3.047   4.727   1.523 -0.2338 -0.1233  0.3303
  922SOL    HW114420   3.122   4.768   1.574  0.1087  0.1855 -0.4072
  922SOL    HW214421   2.990   4.798   1.483 -0.5197 -0.3596  0.3115
  923SOL     OW14422   0.545   0.879   1.483  0.2943 -0.5802  0.0795
  923SOL    HW114423   0.600   0.920   1.556  0.3967  1.7759 -1.2666
  923SOL    HW214424   0.574   0.916   1.394 -2.7835 -0.0084 -0.7517
  924SOL     OW14425   8.844   7.508   2.647 -0.4058 -0.3703  0.5086
  924SOL    HW114426   8.798   7.583   2.601 -1.1262  0.0696  1.9033
  924SOL    HW214427   8.828   7.515   2.746  1.6510 -0.8974  0.9046
  925SOL     OW14428   0.248   3.417   0.302 -0.1657 -0.0286 -0.1488
  925SOL    HW114429   0.232   3.331   0.350  0.0548 -0.6789 -1.2244
  925SOL    HW214430   0.213   3.409   0.209 -0.4875  1.1811 -0.1403
  926SOL     OW14431   2.877   5.556   1.313  0.4059 -0.3686 -0.4170
  926SOL    HW114432   2.955   5.619   1.319  0.2002 -0.2726  1.2916
  926SOL    HW214433   2.895   5.475   1.367 -1.5765  0.6105  1.7868
  927SOL     OW14434   3.262   2.211   0.708 -0.0510  0.3250  0.2136
  927SOL    HW114435   3.172   2.252   0.723 -0.4450  0.3792 -2.1827
  927SOL    HW214436   3.253   2.129   0.653  1.1102 -1.1681  2.1831
  928SOL     OW14437   9.722   7.351   4.871  0.2668 -0.1446  0.3000
  928SOL    HW114438   9.663   7.273   4.848  2.3777 -2.1429  1.5152
  928SOL    HW214439   9.687   7.396   4.953  0.6314 -1.5896  1.2716
  929SOL     OW14440   3.177   4.679   7.723  0.5425  0.4955  0.1635
  929SOL    HW114441   3.196   4.606   7.790 -1.1444 -0.2964 -0.1985
  929SOL    HW214442   3.086   4.717   7.740  0.0971  0.2852 -1.6742
  930SOL     OW14443   4.269   9.685   1.404 -0.0702 -0.3251 -0.5030
  930SOL    HW114444   4.185   9.673   1.457 -0.1013  1.5675 -0.0762
  930SOL    HW214445   4.311   9.596   1.388 -2.6832 -1.4060 -1.6054
  931SOL     OW14446   8.287   9.573   2.562  0.0611  0.2511 -0.1921
  931SOL    HW114447   8.196   9.537   2.580 -0.2449  1.7179  1.2700
  931SOL    HW214448   8.280   9.660   2.512  0.6563  0.4733  0.1101
  932SOL     OW14449   2.025   2.837   6.456 -0.0833 -0.3881 -0.0328
  932SOL    HW114450   1.934   2.810   6.487 -0.0325  0.2443  0.6699
  932SOL    HW214451   2.094   2.799   6.517  0.1351 -0.9638 -0.6320
  933SOL     OW14452   0.859   6.474   0.553  0.1669 -0.1669  0.2099
  933SOL    HW114453   0.908   6.388   0.565  0.6096  0.1061  0.3999
  933SOL    HW214454   0.913   6.548   0.593 -0.7176  0.0400  1.0393
  934SOL     OW14455   4.015   8.985   4.247  0.3843 -0.3690 -0.0160
  934SOL    HW114456   4.007   8.969   4.149 -0.8425 -1.2079  0.2033
  934SOL    HW214457   3.926   9.013   4.283  1.0046  0.6477  0.7321
  935SOL     OW14458   1.910   6.919   4.131  0.1205  1.0444  0.2407
  935SOL    HW114459   1.935   6.851   4.200  1.3790  0.4992 -0.7439
  935SOL    HW214460   1.864   6.874   4.055  0.6258  1.3567 -0.2480
  936SOL     OW14461   5.878   0.321   1.434 -0.7869  0.0014 -0.3233
  936SOL    HW114462   5.864   0.356   1.341 -0.7727 -0.4039 -0.4820
  936SOL    HW214463   5.809   0.358   1.495 -2.0897 -1.3524 -0.9300
  937SOL     OW14464   8.519   1.486   3.571  0.4463  0.0560 -0.3904
  937SOL    HW114465   8.529   1.581   3.542  0.2015 -0.3520 -1.8739
  937SOL    HW214466   8.494   1.430   3.492 -2.3568 -0.7594  1.0039
  938SOL     OW14467   1.549   9.917   4.054  0.3252 -0.0980 -0.1773
  938SOL    HW114468   1.548   9.901   3.955 -0.0923 -0.0168 -0.1880
  938SOL    HW214469   1.594   9.840   4.099  0.7192 -0.0282 -0.4483
  939SOL     OW14470   1.699   3.997   3.699  0.1923  0.3712 -0.8162
  939SOL    HW114471   1.743   3.965   3.782 -0.4596  2.7666  0.5174
  939SOL    HW214472   1.766   4.045   3.641  0.3959 -0.3038 -1.1447
  940SOL     OW14473   8.683   7.802   0.238 -0.3471 -0.6780 -0.6589
  940SOL    HW114474   8.780   7.811   0.262 -0.4371  0.8588 -0.8387
  940SOL    HW214475   8.666   7.710   0.203  1.0474 -0.9607 -0.6285
  941SOL     OW14476   2.109   1.000   2.440 -0.0383  0.2618  0.0327
  941SOL    HW114477   2.167   0.931   2.398  0.8842  2.5290 -2.5773
  941SOL    HW214478   2.012   0.977   2.424  0.2715 -0.0372 -1.4778
  942SOL     OW14479   3.805   5.199   2.958  0.7356  0.1750  0.0926
  942SOL    HW114480   3.720   5.208   3.010  1.0991 -1.0331  0.9172
  942SOL    HW214481   3.796   5.126   2.890  0.6024  1.0806 -0.8776
  943SOL     OW14482   3.571   5.927   2.515 -0.2315 -0.4186  0.5519
  943SOL    HW114483   3.551   6.002   2.452 -1.5528 -1.2427 -0.0246
  943SOL    HW214484   3.662   5.940   2.555 -0.5611  1.6175  0.6493
  944SOL     OW14485   9.020   3.201   7.935 -0.3993 -0.2987  0.1008
  944SOL    HW114486   8.923   3.193   7.916 -0.1822 -0.9460 -0.7619
  944SOL    HW214487   9.066   3.246   7.858 -0.0232  0.0499  0.5223
  945SOL     OW14488   3.782   9.482   7.209 -0.9228 -0.4791 -0.1429
  945SOL    HW114489   3.866   9.446   7.247  0.3907 -0.1000 -2.5456
  945SOL    HW214490   3.714   9.496   7.281  0.5147 -2.3116  1.5797
  946SOL     OW14491   7.204   4.296   1.284  0.4584  0.1864  0.0442
  946SOL    HW114492   7.141   4.224   1.312  2.9781 -2.3989 -0.6625
  946SOL    HW214493   7.188   4.320   1.188  0.7618 -0.7103 -0.2326
  947SOL     OW14494   8.816   8.686   6.107 -0.3050 -0.1616 -0.4697
  947SOL    HW114495   8.808   8.786   6.109 -0.0286 -0.1490 -0.0263
  947SOL    HW214496   8.898   8.660   6.057 -0.1400 -0.1536 -0.2046
  948SOL     OW14497   0.579   1.431   0.028 -0.1078 -0.2642 -0.1944
  948SOL    HW114498   0.679   1.435   0.034 -0.0344 -0.8032 -0.9246
  948SOL    HW214499   0.546   1.511  -0.021 -0.0349 -0.0861  0.0455
  949SOL     OW14500   0.947   5.042   7.561 -0.3621  0.4457  0.5353
  949SOL    HW114501   1.027   5.017   7.506  0.0259  0.9263  0.8788
  949SOL    HW214502   0.963   5.130   7.606 -0.7622  0.1618  1.2468
  950SOL     OW14503   6.327   1.648   2.045 -0.0390 -0.4271  0.1098
  950SOL    HW114504   6.288   1.661   1.953 -0.5074  0.9934  0.4846
  950SOL    HW214505   6.254   1.625   2.109 -0.0013  0.3741  0.4557
  951SOL     OW14506   7.238   2.152   1.182  0.2103  0.1178 -0.2463
  951SOL    HW114507   7.257   2.210   1.261 -0.5048  0.2281 -0.1530
  951SOL    HW214508   7.151   2.104   1.196  0.8562 -1.0889 -0.2462
  952SOL     OW14509   0.455   3.426   6.194  0.1887  0.0132  0.4026
  952SOL    HW114510   0.488   3.442   6.287  1.0927  0.7788 -0.0427
  952SOL    HW214511   0.505   3.484   6.130 -1.3143  0.4391 -0.4196
  953SOL     OW14512   1.456   5.595   2.197 -0.1546 -0.2244  0.1497
  953SOL    HW114513   1.511   5.523   2.154 -0.4900 -0.5978  0.3388
  953SOL    HW214514   1.451   5.674   2.136 -1.2258 -1.0247 -0.8218
  954SOL     OW14515   8.332   2.208   6.814 -0.4390  0.0057  0.0064
  954SOL    HW114516   8.265   2.141   6.846 -0.6427  0.4688  0.5470
  954SOL    HW214517   8.421   2.189   6.854 -0.5444  0.1853  0.3237
  955SOL     OW14518   6.760   3.958   1.168  0.5247  0.8048 -0.4527
  955SOL    HW114519   6.711   4.039   1.134  1.2144  0.7806 -1.5475
  955SOL    HW214520   6.856   3.964   1.141  1.1261  0.8251  1.6348
  956SOL     OW14521   5.589   7.744   5.732  0.4255  0.3159 -0.2236
  956SOL    HW114522   5.648   7.774   5.807 -0.1674  0.9008  0.0130
  956SOL    HW214523   5.613   7.794   5.649  1.6639 -0.9492 -0.6506
  957SOL     OW14524   3.644   4.828   3.950 -0.0119  0.0906  0.0509
  957SOL    HW114525   3.707   4.850   3.875 -0.3781 -0.7870 -0.5180
  957SOL    HW214526   3.693   4.837   4.037  0.8288 -0.3231 -0.3689
  958SOL     OW14527   4.199   7.115   2.941  0.0424  0.0720  0.0041
  958SOL    HW114528   4.255   7.041   2.978  1.7501  1.1396 -0.3941
  958SOL    HW214529   4.204   7.194   3.002 -0.5653  0.3806 -0.3415
  959SOL     OW14530   9.127   6.487   2.840 -0.2746  0.2668  0.2047
  959SOL    HW114531   9.179   6.573   2.835 -2.2280  1.4469 -0.6278
  959SOL    HW214532   9.038   6.505   2.883 -0.6983 -1.3561  0.0347
  960SOL     OW14533   0.659   6.779   3.760 -0.1878  0.1121 -0.1686
  960SOL    HW114534   0.587   6.792   3.692  0.5678 -0.5381 -1.1130
  960SOL    HW214535   0.745   6.758   3.713  0.5977  0.7999  0.9424
  961SOL     OW14536   6.762   2.304   5.629 -0.3972 -0.4048  0.2492
  961SOL    HW114537   6.765   2.210   5.595 -0.1042  0.0182 -0.8863
  961SOL    HW214538   6.844   2.353   5.600 -1.8924  1.0544 -1.6327
  962SOL     OW14539   7.843   7.635   4.781 -0.3284  0.3265  0.3629
  962SOL    HW114540   7.940   7.644   4.759 -0.0868 -0.3994  1.1170
  962SOL    HW214541   7.820   7.700   4.855 -0.6628  1.2563 -0.5473
  963SOL     OW14542   3.747   7.119   3.252 -0.4161  0.5602 -0.2997
  963SOL    HW114543   3.778   7.136   3.345 -1.1101  0.7523 -0.1017
  963SOL    HW214544   3.719   7.205   3.210 -1.6433  0.2462 -0.1281
  964SOL     OW14545   9.665   6.498   5.307  0.1200  0.0537  0.5873
  964SOL    HW114546   9.631   6.412   5.346  0.6304 -1.5415 -2.2894
  964SOL    HW214547   9.760   6.486   5.278  0.5269  1.9360  1.0845
  965SOL     OW14548   0.691   1.711   5.093  0.0816  0.2633 -0.3045
  965SOL    HW114549   0.728   1.799   5.122  0.1217 -0.8358  3.2339
  965SOL    HW214550   0.591   1.716   5.092  0.0646  0.1993  0.4912
  966SOL     OW14551   8.683   1.505   6.700 -0.2815  0.0078 -0.6336
  966SOL    HW114552   8.705   1.583   6.759  1.2241 -2.3509  2.0153
  966SOL    HW214553   8.767   1.454   6.679 -1.3972 -1.5555 -1.3795
  967SOL     OW14554   1.442   9.888   5.503  0.4553 -0.2914 -0.6058
  967SOL    HW114555   1.382   9.952   5.454 -1.0923 -1.6374 -0.5058
  967SOL    HW214556   1.397   9.799   5.512  1.8248 -0.8712  0.9037
  968SOL     OW14557   1.071   1.940   3.057  0.3663 -0.2646  0.2311
  968SOL    HW114558   1.050   2.030   3.096  1.3039 -0.2374  0.7143
  968SOL    HW214559   1.171   1.928   3.054  0.2466 -1.6175  0.9703
  969SOL     OW14560   0.211   4.860   1.697 -0.2428 -0.4599  0.1343
  969SOL    HW114561   0.190   4.950   1.660  1.0000 -0.2237 -0.0286
  969SOL    HW214562   0.140   4.795   1.671 -1.5680  0.6406  0.9282
  970SOL     OW14563   5.563   0.759   6.404 -0.4097  0.1948 -0.0892
  970SOL    HW114564   5.520   0.825   6.342  0.8550  0.5698 -0.5848
  970SOL    HW214565   5.508   0.750   6.487 -0.5124  1.9890  0.0513
  971SOL     OW14566   6.423   9.950   3.561 -0.3040 -0.1370  0.2299
  971SOL    HW114567   6.332   9.983   3.586 -0.7262  0.9486 -2.6047
  971SOL    HW214568   6.492  10.011   3.600 -0.9056  0.7948 -0.1365
  972SOL     OW14569   9.005   0.281   0.418  0.1276 -0.0404 -0.7612
  972SOL    HW114570   9.097   0.317   0.403  0.3352 -0.8148 -1.3755
  972SOL    HW214571   9.004   0.224   0.500 -0.0874  0.9407 -0.0759
  973SOL     OW14572   7.287   8.960   3.236  0.5499  0.0942  0.5135
  973SOL    HW114573   7.342   8.947   3.318  1.6336  1.8155  0.0873
  973SOL    HW214574   7.193   8.982   3.262  0.7660  0.1137  1.2767
  974SOL     OW14575   3.959   7.404   3.094  0.2507  0.1584  0.1339
  974SOL    HW114576   3.924   7.314   3.067  0.0708  0.5734 -1.0408
  974SOL    HW214577   4.036   7.428   3.036  1.6642 -0.1564  1.8364
  975SOL     OW14578   0.565   8.761   1.280 -0.3253  0.1995  0.0106
  975SOL    HW114579   0.563   8.847   1.330 -0.1286  0.2200 -0.0181
  975SOL    HW214580   0.660   8.737   1.258 -0.4432  0.4615 -0.8196
  976SOL     OW14581   0.669   1.750   0.966  0.3547 -0.0835 -0.0748
  976SOL    HW114582   0.732   1.673   0.960 -0.0935 -0.5591  1.1908
  976SOL    HW214583   0.585   1.730   0.916  0.0052 -0.6548  0.7354
  977SOL     OW14584   3.398   9.185   3.344 -0.2664  0.0371  0.6002
  977SOL    HW114585   3.406   9.229   3.434 -2.0357  2.0215 -0.1820
  977SOL    HW214586   3.304   9.195   3.311  0.1636 -1.4470 -1.0989
  978SOL     OW14587   8.808   7.561   8.065 -0.1055 -0.2768 -0.2441
  978SOL    HW114588   8.868   7.593   8.139  1.0123 -1.7954 -0.4798
  978SOL    HW214589   8.756   7.482   8.096  0.5954 -1.1125 -1.1608
  979SOL     OW14590   3.712   5.506   1.026 -0.3016 -0.0032  0.0360
  979SOL    HW114591   3.734   5.425   0.972 -0.1354 -0.6545  1.0515
  979SOL    HW214592   3.627   5.491   1.076 -0.0993  0.3092  0.4875
  980SOL     OW14593   4.165   1.111   3.814  0.2327  0.0110 -0.3243
  980SOL    HW114594   4.195   1.207   3.820  1.4642 -0.3572 -0.4216
  980SOL    HW214595   4.223   1.062   3.749 -2.3298 -0.1028 -2.6245
  981SOL     OW14596   3.759   0.393   2.015 -0.4418 -0.2323 -0.1570
  981SOL    HW114597   3.690   0.465   2.009 -0.4569 -0.2304  0.0404
  981SOL    HW214598   3.756   0.338   1.932 -0.2984  0.1143 -0.3940
  982SOL     OW14599   3.818   2.560   0.907  0.1572  0.3701 -0.4121
  982SOL    HW114600   3.728   2.531   0.875 -0.5671  1.1048  0.9003
  982SOL    HW214601   3.813   2.580   1.005  2.5836 -2.9485  0.4778
  983SOL     OW14602   0.868   0.951   2.600  0.1467  0.3777  0.1466
  983SOL    HW114603   0.965   0.928   2.598  0.2505  0.8572 -0.3899
  983SOL    HW214604   0.855   1.032   2.658 -0.1148 -0.5068  1.3574
  984SOL     OW14605   2.212   6.820   2.560  0.1165  0.1665  0.0297
  984SOL    HW114606   2.283   6.752   2.575  0.3092  0.4276  0.3092
  984SOL    HW214607   2.122   6.778   2.575  0.2620  0.1511  0.8888
  985SOL     OW14608   9.510   8.973   6.531 -0.1848 -0.2923 -0.3333
  985SOL    HW114609   9.463   8.889   6.503  0.9637 -1.5130  1.2394
  985SOL    HW214610   9.447   9.032   6.581 -1.2480  0.2179 -2.2292
  986SOL     OW14611   5.009   8.221   2.057  0.1721 -0.1275 -0.0655
  986SOL    HW114612   5.059   8.135   2.052 -0.7660 -0.7171  0.4583
  986SOL    HW214613   4.940   8.224   1.984  1.2786  0.8910 -1.0919
  987SOL     OW14614   0.888   5.458   0.146 -0.6022 -0.0838  0.2344
  987SOL    HW114615   0.944   5.541   0.145 -1.1973  0.3341  1.0624
  987SOL    HW214616   0.896   5.411   0.058  0.4859  0.3469  0.0921
  988SOL     OW14617   8.643   2.371   3.551  0.0227  0.7702  0.7058
  988SOL    HW114618   8.692   2.306   3.609  0.7763  1.7977  1.2451
  988SOL    HW214619   8.560   2.401   3.598  0.9542  2.0878  1.5802
  989SOL     OW14620   0.131   8.699   5.834  0.8155  0.2156 -0.7652
  989SOL    HW114621   0.079   8.773   5.876  1.5879  0.7766 -0.7861
  989SOL    HW214622   0.229   8.714   5.849  1.0514 -0.1067 -1.8941
  990SOL     OW14623   9.866   0.156   0.190 -0.6274  0.7096 -0.5685
  990SOL    HW114624   9.888   0.062   0.219  0.1499  1.0048 -0.1770
  990SOL    HW214625   9.824   0.154   0.099 -0.4344  0.0006 -0.6469
  991SOL     OW14626   0.667   7.267   5.248  0.4177 -0.0999 -0.1249
  991SOL    HW114627   0.613   7.201   5.197 -1.8673 -0.3240  2.4562
  991SOL    HW214628   0.735   7.220   5.303  0.2233 -0.1532  0.0703
  992SOL     OW14629   7.414   8.998   4.146  0.5048  0.2849  0.1040
  992SOL    HW114630   7.324   8.956   4.159  0.0289  1.6566  1.5012
  992SOL    HW214631   7.414   9.089   4.189  2.6590  0.1710  0.3848
  993SOL     OW14632   3.530   4.646   8.122 -0.2861  0.2133  0.5992
  993SOL    HW114633   3.523   4.642   8.221 -0.2542  0.8178  0.6241
  993SOL    HW214634   3.488   4.730   8.088  1.0856  0.7528  0.2279
  994SOL     OW14635   2.115   2.076   6.191 -0.1647 -0.0433  0.1750
  994SOL    HW114636   2.073   2.005   6.248 -1.2000 -0.7693 -1.4456
  994SOL    HW214637   2.210   2.053   6.173  0.2808  0.3747  1.8821
  995SOL     OW14638   6.374   9.032   2.621  0.0430 -0.7403 -0.0192
  995SOL    HW114639   6.466   9.000   2.595  1.0430 -0.4242  3.0077
  995SOL    HW214640   6.307   8.992   2.558  2.2056 -1.0642 -2.2282
  996SOL     OW14641   8.614   3.266   7.576 -0.5926 -0.6263 -0.2799
  996SOL    HW114642   8.531   3.321   7.589 -0.4503 -0.3835 -0.4000
  996SOL    HW214643   8.650   3.239   7.665 -1.0426 -1.0979 -0.2346
  997SOL     OW14644   7.547   5.732   1.983  0.6366  0.2275 -0.4934
  997SOL    HW114645   7.609   5.810   1.985 -1.4628  1.9602  2.1444
  997SOL    HW214646   7.543   5.691   2.075  2.2020 -3.4619 -1.9748
  998SOL     OW14647   2.904   1.372   5.815  0.0479 -0.0170 -0.0708
  998SOL    HW114648   2.845   1.297   5.845 -1.1763  1.3085  0.8913
  998SOL    HW214649   2.984   1.377   5.876  1.9240 -2.6687 -2.1820
  999SOL     OW14650   5.874   8.426   4.021 -0.1720 -0.0960 -0.3807
  999SOL    HW114651   5.966   8.426   3.983 -0.0684  1.3951 -0.1567
  999SOL    HW214652   5.856   8.339   4.066  1.4893 -0.0127  0.4727
 1000SOL     OW14653   6.988   7.339   6.206  0.0781  0.4024 -0.2267
 1000SOL    HW114654   6.915   7.347   6.138 -0.1554  1.8915  0.1862
 1000SOL    HW214655   6.967   7.261   6.266  0.2708 -0.9005 -1.7975
 1001SOL     OW14656   9.029   2.937   0.975  0.6535  0.0485  0.8181
 1001SOL    HW114657   8.983   2.961   0.889 -1.1294  0.8830  1.9605
 1001SOL    HW214658   9.044   3.020   1.029  1.6115 -0.4889  1.3866
 1002SOL     OW14659   3.015   8.285   0.084 -0.0227  0.1688  0.0878
 1002SOL    HW114660   3.046   8.224   0.157  0.5891  1.4143  0.9001
 1002SOL    HW214661   3.091   8.342   0.053 -0.0337 -1.0449 -2.2511
 1003SOL     OW14662   3.790   2.415   5.940 -0.0563 -0.3325  0.1279
 1003SOL    HW114663   3.849   2.479   5.990 -0.6634  1.4223 -1.3441
 1003SOL    HW214664   3.704   2.460   5.918  0.2753 -0.9961 -2.6661
 1004SOL     OW14665   3.077   0.935   3.396 -0.0243  0.0737  0.2412
 1004SOL    HW114666   3.015   0.979   3.461 -0.2511 -1.4282  1.0549
 1004SOL    HW214667   3.071   0.836   3.406  0.7076 -0.1490 -1.3678
 1005SOL     OW14668   9.275   1.623   4.407  0.5351 -0.0642  0.4791
 1005SOL    HW114669   9.327   1.708   4.411 -0.3198  0.4659  0.4314
 1005SOL    HW214670   9.179   1.643   4.387  0.0155 -0.9225  1.9910
 1006SOL     OW14671   8.058   2.579   3.149 -0.0623 -0.0118  0.3614
 1006SOL    HW114672   8.113   2.638   3.089 -0.0785 -0.2752  0.0875
 1006SOL    HW214673   7.978   2.546   3.098  0.5716 -1.2370  0.1479
 1007SOL     OW14674   1.973   6.172   2.073  0.1587 -0.2955  0.3870
 1007SOL    HW114675   2.002   6.083   2.038  2.4539  0.7927 -0.5876
 1007SOL    HW214676   1.914   6.217   2.006 -0.9018 -1.0364  0.8268
 1008SOL     OW14677   3.594   2.160   2.045  0.1007 -0.1116  0.0056
 1008SOL    HW114678   3.499   2.179   2.021 -0.4908 -1.2671  1.3513
 1008SOL    HW214679   3.649   2.156   1.962 -1.0513  0.4506 -0.7988
 1009SOL     OW14680   3.307   2.201   1.681 -0.2046 -0.0791 -0.3339
 1009SOL    HW114681   3.404   2.197   1.656  0.2749 -1.2761  1.6682
 1009SOL    HW214682   3.286   2.130   1.748 -1.8202  2.0372  1.4848
 1010SOL     OW14683   0.128   4.723   4.617  0.2139  0.6028  0.2732
 1010SOL    HW114684   0.206   4.721   4.555  0.3889 -1.7499  0.5563
 1010SOL    HW214685   0.159   4.717   4.712 -0.3338 -1.0088  0.3604
 1011SOL     OW14686   4.568   2.437   0.420  0.0906  0.6526  0.5770
 1011SOL    HW114687   4.507   2.359   0.432 -1.5766  1.6728 -1.0087
 1011SOL    HW214688   4.652   2.407   0.374  0.2746 -0.5061  1.6173
 1012SOL     OW14689   4.811   7.774   6.244  0.3565 -0.2517  0.0102
 1012SOL    HW114690   4.749   7.707   6.204  1.0287 -1.8286  1.5738
 1012SOL    HW214691   4.777   7.803   6.333  1.7425 -0.9691  0.7844
 1013SOL     OW14692   0.463   4.157   7.566  0.0562  0.2946  0.2840
 1013SOL    HW114693   0.446   4.130   7.661 -0.5774  0.1135  0.1216
 1013SOL    HW214694   0.479   4.255   7.562 -2.9031  0.8141  0.2119
 1014SOL     OW14695   8.543   5.138   7.287  0.3835  0.5879  0.6396
 1014SOL    HW114696   8.638   5.113   7.306  0.1759 -0.9156 -0.2464
 1014SOL    HW214697   8.542   5.210   7.217  0.8098 -0.9231 -0.9408
 1015SOL     OW14698   5.216   9.374   5.220  0.5861 -0.4810  0.3649
 1015SOL    HW114699   5.150   9.449   5.230  1.2168  0.0271  0.7768
 1015SOL    HW214700   5.181   9.307   5.156  0.0063  0.1678 -0.0012
 1016SOL     OW14701   7.126   8.564   5.808  0.3885 -0.2297 -0.1383
 1016SOL    HW114702   7.097   8.540   5.715  0.0240 -0.8630  0.1415
 1016SOL    HW214703   7.157   8.659   5.809 -2.4097  0.7073 -0.2633
 1017SOL     OW14704   0.693   9.190   5.289  0.3886  0.5198  0.1270
 1017SOL    HW114705   0.687   9.095   5.320 -0.8219  0.7267  0.5875
 1017SOL    HW214706   0.607   9.237   5.312  0.5596  1.4258 -1.0719
 1018SOL     OW14707   1.592   5.961   3.573  0.0598 -0.4893  0.1255
 1018SOL    HW114708   1.529   5.953   3.651 -0.2688  0.3016 -0.0544
 1018SOL    HW214709   1.681   5.992   3.604  0.1832 -1.0137  0.2997
 1019SOL     OW14710   7.484   3.651   5.589  0.4755 -0.3821  0.0825
 1019SOL    HW114711   7.538   3.734   5.573 -1.8858  1.2478  0.3518
 1019SOL    HW214712   7.502   3.616   5.681  0.1543  0.8614  0.6244
 1020SOL     OW14713   3.401   9.127   5.660  0.1969  0.4106 -0.1923
 1020SOL    HW114714   3.388   9.061   5.586  0.2218  2.2031 -1.8480
 1020SOL    HW214715   3.471   9.093   5.723 -2.2884 -2.7454  0.9686
 1021SOL     OW14716   3.563   9.152   7.231  0.1297 -0.3802  0.1007
 1021SOL    HW114717   3.556   9.243   7.271 -0.2885  0.2282 -1.2971
 1021SOL    HW214718   3.577   9.084   7.303 -3.4594  0.3290  1.5870
 1022SOL     OW14719   9.363   3.931   7.900 -0.5170  0.7479 -0.4836
 1022SOL    HW114720   9.379   3.857   7.835  0.9722  0.4355  0.2070
 1022SOL    HW214721   9.429   3.924   7.975 -1.7739  1.4963  0.7140
 1023SOL     OW14722   0.974   8.090   3.690 -0.6239  0.1650  0.6636
 1023SOL    HW114723   1.065   8.096   3.731  0.0544 -0.2799 -0.7674
 1023SOL    HW214724   0.907   8.131   3.753  0.6194  0.9655  1.4988
 1024SOL     OW14725   0.087   4.136   6.073 -0.2271  0.4252  1.0011
 1024SOL    HW114726   0.042   4.075   6.137 -1.9349 -0.8605 -1.3743
 1024SOL    HW214727   0.021   4.171   6.007  1.7007  0.8218 -0.7690
 1025SOL     OW14728   5.197   5.697   1.645  0.3394 -0.8972 -0.2498
 1025SOL    HW114729   5.141   5.650   1.713  0.8877 -1.0892  0.0773
 1025SOL    HW214730   5.194   5.647   1.558 -1.2816 -0.0298 -0.7187
 1026SOL     OW14731   7.288   8.318   6.128  0.0206 -0.1955 -0.2166
 1026SOL    HW114732   7.314   8.356   6.217  0.2270  0.0294 -0.3716
 1026SOL    HW214733   7.358   8.254   6.098 -0.5745 -1.0934  0.2815
 1027SOL     OW14734   1.643   6.487   6.116 -0.0877  0.2371  0.4748
 1027SOL    HW114735   1.592   6.420   6.061  0.3340  0.3975 -0.1149
 1027SOL    HW214736   1.658   6.570   6.062  1.0536  0.0831  0.5521
 1028SOL     OW14737   0.992   1.347   0.639 -0.4431 -0.1267  0.1975
 1028SOL    HW114738   1.049   1.268   0.616 -0.6819 -0.3848  0.4909
 1028SOL    HW214739   1.035   1.430   0.603  0.9598 -0.1212  1.8281
 1029SOL     OW14740   0.596   8.760   5.164  0.3612 -0.1785  0.1202
 1029SOL    HW114741   0.529   8.690   5.191  0.5270 -1.0055 -1.5393
 1029SOL    HW214742   0.551   8.826   5.104  0.5568  0.3668  0.5741
 1030SOL     OW14743   1.611   7.345   1.425 -0.1288  0.3814  0.3245
 1030SOL    HW114744   1.535   7.402   1.456  0.5678  0.6250  1.6092
 1030SOL    HW214745   1.682   7.403   1.385 -0.7604  0.1234 -1.1836
 1031SOL     OW14746   0.875   6.251   2.552 -0.1246 -0.4030 -0.4808
 1031SOL    HW114747   0.951   6.208   2.504 -0.0512  0.5089 -1.1980
 1031SOL    HW214748   0.859   6.204   2.639  1.8266 -0.0394  0.0924
 1032SOL     OW14749   6.286   0.885   4.934  0.8439 -0.3832  0.3063
 1032SOL    HW114750   6.241   0.868   5.021 -0.8707  0.8101 -0.3362
 1032SOL    HW214751   6.251   0.822   4.865 -0.7927  1.3801 -0.4988
 1033SOL     OW14752   0.715   9.688   3.063 -0.0039  0.3534  0.0080
 1033SOL    HW114753   0.678   9.779   3.043 -0.0310 -0.2366 -2.8520
 1033SOL    HW214754   0.814   9.688   3.046  0.2633  0.2155  1.4639
 1034SOL     OW14755   5.085   1.255   1.814 -0.0519  0.2019  0.0512
 1034SOL    HW114756   5.125   1.263   1.723 -0.1432 -0.6760 -0.0740
 1034SOL    HW214757   5.088   1.159   1.843  0.1386  0.5075  1.0446
 1035SOL     OW14758   6.437   9.643   2.936  0.2262  0.6064 -0.1102
 1035SOL    HW114759   6.445   9.687   3.025 -0.9656  0.8536 -0.1200
 1035SOL    HW214760   6.355   9.676   2.890  1.4127  1.3081 -1.7612
 1036SOL     OW14761   1.204   0.761   3.828  0.3199  0.2001  0.1293
 1036SOL    HW114762   1.240   0.710   3.750 -2.6726 -0.0299 -1.2099
 1036SOL    HW214763   1.238   0.855   3.825  0.4098  0.1327 -1.3552
 1037SOL     OW14764   4.172   9.756   6.870  0.0878 -0.2048 -0.0597
 1037SOL    HW114765   4.140   9.682   6.929  1.6551 -0.4326  0.5179
 1037SOL    HW214766   4.169   9.727   6.775 -2.5349  0.1900 -0.1305
 1038SOL     OW14767   0.723   6.137   4.383 -0.0499  0.0409 -0.1548
 1038SOL    HW114768   0.766   6.225   4.361 -0.2882  0.4560  1.0059
 1038SOL    HW214769   0.653   6.116   4.314 -0.4442  1.0819 -0.0884
 1039SOL     OW14770   9.627   0.328   4.831  0.0429  0.0697 -0.0744
 1039SOL    HW114771   9.703   0.273   4.795 -0.8901 -0.4395 -1.3088
 1039SOL    HW214772   9.542   0.276   4.823 -0.5540  0.9132  0.6517
 1040SOL     OW14773   0.179   0.307   1.479  0.3375  0.5179  0.2507
 1040SOL    HW114774   0.105   0.298   1.546 -1.1322  1.9229 -1.1446
 1040SOL    HW214775   0.251   0.366   1.516 -1.7068  3.4915 -0.4036
 1041SOL     OW14776   1.995   2.306   4.021 -0.0964  0.2733  0.5900
 1041SOL    HW114777   2.025   2.394   3.985  0.6257  0.2444  1.1212
 1041SOL    HW214778   1.896   2.297   4.008 -0.4050  1.7418  1.7710
 1042SOL     OW14779   1.453   5.849   1.093 -0.4659 -0.0654  0.4207
 1042SOL    HW114780   1.496   5.761   1.074  1.2438  0.1041  3.2705
 1042SOL    HW214781   1.523   5.920   1.097 -1.5592  1.0098  0.6314
 1043SOL     OW14782   8.090   3.772   1.465  0.5385  0.3692 -0.0982
 1043SOL    HW114783   8.064   3.852   1.519 -0.4429 -0.2893  0.4026
 1043SOL    HW214784   8.079   3.689   1.520 -0.5961 -0.3196 -1.3374
 1044SOL     OW14785   2.218   9.383   4.107 -0.0263 -0.8628  0.0324
 1044SOL    HW114786   2.220   9.310   4.038  1.6731 -2.1333  1.4007
 1044SOL    HW214787   2.138   9.371   4.165 -0.4519 -0.8702 -0.5453
 1045SOL     OW14788   1.472   7.196   4.556  0.3973 -0.6188 -0.2000
 1045SOL    HW114789   1.526   7.250   4.491  0.6564 -1.0853 -0.3769
 1045SOL    HW214790   1.378   7.231   4.558  0.7001  0.1882  0.1017
 1046SOL     OW14791   4.613   2.187   4.663 -0.7252  0.1745 -0.1184
 1046SOL    HW114792   4.562   2.238   4.733 -2.6103 -0.4355 -0.9927
 1046SOL    HW214793   4.604   2.234   4.575  0.6685  0.3282 -0.1781
 1047SOL     OW14794   7.470   3.522   5.858 -0.3873 -0.5915 -0.0582
 1047SOL    HW114795   7.476   3.504   5.956 -0.7908 -1.2234 -0.1433
 1047SOL    HW214796   7.374   3.525   5.830 -0.3077  0.9723 -0.1908
 1048SOL     OW14797   9.563   8.709   5.749  0.1598 -0.1259 -0.6429
 1048SOL    HW114798   9.506   8.648   5.803 -0.3279  0.6536 -0.2612
 1048SOL    HW214799   9.517   8.730   5.663 -0.3415  0.8357 -0.1557
 1049SOL     OW14800   9.491   5.014   2.326  0.4252  0.4154 -0.1374
 1049SOL    HW114801   9.534   4.933   2.287  1.8152  0.8242  0.5437
 1049SOL    HW214802   9.408   4.986   2.376 -0.5164 -0.2761 -2.0302
 1050SOL     OW14803   9.475   9.863   5.145 -0.2792  0.6740  0.2491
 1050SOL    HW114804   9.382   9.829   5.129  0.3469 -1.7812  1.6339
 1050SOL    HW214805   9.523   9.872   5.058 -1.7435  1.7873 -0.4614
 1051SOL     OW14806   9.166   6.576   1.236 -0.1655 -0.2434 -0.6166
 1051SOL    HW114807   9.079   6.627   1.241  0.5896  0.9488  0.8233
 1051SOL    HW214808   9.209   6.593   1.148 -0.8679  0.0486 -0.9120
 1052SOL     OW14809   9.452   4.687   7.511  0.2431 -0.5666 -0.2848
 1052SOL    HW114810   9.396   4.763   7.480  0.2561 -0.6867 -0.6026
 1052SOL    HW214811   9.397   4.627   7.570  0.1112 -0.5489 -0.3902
 1053SOL     OW14812   7.509   3.993   7.629 -0.2449 -1.0716  0.2000
 1053SOL    HW114813   7.514   3.934   7.548  0.9999 -0.7874  0.0631
 1053SOL    HW214814   7.500   4.088   7.600  0.3772 -0.9534  0.3908
 1054SOL     OW14815   0.750   7.751   7.741  0.4139  0.2427 -0.2483
 1054SOL    HW114816   0.777   7.760   7.645  0.5204  1.2881 -0.1226
 1054SOL    HW214817   0.806   7.681   7.784  2.4854  1.9155 -0.1702
 1055SOL     OW14818   1.402   0.744   3.339 -0.4736 -0.2365 -0.0784
 1055SOL    HW114819   1.373   0.725   3.245 -1.0578 -2.1072  0.4626
 1055SOL    HW214820   1.394   0.842   3.357 -0.0391  0.1835 -2.0830
 1056SOL     OW14821   7.293   3.030   4.417  0.8145  0.7365  0.3319
 1056SOL    HW114822   7.252   3.013   4.506  0.2897 -1.9278 -0.3558
 1056SOL    HW214823   7.373   2.970   4.405  1.0015  1.2171 -0.8919
 1057SOL     OW14824   0.192   5.869   0.750  0.3109  0.5944  1.0559
 1057SOL    HW114825   0.115   5.842   0.692 -1.4536 -2.0968  4.4293
 1057SOL    HW214826   0.167   5.952   0.801  0.9840  1.6384 -0.2747
 1058SOL     OW14827   9.091   4.653   6.573 -1.0434 -0.1180  0.3291
 1058SOL    HW114828   9.141   4.735   6.542  0.9656 -0.8292  1.5776
 1058SOL    HW214829   9.120   4.630   6.666 -1.7038 -2.1791  0.0382
 1059SOL     OW14830   2.586   8.532   1.600 -0.1076 -0.3031 -0.2513
 1059SOL    HW114831   2.494   8.524   1.638 -0.1795 -1.2493 -0.6193
 1059SOL    HW214832   2.644   8.459   1.637  0.6865  0.7069  0.5170
 1060SOL     OW14833   3.926   7.390   4.375  0.0155  0.1085  0.1670
 1060SOL    HW114834   3.969   7.453   4.310  0.2846  1.1106  1.3050
 1060SOL    HW214835   3.827   7.401   4.373  0.0766  0.7030  0.5074
 1061SOL     OW14836   2.987   4.550   5.274 -0.3121  0.0049 -0.1708
 1061SOL    HW114837   3.044   4.488   5.328  0.2065 -0.1671 -0.9077
 1061SOL    HW214838   3.007   4.644   5.301  0.7392 -0.0224 -0.8201
 1062SOL     OW14839   2.015   0.082   0.783  0.4501  0.1622  0.0379
 1062SOL    HW114840   2.060   0.080   0.872  2.0242  1.0011 -0.7267
 1062SOL    HW214841   2.073   0.130   0.717 -0.6930 -0.4721 -1.4533
 1063SOL     OW14842   0.997   1.984   4.994 -0.0533 -0.1836 -0.4555
 1063SOL    HW114843   0.984   2.079   4.969  0.2936  0.0067  0.0732
 1063SOL    HW214844   0.918   1.952   5.047 -0.4518 -0.3750 -1.1525
 1064SOL     OW14845   0.931   1.955   2.809 -0.4996  0.2478  0.4163
 1064SOL    HW114846   0.982   1.985   2.729 -1.5927  2.5854  0.5238
 1064SOL    HW214847   0.993   1.945   2.887  0.2780 -0.2004 -0.2544
 1065SOL     OW14848   2.831   5.364   3.872  0.1592 -0.0391  0.0108
 1065SOL    HW114849   2.846   5.309   3.789 -0.6519 -1.4269  0.7549
 1065SOL    HW214850   2.807   5.303   3.948  1.4925  1.1637  1.4224
 1066SOL     OW14851   2.664   8.412   2.411 -0.1003 -0.2447 -0.3002
 1066SOL    HW114852   2.608   8.379   2.487 -1.1908  2.0131 -0.0978
 1066SOL    HW214853   2.708   8.334   2.366 -1.6693 -1.8520  0.8941
 1067SOL     OW14854   5.332   6.268   0.926  0.2763 -0.1727 -0.2746
 1067SOL    HW114855   5.239   6.289   0.897 -0.1753 -0.9245  0.5859
 1067SOL    HW214856   5.373   6.350   0.968 -0.1092  0.0685 -0.3651
 1068SOL     OW14857   0.902   3.019   1.981  0.5248  0.2768 -0.3520
 1068SOL    HW114858   0.959   3.088   1.936  0.4111  1.5810  1.4719
 1068SOL    HW214859   0.960   2.953   2.029  0.5946 -0.3239 -1.2457
 1069SOL     OW14860   4.645   3.174   6.020 -0.7542 -0.2350  0.6770
 1069SOL    HW114861   4.653   3.236   5.941  0.8011 -1.9987 -0.6041
 1069SOL    HW214862   4.734   3.161   6.061 -0.9892 -1.9033  0.6951
 1070SOL     OW14863   9.757   2.426   5.633 -0.7365  0.7113  0.6939
 1070SOL    HW114864   9.686   2.375   5.682 -1.0037  1.4207  1.0704
 1070SOL    HW214865   9.735   2.428   5.536 -0.1880 -0.7346  0.5379
 1071SOL     OW14866   6.146   1.360   4.538  0.6159 -0.1469  0.7333
 1071SOL    HW114867   6.062   1.408   4.561  1.1542  1.1867 -0.0160
 1071SOL    HW214868   6.215   1.426   4.508  1.2630 -1.4160 -0.6589
 1072SOL     OW14869   1.977   6.536   3.974 -0.1492 -0.1573 -0.0278
 1072SOL    HW114870   2.042   6.594   3.926 -0.1505  0.5159  0.7614
 1072SOL    HW214871   1.963   6.451   3.924 -0.3647  0.6480 -1.3462
 1073SOL     OW14872   4.058   0.379   1.488 -0.5309  0.2818  0.1852
 1073SOL    HW114873   3.967   0.346   1.515  0.3248 -1.1687  1.3947
 1073SOL    HW214874   4.092   0.324   1.412  0.9230 -1.7499  2.2402
 1074SOL     OW14875   8.962   5.891   8.118 -0.3365  0.6342  0.0313
 1074SOL    HW114876   8.867   5.922   8.118 -0.3145  0.8593 -2.5099
 1074SOL    HW214877   9.012   5.937   8.044  1.1269 -1.2499 -0.1908
 1075SOL     OW14878   8.261   9.459   4.511  0.1104 -0.0150  0.5038
 1075SOL    HW114879   8.197   9.534   4.495  0.2215 -0.2715 -1.2238
 1075SOL    HW214880   8.341   9.493   4.561  0.0379  0.9500 -0.0320
 1076SOL     OW14881   6.666   1.662   3.338  0.0595  0.4075  0.8525
 1076SOL    HW114882   6.722   1.677   3.257 -0.0508  1.0718  0.9034
 1076SOL    HW214883   6.723   1.625   3.412  0.2732  0.3617  0.6657
 1077SOL     OW14884   2.903   1.013   2.008  0.0826 -0.2986  0.0946
 1077SOL    HW114885   2.974   1.073   1.972 -1.2892  0.4362 -1.4443
 1077SOL    HW214886   2.903   1.018   2.108 -0.1421  2.4046 -0.0085
 1078SOL     OW14887   0.340   0.637   3.093 -0.6965 -0.1053 -0.5800
 1078SOL    HW114888   0.366   0.719   3.144  0.3674  1.3493 -3.3659
 1078SOL    HW214889   0.240   0.625   3.097 -0.6220 -0.0868  1.8691
 1079SOL     OW14890   5.386   8.736   6.176 -0.0610  0.3468  0.4713
 1079SOL    HW114891   5.399   8.710   6.080  1.4772  1.0781  0.4639
 1079SOL    HW214892   5.312   8.681   6.216 -1.0870  0.4339 -1.2846
 1080SOL     OW14893   9.357   9.563   4.360  0.2182 -0.4346  0.3278
 1080SOL    HW114894   9.334   9.659   4.376 -0.0969 -0.0685 -2.1842
 1080SOL    HW214895   9.297   9.526   4.289  1.8402 -1.8504 -0.3293
 1081SOL     OW14896   1.660   1.105   4.105 -0.4886  0.1797  0.6890
 1081SOL    HW114897   1.585   1.117   4.039 -0.1844 -0.6767  0.1751
 1081SOL    HW214898   1.636   1.032   4.170 -0.3334  0.2757  0.8526
 1082SOL     OW14899   3.119   6.422   2.141  0.2231 -0.0133  0.9554
 1082SOL    HW114900   3.100   6.515   2.175  0.6773  0.7259 -0.7448
 1082SOL    HW214901   3.032   6.377   2.119  0.0431  0.4153  0.7672
 1083SOL     OW14902   8.755   2.460   0.449  0.3646 -0.4433  0.1457
 1083SOL    HW114903   8.706   2.418   0.525  0.8861 -0.2849  0.5760
 1083SOL    HW214904   8.854   2.451   0.464  0.4814  0.9384  0.2573
 1084SOL     OW14905   3.548   8.606   7.644  0.5619  0.0176  0.0137
 1084SOL    HW114906   3.506   8.633   7.557  0.5069 -0.5329 -0.1318
 1084SOL    HW214907   3.629   8.550   7.625  0.2210 -0.5759  0.3358
 1085SOL     OW14908   6.743   0.363   5.431 -0.3464  0.6019 -0.1508
 1085SOL    HW114909   6.789   0.290   5.382 -0.7303  0.1963  0.0880
 1085SOL    HW214910   6.788   0.377   5.519  0.2132  1.1878 -0.5284
 1086SOL     OW14911   0.045   2.134   3.388  0.2092  0.1259 -0.2939
 1086SOL    HW114912   0.120   2.182   3.433  0.6305 -0.4593 -0.3655
 1086SOL    HW214913  -0.035   2.130   3.448  1.0977 -1.5506  0.8149
 1087SOL     OW14914   0.689   9.656   6.069 -0.3111  0.3185 -0.2189
 1087SOL    HW114915   0.667   9.704   6.153  0.6808  0.7956 -0.2325
 1087SOL    HW214916   0.780   9.615   6.076  0.1260  1.0644 -1.3585
 1088SOL     OW14917   6.751   7.978   5.811 -0.2313 -0.0023 -0.2733
 1088SOL    HW114918   6.725   7.937   5.899  0.8478 -1.9270 -0.8265
 1088SOL    HW214919   6.771   7.905   5.745  0.7818  1.4315 -1.5749
 1089SOL     OW14920   7.011   1.399   6.867  0.0815 -0.0164  0.2786
 1089SOL    HW114921   6.913   1.398   6.848  0.0310  1.8902  0.2997
 1089SOL    HW214922   7.061   1.412   6.781  0.3872 -1.9554  0.1354
 1090SOL     OW14923   6.091   2.276   5.158  0.1119 -1.0578  0.0958
 1090SOL    HW114924   6.044   2.358   5.194  1.4371 -0.5636  0.7275
 1090SOL    HW214925   6.158   2.304   5.090  1.5082 -1.4925  1.2813
 1091SOL     OW14926   6.452   0.364   2.208 -0.1219 -0.1290 -0.1262
 1091SOL    HW114927   6.502   0.281   2.234 -0.8715 -0.4815  0.2217
 1091SOL    HW214928   6.374   0.375   2.269  1.1833  2.0255  1.2228
 1092SOL     OW14929   8.945   9.466   0.375  0.5626  0.4271 -0.3134
 1092SOL    HW114930   8.903   9.435   0.289  1.0091  1.9274 -1.0829
 1092SOL    HW214931   9.027   9.412   0.393  0.7796  0.4855 -1.1207
 1093SOL     OW14932   6.993   7.716   4.556  0.1889 -0.3986 -0.1744
 1093SOL    HW114933   7.085   7.720   4.518  0.3597  0.0034  0.2582
 1093SOL    HW214934   6.926   7.716   4.483  0.5468 -1.1715 -0.5022
 1094SOL     OW14935   1.250   8.004   4.245  0.0434 -0.0198 -0.8387
 1094SOL    HW114936   1.241   8.053   4.332 -0.6816  1.1994 -1.5709
 1094SOL    HW214937   1.172   8.028   4.186  1.9959  1.4606 -2.9122
 1095SOL     OW14938   4.876   3.633   4.565 -0.2544  0.2842 -0.5194
 1095SOL    HW114939   4.881   3.728   4.536  2.2986 -0.6685 -3.4349
 1095SOL    HW214940   4.798   3.588   4.521 -1.4858  0.9574  0.8884
 1096SOL     OW14941   7.087   0.010   2.473  0.1929 -0.0230  0.0352
 1096SOL    HW114942   7.173   0.058   2.495  0.8633 -0.7426 -0.9547
 1096SOL    HW214943   7.015   0.077   2.457  1.2154  0.7004 -1.7342
 1097SOL     OW14944   7.478   1.217   3.332  0.3462  0.5646 -0.2386
 1097SOL    HW114945   7.491   1.125   3.370  0.8047  0.9213  0.4753
 1097SOL    HW214946   7.438   1.276   3.402  0.9536  1.1578 -0.3885
 1098SOL     OW14947   1.503   4.226   5.980  0.1843 -0.0984 -0.3222
 1098SOL    HW114948   1.427   4.172   5.941  0.0668 -0.4870  0.4304
 1098SOL    HW214949   1.475   4.321   5.989  0.4617  0.1327 -1.8549
 1099SOL     OW14950   9.931   2.168   4.369 -0.1885  0.0704 -0.7651
 1099SOL    HW114951  10.031   2.159   4.367  0.1025  2.8949 -0.9080
 1099SOL    HW214952   9.892   2.121   4.290  1.0961 -0.2923 -1.1946
 1100SOL     OW14953   1.401   0.612   2.965 -0.8502  0.0486  0.2227
 1100SOL    HW114954   1.401   0.705   3.002 -0.5713 -0.3268  1.1731
 1100SOL    HW214955   1.312   0.592   2.924 -0.7357  0.9210 -0.4667
 1101SOL     OW14956   6.629   9.460   5.034 -0.2046 -0.1139  0.0296
 1101SOL    HW114957   6.609   9.404   4.954 -0.9227 -3.8505  2.6972
 1101SOL    HW214958   6.726   9.448   5.059  0.2452  1.7315 -0.7370
 1102SOL     OW14959   3.644   6.089   2.812  0.3225  0.2413 -0.4949
 1102SOL    HW114960   3.703   6.059   2.737  0.7959 -0.9032  0.3275
 1102SOL    HW214961   3.610   6.181   2.792  0.8080  0.1368 -1.8966
 1103SOL     OW14962   3.516   5.908   3.736 -0.6199 -0.0798 -0.1036
 1103SOL    HW114963   3.427   5.910   3.690 -1.9649 -0.7975  2.4050
 1103SOL    HW214964   3.535   5.815   3.766  0.2495  0.3692  0.7472
 1104SOL     OW14965   2.252   0.475   0.829  0.2022  0.3275  0.3013
 1104SOL    HW114966   2.240   0.451   0.733 -0.7140 -0.0020  0.4915
 1104SOL    HW214967   2.188   0.422   0.885  1.2825 -0.0812  1.1751
 1105SOL     OW14968   7.279   1.574   6.131 -0.7923 -0.1354 -0.3471
 1105SOL    HW114969   7.265   1.651   6.194  0.4150 -0.6257  0.5401
 1105SOL    HW214970   7.276   1.489   6.182  2.0867 -0.4359 -0.6529
 1106SOL     OW14971   8.499   1.508   2.213  0.0042 -0.6088  0.9947
 1106SOL    HW114972   8.431   1.567   2.257 -0.9851 -1.2731  0.3787
 1106SOL    HW214973   8.572   1.564   2.173  0.0256  0.0836  1.9964
 1107SOL     OW14974   9.549   1.134   7.982 -0.6434  0.4707  0.7311
 1107SOL    HW114975   9.633   1.113   8.033  0.3400 -0.1634 -1.1164
 1107SOL    HW214976   9.501   1.209   8.028  2.4376  2.8600  0.2188
 1108SOL     OW14977   0.791   2.363   6.271  0.2171  0.1141 -0.1089
 1108SOL    HW114978   0.747   2.430   6.330  2.4045  0.4964  1.1537
 1108SOL    HW214979   0.853   2.410   6.208  0.1389 -0.5373 -0.6736
 1109SOL     OW14980   2.422   0.533   1.511  0.7464  0.5148  0.2016
 1109SOL    HW114981   2.486   0.490   1.447  0.9666 -0.3588  1.0109
 1109SOL    HW214982   2.429   0.490   1.600 -0.0557  1.2802  0.6450
 1110SOL     OW14983   5.239   8.387   3.039  0.1810  0.0918  0.0325
 1110SOL    HW114984   5.201   8.295   3.054 -0.0598  0.2149  0.1842
 1110SOL    HW214985   5.240   8.406   2.941  0.3306 -0.1163 -0.0074
 1111SOL     OW14986   3.487   0.588   3.556  0.0750  0.2713  0.1089
 1111SOL    HW114987   3.518   0.493   3.560 -0.7496 -0.0015  0.1352
 1111SOL    HW214988   3.562   0.649   3.581 -0.3012 -0.5413  3.5544
 1112SOL     OW14989   0.581   6.061   2.721 -0.1690 -0.2585 -0.7512
 1112SOL    HW114990   0.583   5.980   2.780  0.3077 -0.9590 -1.7221
 1112SOL    HW214991   0.498   6.113   2.739 -0.0620 -0.4940  0.5043
 1113SOL     OW14992   8.653   6.726   1.973 -0.8237  0.1118  0.4508
 1113SOL    HW114993   8.633   6.723   2.071  0.7994  3.4625  0.9477
 1113SOL    HW214994   8.726   6.792   1.956 -1.9262  0.4797 -3.1885
 1114SOL     OW14995   8.154   1.986   5.698 -0.2776 -0.0021 -0.0059
 1114SOL    HW114996   8.183   2.006   5.792 -0.7614  0.5993  0.0198
 1114SOL    HW214997   8.231   1.947   5.648 -0.2544 -1.0908  0.8668
 1115SOL     OW14998   6.015   8.431   6.269  0.5400 -0.5673 -0.2627
 1115SOL    HW114999   6.001   8.525   6.303  0.4106  0.2632 -2.5101
 1115SOL    HW215000   5.983   8.366   6.337  1.8884  0.9823  1.9287
 1116SOL     OW15001   0.625   6.422   0.236 -0.4542  0.3332 -0.3824
 1116SOL    HW115002   0.599   6.427   0.333  2.2478  0.8225  0.3669
 1116SOL    HW215003   0.543   6.424   0.179 -2.1092 -0.3484  1.9078
 1117SOL     OW15004   2.269   6.869   4.225 -0.9751 -0.6107  0.6736
 1117SOL    HW115005   2.172   6.875   4.246 -0.8430  0.9321  0.9101
 1117SOL    HW215006   2.320   6.935   4.280  0.0428 -0.4257 -0.4427
 1118SOL     OW15007   7.859   3.779   5.012 -0.3361  0.0091 -0.2976
 1118SOL    HW115008   7.867   3.730   4.926 -1.2627  0.5688 -0.6979
 1118SOL    HW215009   7.893   3.873   5.001  1.5860 -0.5693  0.5073
 1119SOL     OW15010   9.791   4.016   3.869 -0.0032  0.1576  0.5310
 1119SOL    HW115011   9.873   4.073   3.868 -0.4193  0.7527 -0.5775
 1119SOL    HW215012   9.816   3.922   3.892  1.1582  0.0779 -0.9995
 1120SOL     OW15013   4.792   0.732   2.432 -0.1453 -0.2121  0.1610
 1120SOL    HW115014   4.888   0.755   2.415 -0.2531 -0.7429 -1.2797
 1120SOL    HW215015   4.780   0.633   2.428 -0.6516 -0.1903  0.9542
 1121SOL     OW15016   3.246   4.291   5.619  0.0232  0.4927  0.5399
 1121SOL    HW115017   3.322   4.314   5.679 -0.9998  3.1959  0.8816
 1121SOL    HW215018   3.160   4.313   5.665 -0.8780 -0.3577 -0.7103
 1122SOL     OW15019   4.257   8.750   3.147  0.6175 -0.3214 -0.5785
 1122SOL    HW115020   4.335   8.812   3.149  1.3980 -1.3417  1.7094
 1122SOL    HW215021   4.178   8.794   3.191  0.6061 -0.2097 -0.7096
 1123SOL     OW15022   2.330   1.560   1.683  0.4183  0.5432 -0.2110
 1123SOL    HW115023   2.251   1.592   1.735 -0.5216 -1.1130 -0.5862
 1123SOL    HW215024   2.413   1.572   1.738 -0.4599 -0.5018  1.3906
 1124SOL     OW15025   7.382   4.079   2.877  0.3539 -0.0122  0.1581
 1124SOL    HW115026   7.295   4.030   2.873 -0.9939  2.3701 -0.4874
 1124SOL    HW215027   7.450   4.031   2.821 -1.2046 -0.6059 -1.2632
 1125SOL     OW15028   6.385   2.071   4.287  0.0309 -0.1494 -0.1254
 1125SOL    HW115029   6.483   2.085   4.299 -0.2592  2.9772 -0.9188
 1125SOL    HW215030   6.362   2.078   4.189 -1.4800  3.1299  0.4007
 1126SOL     OW15031   8.424   1.101   2.419  0.4807 -0.1897  0.4046
 1126SOL    HW115032   8.486   1.048   2.477  1.9783  0.2608 -0.7289
 1126SOL    HW215033   8.374   1.040   2.358  0.2956 -0.5084  0.8779
 1127SOL     OW15034   0.890   0.826   5.812  0.5718 -0.4445 -0.1560
 1127SOL    HW115035   0.884   0.753   5.744  0.0569 -1.1985  0.6874
 1127SOL    HW215036   0.862   0.791   5.902 -0.6942  1.0485  0.0605
 1128SOL     OW15037   8.233   7.259   7.124 -0.7173  0.0114 -0.5080
 1128SOL    HW115038   8.269   7.167   7.110  1.2788  0.3596  1.9470
 1128SOL    HW215039   8.143   7.254   7.166 -0.5459 -0.8219 -0.2441
 1129SOL     OW15040   1.563   3.220   1.847  0.4012  0.4768  0.4044
 1129SOL    HW115041   1.531   3.188   1.758  0.9130  0.6319  0.1634
 1129SOL    HW215042   1.660   3.195   1.859 -0.0571 -0.8904  1.5402
 1130SOL     OW15043   1.489   0.982   6.365  0.1896  0.7822  0.1674
 1130SOL    HW115044   1.521   1.072   6.334  2.4931 -0.4375 -1.1191
 1130SOL    HW215045   1.559   0.939   6.421 -0.8788 -0.2573  0.7257
 1131SOL     OW15046   9.104   9.628   6.908  0.1479  1.0034 -0.4817
 1131SOL    HW115047   9.035   9.651   6.977 -0.5907  0.9719 -1.2069
 1131SOL    HW215048   9.065   9.564   6.842  1.2677  0.0126 -0.1833
 1132SOL     OW15049   1.248   3.147   6.127 -0.3879  0.9232 -0.4615
 1132SOL    HW115050   1.290   3.237   6.125  2.1618 -0.1635  1.1670
 1132SOL    HW215051   1.252   3.111   6.221 -2.3119 -0.4494 -0.8807
 1133SOL     OW15052   5.545   4.149   1.501 -0.1062 -0.4599  0.1202
 1133SOL    HW115053   5.543   4.210   1.422 -0.6876  0.2654  0.6931
 1133SOL    HW215054   5.503   4.061   1.477 -0.4121 -0.1907 -0.3312
 1134SOL     OW15055   8.079   2.430   6.193  0.3178 -0.4786  0.3689
 1134SOL    HW115056   8.061   2.333   6.177  0.2453 -0.9581  3.0277
 1134SOL    HW215057   8.178   2.446   6.189  0.3191 -0.6344 -0.2313
 1135SOL     OW15058   4.312   3.867   0.264 -0.4747  0.2934 -0.1093
 1135SOL    HW115059   4.250   3.842   0.189 -0.1255 -0.2365 -0.2256
 1135SOL    HW215060   4.310   3.796   0.334 -0.0945  0.3359 -0.0529
 1136SOL     OW15061   8.148   2.111   3.700  0.0746  0.8137  0.2544
 1136SOL    HW115062   8.195   2.122   3.613  1.1515 -0.5447  0.6345
 1136SOL    HW215063   8.215   2.116   3.775 -0.7648  1.4723  0.9741
 1137SOL     OW15064   3.819   3.807   4.631  0.1408  0.5500 -0.0353
 1137SOL    HW115065   3.796   3.812   4.534  0.2100  0.8939 -0.0334
 1137SOL    HW215066   3.736   3.799   4.685  0.1244 -0.1935 -0.1555
 1138SOL     OW15067   1.641   3.627   2.148  0.0307 -0.3806  0.0318
 1138SOL    HW115068   1.688   3.715   2.154 -0.4103 -0.1288 -0.1855
 1138SOL    HW215069   1.643   3.594   2.054 -0.0324 -0.4765  0.0640
 1139SOL     OW15070   0.153   6.261   4.981  0.5156  0.2684  0.3584
 1139SOL    HW115071   0.090   6.215   5.043 -0.6962  0.8273 -0.4440
 1139SOL    HW215072   0.156   6.212   4.894  1.2178  0.2246  0.4069
 1140SOL     OW15073   4.919   8.025   5.618  0.5517  0.3056 -0.3465
 1140SOL    HW115074   4.978   8.060   5.692  0.6057  0.0874 -0.2823
 1140SOL    HW215075   4.960   7.941   5.581  1.3172  1.2428 -1.6604
 1141SOL     OW15076   4.046   4.487   1.386  0.0105  0.3635 -0.3153
 1141SOL    HW115077   3.976   4.482   1.315 -1.4201 -0.9139  1.1511
 1141SOL    HW215078   4.101   4.403   1.385 -1.3378 -0.5557  1.4061
 1142SOL     OW15079   5.645   8.370   3.442  0.3030 -0.0398 -0.1170
 1142SOL    HW115080   5.582   8.346   3.368  0.5299 -0.7983 -0.0664
 1142SOL    HW215081   5.709   8.440   3.410 -0.9128  1.1625  0.0002
 1143SOL     OW15082   8.134   6.037   2.379 -0.1483 -0.4635  0.0069
 1143SOL    HW115083   8.091   6.068   2.463 -1.6569 -2.2792 -0.0712
 1143SOL    HW215084   8.141   6.114   2.315 -0.1181  0.6334  1.2979
 1144SOL     OW15085   2.900   4.268   5.496  0.3495  0.3706 -0.1488
 1144SOL    HW115086   2.804   4.289   5.478  1.0675  1.9208 -2.3174
 1144SOL    HW215087   2.958   4.327   5.440  2.5742 -0.5275  1.1726
 1145SOL     OW15088   9.642   2.325   7.456  0.4110  0.1465  0.3578
 1145SOL    HW115089   9.701   2.246   7.437  1.3651  0.7005  0.9757
 1145SOL    HW215090   9.659   2.358   7.549  0.6085  1.5616 -0.1649
 1146SOL     OW15091   6.433   0.416   1.447 -0.2247  0.1932  0.1516
 1146SOL    HW115092   6.467   0.432   1.355 -0.5613  0.3741  0.0572
 1146SOL    HW215093   6.380   0.332   1.449 -0.6552  0.4598  0.0623
 1147SOL     OW15094   4.246   5.006   0.893  0.0061 -0.0404  0.1605
 1147SOL    HW115095   4.304   5.033   0.970 -1.5472 -0.0054  1.3494
 1147SOL    HW215096   4.300   5.005   0.809  1.4996  0.9023  1.0844
 1148SOL     OW15097   0.421   2.579   7.496 -0.1985  0.1525  0.1615
 1148SOL    HW115098   0.412   2.678   7.509  1.4060  0.5962 -1.8775
 1148SOL    HW215099   0.352   2.548   7.431  0.2334  0.1923 -0.3196
 1149SOL     OW15100   2.454   3.229   1.983  0.3501 -0.1350 -0.4196
 1149SOL    HW115101   2.477   3.190   2.072  0.6718 -0.9153 -0.8392
 1149SOL    HW215102   2.394   3.307   1.996  1.6679  0.7325  0.5815
 1150SOL     OW15103   3.429   3.523   7.229  0.4110  0.0308  0.3915
 1150SOL    HW115104   3.466   3.539   7.320  1.6914  1.3768 -0.3439
 1150SOL    HW215105   3.385   3.606   7.196 -0.8591 -0.7353  0.1557
 1151SOL     OW15106   3.388   3.678   0.173  0.1334  0.1286 -0.1639
 1151SOL    HW115107   3.358   3.696   0.267 -0.8079 -1.7364 -0.0780
 1151SOL    HW215108   3.384   3.580   0.155  1.2400  0.3732 -1.8572
 1152SOL     OW15109   3.767   8.066   1.889  0.1356  0.3452  0.0810
 1152SOL    HW115110   3.714   7.983   1.873 -0.1084  0.6922 -0.9088
 1152SOL    HW215111   3.718   8.146   1.854  0.6167  0.8536  0.5345
 1153SOL     OW15112   7.142   7.604   5.145  0.8986 -0.1455  0.1034
 1153SOL    HW115113   7.224   7.574   5.194  1.3431  0.1985 -0.4139
 1153SOL    HW215114   7.145   7.570   5.051  1.1466  1.0373 -0.3344
 1154SOL     OW15115   9.071   2.369   6.094 -0.5996  0.2607  0.1950
 1154SOL    HW115116   9.026   2.348   6.007 -0.7424  1.1120  0.0538
 1154SOL    HW215117   9.091   2.285   6.143  0.6962 -0.3109 -1.2782
 1155SOL     OW15118   1.276   4.938   4.076  0.2800  0.4782  0.2521
 1155SOL    HW115119   1.363   4.914   4.034  0.2169  0.2783  0.2338
 1155SOL    HW215120   1.205   4.877   4.042 -0.2739  1.9380 -1.2987
 1156SOL     OW15121   2.634   5.759   2.405 -0.1052 -0.2662  0.0093
 1156SOL    HW115122   2.564   5.698   2.369 -1.0380 -0.2498  1.7242
 1156SOL    HW215123   2.591   5.837   2.449  1.0288  0.3949 -0.0189
 1157SOL     OW15124   1.514   8.543   4.125 -0.7810  0.2190 -0.5863
 1157SOL    HW115125   1.486   8.637   4.145 -0.3580  0.5722 -1.6161
 1157SOL    HW215126   1.609   8.529   4.155 -1.1099 -0.1408  0.3287
 1158SOL     OW15127   0.934   9.524   7.093 -0.2873 -0.3256 -0.1724
 1158SOL    HW115128   0.843   9.487   7.072 -0.2648  0.1012 -1.0655
 1158SOL    HW215129   0.961   9.496   7.184 -1.5498 -0.0191  0.3102
 1159SOL     OW15130   6.624   0.259   6.515  0.2968 -0.0038  0.2199
 1159SOL    HW115131   6.646   0.351   6.485 -0.0519 -0.7149 -2.2829
 1159SOL    HW215132   6.614   0.258   6.615 -0.1988  2.7569  0.2336
 1160SOL     OW15133   8.377   8.033   6.584 -0.0346 -0.1068 -0.2036
 1160SOL    HW115134   8.318   7.986   6.649  1.4163 -0.7850  0.6521
 1160SOL    HW215135   8.440   7.967   6.543  2.2377  1.1009  1.2347
 1161SOL     OW15136   0.343   3.869   4.630  0.2967  0.9561  0.3454
 1161SOL    HW115137   0.380   3.873   4.538  0.1024 -1.2651  0.1380
 1161SOL    HW215138   0.383   3.941   4.686  0.9130  1.8940 -1.2913
 1162SOL     OW15139   3.851   0.256   7.285  0.4965 -0.2255  0.2647
 1162SOL    HW115140   3.925   0.189   7.278  0.4018 -0.4836  1.5670
 1162SOL    HW215141   3.811   0.271   7.195  3.6610  1.6499 -0.9002
 1163SOL     OW15142   4.895   4.232   0.585 -0.0578  0.2661  0.4717
 1163SOL    HW115143   4.829   4.165   0.553 -0.7173  1.2057 -0.1603
 1163SOL    HW215144   4.976   4.185   0.620  0.5990 -0.8204 -2.3932
 1164SOL     OW15145   5.149   8.912   5.230  0.2167  0.1038 -0.0307
 1164SOL    HW115146   5.179   8.981   5.296  1.4462  1.0628 -1.5654
 1164SOL    HW215147   5.068   8.944   5.182 -0.6835 -0.5993  0.9708
 1165SOL     OW15148   5.611   0.111   5.683  0.7520  0.1172 -0.0360
 1165SOL    HW115149   5.562   0.028   5.656  0.5113  0.3398 -0.2954
 1165SOL    HW215150   5.687   0.087   5.744  2.4023 -0.5965 -2.2898
 1166SOL     OW15151   2.361   1.994   6.091 -0.4549  0.0228 -0.2089
 1166SOL    HW115152   2.343   1.921   6.025 -0.5377 -0.0379 -0.1196
 1166SOL    HW215153   2.378   2.079   6.042  0.6076 -0.2618 -0.3432
 1167SOL     OW15154   7.585   7.455   4.038  0.0055  0.0591  0.3240
 1167SOL    HW115155   7.654   7.421   4.101  1.4659  0.3592 -1.0692
 1167SOL    HW215156   7.621   7.452   3.944 -1.6439  0.8007 -0.3565
 1168SOL     OW15157   1.785   1.902   2.894 -0.3577  0.1468  0.5936
 1168SOL    HW115158   1.726   1.826   2.865 -0.5841  1.5298 -2.8425
 1168SOL    HW215159   1.880   1.872   2.896 -0.4108 -0.1999 -1.0553
 1169SOL     OW15160   2.946   6.226   5.249  0.5473  0.4624  0.8786
 1169SOL    HW115161   2.996   6.189   5.170 -1.0549 -0.6409  0.3452
 1169SOL    HW215162   2.955   6.325   5.251  1.5599  0.4000 -0.0285
 1170SOL     OW15163   4.948   1.462   7.661 -0.0384 -0.7956  0.8163
 1170SOL    HW115164   4.980   1.550   7.628 -0.9384 -0.3479  1.1205
 1170SOL    HW215165   4.971   1.391   7.595 -0.4751 -0.1357 -0.0508
 1171SOL     OW15166   3.409   9.407   3.018 -0.0545  0.0685  0.0509
 1171SOL    HW115167   3.371   9.473   3.084 -0.9441 -0.7986  0.4135
 1171SOL    HW215168   3.480   9.352   3.063 -0.8881 -0.7415  0.3764
 1172SOL     OW15169   0.351   4.786   4.090  0.3430  0.7892  0.2987
 1172SOL    HW115170   0.440   4.827   4.108  0.2568  1.0043  0.2380
 1172SOL    HW215171   0.286   4.814   4.161  0.6242 -0.3281  1.0142
 1173SOL     OW15172   9.764   3.053   2.284  0.6106 -0.7453  0.2749
 1173SOL    HW115173   9.840   3.092   2.336  1.2504 -0.5432 -0.7906
 1173SOL    HW215174   9.794   3.035   2.190 -0.8057 -0.1839 -0.2988
 1174SOL     OW15175   0.268   3.642   3.027 -0.4478 -0.3340 -0.6304
 1174SOL    HW115176   0.306   3.575   2.963  2.6390 -0.7026  1.5139
 1174SOL    HW215177   0.323   3.726   3.024  0.7938 -0.9738  2.7440
 1175SOL     OW15178   7.929   2.546   7.080  0.3230 -0.6204 -0.1678
 1175SOL    HW115179   7.853   2.505   7.131  0.7858  0.4692  1.4305
 1175SOL    HW215180   8.016   2.510   7.115  0.5830 -1.0779 -1.2812
 1176SOL     OW15181   0.538   7.814   4.122 -0.0988 -0.3002 -0.9630
 1176SOL    HW115182   0.468   7.744   4.139 -3.4433  3.2992  0.8923
 1176SOL    HW215183   0.602   7.818   4.198  0.0519 -1.2445 -1.0376
 1177SOL     OW15184   5.016   4.009   7.337 -0.2224 -0.3216  0.5155
 1177SOL    HW115185   5.002   3.934   7.402 -1.2785 -1.6808 -1.2193
 1177SOL    HW215186   5.105   3.999   7.294  0.4565  0.5500  1.6911
 1178SOL     OW15187   2.680   4.993   3.302  0.8836  0.0787  0.5890
 1178SOL    HW115188   2.630   4.950   3.377 -1.6331  1.3170 -0.3437
 1178SOL    HW215189   2.706   5.086   3.328  0.4703  0.3249  0.1350
 1179SOL     OW15190   1.554   5.609   2.445 -0.3023 -0.3604 -0.5963
 1179SOL    HW115191   1.649   5.624   2.475 -1.2319  0.5336  1.9999
 1179SOL    HW215192   1.545   5.639   2.350  0.7726  4.9480  0.7779
 1180SOL     OW15193   5.866   3.318   0.891 -0.1155 -0.6939  0.3372
 1180SOL    HW115194   5.959   3.335   0.925 -0.1888  0.4095  0.0111
 1180SOL    HW215195   5.860   3.347   0.795 -0.5295 -1.6906  0.0505
 1181SOL     OW15196   2.191   0.807   4.579  0.2662  0.0329  0.6803
 1181SOL    HW115197   2.098   0.825   4.548 -0.5245 -1.6409  2.0043
 1181SOL    HW215198   2.233   0.893   4.610  0.0355  1.2033 -2.1059
 1182SOL     OW15199   3.114   9.302   0.807 -0.4293  0.2953  0.0589
 1182SOL    HW115200   3.047   9.227   0.813  0.4261 -0.4312  0.7134
 1182SOL    HW215201   3.079   9.381   0.857  0.1382 -0.8105  2.2800
 1183SOL     OW15202   1.593   8.280   0.477  0.3767  0.3329 -0.6853
 1183SOL    HW115203   1.586   8.373   0.514  0.4709  0.2310 -0.4120
 1183SOL    HW215204   1.670   8.275   0.414 -1.5789  1.2939 -3.2126
 1184SOL     OW15205   2.473   8.048   5.759 -0.1249 -0.0148  0.1288
 1184SOL    HW115206   2.519   8.010   5.679 -1.5756  0.4465 -0.9406
 1184SOL    HW215207   2.431   8.136   5.735 -0.5577  0.1395  1.3964
 1185SOL     OW15208   4.497   7.707   2.041  0.3229 -0.3097 -0.4017
 1185SOL    HW115209   4.547   7.704   1.954  0.8641 -2.7491 -0.0505
 1185SOL    HW215210   4.562   7.706   2.117 -0.1845 -0.7499  0.0307
 1186SOL     OW15211   9.887   1.095   2.996 -0.0135  0.4650  0.2677
 1186SOL    HW115212   9.848   1.142   3.076 -1.0546  0.4657 -0.2336
 1186SOL    HW215213   9.821   1.028   2.961  0.8222 -0.2158 -0.0102
 1187SOL     OW15214   1.087   6.998   7.307 -0.6054 -0.0531 -0.5637
 1187SOL    HW115215   1.047   7.081   7.268 -1.7339  0.4121  1.4551
 1187SOL    HW215216   1.186   7.008   7.314 -0.5714  0.4776 -1.7936
 1188SOL     OW15217   7.702   7.490   5.723  0.2320 -0.3413  0.1425
 1188SOL    HW115218   7.628   7.552   5.695 -0.2397 -1.6685 -1.6915
 1188SOL    HW215219   7.764   7.538   5.784 -1.4593  1.1933  0.7232
 1189SOL     OW15220   5.088   0.495   1.611 -0.0950 -0.2248 -0.5279
 1189SOL    HW115221   5.188   0.497   1.610 -0.1128  0.8343 -0.9011
 1189SOL    HW215222   5.055   0.425   1.548  0.4278 -1.1657  0.2482
 1190SOL     OW15223   4.288   7.834   4.160 -0.0412  0.2955  0.0965
 1190SOL    HW115224   4.367   7.876   4.116  0.2150 -0.2109  0.0650
 1190SOL    HW215225   4.224   7.905   4.190  1.9285  0.8877  3.0642
 1191SOL     OW15226   5.036   4.921   0.308  0.7021 -0.1789  0.2508
 1191SOL    HW115227   5.048   4.823   0.322 -1.4806 -0.3549  1.2177
 1191SOL    HW215228   4.944   4.948   0.339  1.1204  2.0944 -0.3671
 1192SOL     OW15229   9.102   6.699   5.540 -0.1615 -0.1858  0.2178
 1192SOL    HW115230   9.124   6.737   5.630 -0.3187 -0.2060  0.2656
 1192SOL    HW215231   9.123   6.767   5.470  0.2657 -0.2916  0.2448
 1193SOL     OW15232   6.100   8.873   3.936  0.6198 -0.3012  0.3402
 1193SOL    HW115233   6.031   8.914   3.876 -0.3715 -0.0897  1.5968
 1193SOL    HW215234   6.134   8.789   3.895  2.3374  1.4901 -2.0525
 1194SOL     OW15235   5.018   7.959   2.771 -0.1405  0.2491 -0.5731
 1194SOL    HW115236   5.038   8.036   2.711 -0.8148 -1.5687 -3.2483
 1194SOL    HW215237   5.019   7.989   2.866  4.6738  2.4690 -1.1817
 1195SOL     OW15238   2.970   7.396   5.860  0.1138  0.2385  0.2626
 1195SOL    HW115239   2.985   7.327   5.930 -0.3966  0.3314  0.4725
 1195SOL    HW215240   2.951   7.352   5.772 -1.0627  0.0984  0.5816
 1196SOL     OW15241   6.527   2.110   5.254  0.7072  0.1235 -0.1037
 1196SOL    HW115242   6.593   2.144   5.187 -0.2997  0.2834 -1.0240
 1196SOL    HW215243   6.438   2.097   5.210  0.5256 -1.6722  0.7308
 1197SOL     OW15244   3.702   6.279   5.792  0.2266  0.0856 -0.6122
 1197SOL    HW115245   3.626   6.261   5.855  0.0823  1.3488 -0.4047
 1197SOL    HW215246   3.778   6.319   5.844  0.7460 -0.4686 -0.9506
 1198SOL     OW15247   6.228   2.601   0.941  0.3064  0.3507  0.4173
 1198SOL    HW115248   6.322   2.585   0.910 -0.1875  2.1669 -2.2158
 1198SOL    HW215249   6.199   2.526   0.999  3.0209 -0.7719  0.4036
 1199SOL     OW15250   8.453   3.871   8.088  0.7988  0.2709 -0.2502
 1199SOL    HW115251   8.364   3.911   8.111  0.5354 -1.4391  1.8527
 1199SOL    HW215252   8.490   3.917   8.008 -2.2054  0.6727 -1.4676
 1200SOL     OW15253   8.087   7.932   6.222 -0.7021 -0.6857 -0.3324
 1200SOL    HW115254   8.034   8.010   6.189 -0.0614 -0.1052 -0.0288
 1200SOL    HW215255   8.120   7.878   6.145  1.2941  0.9996 -0.7092
 1201SOL     OW15256   5.400   5.470   1.281  0.0286 -0.5081 -0.0913
 1201SOL    HW115257   5.460   5.545   1.252  2.5107 -1.5914  1.9806
 1201SOL    HW215258   5.318   5.507   1.324  1.6438  1.0684  1.7312
 1202SOL     OW15259   2.482   1.246   4.526  0.5277 -0.4745  0.0854
 1202SOL    HW115260   2.548   1.263   4.453  0.7575  1.4126  0.7075
 1202SOL    HW215261   2.527   1.260   4.615 -0.7888  1.1786  0.5136
 1203SOL     OW15262   1.333   7.038   1.451 -0.4172  0.4530 -0.3436
 1203SOL    HW115263   1.234   7.044   1.462 -0.3342  1.5068 -0.1346
 1203SOL    HW215264   1.364   6.946   1.475 -1.3465  0.1266 -0.4053
 1204SOL     OW15265   9.359   6.087   6.529  0.2174  0.1978  0.5129
 1204SOL    HW115266   9.317   6.121   6.613 -0.0919 -0.7198  0.7334
 1204SOL    HW215267   9.326   5.995   6.510  1.0651  0.0070 -0.0712
 1205SOL     OW15268   8.192   5.668   1.001  0.2714  0.8891 -0.1123
 1205SOL    HW115269   8.170   5.589   1.058 -0.5670  0.7892 -0.5578
 1205SOL    HW215270   8.276   5.711   1.033 -0.5519  1.2425  1.6287
 1206SOL     OW15271   5.438   8.908   7.625  0.1771  0.4041  0.7024
 1206SOL    HW115272   5.529   8.871   7.606 -1.0468 -1.5841 -1.6754
 1206SOL    HW215273   5.377   8.834   7.655 -1.1656  1.3183  0.3066
 1207SOL     OW15274   1.941   6.531   0.674 -0.6281 -0.2539  0.0136
 1207SOL    HW115275   1.971   6.588   0.598 -2.6162  1.8451  0.7555
 1207SOL    HW215276   2.016   6.471   0.702  1.2155  1.3121 -1.4066
 1208SOL     OW15277   2.661   6.627   2.390  0.3669  0.3677 -0.3951
 1208SOL    HW115278   2.704   6.665   2.472  0.4564  0.6046 -0.5518
 1208SOL    HW215279   2.668   6.693   2.315  0.4740  0.0649 -0.6523
 1209SOL     OW15280   7.732   7.126   7.427 -0.2362 -0.1066 -0.3401
 1209SOL    HW115281   7.775   7.053   7.374  2.1317  1.8232 -1.1767
 1209SOL    HW215282   7.785   7.142   7.510 -0.2466  1.2164 -0.5810
 1210SOL     OW15283   7.166   3.962   0.555  0.5199 -0.6260 -0.0048
 1210SOL    HW115284   7.146   3.865   0.568  0.3406 -0.5359  0.3843
 1210SOL    HW215285   7.132   3.990   0.465  0.2385 -0.8332  0.0344
 1211SOL     OW15286   2.004   1.959   3.737 -0.2872  1.0734  0.0318
 1211SOL    HW115287   2.043   2.015   3.810 -0.6789  2.6726 -0.9464
 1211SOL    HW215288   1.907   1.942   3.756 -0.0193  0.2346  0.6271
 1212SOL     OW15289   6.928   7.346   6.670  0.1481  0.2615  0.0352
 1212SOL    HW115290   6.868   7.358   6.590  0.5860 -0.5816 -0.4220
 1212SOL    HW215291   6.939   7.249   6.689 -0.7409  0.4693  1.7318
 1213SOL     OW15292   4.196   8.129   0.347  0.5494 -0.0849  0.5484
 1213SOL    HW115293   4.161   8.042   0.312  0.6018 -0.2364  0.8703
 1213SOL    HW215294   4.183   8.133   0.446 -1.3127  1.1186  0.2919
 1214SOL     OW15295   2.010   4.697   4.643 -0.0473 -0.4051  0.1763
 1214SOL    HW115296   2.107   4.692   4.666  0.1363 -1.6089 -0.8266
 1214SOL    HW215297   1.994   4.654   4.554 -1.3909  0.4126  0.0049
 1215SOL     OW15298   4.847   4.436   0.787  0.1854 -0.0962  0.6244
 1215SOL    HW115299   4.902   4.395   0.861  0.2766 -0.5917  0.2826
 1215SOL    HW215300   4.854   4.379   0.705  2.6369  2.1001 -0.7743
 1216SOL     OW15301   7.057   5.307   0.531 -0.2872 -0.2575  0.4451
 1216SOL    HW115302   7.026   5.316   0.436 -0.6794 -1.3212  0.4551
 1216SOL    HW215303   6.991   5.250   0.581  0.3239 -0.3360  1.1591
 1217SOL     OW15304   8.514   5.817   8.114 -0.8162  0.5628 -0.7401
 1217SOL    HW115305   8.562   5.731   8.136  0.0345 -0.1808 -5.0740
 1217SOL    HW215306   8.574   5.894   8.133 -1.5246  0.3032  3.0440
 1218SOL     OW15307   9.693   5.020   5.551  0.0976  0.0595 -0.0334
 1218SOL    HW115308   9.609   5.033   5.499  0.4251 -1.3752 -0.9530
 1218SOL    HW215309   9.686   5.066   5.639 -1.2750  0.7542 -0.5021
 1219SOL     OW15310   6.811   0.075   3.113  0.6212  0.6518 -0.0163
 1219SOL    HW115311   6.729   0.101   3.061  0.5011  1.8902  0.7786
 1219SOL    HW215312   6.891   0.123   3.076  0.7564  0.5299  0.1164
 1220SOL     OW15313   0.997   4.431   5.886  0.1277  0.3186 -0.4748
 1220SOL    HW115314   1.052   4.379   5.951  0.7310  0.1465 -1.1167
 1220SOL    HW215315   1.022   4.404   5.793 -1.5482 -0.2904 -0.7701
 1221SOL     OW15316   4.340   9.316   5.675  0.0951  0.2657 -0.1031
 1221SOL    HW115317   4.352   9.387   5.743 -0.6499  1.0860 -0.8185
 1221SOL    HW215318   4.257   9.334   5.622  1.1074  0.1078 -1.7779
 1222SOL     OW15319   6.491   5.468   7.834  0.1742  0.0264 -0.5262
 1222SOL    HW115320   6.538   5.461   7.922  2.4119  0.7462 -1.5993
 1222SOL    HW215321   6.472   5.376   7.799  2.0661 -0.3401 -0.6811
 1223SOL     OW15322   5.474   2.311   4.190  0.0302 -0.0695 -0.0279
 1223SOL    HW115323   5.521   2.263   4.264 -0.7967  0.5417  0.9169
 1223SOL    HW215324   5.491   2.409   4.197 -2.6432  0.3687  1.3364
 1224SOL     OW15325   2.806   9.040   5.534 -0.0106  0.3354  0.0596
 1224SOL    HW115326   2.877   9.023   5.603  0.5682  1.3698 -0.2694
 1224SOL    HW215327   2.749   9.116   5.563 -1.3202 -0.8068  0.5567
 1225SOL     OW15328   8.488   0.685   1.895 -0.4364  0.1307 -0.0384
 1225SOL    HW115329   8.552   0.759   1.916 -1.5380  1.4686 -1.2967
 1225SOL    HW215330   8.431   0.667   1.975  0.5483 -0.1032  0.6231
 1226SOL     OW15331   4.118   4.081   1.204  0.6162  0.5376 -0.7011
 1226SOL    HW115332   4.035   4.049   1.158 -0.6288  0.2291  1.6487
 1226SOL    HW215333   4.194   4.020   1.181 -0.9216 -2.1217  0.8783
 1227SOL     OW15334   9.144   3.283   0.413  0.2232  0.5699  0.4952
 1227SOL    HW115335   9.142   3.379   0.384 -1.0088 -0.1768 -2.0718
 1227SOL    HW215336   9.123   3.224   0.334 -0.8437 -1.7253  2.4305
 1228SOL     OW15337   7.172   9.772   3.511  0.0782  0.1244  0.4428
 1228SOL    HW115338   7.122   9.763   3.425 -0.4006  0.2687  0.7044
 1228SOL    HW215339   7.182   9.869   3.534  0.7772  0.1089  0.2179
 1229SOL     OW15340   9.274   5.737   2.282 -0.2226  0.0343  0.3670
 1229SOL    HW115341   9.175   5.732   2.274 -0.0515 -0.9674 -1.3741
 1229SOL    HW215342   9.312   5.780   2.200  0.7722  0.6527  1.1404
 1230SOL     OW15343   4.779   1.406   6.760 -0.8449 -0.0041  0.2237
 1230SOL    HW115344   4.759   1.454   6.674 -0.4196  0.5174  0.4118
 1230SOL    HW215345   4.695   1.367   6.797 -1.4210  1.6831  0.7182
 1231SOL     OW15346   7.585   5.765   5.246  0.0975  0.3624 -0.0430
 1231SOL    HW115347   7.658   5.774   5.314  1.1091 -2.1854 -0.7546
 1231SOL    HW215348   7.511   5.827   5.270  0.0852 -0.9922  3.8752
 1232SOL     OW15349   0.442   7.557   3.151 -0.5794  0.7305 -0.0449
 1232SOL    HW115350   0.459   7.656   3.148  1.1471  0.5239  1.9715
 1232SOL    HW215351   0.464   7.517   3.062  1.2648  1.7801 -0.0848
 1233SOL     OW15352   0.484   3.987   3.548  0.4877  0.7036 -0.5756
 1233SOL    HW115353   0.550   4.042   3.498  1.6205  2.3662  2.5877
 1233SOL    HW215354   0.418   4.046   3.594 -0.4405 -0.7376  0.0014
 1234SOL     OW15355   3.506   5.690   7.771 -0.6906 -0.3020 -0.3127
 1234SOL    HW115356   3.567   5.612   7.784 -1.1449 -0.4627  0.9576
 1234SOL    HW215357   3.421   5.674   7.822 -2.7411 -1.1186 -3.8270
 1235SOL     OW15358   3.046   1.894   3.243 -0.1912 -0.5572  0.1896
 1235SOL    HW115359   2.984   1.827   3.202 -0.6491  0.2996 -0.5458
 1235SOL    HW215360   2.998   1.981   3.253  1.5057  0.7233 -2.3534
 1236SOL     OW15361   3.500   8.959   3.001 -0.2441 -0.3985  0.1930
 1236SOL    HW115362   3.518   8.950   3.099  1.6780  1.3036  0.0419
 1236SOL    HW215363   3.435   9.034   2.986 -0.3686 -0.5128  0.1650
 1237SOL     OW15364   0.498   2.931   6.659 -0.1945  0.6736  0.2506
 1237SOL    HW115365   0.434   2.863   6.625  1.1554 -0.5603  0.1000
 1237SOL    HW215366   0.578   2.884   6.698 -0.1486  2.1297  1.9541
 1238SOL     OW15367   7.663   4.142   0.490 -0.3576 -0.6461  0.8559
 1238SOL    HW115368   7.564   4.134   0.503 -0.3110 -0.1488  1.5077
 1238SOL    HW215369   7.706   4.174   0.575  0.1121  1.2570 -0.0755
 1239SOL     OW15370   0.895   5.456   7.897  0.4903 -0.4376 -0.2049
 1239SOL    HW115371   0.915   5.554   7.899  1.4817 -0.6362 -0.2673
 1239SOL    HW215372   0.897   5.420   7.990  1.0715 -0.5882 -0.2768
 1240SOL     OW15373   1.597   5.551   7.925 -0.0336  0.5439  0.2107
 1240SOL    HW115374   1.565   5.534   8.018 -0.3261 -0.2009 -0.0161
 1240SOL    HW215375   1.646   5.471   7.891  3.4854  2.2306  1.0973
 1241SOL     OW15376   7.873   4.882   7.497  0.5181  0.0637  0.1670
 1241SOL    HW115377   7.921   4.924   7.574  0.9561 -0.2230  0.0521
 1241SOL    HW215378   7.784   4.926   7.485  0.9620  0.9297  0.0689
 1242SOL     OW15379   0.649   9.812   0.858  0.4170 -0.2085 -0.5711
 1242SOL    HW115380   0.659   9.910   0.842  1.6703 -0.0121  1.2660
 1242SOL    HW215381   0.735   9.766   0.835  0.8033 -0.4763  1.3509
 1243SOL     OW15382   5.760   9.296   5.829 -0.0660  0.6017  0.1230
 1243SOL    HW115383   5.837   9.311   5.768  0.2420 -0.8332  0.1499
 1243SOL    HW215384   5.677   9.335   5.789 -0.3800 -2.5330 -2.4412
 1244SOL     OW15385   9.989   6.257   0.003 -0.0988 -0.5212 -0.1400
 1244SOL    HW115386   9.980   6.357   0.002  2.2045 -0.2705 -0.4866
 1244SOL    HW215387   9.901   6.215  -0.016 -1.2432  1.4354  0.5994
 1245SOL     OW15388   3.465   0.617   0.427 -0.7539 -0.0672  0.1567
 1245SOL    HW115389   3.441   0.554   0.354 -0.2086 -1.7522  1.3953
 1245SOL    HW215390   3.563   0.635   0.424 -1.1936  2.2119 -1.3308
 1246SOL     OW15391   6.844   6.374   6.525  0.1394 -0.2041  0.2904
 1246SOL    HW115392   6.779   6.306   6.557  3.1365 -1.6230  3.6564
 1246SOL    HW215393   6.882   6.345   6.437 -1.6969 -0.7276 -0.3510
 1247SOL     OW15394   8.919   8.037   3.595  0.4700 -0.9072  0.3423
 1247SOL    HW115395   8.939   8.131   3.622  0.9999 -1.5248  2.1211
 1247SOL    HW215396   8.820   8.026   3.585  0.4843  0.1863 -1.2220
 1248SOL     OW15397   3.958   3.118   1.830  0.0421 -0.8686 -0.3546
 1248SOL    HW115398   3.942   3.210   1.795  1.2537 -0.2217  0.7186
 1248SOL    HW215399   3.957   3.052   1.755  0.0903  0.1500 -1.2542
 1249SOL     OW15400   8.952   3.502   2.023 -0.3295 -0.8188  0.4441
 1249SOL    HW115401   9.003   3.435   1.970  0.0747 -0.3726  0.2613
 1249SOL    HW215402   8.978   3.594   1.993 -1.1406 -0.5897  0.4390
 1250SOL     OW15403   1.058   7.477   7.526 -0.0309 -0.0091  0.3855
 1250SOL    HW115404   1.128   7.424   7.574  0.1968 -0.1004 -0.0457
 1250SOL    HW215405   1.093   7.569   7.507 -0.5287  0.3917  1.3866
 1251SOL     OW15406   9.763   2.575   4.995  0.0010 -0.1606  0.0468
 1251SOL    HW115407   9.684   2.512   4.995  1.2460 -1.7607 -0.5535
 1251SOL    HW215408   9.841   2.530   4.951  1.3191  1.3286  0.8234
 1252SOL     OW15409   8.989   1.430   6.662  0.1211  0.3275 -0.2768
 1252SOL    HW115410   9.052   1.507   6.677 -0.2958  0.5931  0.1308
 1252SOL    HW215411   8.964   1.425   6.566 -0.3738  1.1080 -0.1912
 1253SOL     OW15412   9.640   2.544   2.342 -0.1234 -0.0784  0.4318
 1253SOL    HW115413   9.647   2.476   2.269  0.8382 -0.1658  0.6006
 1253SOL    HW215414   9.623   2.634   2.302 -0.1208 -0.2101  0.1321
 1254SOL     OW15415   7.135   9.978   1.683  0.1778  0.1376  0.1810
 1254SOL    HW115416   7.064   9.972   1.754  0.7857  2.7363  1.0642
 1254SOL    HW215417   7.155  10.074   1.665  3.6158 -0.5591  0.0486
 1255SOL     OW15418   8.174   8.403   5.813 -0.0168 -0.1318 -0.9741
 1255SOL    HW115419   8.109   8.479   5.805  0.4426  0.6614  2.1652
 1255SOL    HW215420   8.267   8.436   5.800  0.0650 -0.4382 -1.1708
 1256SOL     OW15421   2.545   2.187   6.900 -0.5233 -0.9647 -0.0949
 1256SOL    HW115422   2.596   2.187   6.814  0.0627 -0.3018  0.2483
 1256SOL    HW215423   2.496   2.273   6.910  1.7057  0.1799  1.5664
 1257SOL     OW15424   7.472   8.977   5.956 -0.4534 -0.1210  0.4260
 1257SOL    HW115425   7.417   8.908   6.003 -0.0286 -1.0137 -0.3591
 1257SOL    HW215426   7.555   8.995   6.009 -1.2394  0.8544  1.3553
 1258SOL     OW15427   1.799   3.062   7.326  0.1016 -0.3630  0.2807
 1258SOL    HW115428   1.821   3.030   7.419  0.6385  0.1465  0.3279
 1258SOL    HW215429   1.702   3.044   7.307 -0.1570  0.0634  1.1589
 1259SOL     OW15430   4.699   3.296   4.738 -0.6334 -0.1251 -0.4811
 1259SOL    HW115431   4.669   3.371   4.797  0.7833  1.2808 -1.5163
 1259SOL    HW215432   4.619   3.247   4.703 -1.6217  1.7354 -0.8597
 1260SOL     OW15433   0.250   8.210   1.802 -0.2436 -0.6284  0.0760
 1260SOL    HW115434   0.256   8.210   1.702 -0.1847  1.2285  0.0501
 1260SOL    HW215435   0.330   8.258   1.840  0.1362 -2.0016  1.0612
 1261SOL     OW15436   4.893   1.499   0.837  0.6230  0.1909  0.0017
 1261SOL    HW115437   4.969   1.492   0.771 -0.0875  3.0910 -1.2096
 1261SOL    HW215438   4.923   1.553   0.915 -0.2171  1.4637 -0.5458
 1262SOL     OW15439   2.132   4.332   6.086 -0.4413 -0.2690 -0.5315
 1262SOL    HW115440   2.134   4.285   6.174  3.3020  0.7850  0.0175
 1262SOL    HW215441   2.119   4.266   6.013  0.0514 -1.5937  0.5541
 1263SOL     OW15442   7.146   6.560   7.270 -0.3933 -0.2255  0.4898
 1263SOL    HW115443   7.069   6.517   7.223 -1.0907  0.8214  0.6306
 1263SOL    HW215444   7.146   6.533   7.366 -1.9480  1.4952  1.0190
 1264SOL     OW15445   4.468   8.550   5.042  0.3039 -0.3405  0.4795
 1264SOL    HW115446   4.383   8.498   5.037  1.1618 -1.9137  1.9236
 1264SOL    HW215447   4.532   8.504   5.103  0.9595  2.5967  2.1163
 1265SOL     OW15448   8.527   7.884   3.114 -0.6751  0.2524 -0.0837
 1265SOL    HW115449   8.565   7.891   3.206 -1.0491  2.9462 -0.0949
 1265SOL    HW215450   8.428   7.867   3.120 -0.5623 -0.4107 -0.0122
 1266SOL     OW15451   9.736   3.178   5.097 -0.0238 -0.2381 -0.7719
 1266SOL    HW115452   9.733   3.193   5.196  0.0031  2.8239 -1.1849
 1266SOL    HW215453   9.655   3.128   5.069 -0.5510 -0.2210  0.6560
 1267SOL     OW15454   9.491   3.676   2.645  0.3710 -0.3357 -0.7073
 1267SOL    HW115455   9.437   3.605   2.599  0.1435 -0.8263  0.3124
 1267SOL    HW215456   9.586   3.644   2.655  0.6895  0.2251 -1.8288
 1268SOL     OW15457   7.892   5.488   2.123 -0.2588  0.2341 -0.0268
 1268SOL    HW115458   7.980   5.491   2.076  0.0081  2.6667  0.5818
 1268SOL    HW215459   7.846   5.402   2.102  1.8395 -0.6467 -1.1113
 1269SOL     OW15460   8.262   6.493   2.614 -0.0466  0.1945 -0.7650
 1269SOL    HW115461   8.321   6.573   2.625  2.0121 -1.3566 -0.1798
 1269SOL    HW215462   8.233   6.460   2.704  1.0262 -1.0648 -0.8520
 1270SOL     OW15463   1.635   0.894   6.570  0.3205 -0.4313  0.1483
 1270SOL    HW115464   1.602   0.839   6.646  0.6638 -1.3580 -0.3670
 1270SOL    HW215465   1.726   0.928   6.591 -0.6506  1.5593  1.2810
 1271SOL     OW15466   0.392   7.989   4.769 -0.0778  0.0412 -0.3658
 1271SOL    HW115467   0.316   7.974   4.832  0.1981  0.6026  0.1023
 1271SOL    HW215468   0.358   8.031   4.685 -0.3220  0.0665 -0.2543
 1272SOL     OW15469   9.589   7.172   0.184 -0.3260 -0.5458  0.2136
 1272SOL    HW115470   9.510   7.191   0.125 -0.3650 -0.4114  0.3078
 1272SOL    HW215471   9.602   7.073   0.191 -0.7070 -0.5768  0.4874
 1273SOL     OW15472   5.334   4.670   0.315 -0.3734  0.4001 -0.6667
 1273SOL    HW115473   5.331   4.761   0.357 -0.5109 -0.2603  0.8020
 1273SOL    HW215474   5.241   4.641   0.291 -0.4637  0.1625 -0.0432
 1274SOL     OW15475   4.016   0.159   2.716 -0.0807 -0.3389  0.0405
 1274SOL    HW115476   4.105   0.203   2.709 -0.1449 -0.2095  0.0338
 1274SOL    HW215477   3.974   0.183   2.803 -0.2257 -0.1772 -0.0723
 1275SOL     OW15478   7.223   3.730   3.592 -0.1554 -0.1078  0.2403
 1275SOL    HW115479   7.194   3.691   3.505 -0.6868  1.1646 -0.1654
 1275SOL    HW215480   7.251   3.657   3.654  2.6795 -0.9204 -1.8737
 1276SOL     OW15481   4.754   2.610   3.745 -0.3123  0.3259  0.0224
 1276SOL    HW115482   4.825   2.680   3.739  1.5692 -1.4899  0.2638
 1276SOL    HW215483   4.709   2.599   3.656 -0.8288  2.0104  0.0627
 1277SOL     OW15484   8.476   9.352   7.310  0.6919 -0.0451  0.2503
 1277SOL    HW115485   8.440   9.326   7.400 -0.2426 -2.1611 -0.6911
 1277SOL    HW215486   8.520   9.273   7.268 -0.5199  0.4081 -1.9266
 1278SOL     OW15487   3.554   2.064   7.267 -0.1306 -0.0256 -0.1721
 1278SOL    HW115488   3.494   2.001   7.218 -0.1749 -0.8770  0.9463
 1278SOL    HW215489   3.608   2.013   7.334  1.3867  0.8338 -0.7260
 1279SOL     OW15490   4.517   5.188   3.507 -0.0594 -0.1782 -0.2791
 1279SOL    HW115491   4.545   5.147   3.420 -0.5116  2.0841 -1.5256
 1279SOL    HW215492   4.584   5.255   3.536 -0.2460 -0.4427  0.7963
 1280SOL     OW15493   5.222   1.292   7.029  0.1440  0.5859 -0.7148
 1280SOL    HW115494   5.129   1.316   7.000 -0.2326 -0.2205 -0.2231
 1280SOL    HW215495   5.221   1.267   7.126  0.5310 -1.1849 -1.1515
 1281SOL     OW15496   0.346   5.318   3.607 -0.1192  0.4602  0.1623
 1281SOL    HW115497   0.256   5.361   3.607 -0.2951  0.1082 -0.9138
 1281SOL    HW215498   0.417   5.388   3.599 -0.4487  0.5216 -2.9777
 1282SOL     OW15499   1.730   5.401   1.734 -0.1037 -0.0698  0.1129
 1282SOL    HW115500   1.778   5.400   1.647 -1.7914 -1.7583 -0.8293
 1282SOL    HW215501   1.784   5.451   1.802  2.7503 -1.5016 -1.0291
 1283SOL     OW15502   8.237   6.997   5.423  0.0805 -0.3507 -0.2907
 1283SOL    HW115503   8.223   7.090   5.457  0.5654 -0.1837 -0.5404
 1283SOL    HW215504   8.171   6.936   5.465 -1.6720  0.4775 -1.7572
 1284SOL     OW15505   0.145   6.146   6.686 -0.4217 -0.0649 -0.0574
 1284SOL    HW115506   0.063   6.200   6.667 -0.3350  0.3384  0.6788
 1284SOL    HW215507   0.219   6.206   6.716  0.8116 -0.1885 -2.7379
 1285SOL     OW15508   1.426   7.425   0.902  0.2832  0.2680  0.1321
 1285SOL    HW115509   1.416   7.326   0.911  0.7895  0.0147 -1.8111
 1285SOL    HW215510   1.389   7.454   0.814  0.7636  1.7120  0.3984
 1286SOL     OW15511   4.779   2.603   1.231 -0.2731  0.1957 -0.1350
 1286SOL    HW115512   4.846   2.528   1.228  0.1636  0.6248 -2.3317
 1286SOL    HW215513   4.699   2.573   1.283  2.0938  0.1270  3.6803
 1287SOL     OW15514   4.441   8.532   3.670 -0.4649 -0.6137 -0.0275
 1287SOL    HW115515   4.364   8.491   3.620 -0.2391 -1.5496  0.3930
 1287SOL    HW215516   4.439   8.501   3.765  0.3634 -0.5432  0.0125
 1288SOL     OW15517   1.911   0.587   0.518  0.1414 -0.3805 -0.2508
 1288SOL    HW115518   1.924   0.665   0.579  0.9359  3.0585 -4.5808
 1288SOL    HW215519   1.819   0.551   0.531  0.1955  0.4081  2.7444
 1289SOL     OW15520   2.547   9.426   7.094 -0.4388  0.0122  1.3848
 1289SOL    HW115521   2.600   9.499   7.137  0.1389  1.2357 -1.2997
 1289SOL    HW215522   2.460   9.463   7.059  0.3846 -0.2569 -1.0652
 1290SOL     OW15523   4.805   3.997   5.994  0.2856  0.3251  0.0273
 1290SOL    HW115524   4.761   3.918   6.037  0.0793  0.6231  0.3597
 1290SOL    HW215525   4.862   3.965   5.917 -1.3405  0.0441 -1.0733
 1291SOL     OW15526   3.643   0.060   6.696  0.2834  0.5062 -0.1599
 1291SOL    HW115527   3.654   0.154   6.728  2.2423  0.3413 -0.2808
 1291SOL    HW215528   3.726   0.008   6.716 -1.0346 -1.3929  0.5087
 1292SOL     OW15529   4.272   3.877   6.982 -0.3984 -0.6646 -0.3832
 1292SOL    HW115530   4.258   3.803   7.048  0.2517 -1.5175 -1.1938
 1292SOL    HW215531   4.306   3.839   6.896 -0.8296  0.4882 -1.0734
 1293SOL     OW15532   3.428   1.846   5.641  0.0848  0.4245  0.0211
 1293SOL    HW115533   3.382   1.914   5.583  1.5536  1.7371  0.3628
 1293SOL    HW215534   3.389   1.849   5.733  0.2549  0.9298  0.0785
 1294SOL     OW15535   9.469   4.620   3.299  0.2476 -0.2435 -0.6980
 1294SOL    HW115536   9.385   4.671   3.319  0.3862 -0.3053  0.0534
 1294SOL    HW215537   9.452   4.523   3.313  0.5119 -0.2341 -0.3160
 1295SOL     OW15538   1.320   9.248   1.716  0.5388  0.5832 -0.3662
 1295SOL    HW115539   1.351   9.320   1.778 -0.3970  0.4765  0.2427
 1295SOL    HW215540   1.358   9.264   1.625  3.7315 -0.5033  0.7368
 1296SOL     OW15541   0.706   5.482   5.850  0.2185  0.0109  0.4219
 1296SOL    HW115542   0.780   5.421   5.876  0.4399  0.7016  1.4321
 1296SOL    HW215543   0.619   5.449   5.888  0.0349 -0.6607 -0.5534
 1297SOL     OW15544   1.187   8.743   3.926  0.1653 -0.0141 -0.2288
 1297SOL    HW115545   1.138   8.743   3.839 -0.4064 -0.7870  0.0843
 1297SOL    HW215546   1.284   8.727   3.910 -0.0557 -0.9438 -0.6687
 1298SOL     OW15547   4.260   9.204   0.376  0.4687  0.2064 -0.1580
 1298SOL    HW115548   4.203   9.145   0.433  0.5065 -2.2824 -2.5912
 1298SOL    HW215549   4.244   9.300   0.401 -2.7687 -0.5786  1.0236
 1299SOL     OW15550   4.366   4.981   0.641 -0.7146  0.2524  0.5497
 1299SOL    HW115551   4.403   5.069   0.611  0.1279 -0.0838  0.5877
 1299SOL    HW215552   4.271   4.972   0.609 -0.9999  1.4182  1.0581
 1300SOL     OW15553   3.167   4.164   4.038 -0.1664 -0.1289  0.0851
 1300SOL    HW115554   3.201   4.158   4.132  0.3262 -1.1937 -0.1497
 1300SOL    HW215555   3.074   4.201   4.039  0.0062  0.3011  0.9497
 1301SOL     OW15556   3.936   9.175   0.176 -0.5187  0.0187 -0.5903
 1301SOL    HW115557   3.843   9.204   0.154 -0.3144  1.2191  0.0462
 1301SOL    HW215558   3.951   9.183   0.275  0.2463 -0.1943 -0.6840
 1302SOL     OW15559   2.571   2.002   1.864 -0.2337 -0.2583  0.1572
 1302SOL    HW115560   2.539   1.907   1.864  2.9392 -1.3979 -0.6700
 1302SOL    HW215561   2.662   2.006   1.905 -0.8847  2.6775  1.4390
 1303SOL     OW15562   2.808   0.637   4.119  0.3012  0.2627 -0.4370
 1303SOL    HW115563   2.816   0.669   4.024  0.6684 -0.1780 -0.5596
 1303SOL    HW215564   2.712   0.637   4.145  0.1958  0.3915 -0.8123
 1304SOL     OW15565   4.239   8.773   0.625  0.4859  0.2930  0.2859
 1304SOL    HW115566   4.217   8.726   0.710  0.7902 -0.2736  0.0582
 1304SOL    HW215567   4.273   8.706   0.558 -1.0497  0.4886 -0.7387
 1305SOL     OW15568   7.910   1.012   3.585 -0.2562  0.0673 -0.0844
 1305SOL    HW115569   7.832   1.072   3.566  1.0073  1.2556 -1.7187
 1305SOL    HW215570   7.995   1.063   3.570  0.8504 -2.0702 -1.3297
 1306SOL     OW15571   9.645   5.125   0.371 -0.2372  0.1900 -0.1963
 1306SOL    HW115572   9.744   5.112   0.362 -0.0784  1.0182  0.3151
 1306SOL    HW215573   9.623   5.222   0.361 -0.8393  0.1950  1.1382
 1307SOL     OW15574   3.217   4.718   6.392 -0.0934 -0.3466  0.1392
 1307SOL    HW115575   3.284   4.644   6.402 -0.0099 -0.8705 -3.6695
 1307SOL    HW215576   3.137   4.684   6.343 -1.4766  1.3095  1.1843
 1308SOL     OW15577   7.388   5.407   7.132 -0.8206 -0.1831 -0.0727
 1308SOL    HW115578   7.389   5.310   7.107 -1.8716  0.2973 -2.0967
 1308SOL    HW215579   7.346   5.460   7.058 -0.2410  1.8248  1.0032
 1309SOL     OW15580   8.416   7.255   0.198  0.4099 -0.5334  0.7750
 1309SOL    HW115581   8.477   7.227   0.272 -0.6219 -0.7133  1.5835
 1309SOL    HW215582   8.369   7.174   0.162  1.1448 -0.4837 -0.2934
 1310SOL     OW15583   1.928   1.585   5.319 -0.0278  0.1927  0.2211
 1310SOL    HW115584   2.014   1.541   5.342  0.0569 -0.6528 -1.5829
 1310SOL    HW215585   1.941   1.684   5.313  0.2610  0.2950  2.2403
 1311SOL     OW15586   7.444   1.152   6.582  0.1470 -0.0194  0.0034
 1311SOL    HW115587   7.463   1.214   6.506  1.1040  0.6825  0.7937
 1311SOL    HW215588   7.499   1.069   6.572 -1.2925 -0.8589 -1.1682
 1312SOL     OW15589   7.110   1.379   4.224 -0.0085 -0.0149 -0.6231
 1312SOL    HW115590   7.031   1.318   4.229  0.2890 -0.5569 -2.3840
 1312SOL    HW215591   7.088   1.457   4.165 -0.2418  1.3903  1.2760
 1313SOL     OW15592   8.808   6.740   2.801  0.2953  0.2106 -0.8726
 1313SOL    HW115593   8.859   6.826   2.806  0.4328  0.1570 -1.3513
 1313SOL    HW215594   8.711   6.761   2.787  0.0509  0.3369  0.8956
 1314SOL     OW15595   6.885   9.911   1.789 -0.2191 -0.0966  0.0407
 1314SOL    HW115596   6.887   9.813   1.809  2.2820 -0.1157 -0.0999
 1314SOL    HW215597   6.848   9.960   1.868 -1.7585 -1.1683 -0.0003
 1315SOL     OW15598   2.443   4.735   6.406 -0.6790  0.4427 -0.4766
 1315SOL    HW115599   2.458   4.762   6.311  0.1932 -0.8803 -0.7247
 1315SOL    HW215600   2.407   4.642   6.409 -1.5616  0.8048  0.4600
 1316SOL     OW15601   1.572   4.063   3.151 -0.4157 -0.3912  0.0634
 1316SOL    HW115602   1.553   4.137   3.216 -1.4192 -0.7451  0.1764
 1316SOL    HW215603   1.640   4.002   3.190 -1.4087 -0.9032  1.0184
 1317SOL     OW15604   9.716   3.152   4.292 -0.6896  0.0709 -0.3805
 1317SOL    HW115605   9.763   3.218   4.233  1.0032  0.8793  1.7880
 1317SOL    HW215606   9.660   3.202   4.358 -1.8019 -0.7981 -0.6516
 1318SOL     OW15607   6.590   0.673   3.922 -0.1484 -0.4053  0.2049
 1318SOL    HW115608   6.624   0.671   4.016 -1.2495  1.1185  0.6515
 1318SOL    HW215609   6.509   0.615   3.915  0.2823 -0.9967  0.0393
 1319SOL     OW15610   8.905   8.774   5.725  0.0252  0.1305  0.0155
 1319SOL    HW115611   8.896   8.872   5.742 -1.4647  0.1364 -0.7285
 1319SOL    HW215612   8.826   8.742   5.674  2.4773 -0.6461 -3.5330
 1320SOL     OW15613   8.846   1.126   6.283 -0.0987 -0.0339 -0.0474
 1320SOL    HW115614   8.747   1.117   6.273 -0.0629 -0.9840  0.3943
 1320SOL    HW215615   8.878   1.065   6.356  0.5348  1.8164  1.2446
 1321SOL     OW15616   0.179   3.081   6.095 -0.3314 -0.0771  0.7412
 1321SOL    HW115617   0.263   3.050   6.051 -0.9555  0.1830 -0.6657
 1321SOL    HW215618   0.148   3.012   6.160  0.2605 -0.7653  0.3023
 1322SOL     OW15619   0.383   9.081   6.915 -0.3901 -0.4018  0.0871
 1322SOL    HW115620   0.351   9.171   6.883 -0.2347  0.0689  1.2123
 1322SOL    HW215621   0.463   9.054   6.862 -1.0095 -0.3343 -0.9171
 1323SOL     OW15622   2.461   6.046   7.629 -0.5352  0.0151  0.0895
 1323SOL    HW115623   2.544   6.077   7.674 -0.6019  1.4698 -0.7470
 1323SOL    HW215624   2.385   6.047   7.695 -0.1459 -0.1535  0.5430
 1324SOL     OW15625   9.318   6.351   5.733 -0.2239 -0.3163 -0.3431
 1324SOL    HW115626   9.305   6.420   5.662  0.1131  0.0342 -0.0651
 1324SOL    HW215627   9.357   6.268   5.692  2.0688  0.6509 -0.2208
 1325SOL     OW15628   5.862   8.804   5.520 -0.1743 -0.3013  0.2324
 1325SOL    HW115629   5.849   8.836   5.426 -1.7929 -0.9424  0.2345
 1325SOL    HW215630   5.777   8.815   5.571  1.1204  1.4417  2.0569
 1326SOL     OW15631   9.768   0.432   1.574 -0.4514  0.2340 -0.0290
 1326SOL    HW115632   9.810   0.343   1.558  2.2837  1.6903 -1.2340
 1326SOL    HW215633   9.698   0.449   1.504  1.9602  0.7516 -2.4179
 1327SOL     OW15634   8.064   1.460   7.011 -0.2504 -0.5506 -0.5789
 1327SOL    HW115635   7.994   1.484   6.944 -0.4732 -1.4739 -0.6867
 1327SOL    HW215636   8.121   1.387   6.974  1.5900  1.0716 -1.0082
 1328SOL     OW15637   0.489   3.445   0.997 -0.0269  0.0081 -0.2310
 1328SOL    HW115638   0.436   3.518   1.040  3.0518  1.6604  0.8940
 1328SOL    HW215639   0.522   3.382   1.068  1.1109  0.0867 -0.6876
 1329SOL     OW15640   0.098   1.654   6.917  0.2346  0.1415 -0.6495
 1329SOL    HW115641   0.049   1.659   7.003  0.6427  1.1558 -0.4752
 1329SOL    HW215642   0.045   1.600   6.851 -1.4828  1.8735 -0.7204
 1330SOL     OW15643   2.039   5.111   2.645  0.7794  0.3500  0.1775
 1330SOL    HW115644   2.122   5.120   2.701  0.0274 -0.7669  1.4930
 1330SOL    HW215645   2.062   5.063   2.560  1.8923  1.9210 -0.4506
 1331SOL     OW15646   0.070   2.771   1.016  0.2769  0.1542  0.7396
 1331SOL    HW115647   0.109   2.684   1.048  0.7353 -0.6312 -1.8784
 1331SOL    HW215648   0.142   2.841   1.015  1.2985 -0.8563 -2.3996
 1332SOL     OW15649   3.886   7.890   3.086  0.1273  0.0216  0.0157
 1332SOL    HW115650   3.859   7.961   3.021  0.2418 -0.0850 -0.1509
 1332SOL    HW215651   3.985   7.877   3.081 -0.0273 -0.9665 -0.8084
 1333SOL     OW15652   2.003   4.647   2.858  0.1323 -0.3517  0.1641
 1333SOL    HW115653   1.927   4.703   2.825  0.3892 -1.0339 -1.6434
 1333SOL    HW215654   1.986   4.551   2.836  1.0437 -0.6251  0.6262
 1334SOL     OW15655   4.715   4.667   7.716  0.0481  0.2433 -0.3440
 1334SOL    HW115656   4.766   4.583   7.733  0.1928  0.4197  0.1127
 1334SOL    HW215657   4.779   4.740   7.693  0.2126  0.9677  2.2066
 1335SOL     OW15658   7.348   4.431   5.686 -0.1877 -0.2005 -0.4648
 1335SOL    HW115659   7.379   4.504   5.747 -1.1748  0.4467 -0.7198
 1335SOL    HW215660   7.335   4.347   5.739  1.0526 -0.2281 -0.1896
 1336SOL     OW15661   0.212   0.597   6.460  0.3051  0.2823  0.0657
 1336SOL    HW115662   0.161   0.569   6.541 -1.0494 -0.6069 -1.0842
 1336SOL    HW215663   0.309   0.572   6.473 -0.3318 -2.2359  0.3428
 1337SOL     OW15664   8.484   1.525   6.186  0.0829  0.1689  0.4626
 1337SOL    HW115665   8.479   1.515   6.286 -1.3639  0.9203  0.4897
 1337SOL    HW215666   8.430   1.452   6.143  0.8100 -0.2290  0.2223
 1338SOL     OW15667   4.918   9.892   3.522 -0.1421 -0.5052  0.1843
 1338SOL    HW115668   4.850   9.858   3.456 -0.7295 -0.0054  0.5287
 1338SOL    HW215669   5.007   9.901   3.476  0.0128 -2.4471  0.0790
 1339SOL     OW15670   3.252   2.428   5.497  0.2999  0.0919 -0.0399
 1339SOL    HW115671   3.178   2.478   5.543  1.3512  1.3799  0.2959
 1339SOL    HW215672   3.337   2.480   5.506  1.0775 -0.9784 -1.1205
 1340SOL     OW15673   7.916   2.403   2.964 -0.1874  0.3687 -0.2704
 1340SOL    HW115674   8.012   2.419   2.940 -0.1060 -0.1349 -0.2958
 1340SOL    HW215675   7.857   2.454   2.902  0.0422 -0.2172 -0.9744
 1341SOL     OW15676   2.832   3.165   4.920  0.3938  0.6973 -0.5831
 1341SOL    HW115677   2.814   3.066   4.928 -2.0338  1.1038 -0.4920
 1341SOL    HW215678   2.904   3.191   4.984 -1.2696 -0.4703  1.8461
 1342SOL     OW15679   1.064   9.947   5.491  0.0603  0.0536 -0.2361
 1342SOL    HW115680   1.132  10.012   5.523 -1.0766  0.4929  1.3272
 1342SOL    HW215681   1.035   9.887   5.566 -1.1988 -0.1910 -0.8907
 1343SOL     OW15682   1.070   9.407   7.342 -0.2267 -0.1665  0.4022
 1343SOL    HW115683   1.156   9.371   7.305 -0.6429 -1.0796  0.3190
 1343SOL    HW215684   1.088   9.449   7.431  0.4348  0.2826  0.0609
 1344SOL     OW15685   0.402   1.063   3.545 -0.4568  0.1931  0.1159
 1344SOL    HW115686   0.412   0.966   3.523 -1.0967 -0.0327  0.7797
 1344SOL    HW215687   0.492   1.103   3.559 -0.0879  0.1664 -2.1012
 1345SOL     OW15688   7.208   3.586   3.350  0.3219  0.1158  0.0823
 1345SOL    HW115689   7.147   3.587   3.271  0.1038 -0.2023  0.2453
 1345SOL    HW215690   7.303   3.595   3.319  0.3247 -1.0840 -0.3034
 1346SOL     OW15691   8.210   5.923   4.350 -0.6485  0.2276  0.0603
 1346SOL    HW115692   8.278   5.854   4.375  0.4311  1.5102  0.7736
 1346SOL    HW215693   8.126   5.879   4.321 -0.1987 -1.3783  1.1429
 1347SOL     OW15694   9.150   9.322   1.926 -0.3384  0.1612  0.2054
 1347SOL    HW115695   9.229   9.347   1.981 -0.5989  1.0841  0.1759
 1347SOL    HW215696   9.136   9.391   1.854 -0.8227 -0.3000 -0.1505
 1348SOL     OW15697   3.871   3.169   0.187 -0.3089  0.1557  0.3054
 1348SOL    HW115698   3.798   3.221   0.142 -0.0200  0.7757  0.5495
 1348SOL    HW215699   3.876   3.078   0.147  0.8752  1.1507 -1.8880
 1349SOL     OW15700   4.263   4.537   7.001 -0.2774  0.2573 -0.3106
 1349SOL    HW115701   4.348   4.537   6.948 -0.1085 -0.0747 -0.0371
 1349SOL    HW215702   4.191   4.583   6.949 -0.0158  0.2465 -0.6785
 1350SOL     OW15703   0.650   0.282   8.054  0.5402 -0.2553 -0.2205
 1350SOL    HW115704   0.719   0.214   8.030  1.4348  0.8118 -0.6858
 1350SOL    HW215705   0.613   0.260   8.145  1.7460 -0.6336  0.1955
 1351SOL     OW15706   4.662   3.751   6.893  0.2409  0.0143 -0.5078
 1351SOL    HW115707   4.759   3.746   6.871  0.3825 -0.1186  0.1496
 1351SOL    HW215708   4.643   3.835   6.945 -0.0537  0.2081 -0.9221
 1352SOL     OW15709   2.894   7.492   3.348  0.0185  0.2856  0.4894
 1352SOL    HW115710   2.892   7.392   3.337  1.4993  0.3126 -0.2558
 1352SOL    HW215711   2.978   7.518   3.395  0.2094  1.2689 -0.3901
 1353SOL     OW15712   3.208   2.166   3.149  0.4758  0.3800 -0.4563
 1353SOL    HW115713   3.241   2.111   3.225  0.0644  0.6266 -0.0954
 1353SOL    HW215714   3.286   2.211   3.104  0.7890 -0.3471 -0.6413
 1354SOL     OW15715   3.424   2.469   2.597  0.4890  0.0248 -0.0527
 1354SOL    HW115716   3.367   2.419   2.532  0.7125  1.2949 -1.2409
 1354SOL    HW215717   3.373   2.545   2.636  0.5190 -0.4334  0.8851
 1355SOL     OW15718   8.732   6.668   8.005 -0.5608 -0.7573  0.0325
 1355SOL    HW115719   8.805   6.713   8.055 -1.6502  0.1105  0.8811
 1355SOL    HW215720   8.737   6.569   8.019  0.2189 -0.6654  0.3877
 1356SOL     OW15721   9.202   7.707   1.902 -0.2367  0.0817  0.0180
 1356SOL    HW115722   9.105   7.686   1.893  0.0945 -1.2399 -0.5810
 1356SOL    HW215723   9.252   7.624   1.929  0.6874  0.8129  0.6016
 1357SOL     OW15724   6.111   1.169   3.318 -0.0606 -0.1077 -0.1483
 1357SOL    HW115725   6.178   1.182   3.245 -0.9251  2.4152 -0.5204
 1357SOL    HW215726   6.137   1.223   3.398 -1.3080  0.3767 -0.0623
 1358SOL     OW15727   5.403   7.859   6.508 -0.2391 -0.5066  0.0510
 1358SOL    HW115728   5.362   7.909   6.584  0.8466 -1.0490  1.0079
 1358SOL    HW215729   5.340   7.858   6.431 -1.4560 -0.1478  1.0217
 1359SOL     OW15730   9.819   2.859   0.933  0.3416 -0.3655 -0.0416
 1359SOL    HW115731   9.914   2.833   0.953  1.0140  1.7184 -0.4094
 1359SOL    HW215732   9.774   2.886   1.018  0.3720 -0.4140 -0.0091
 1360SOL     OW15733   9.680   0.189   7.823 -0.3439 -0.1395  0.8859
 1360SOL    HW115734   9.660   0.104   7.775 -0.8763  0.0657  0.7365
 1360SOL    HW215735   9.779   0.197   7.838 -0.3419 -1.0130  1.3433
 1361SOL     OW15736   0.548   0.730   4.606 -0.4803 -0.0373  0.0341
 1361SOL    HW115737   0.470   0.687   4.560  0.2365  0.8727 -2.1191
 1361SOL    HW215738   0.626   0.667   4.606 -0.1818  0.3163 -0.9226
 1362SOL     OW15739   3.193   3.219   3.242 -0.6892 -0.2339 -0.4418
 1362SOL    HW115740   3.143   3.182   3.321  1.3926 -1.4681  0.3228
 1362SOL    HW215741   3.210   3.316   3.256  0.4123 -0.6235  1.0405
 1363SOL     OW15742   5.866   9.584   3.302 -0.0516 -0.0104 -0.3008
 1363SOL    HW115743   5.930   9.564   3.228  0.0714 -0.9328  0.0518
 1363SOL    HW215744   5.916   9.617   3.382  0.1478 -2.0012  0.4359
 1364SOL     OW15745   9.865   9.839   8.004 -0.3451 -0.1145 -0.7781
 1364SOL    HW115746   9.944   9.784   8.031 -0.4247  0.3372  0.4405
 1364SOL    HW215747   9.791   9.779   7.975  0.0532 -0.5890 -0.8158
 1365SOL     OW15748   3.848   5.755   0.532 -0.4061  0.0293 -0.2181
 1365SOL    HW115749   3.811   5.712   0.615  0.1923  0.4159  0.2539
 1365SOL    HW215750   3.862   5.685   0.462 -1.6823 -0.1765 -0.2781
 1366SOL     OW15751   3.129   1.701   1.084  0.5786 -0.1468  0.2592
 1366SOL    HW115752   3.172   1.613   1.104 -0.1083 -0.8798 -1.4603
 1366SOL    HW215753   3.165   1.770   1.147 -0.6901 -2.1329  3.3405
 1367SOL     OW15754   0.340   5.930   3.060  0.4975 -0.5752 -0.3248
 1367SOL    HW115755   0.275   5.938   2.985 -0.4637 -0.9636  0.4550
 1367SOL    HW215756   0.341   5.835   3.093  0.7665 -0.3644  0.2812
 1368SOL     OW15757   2.737   1.120   0.192  0.2486 -0.0480 -0.3706
 1368SOL    HW115758   2.781   1.047   0.140  0.8756 -0.7120  1.0432
 1368SOL    HW215759   2.792   1.203   0.185 -0.6483  0.3983 -2.2680
 1369SOL     OW15760   2.006   9.292   3.272  0.5848 -0.0213 -1.0733
 1369SOL    HW115761   1.933   9.328   3.213 -0.2343  0.9458  0.5225
 1369SOL    HW215762   2.080   9.359   3.278 -0.6778  1.1943  1.4182
 1370SOL     OW15763   8.277   0.470   4.578 -0.4232  0.2750  0.8446
 1370SOL    HW115764   8.342   0.522   4.521 -0.9262 -1.4095 -1.3167
 1370SOL    HW215765   8.324   0.437   4.660  0.3698  2.5566  1.3648
 1371SOL     OW15766   2.972   4.587   6.322  0.4375  0.4769 -0.0066
 1371SOL    HW115767   2.937   4.673   6.361  1.6532  0.2685  1.5920
 1371SOL    HW215768   2.980   4.519   6.395  1.6047 -0.3105 -0.8628
 1372SOL     OW15769   4.881   0.493   6.154 -0.4333 -0.4035 -0.7784
 1372SOL    HW115770   4.781   0.487   6.150 -0.5210  1.7064 -3.1205
 1372SOL    HW215771   4.908   0.535   6.240 -1.4681 -1.8740  0.3115
 1373SOL     OW15772   4.261   1.870   1.773  0.1548 -0.8387  0.5659
 1373SOL    HW115773   4.200   1.871   1.852  0.9205 -0.4861  1.1658
 1373SOL    HW215774   4.293   1.777   1.757 -0.2234 -0.9560  0.5046
 1374SOL     OW15775   3.123   3.429   0.374 -0.5723 -0.0329 -0.6361
 1374SOL    HW115776   3.040   3.389   0.411 -1.5160  0.0655 -2.5727
 1374SOL    HW215777   3.101   3.514   0.325  0.4585 -0.6728 -2.2509
 1375SOL     OW15778   7.889   9.946   1.550  0.2969  0.1643 -1.1323
 1375SOL    HW115779   7.889  10.045   1.564 -1.3881 -0.0315  0.4735
 1375SOL    HW215780   7.798   9.910   1.570  1.6109 -2.0731  1.0818
 1376SOL     OW15781   2.659   8.605   1.905 -0.7726 -0.6372  0.4771
 1376SOL    HW115782   2.577   8.579   1.955 -1.5996  0.4599 -0.3038
 1376SOL    HW215783   2.740   8.578   1.958 -1.6290 -0.3280  1.9626
 1377SOL     OW15784   0.338   2.531   5.523  0.3099 -0.0778 -0.5611
 1377SOL    HW115785   0.288   2.502   5.604  1.4854 -2.6440 -0.7111
 1377SOL    HW215786   0.421   2.476   5.513  1.9930  2.5187 -1.6100
 1378SOL     OW15787   9.587   0.349   3.219  0.0747 -0.1467 -0.4229
 1378SOL    HW115788   9.673   0.299   3.213 -1.2134 -2.4602  0.0427
 1378SOL    HW215789   9.510   0.286   3.212 -1.6196  1.8963 -0.9820
 1379SOL     OW15790   2.752   2.832   7.141  0.1499 -0.1719  0.1315
 1379SOL    HW115791   2.743   2.800   7.046 -0.4097  1.6401 -0.4507
 1379SOL    HW215792   2.697   2.775   7.201 -1.5080  0.2056 -0.9920
 1380SOL     OW15793   2.181   2.438   0.051 -0.0577  0.7650  0.1467
 1380SOL    HW115794   2.114   2.442   0.125 -0.0706  0.1425  0.1716
 1380SOL    HW215795   2.211   2.343   0.038  1.0478  1.0817  0.3424
 1381SOL     OW15796   0.617   7.876   0.345 -0.1413 -0.3503  0.1770
 1381SOL    HW115797   0.571   7.904   0.429 -1.0258 -0.6253 -0.2201
 1381SOL    HW215798   0.630   7.956   0.286  1.5949  0.0745  1.1020
 1382SOL     OW15799   5.013   1.425   5.422 -0.2417  0.1721 -0.0379
 1382SOL    HW115800   4.969   1.466   5.503 -0.1550  1.2368 -0.5174
 1382SOL    HW215801   5.097   1.379   5.450 -1.1613 -1.0566  0.7474
 1383SOL     OW15802   5.590   0.238   3.230  0.1732 -0.2450  0.1406
 1383SOL    HW115803   5.505   0.274   3.268  0.7538  1.5407 -0.1971
 1383SOL    HW215804   5.648   0.206   3.304 -0.4912 -0.7991  0.4291
 1384SOL     OW15805   4.632   9.968   2.813  0.2500 -0.1590 -0.3744
 1384SOL    HW115806   4.575   9.899   2.769  2.5555 -1.8279 -0.8961
 1384SOL    HW215807   4.647   9.941   2.909  0.3178  0.1376 -0.3033
 1385SOL     OW15808   5.865   2.483   3.964  0.4908  0.5525  0.8690
 1385SOL    HW115809   5.789   2.480   3.899 -0.4862  1.4374  1.9426
 1385SOL    HW215810   5.869   2.397   4.015 -0.3060  0.8261  1.3893
 1386SOL     OW15811   7.214   1.536   0.447  0.2293  0.0102  0.2618
 1386SOL    HW115812   7.277   1.597   0.495 -0.1980 -0.2734  1.1843
 1386SOL    HW215813   7.154   1.490   0.513 -0.9867  0.3133 -0.6098
 1387SOL     OW15814   5.175   5.839   2.379 -0.0218 -0.3254 -0.0319
 1387SOL    HW115815   5.205   5.763   2.437  0.8577 -1.1274 -1.5102
 1387SOL    HW215816   5.137   5.912   2.436  2.2378 -0.4493  1.6617
 1388SOL     OW15817   3.233   4.820   8.125  0.3045  0.1970  0.3108
 1388SOL    HW115818   3.188   4.733   8.144  0.2846 -0.2116 -1.4726
 1388SOL    HW215819   3.172   4.895   8.148 -0.6048 -0.3229 -0.3752
 1389SOL     OW15820   3.463   5.516   6.575 -0.6277  0.1004  0.2317
 1389SOL    HW115821   3.438   5.577   6.500 -0.9176  0.3265  0.5072
 1389SOL    HW215822   3.556   5.536   6.605  0.2499 -1.3859 -1.4294
 1390SOL     OW15823   4.785   6.791   0.986 -0.6085 -0.1092  0.2030
 1390SOL    HW115824   4.837   6.845   1.052 -0.6149  1.6012 -1.1652
 1390SOL    HW215825   4.688   6.813   0.995 -0.6588 -0.2311 -0.0538
 1391SOL     OW15826   0.876   3.316   1.176  0.2082  0.1253  0.1325
 1391SOL    HW115827   0.919   3.227   1.192  0.8519 -0.2169 -3.1024
 1391SOL    HW215828   0.938   3.375   1.124 -2.2675  0.4250 -2.6503
 1392SOL     OW15829   0.079   2.728   0.175  0.4536 -0.3052 -0.4774
 1392SOL    HW115830   0.100   2.680   0.260 -0.3836 -0.4578 -0.3496
 1392SOL    HW215831  -0.014   2.764   0.179  1.3034  1.9724 -0.2855
 1393SOL     OW15832   1.320   4.294   3.575  0.2123 -0.3397  0.8240
 1393SOL    HW115833   1.253   4.353   3.531  0.3569 -0.1219  0.8922
 1393SOL    HW215834   1.275   4.212   3.612 -0.1574  0.2182  1.6283
 1394SOL     OW15835   6.627   0.691   1.682 -0.2492  0.4391 -0.3942
 1394SOL    HW115836   6.629   0.746   1.766  1.7490  0.7018 -0.6033
 1394SOL    HW215837   6.693   0.616   1.690  0.8259  1.1743 -2.2104
 1395SOL     OW15838   9.142   5.728   1.958 -0.1340  0.4596  0.1901
 1395SOL    HW115839   9.225   5.776   1.985  0.4655  0.0101 -0.8239
 1395SOL    HW215840   9.063   5.788   1.969  0.2809  0.7965  1.4371
 1396SOL     OW15841   9.628   1.932   3.691 -0.3292  0.1020 -0.0330
 1396SOL    HW115842   9.671   1.850   3.655  2.0329  0.5027  1.7697
 1396SOL    HW215843   9.591   1.914   3.782  0.7926  1.1850  0.6567
 1397SOL     OW15844   1.084   3.837   3.721 -0.5648  0.4224  0.2477
 1397SOL    HW115845   1.097   3.858   3.818  1.2645  0.7962 -0.0608
 1397SOL    HW215846   1.140   3.759   3.696 -1.1857  0.2071 -0.4673
 1398SOL     OW15847   7.497   7.685   2.896 -0.0964  0.0165  0.1555
 1398SOL    HW115848   7.408   7.676   2.852 -0.2846 -0.0176  0.5366
 1398SOL    HW215849   7.486   7.671   2.995  0.1129  1.2829  0.3636
 1399SOL     OW15850   4.781   3.189   8.109 -0.7909 -0.5172  0.0775
 1399SOL    HW115851   4.787   3.221   8.204 -1.6086  0.0457 -0.0580
 1399SOL    HW215852   4.857   3.227   8.056  0.2586 -1.6516  0.7350
 1400SOL     OW15853   4.674   0.341   0.254 -0.0168  0.3439 -0.0167
 1400SOL    HW115854   4.665   0.248   0.288 -0.6087 -0.1366 -1.4414
 1400SOL    HW215855   4.699   0.402   0.329 -1.0590 -0.7172  1.2224
 1401SOL     OW15856   8.922   7.868   3.795 -0.2180 -0.4321 -0.2157
 1401SOL    HW115857   8.967   7.899   3.878 -1.6881  0.0575  0.4221
 1401SOL    HW215858   8.936   7.936   3.723  1.1679 -0.9194 -0.4155
 1402SOL     OW15859   3.032   1.072   6.334 -0.1069  0.0381  0.5458
 1402SOL    HW115860   3.084   0.987   6.339 -0.1671 -0.0586 -0.3764
 1402SOL    HW215861   3.058   1.132   6.409  0.7581 -0.3347  0.5445
 1403SOL     OW15862   3.261   5.114   5.285 -0.1281  0.0704 -0.1777
 1403SOL    HW115863   3.227   5.186   5.225  0.3438 -0.4539 -1.0730
 1403SOL    HW215864   3.190   5.044   5.296 -0.5208  0.5638  0.5535
 1404SOL     OW15865   3.724   5.861   5.151  0.3085 -0.1128 -0.5095
 1404SOL    HW115866   3.638   5.908   5.169  0.4591  0.4641 -1.2850
 1404SOL    HW215867   3.742   5.795   5.224 -0.8681 -0.3549 -0.4388
 1405SOL     OW15868   5.186   3.453   0.251 -0.5657 -0.0887 -0.3245
 1405SOL    HW115869   5.131   3.375   0.222 -1.2823 -0.4703  1.9816
 1405SOL    HW215870   5.239   3.428   0.332 -1.2008  1.9730  0.7526
 1406SOL     OW15871   7.048   7.856   5.806 -0.0736  0.5440 -0.2477
 1406SOL    HW115872   7.121   7.811   5.857  0.2436  0.3290 -0.8936
 1406SOL    HW215873   7.011   7.932   5.860  0.0721  0.1435  0.4183
 1407SOL     OW15874   9.976   5.334   3.861  0.0065 -0.2790  0.1927
 1407SOL    HW115875   9.949   5.241   3.885  0.7169 -0.4070  0.5227
 1407SOL    HW215876   9.930   5.400   3.921  1.6111 -0.5827  1.7874
 1408SOL     OW15877   1.927   5.634   7.575 -0.1146 -0.6993  0.3499
 1408SOL    HW115878   2.025   5.612   7.585  0.1861  0.4769  0.0257
 1408SOL    HW215879   1.890   5.580   7.499  0.3513 -0.9383  0.2838
 1409SOL     OW15880   1.171   0.067   7.185  0.0129 -0.2094 -0.0675
 1409SOL    HW115881   1.140   0.001   7.254 -1.2336  0.5668  0.1374
 1409SOL    HW215882   1.100   0.077   7.115  1.9944 -2.3159 -2.4385
 1410SOL     OW15883   0.074   6.275   3.359  0.0315 -0.1756 -0.3942
 1410SOL    HW115884   0.141   6.213   3.320  0.5937 -0.3024  0.7275
 1410SOL    HW215885   0.095   6.369   3.331  0.7403 -0.2057  0.0050
 1411SOL     OW15886   4.542   2.520   1.385  0.0463 -0.1308  0.1934
 1411SOL    HW115887   4.522   2.430   1.348  2.2307  0.1614 -1.7951
 1411SOL    HW215888   4.560   2.513   1.483 -1.2732 -1.5891  0.3566
 1412SOL     OW15889   7.042   4.462   2.316 -0.3385  0.1481 -0.5205
 1412SOL    HW115890   6.983   4.388   2.284  0.9080 -0.4698 -1.4537
 1412SOL    HW215891   7.076   4.514   2.238  1.1987 -0.1890 -0.1010
 1413SOL     OW15892   4.216   6.385   2.629 -0.0168  0.4397  0.4102
 1413SOL    HW115893   4.302   6.372   2.680 -0.2814  1.1055  1.0347
 1413SOL    HW215894   4.209   6.480   2.599 -0.1262  0.1790 -0.4080
 1414SOL     OW15895   9.763   7.323   6.313 -0.0545  0.5205  0.1096
 1414SOL    HW115896   9.731   7.253   6.377 -0.1579  0.1483 -0.3439
 1414SOL    HW215897   9.853   7.297   6.278 -1.2041 -0.7396 -2.0537
 1415SOL     OW15898   2.175   4.154   6.319  0.4896  0.0542  0.5017
 1415SOL    HW115899   2.211   4.175   6.410 -0.3732  0.3983  0.7665
 1415SOL    HW215900   2.078   4.133   6.326  0.0595  1.6300 -0.5491
 1416SOL     OW15901   7.560   9.503   2.813 -0.0700  0.2451 -0.0756
 1416SOL    HW115902   7.575   9.586   2.758  0.6938  0.7279  0.8344
 1416SOL    HW215903   7.602   9.425   2.767  1.8082  0.8956  0.5024
 1417SOL     OW15904   9.329   5.812   6.456  0.0716 -0.0764  0.3497
 1417SOL    HW115905   9.338   5.769   6.546  1.3530 -0.2919  0.1275
 1417SOL    HW215906   9.232   5.825   6.435 -0.2575 -0.6650  1.4569
 1418SOL     OW15907   2.768   1.279   2.771 -0.2658  0.2105 -0.3076
 1418SOL    HW115908   2.717   1.239   2.846 -3.8209  1.3927 -1.9503
 1418SOL    HW215909   2.773   1.214   2.695  1.1173 -0.0673  0.0090
 1419SOL     OW15910   3.678   3.444   0.450  0.2711  0.9699 -0.3407
 1419SOL    HW115911   3.658   3.516   0.518  0.5084  0.3157  0.4219
 1419SOL    HW215912   3.619   3.457   0.371 -1.0753  0.8614  0.6243
 1420SOL     OW15913   8.093   1.186   5.311  0.1994  0.2770 -0.3911
 1420SOL    HW115914   8.077   1.261   5.246 -0.6158  0.5189  0.0774
 1420SOL    HW215915   8.150   1.220   5.386  2.2416 -0.3613 -1.6437
 1421SOL     OW15916   9.905   9.883   2.205 -0.0148 -0.4466 -0.3180
 1421SOL    HW115917   9.908   9.813   2.276  0.2347  2.1815  2.3494
 1421SOL    HW215918   9.813   9.922   2.200  0.8346  1.7712  0.9954
 1422SOL     OW15919   2.593   5.264   1.671  0.6062 -0.3914 -0.5875
 1422SOL    HW115920   2.623   5.359   1.679 -0.4645  0.0565 -1.8330
 1422SOL    HW215921   2.534   5.241   1.749  0.8407 -0.0308 -0.3046
 1423SOL     OW15922   6.001   9.478   4.427  0.3971  1.0151 -0.2298
 1423SOL    HW115923   6.055   9.477   4.511 -0.8897  0.6530  0.6020
 1423SOL    HW215924   6.023   9.560   4.374  1.7319  0.8888  0.1008
 1424SOL     OW15925   7.476   7.246   8.022  0.1747 -0.2446 -0.3159
 1424SOL    HW115926   7.482   7.160   8.072  0.3428 -2.0312 -3.3102
 1424SOL    HW215927   7.386   7.255   7.980 -0.0192  1.3006  0.3744
 1425SOL     OW15928   8.953   6.668   0.248  0.0579  0.0442  0.5535
 1425SOL    HW115929   8.967   6.571   0.264  1.0017  0.3000  1.3347
 1425SOL    HW215930   9.031   6.719   0.284 -0.7519  1.1437  0.7691
 1426SOL     OW15931   4.209   5.082   3.084  0.3754  0.2162 -0.0877
 1426SOL    HW115932   4.270   5.097   3.161 -0.3559  0.4826  0.4392
 1426SOL    HW215933   4.237   5.000   3.035  1.3311  0.4965 -0.0185
 1427SOL     OW15934   2.572   5.387   7.702 -0.0887 -0.0294 -0.1613
 1427SOL    HW115935   2.475   5.368   7.688 -0.1971 -0.2335  0.8290
 1427SOL    HW215936   2.603   5.342   7.786  1.1229 -0.8647 -1.0284
 1428SOL     OW15937   8.122   8.566   8.046 -0.3508 -0.2757  0.3059
 1428SOL    HW115938   8.112   8.588   7.949  0.8348 -0.4179  0.1497
 1428SOL    HW215939   8.218   8.571   8.072 -0.4075 -2.2979  0.9794
 1429SOL     OW15940   4.340   3.814   6.503 -0.8465  0.0149 -0.1791
 1429SOL    HW115941   4.295   3.901   6.482 -0.0283  0.3963 -0.3707
 1429SOL    HW215942   4.344   3.759   6.419 -3.4261 -1.1872  0.4238
 1430SOL     OW15943   0.712   0.668   5.215  0.1284 -0.0409  0.7739
 1430SOL    HW115944   0.676   0.578   5.239  2.0903 -1.3846 -1.1254
 1430SOL    HW215945   0.659   0.706   5.139  2.1300 -1.7083 -1.5480
 1431SOL     OW15946   3.531   1.292   7.106 -0.2396  0.5860 -0.0641
 1431SOL    HW115947   3.543   1.231   7.185  0.7432 -2.6619 -2.6098
 1431SOL    HW215948   3.620   1.312   7.065 -0.9591 -0.0862 -2.0137
 1432SOL     OW15949   0.398   3.191   6.529 -0.0219  0.5340  0.2556
 1432SOL    HW115950   0.320   3.252   6.545  0.7156  1.1836  1.5112
 1432SOL    HW215951   0.406   3.127   6.606  0.8073  0.6085  0.2325
 1433SOL     OW15952   6.831   8.231   5.899 -0.7612  0.2679 -0.2847
 1433SOL    HW115953   6.918   8.256   5.942 -1.2888  0.8702  0.4548
 1433SOL    HW215954   6.832   8.134   5.876 -0.3720 -0.0136  0.8822
 1434SOL     OW15955   5.025   2.417   0.228 -0.8359 -0.2538 -0.4099
 1434SOL    HW115956   5.118   2.454   0.226 -1.2913  0.9075 -0.6788
 1434SOL    HW215957   5.001   2.383   0.137 -0.7708 -0.3043 -0.4081
 1435SOL     OW15958   4.335   9.841   7.776 -0.3948  0.3002  0.7303
 1435SOL    HW115959   4.421   9.889   7.793 -0.7809  1.5946 -0.8022
 1435SOL    HW215960   4.276   9.850   7.857  0.5035  0.2847  1.3994
 1436SOL     OW15961   3.910   8.532   3.267 -0.2570 -0.1105  0.0065
 1436SOL    HW115962   3.883   8.610   3.323 -0.4373  0.6935 -1.1876
 1436SOL    HW215963   4.010   8.533   3.256 -0.3453  0.4795 -0.7688
 1437SOL     OW15964   3.509   5.347   5.013 -0.2965  0.2981  0.9185
 1437SOL    HW115965   3.513   5.350   4.913  2.5198 -2.1622  0.8865
 1437SOL    HW215966   3.479   5.436   5.048 -0.0896  1.6022 -2.0491
 1438SOL     OW15967   3.936   1.278   3.498  0.2358 -0.5389  0.2022
 1438SOL    HW115968   3.904   1.356   3.552  2.2729  0.3805  0.1060
 1438SOL    HW215969   3.968   1.310   3.409  3.6010 -1.0982  1.1526
 1439SOL     OW15970   0.217   9.298   1.555  0.3686  0.3559 -0.2141
 1439SOL    HW115971   0.223   9.336   1.647  0.6275  0.4875 -0.2830
 1439SOL    HW215972   0.122   9.299   1.524  0.4956  1.8314 -0.5857
 1440SOL     OW15973   2.808   2.333   1.608 -0.0406  0.0643 -0.3453
 1440SOL    HW115974   2.713   2.364   1.617  0.4753  1.8041 -0.7990
 1440SOL    HW215975   2.860   2.358   1.689  0.0685 -0.7505 -0.1635
 1441SOL     OW15976   4.317   3.888   4.993 -0.0530  0.5257  0.5766
 1441SOL    HW115977   4.248   3.954   4.963  0.3156  1.3415  1.4883
 1441SOL    HW215978   4.401   3.902   4.941  0.0354  0.8077  0.7911
 1442SOL     OW15979   8.198   0.014   1.982  0.1553 -0.2841  0.6850
 1442SOL    HW115980   8.241  -0.058   2.038  1.4180 -0.8550 -0.9696
 1442SOL    HW215981   8.176  -0.023   1.892 -0.3892  1.0616  0.2588
 1443SOL     OW15982   2.365   5.756   7.920 -0.5007 -0.6445  0.1458
 1443SOL    HW115983   2.345   5.683   7.986 -0.0268 -0.2618  0.7183
 1443SOL    HW215984   2.462   5.776   7.921 -0.4987 -0.6161 -0.6592
 1444SOL     OW15985   8.994   9.175   6.395 -0.1216 -0.1497  0.3121
 1444SOL    HW115986   8.936   9.112   6.445  1.2387 -1.9514 -0.3117
 1444SOL    HW215987   8.990   9.266   6.437 -0.3262 -1.2067  2.6471
 1445SOL     OW15988   5.054   1.000   4.755 -0.4304  0.0598 -0.0175
 1445SOL    HW115989   5.023   1.003   4.851 -0.1475 -0.5217  0.0926
 1445SOL    HW215990   5.120   0.926   4.744 -1.4623 -0.7214 -0.9621
 1446SOL     OW15991   7.047   9.116   6.152  0.4875 -0.6589  0.1212
 1446SOL    HW115992   7.024   9.201   6.200 -0.6428 -0.8046 -0.1604
 1446SOL    HW215993   7.119   9.134   6.085  1.0911 -0.1695  0.8807
 1447SOL     OW15994   2.558   6.115   7.210  0.1212 -0.3179 -0.0146
 1447SOL    HW115995   2.486   6.148   7.271 -1.0300 -0.9669 -1.0070
 1447SOL    HW215996   2.629   6.186   7.200 -0.2641  0.2344  1.1354
 1448SOL     OW15997   3.940   9.000   3.507 -0.0081  0.2823 -0.0495
 1448SOL    HW115998   3.959   9.011   3.604  0.0155 -0.4900  0.0394
 1448SOL    HW215999   3.975   9.078   3.456  1.7253 -0.2369  0.3267
 1449SOL     OW16000   0.349   5.552   4.963 -0.2588 -0.0183  0.0100
 1449SOL    HW116001   0.357   5.565   4.864 -1.0152 -0.7154 -0.1546
 1449SOL    HW216002   0.291   5.624   5.001  0.4663  0.5606  0.0338
 1450SOL     OW16003   9.502   6.896   1.215 -0.1735 -0.6729  0.2509
 1450SOL    HW116004   9.541   6.985   1.238 -0.3043 -0.7375  0.7137
 1450SOL    HW216005   9.469   6.851   1.297 -0.4728 -0.9810 -0.0344
 1451SOL     OW16006   8.756   3.936   7.356 -0.3342  0.2882  0.2618
 1451SOL    HW116007   8.669   3.885   7.355 -0.5099  0.5713  0.6374
 1451SOL    HW216008   8.832   3.872   7.358 -0.5744  0.0303  1.8110
 1452SOL     OW16009   2.626   2.292   8.007 -0.2367 -0.1244 -0.4463
 1452SOL    HW116010   2.565   2.338   7.942 -3.4827 -0.9238  1.8676
 1452SOL    HW216011   2.641   2.352   8.086 -0.6081 -1.1321  0.4108
 1453SOL     OW16012   5.757   2.688   0.119 -0.2967  0.6057 -0.2256
 1453SOL    HW116013   5.818   2.622   0.076 -1.6835 -0.4946 -0.5374
 1453SOL    HW216014   5.765   2.776   0.073 -3.4861 -1.1410 -4.3924
 1454SOL     OW16015   4.037   3.391   0.186 -0.4299 -1.0315 -0.3673
 1454SOL    HW116016   4.051   3.439   0.273  0.0657 -0.5140 -0.7307
 1454SOL    HW216017   3.973   3.316   0.200 -1.3546 -0.1615  0.1679
 1455SOL     OW16018   2.612   5.265   3.660  0.3928 -0.7033  0.0776
 1455SOL    HW116019   2.562   5.349   3.683 -0.1852 -0.4827 -1.9495
 1455SOL    HW216020   2.707   5.287   3.639  1.3375 -1.0826  3.6018
 1456SOL     OW16021   2.856   7.661   5.649 -0.3242 -0.4453  0.0867
 1456SOL    HW116022   2.782   7.594   5.641 -1.0985  0.2627  1.2233
 1456SOL    HW216023   2.819   7.753   5.633  0.6460 -0.2396 -1.0303
 1457SOL     OW16024   5.548   0.158   5.354 -0.0782  0.2282  0.9778
 1457SOL    HW116025   5.568   0.253   5.330  0.9862 -0.2061  0.0819
 1457SOL    HW216026   5.634   0.108   5.364 -0.6588 -0.8484  0.6124
 1458SOL     OW16027   6.913   1.573   8.049  0.6853  0.3150 -0.9860
 1458SOL    HW116028   6.961   1.488   8.030  2.0636  0.5653  1.1845
 1458SOL    HW216029   6.818   1.553   8.074  1.9610 -0.9805  3.1946
 1459SOL     OW16030   1.961   6.376   7.315 -0.4476 -0.3216 -0.5768
 1459SOL    HW116031   1.918   6.286   7.324 -0.5045 -0.3376 -0.9764
 1459SOL    HW216032   1.891   6.447   7.323 -0.2153 -0.2601  1.0302
 1460SOL     OW16033   1.619   1.865   0.143  0.4505 -0.1400 -0.7371
 1460SOL    HW116034   1.716   1.853   0.122 -0.0666 -1.8454 -2.2935
 1460SOL    HW216035   1.571   1.898   0.061 -0.5057 -0.6169 -0.3808
 1461SOL     OW16036   2.383   5.489   4.344  0.4162 -0.5078  0.2124
 1461SOL    HW116037   2.378   5.554   4.268  1.1810 -0.6351  0.0560
 1461SOL    HW216038   2.455   5.422   4.326 -1.5704 -2.5116 -0.5001
 1462SOL     OW16039   9.807   1.351   4.247 -0.4374 -0.2467  0.0528
 1462SOL    HW116040   9.756   1.436   4.232 -2.3628 -1.6486 -1.6132
 1462SOL    HW216041   9.744   1.274   4.255  1.3695 -2.2642 -3.5785
 1463SOL     OW16042   2.694   8.878   5.824  0.0809 -0.1541 -0.1434
 1463SOL    HW116043   2.684   8.875   5.725 -1.6769  3.0411 -0.1503
 1463SOL    HW216044   2.683   8.973   5.856 -0.2734 -1.2282  3.1911
 1464SOL     OW16045   1.646   3.562   0.782  0.3356 -0.2544 -0.3116
 1464SOL    HW116046   1.580   3.634   0.805 -0.5066 -0.6301 -1.5338
 1464SOL    HW216047   1.613   3.475   0.818  1.7295  0.0633  1.8468
 1465SOL     OW16048   1.334   7.757   0.691 -0.0996 -0.1650  0.5852
 1465SOL    HW116049   1.295   7.848   0.707  1.0042  0.3491  0.4178
 1465SOL    HW216050   1.413   7.745   0.752  0.0894 -0.7985  0.2097
 1466SOL     OW16051   1.752   3.534   0.016  0.1825  0.1883 -0.4232
 1466SOL    HW116052   1.704   3.499  -0.064 -2.1326 -0.4023  1.1770
 1466SOL    HW216053   1.848   3.505   0.013 -0.1926 -0.9089 -2.3316
 1467SOL     OW16054   2.403   9.970   0.135 -0.6761 -0.0389 -0.7044
 1467SOL    HW116055   2.332  10.004   0.073 -0.4082  0.1259 -0.9239
 1467SOL    HW216056   2.426   9.876   0.110 -1.3631 -0.3570 -0.1449
 1468SOL     OW16057   3.795   4.489   1.232 -0.3705 -0.4279  0.1256
 1468SOL    HW116058   3.738   4.408   1.246 -0.7017 -0.4325 -1.1218
 1468SOL    HW216059   3.817   4.497   1.135  1.6901 -0.3581  0.5749
 1469SOL     OW16060   1.272   4.523   2.229  0.4789 -1.0333  0.4444
 1469SOL    HW116061   1.236   4.544   2.320 -0.6440 -0.5092 -0.1171
 1469SOL    HW216062   1.247   4.595   2.165  3.1538 -0.2760  0.1813
 1470SOL     OW16063   8.353   4.259   0.029 -0.0727  0.0297  0.5059
 1470SOL    HW116064   8.318   4.351   0.047 -2.2851 -1.1782  2.5839
 1470SOL    HW216065   8.399   4.225   0.111  2.2392 -0.1257 -0.7919
 1471SOL     OW16066   2.991   3.727   5.842  0.1454 -0.0205 -0.3842
 1471SOL    HW116067   2.998   3.749   5.745 -1.5184  0.7818 -0.3435
 1471SOL    HW216068   3.059   3.657   5.866  0.6837 -0.0935 -2.0681
 1472SOL     OW16069   3.070   1.921   8.160 -0.3913  0.1458 -0.4245
 1472SOL    HW116070   3.097   2.011   8.195  0.8120  0.2743 -1.6278
 1472SOL    HW216071   2.977   1.900   8.190 -1.1004  2.2729 -1.0285
 1473SOL     OW16072   3.173   1.149   3.247  0.3055 -0.0667  0.0149
 1473SOL    HW116073   3.146   1.067   3.298  0.1774  0.4953  0.8583
 1473SOL    HW216074   3.265   1.177   3.275 -0.1745  0.8525  0.7233
 1474SOL     OW16075   1.296   3.967   0.893  0.2317 -0.1225 -0.1780
 1474SOL    HW116076   1.357   3.888   0.904 -0.4297 -0.7005 -0.5840
 1474SOL    HW216077   1.255   3.965   0.802  0.2324  0.7138 -0.2030
 1475SOL     OW16078   3.389   2.584   4.006  0.2696  0.0235  0.2917
 1475SOL    HW116079   3.347   2.625   4.087  1.0962 -0.6312  1.0640
 1475SOL    HW216080   3.481   2.551   4.030 -0.2249 -1.9203 -0.4045
 1476SOL     OW16081   8.649   9.784   1.528  0.3780 -0.3505  0.3160
 1476SOL    HW116082   8.609   9.784   1.620  0.0074  0.4359  0.1657
 1476SOL    HW216083   8.613   9.706   1.476 -1.5362  0.7321 -0.0435
 1477SOL     OW16084   1.553   4.235   5.348 -0.4124 -0.3878  0.0105
 1477SOL    HW116085   1.529   4.295   5.271  3.0758  1.0936 -0.0003
 1477SOL    HW216086   1.502   4.263   5.429 -0.9291  0.7995 -0.7020
 1478SOL     OW16087   5.950   0.293   5.850 -0.1755 -0.3623  0.1808
 1478SOL    HW116088   6.043   0.270   5.822  0.3254  1.2583  0.4259
 1478SOL    HW216089   5.947   0.303   5.950 -0.4080  0.3655  0.1083
 1479SOL     OW16090   8.723   8.649   4.866  0.3285 -0.0344 -0.0181
 1479SOL    HW116091   8.645   8.626   4.924 -0.4261  3.5471  0.5089
 1479SOL    HW216092   8.700   8.628   4.770 -0.2856 -1.3829  0.4096
 1480SOL     OW16093   4.574   1.277   6.867 -0.3715  0.2391 -0.4716
 1480SOL    HW116094   4.535   1.330   6.942  0.0916 -1.7000  1.1830
 1480SOL    HW216095   4.500   1.227   6.820 -0.3207 -0.9201  0.6406
 1481SOL     OW16096   3.571   0.577   3.856 -0.2037  0.4374  0.3719
 1481SOL    HW116097   3.597   0.637   3.780 -1.0784 -1.4133 -1.4164
 1481SOL    HW216098   3.653   0.544   3.902  0.3006  2.8620  1.3219
 1482SOL     OW16099   0.313   2.927   1.033  0.4088 -0.3851  0.7487
 1482SOL    HW116100   0.307   2.925   1.133 -0.8468 -2.1312  0.6483
 1482SOL    HW216101   0.381   2.860   1.002 -2.5357 -3.2499  0.2262
 1483SOL     OW16102   3.089   6.830   3.123  0.1858  0.2801  0.3936
 1483SOL    HW116103   3.161   6.867   3.065  0.8223 -0.9440  0.3934
 1483SOL    HW216104   3.097   6.869   3.215  1.1189 -0.1910  0.5159
 1484SOL     OW16105   0.421   8.753   8.116  0.4251 -0.2231 -0.0029
 1484SOL    HW116106   0.440   8.850   8.103 -0.2242 -0.2264 -1.0761
 1484SOL    HW216107   0.343   8.743   8.178  0.8262 -0.0759  0.5290
 1485SOL     OW16108   3.623   4.610   7.660 -0.2732 -0.6602  0.4666
 1485SOL    HW116109   3.638   4.568   7.749  4.3880 -0.1482  0.0068
 1485SOL    HW216110   3.583   4.542   7.598 -0.5749 -1.9335  2.0305
 1486SOL     OW16111   7.911   9.898   1.087 -0.7206 -0.1021  0.2888
 1486SOL    HW116112   7.838   9.857   1.032 -2.1035  0.0034  1.9857
 1486SOL    HW216113   7.972   9.951   1.028 -1.8138 -0.4754 -1.2094
 1487SOL     OW16114   8.955   8.894   1.854 -0.1257  0.4215  0.6243
 1487SOL    HW116115   8.940   8.933   1.945  1.4373  0.2912  0.9440
 1487SOL    HW216116   9.026   8.824   1.859 -1.9724 -1.5682 -0.1964
 1488SOL     OW16117   9.250   3.237   4.331  0.4346 -0.0409 -0.0657
 1488SOL    HW116118   9.314   3.195   4.268  2.0459  2.8594 -0.4590
 1488SOL    HW216119   9.173   3.276   4.280 -0.0438 -0.7740  0.0977
 1489SOL     OW16120   8.469   6.711   6.731  0.4799  0.1960  0.8698
 1489SOL    HW116121   8.413   6.710   6.814 -0.6021 -0.7152  0.1484
 1489SOL    HW216122   8.412   6.738   6.653  1.4293  0.8048  0.3712
 1490SOL     OW16123   0.119   1.678   2.662 -0.3658 -0.6359 -0.4668
 1490SOL    HW116124   0.059   1.599   2.661 -1.4567  0.1749 -0.1914
 1490SOL    HW216125   0.079   1.752   2.608 -0.8609  0.7934  1.7528
 1491SOL     OW16126   0.407   6.165   0.602 -0.6310  0.1375 -0.3551
 1491SOL    HW116127   0.412   6.213   0.514  1.7266  0.5865 -0.0303
 1491SOL    HW216128   0.404   6.067   0.586 -3.5744  0.2965 -0.9889
 1492SOL     OW16129   0.087   4.505   4.222 -0.3420  0.3855  0.6186
 1492SOL    HW116130   0.047   4.584   4.269 -0.3334  1.3054 -0.8846
 1492SOL    HW216131   0.187   4.513   4.224 -0.3326  0.2297  0.7715
 1493SOL     OW16132   5.167   1.533   1.262 -0.3814  0.0445  0.2439
 1493SOL    HW116133   5.169   1.438   1.232  0.5376  0.3483 -0.6874
 1493SOL    HW216134   5.221   1.542   1.346  1.9642  0.2647 -1.2561
 1494SOL     OW16135   9.938   7.851   3.132 -0.1707  0.0927  0.5062
 1494SOL    HW116136   9.871   7.894   3.072 -0.2872 -0.9610 -0.1302
 1494SOL    HW216137   9.920   7.878   3.227 -2.1001 -0.9238  0.4582
 1495SOL     OW16138   4.006   5.564   7.170 -0.0050  0.4222  0.0002
 1495SOL    HW116139   4.097   5.530   7.148  0.0486  0.4859  0.1239
 1495SOL    HW216140   3.939   5.521   7.109  0.2867  1.5373 -1.1284
 1496SOL     OW16141   9.259   8.102   6.400 -0.1763  0.0015  0.2401
 1496SOL    HW116142   9.260   8.003   6.391  0.7453 -0.0014  0.3848
 1496SOL    HW216143   9.352   8.137   6.405 -0.4922  0.8802  0.1655
 1497SOL     OW16144   1.067   4.969   8.046  0.1537 -0.6547 -0.0355
 1497SOL    HW116145   1.114   5.057   8.038 -0.8336 -0.3259 -2.4613
 1497SOL    HW216146   0.968   4.983   8.046 -0.0095 -1.6275  1.6094
 1498SOL     OW16147   4.735   5.061   3.356 -0.0513  0.1518 -0.0606
 1498SOL    HW116148   4.789   5.144   3.340 -0.2727  0.7037  1.9219
 1498SOL    HW216149   4.750   5.029   3.449 -0.3914 -1.7510 -0.6253
 1499SOL     OW16150   1.510   8.779   4.973  0.0373  0.0642  0.4291
 1499SOL    HW116151   1.572   8.718   4.924 -0.0330  0.4233 -0.0983
 1499SOL    HW216152   1.418   8.740   4.972  0.2672 -0.5471  1.3434
 1500SOL     OW16153   3.963   0.240   0.360  0.0706  0.4442 -0.3001
 1500SOL    HW116154   4.050   0.231   0.410 -1.7630 -0.0165  2.9388
 1500SOL    HW216155   3.964   0.177   0.282  2.7614  0.6865 -0.5334
 1501SOL     OW16156   4.686   4.126   6.242  0.0844 -0.2982 -0.4908
 1501SOL    HW116157   4.682   4.076   6.329 -2.3038 -2.1229 -1.5996
 1501SOL    HW216158   4.726   4.067   6.172  0.8788  0.7440 -0.9202
 1502SOL     OW16159   9.375   4.234   7.102  0.2396 -0.2724  0.5352
 1502SOL    HW116160   9.356   4.138   7.081 -0.7996  0.1790 -0.6244
 1502SOL    HW216161   9.308   4.292   7.056 -0.0892  0.9301  2.4679
 1503SOL     OW16162   8.653   5.230   5.158  0.4221  0.0116  0.6060
 1503SOL    HW116163   8.677   5.247   5.063  0.0891  1.4099  0.7687
 1503SOL    HW216164   8.564   5.271   5.179  0.6429  0.0022  1.6075
 1504SOL     OW16165   0.397   9.783   6.849  0.7124 -0.3925 -0.2157
 1504SOL    HW116166   0.309   9.829   6.862 -0.4231 -2.4465 -0.4459
 1504SOL    HW216167   0.398   9.739   6.760  2.1417 -0.0561 -0.3710
 1505SOL     OW16168   0.409   6.198   5.908 -0.1737 -0.5150 -0.4492
 1505SOL    HW116169   0.479   6.176   5.976 -1.9296 -1.0684  1.2116
 1505SOL    HW216170   0.445   6.179   5.816  1.7852 -0.9525  0.3850
 1506SOL     OW16171   8.455   1.894   0.187  0.2480 -0.0491  0.1992
 1506SOL    HW116172   8.377   1.832   0.180  0.0907  0.1975 -0.2339
 1506SOL    HW216173   8.513   1.884   0.107  0.1282  0.4952  0.0438
 1507SOL     OW16174   5.642   0.111   2.044  0.0201  0.4835  0.0332
 1507SOL    HW116175   5.590   0.196   2.057  0.4593  0.7666 -0.0328
 1507SOL    HW216176   5.655   0.095   1.946 -1.1166 -0.3105  0.0097
 1508SOL     OW16177   1.772   1.442   3.930 -0.3802  0.2042 -0.5145
 1508SOL    HW116178   1.722   1.466   4.014  1.4008  0.8854  0.3771
 1508SOL    HW216179   1.796   1.345   3.933  0.0265  0.3131 -0.0288
 1509SOL     OW16180   8.830   1.280   0.771  0.0566  0.0496 -0.5031
 1509SOL    HW116181   8.837   1.203   0.708  0.4372  1.0387 -1.6954
 1509SOL    HW216182   8.919   1.326   0.776 -0.2117  0.5071  0.0876
 1510SOL     OW16183   2.370   0.601   0.361 -0.2084 -0.2431  0.0447
 1510SOL    HW116184   2.313   0.664   0.309 -0.9384  0.4409  1.6353
 1510SOL    HW216185   2.426   0.547   0.298  1.1495  2.6466 -1.3303
 1511SOL     OW16186   9.386   6.422   4.684  0.1820  0.4883  0.2217
 1511SOL    HW116187   9.306   6.367   4.661 -0.9710  1.6950  1.2644
 1511SOL    HW216188   9.421   6.465   4.601 -0.4301  0.2056 -0.1947
 1512SOL     OW16189   8.039   4.754   1.267  0.1496  0.2760  0.3934
 1512SOL    HW116190   8.115   4.804   1.309 -0.9274  2.3348 -0.0169
 1512SOL    HW216191   7.962   4.753   1.331 -0.8557  1.7803 -0.7783
 1513SOL     OW16192   8.406   7.476   8.069 -0.3202 -0.3710  0.0664
 1513SOL    HW116193   8.364   7.522   7.990 -0.3846 -1.4324 -0.5250
 1513SOL    HW216194   8.390   7.530   8.151 -1.1581  0.2191 -0.4787
 1514SOL     OW16195   5.118   4.876   7.162 -0.2194 -0.1408 -0.2496
 1514SOL    HW116196   5.133   4.797   7.102  1.0872  0.4560 -0.7285
 1514SOL    HW216197   5.059   4.942   7.117 -1.7496 -1.0651  0.3595
 1515SOL     OW16198   8.678   4.060   3.582 -0.2287 -0.4752  0.4354
 1515SOL    HW116199   8.687   4.147   3.533 -1.2976  0.1381  1.3165
 1515SOL    HW216200   8.738   3.992   3.540 -0.3469  0.3311 -1.0662
 1516SOL     OW16201   0.222   3.306   7.878 -0.2049  0.1272  0.4678
 1516SOL    HW116202   0.270   3.245   7.815  1.1992 -0.1560  1.7678
 1516SOL    HW216203   0.240   3.401   7.853  0.9024  0.0209  0.8230
 1517SOL     OW16204   2.898   5.354   3.140  0.8103  0.0907  0.0766
 1517SOL    HW116205   2.844   5.433   3.111 -3.1118 -2.5307 -0.2222
 1517SOL    HW216206   2.908   5.291   3.064  1.5833 -0.9431  1.0214
 1518SOL     OW16207   1.512   4.906   1.835 -0.1371  0.3673 -0.0274
 1518SOL    HW116208   1.589   4.897   1.897  0.0436 -0.7074 -0.3968
 1518SOL    HW216209   1.459   4.988   1.858  0.8147  0.8187  0.5473
 1519SOL     OW16210   0.832   2.390   3.957 -0.3721 -0.3802  0.4001
 1519SOL    HW116211   0.880   2.435   4.032  0.2368 -0.2151 -0.0816
 1519SOL    HW216212   0.892   2.321   3.916 -0.8724 -0.8034  0.3756
 1520SOL     OW16213   8.127   9.860   5.730 -0.1043 -0.1008  0.1881
 1520SOL    HW116214   8.140   9.954   5.700  0.3510 -0.6531 -1.4103
 1520SOL    HW216215   8.217   9.820   5.752 -0.3548  0.0328  1.5015
 1521SOL     OW16216   2.509   4.485   0.620  0.3254 -0.2105 -0.0449
 1521SOL    HW116217   2.576   4.415   0.596  0.2473 -0.4401  0.4089
 1521SOL    HW216218   2.471   4.466   0.710  0.7359  0.7432  0.3351
 1522SOL     OW16219   2.797   3.687   3.855 -0.7340 -0.4783 -0.1057
 1522SOL    HW116220   2.769   3.665   3.948  0.7412  0.8332  0.6718
 1522SOL    HW216221   2.783   3.784   3.838 -0.9470 -0.7022 -1.2397
 1523SOL     OW16222   5.610   8.863   6.502 -0.3352 -0.2323 -0.4260
 1523SOL    HW116223   5.618   8.793   6.431 -2.2061 -0.2314 -0.6667
 1523SOL    HW216224   5.621   8.953   6.461 -2.7934 -0.1571 -1.0019
 1524SOL     OW16225   5.614   8.655   6.287  0.4463 -0.0424 -0.0705
 1524SOL    HW116226   5.523   8.686   6.261 -0.1795 -0.3289  1.7316
 1524SOL    HW216227   5.679   8.677   6.214 -0.6487  2.1528 -0.4253
 1525SOL     OW16228   9.533   7.313   1.209  0.2767  0.0481 -0.0303
 1525SOL    HW116229   9.603   7.241   1.212  0.1290 -0.0876  0.1983
 1525SOL    HW216230   9.508   7.338   1.303  1.1298  1.1745 -0.0892
 1526SOL     OW16231   0.583   7.001   6.734  0.0743  0.4916  0.5955
 1526SOL    HW116232   0.678   6.969   6.734 -0.6817 -1.8589  1.4696
 1526SOL    HW216233   0.568   7.061   6.655  2.3930  1.2988  0.7221
 1527SOL     OW16234   4.991   7.694   5.121 -0.0287  0.0922 -0.1510
 1527SOL    HW116235   4.968   7.597   5.137 -1.5504  0.1845 -1.5670
 1527SOL    HW216236   5.074   7.699   5.065 -0.1108 -0.4136 -0.3308
 1528SOL     OW16237   2.607   8.915   7.123  0.1569  0.1981  0.1727
 1528SOL    HW116238   2.561   8.900   7.036  0.9242  0.9966 -0.3767
 1528SOL    HW216239   2.552   8.875   7.197 -1.0204  0.4465 -0.5529
 1529SOL     OW16240   2.094   1.761   5.013 -0.4103  0.4979  0.4452
 1529SOL    HW116241   2.127   1.732   5.102 -2.3446 -1.1748  0.6450
 1529SOL    HW216242   2.066   1.857   5.018 -0.2212  0.5001  1.5557
 1530SOL     OW16243   7.771   8.240   4.055  0.0195 -0.3626  0.0044
 1530SOL    HW116244   7.754   8.143   4.040 -2.1153 -0.1782  1.0524
 1530SOL    HW216245   7.684   8.288   4.066  1.0226  1.7918 -1.1446
 1531SOL     OW16246   1.294   8.899   5.336 -0.4464 -0.4831  0.4005
 1531SOL    HW116247   1.232   8.883   5.260  0.2766  0.2914 -0.3736
 1531SOL    HW216248   1.247   8.883   5.422 -1.2237 -1.5363 -0.2188
 1532SOL     OW16249   8.928   8.833   4.773  0.3311 -0.1978  0.1038
 1532SOL    HW116250   8.977   8.767   4.829  0.4983 -1.4494 -1.4805
 1532SOL    HW216251   8.932   8.923   4.816  1.5184 -0.8798  1.4491
 1533SOL     OW16252   9.330   8.577   0.524 -0.4517  0.9291  0.3077
 1533SOL    HW116253   9.428   8.561   0.518 -0.4784  0.2633  1.4830
 1533SOL    HW216254   9.303   8.645   0.456  0.8147  1.0943 -0.0417
 1534SOL     OW16255   1.839   0.550   2.197  0.4588  0.5680  0.0976
 1534SOL    HW116256   1.918   0.600   2.233 -0.3001  0.3044  2.1639
 1534SOL    HW216257   1.755   0.600   2.218 -0.1043 -0.2846 -0.0837
 1535SOL     OW16258   2.776   1.215   2.302 -0.4202 -0.2239  0.2013
 1535SOL    HW116259   2.719   1.156   2.359 -0.4071  0.6351  1.1215
 1535SOL    HW216260   2.802   1.296   2.354  2.0679 -0.8319 -0.0050
 1536SOL     OW16261   3.109   1.881   7.758  0.0352  0.7671  0.1064
 1536SOL    HW116262   3.073   1.957   7.812 -0.3730  1.4226 -1.0558
 1536SOL    HW216263   3.209   1.887   7.753  0.0723  0.7106  0.7661
 1537SOL     OW16264   3.647   2.566   3.429 -0.2548 -0.0176 -0.1246
 1537SOL    HW116265   3.612   2.514   3.507 -0.1553  0.0081 -0.0621
 1537SOL    HW216266   3.737   2.531   3.403 -0.4280 -0.2383 -0.4355
 1538SOL     OW16267   8.105   1.137   6.158  0.1445 -0.5006 -0.0331
 1538SOL    HW116268   8.204   1.127   6.150  0.3328  0.3248  1.1559
 1538SOL    HW216269   8.065   1.050   6.188  0.1772 -1.6235 -3.0703
 1539SOL     OW16270   8.651   2.084   3.096  0.3818 -0.6578  0.5124
 1539SOL    HW116271   8.718   2.018   3.063  2.5345  0.9064  1.6756
 1539SOL    HW216272   8.608   2.130   3.017  0.2636 -2.0288 -0.2436
 1540SOL     OW16273   4.352   3.160   5.110  0.5170 -0.2165 -0.8182
 1540SOL    HW116274   4.355   3.260   5.109 -2.1112 -0.0749  0.6711
 1540SOL    HW216275   4.265   3.129   5.072  1.3683 -1.9422 -1.3963
 1541SOL     OW16276   9.318   7.542   0.547  0.1875  0.1753 -0.0612
 1541SOL    HW116277   9.366   7.521   0.461 -0.9240 -0.8229 -0.4638
 1541SOL    HW216278   9.317   7.641   0.561  2.4180  0.2091  0.0045
 1542SOL     OW16279   1.285   0.757   1.596  0.0968  0.0152  0.3244
 1542SOL    HW116280   1.239   0.794   1.677  1.4841 -0.4829  1.3653
 1542SOL    HW216281   1.340   0.677   1.622  0.1866 -0.4448 -1.1987
 1543SOL     OW16282   1.794   2.067   3.127 -0.2679 -0.0954 -0.4709
 1543SOL    HW116283   1.796   1.983   3.074  0.7330 -0.0226 -0.5587
 1543SOL    HW216284   1.799   2.046   3.224  0.3340 -0.1281 -0.5068
 1544SOL     OW16285   3.615   6.618   1.197 -0.1668  0.0291 -0.7052
 1544SOL    HW116286   3.713   6.625   1.182 -0.3503  3.1591 -0.7923
 1544SOL    HW216287   3.571   6.580   1.115  1.0029 -1.9585 -0.4328
 1545SOL     OW16288   0.898   5.460   3.956  0.3930  0.3348  0.4192
 1545SOL    HW116289   0.864   5.371   3.925 -0.7073  0.4761  1.1746
 1545SOL    HW216290   0.966   5.447   4.028  1.5293  0.0615 -0.6969
 1546SOL     OW16291   4.956   2.920   5.553 -0.2371  0.0717  0.3229
 1546SOL    HW116292   4.870   2.881   5.586 -0.3222 -0.1335 -0.1416
 1546SOL    HW216293   5.008   2.849   5.504  0.3170  0.1204  0.8300
 1547SOL     OW16294   3.141   4.485   2.128 -0.4133  0.2891  0.0322
 1547SOL    HW116295   3.112   4.571   2.171 -0.0745  0.7774 -0.7027
 1547SOL    HW216296   3.062   4.425   2.117 -0.7593  0.7370  0.0387
 1548SOL     OW16297   7.511   8.590   6.620  0.1287 -0.4621 -0.1614
 1548SOL    HW116298   7.478   8.674   6.577  1.2439 -0.6724 -1.4196
 1548SOL    HW216299   7.446   8.516   6.602 -0.8737  0.1154  0.9757
 1549SOL     OW16300   8.442   7.252   6.436 -0.0184  0.2933  0.5921
 1549SOL    HW116301   8.530   7.210   6.416 -1.3069 -1.8898 -0.6923
 1549SOL    HW216302   8.391   7.195   6.500 -0.3455  1.7562  1.6602
 1550SOL     OW16303   9.014   8.917   2.179 -0.2350 -0.3509  0.2992
 1550SOL    HW116304   9.112   8.919   2.161 -0.3195  1.8575 -0.0972
 1550SOL    HW216305   8.993   8.983   2.251 -1.5791  0.0958 -0.4900
 1551SOL     OW16306   8.360   8.972   1.846  0.0066  0.1540  0.5948
 1551SOL    HW116307   8.278   9.029   1.849 -0.2362 -0.2509  2.4138
 1551SOL    HW216308   8.393   8.956   1.939  1.0430 -1.2755  0.0069
 1552SOL     OW16309   5.958   8.643   4.196 -0.4913 -0.0094  0.6327
 1552SOL    HW116310   6.052   8.628   4.165 -0.4338  0.8372  0.3740
 1552SOL    HW216311   5.894   8.611   4.127 -0.3825  0.2111  0.4299
 1553SOL     OW16312   8.034   3.613   5.686  0.1368 -0.0202 -0.3450
 1553SOL    HW116313   8.119   3.569   5.654  2.1272  2.1509  1.7617
 1553SOL    HW216314   8.025   3.598   5.785 -0.4696  2.1550 -0.0621
 1554SOL     OW16315   3.582   1.143   2.444 -0.0452 -0.0957  0.2771
 1554SOL    HW116316   3.597   1.119   2.349  0.1273  1.0018  0.0248
 1554SOL    HW216317   3.485   1.163   2.459  0.1388  1.0052  0.0352
 1555SOL     OW16318   0.891   2.817   7.108 -0.3649 -0.7786 -0.0999
 1555SOL    HW116319   0.829   2.881   7.062 -0.6407 -1.4892 -0.7272
 1555SOL    HW216320   0.980   2.860   7.121 -0.9818  0.2589  0.8161
 1556SOL     OW16321   0.852   5.062   0.238 -0.2331  0.1101 -0.2849
 1556SOL    HW116322   0.866   5.040   0.141  0.2125  2.5596 -0.8092
 1556SOL    HW216323   0.769   5.117   0.249 -0.6395 -0.7073  0.8075
 1557SOL     OW16324   1.800   0.720   1.437  0.3389 -0.4632  0.2233
 1557SOL    HW116325   1.774   0.750   1.529  1.3363 -2.4046  1.1759
 1557SOL    HW216326   1.721   0.726   1.376 -0.2327  1.2187  1.0970
 1558SOL     OW16327   8.298   1.067   7.832 -0.7285  0.6250  0.0707
 1558SOL    HW116328   8.298   1.005   7.910 -2.0278  0.0535 -0.3696
 1558SOL    HW216329   8.204   1.094   7.811 -0.3012  1.5627 -0.6824
 1559SOL     OW16330   7.958   9.206   6.318 -0.3052  0.2480 -0.6031
 1559SOL    HW116331   7.878   9.153   6.345 -0.4406  0.9634  0.4006
 1559SOL    HW216332   7.958   9.217   6.218 -2.2751  1.5645 -0.4742
 1560SOL     OW16333   5.279   2.229   8.041  0.6518  0.4375  0.4389
 1560SOL    HW116334   5.206   2.207   7.976  2.7997 -0.2302 -1.7892
 1560SOL    HW216335   5.314   2.145   8.082 -0.3216  0.8158  2.0886
 1561SOL     OW16336   9.453   5.202   0.990 -0.0906 -0.4614  0.5233
 1561SOL    HW116337   9.410   5.266   0.926 -2.5827 -1.0279  1.5944
 1561SOL    HW216338   9.511   5.139   0.938 -0.6862  0.1838 -0.9839
 1562SOL     OW16339   2.068   7.170   0.628 -0.7036  0.1048  0.3077
 1562SOL    HW116340   2.036   7.263   0.645  0.1908  0.1778  1.6974
 1562SOL    HW216341   2.076   7.121   0.715 -0.4256 -1.0308 -0.3423
 1563SOL     OW16342   0.442   8.334   2.575 -0.2664  0.3160  0.5281
 1563SOL    HW116343   0.492   8.410   2.617  0.3684  0.0982  0.1687
 1563SOL    HW216344   0.348   8.363   2.555  0.0462  1.0935  0.1547
 1564SOL     OW16345   6.179   9.703   7.003  0.8176  0.3641 -0.2170
 1564SOL    HW116346   6.082   9.681   7.008  0.9858 -0.5165 -0.7540
 1564SOL    HW216347   6.220   9.657   6.925  1.4547  1.5759 -0.6097
 1565SOL     OW16348   2.562   2.132   2.640 -0.6333  0.3292 -0.0534
 1565SOL    HW116349   2.639   2.122   2.577 -0.3071  0.6776  0.2814
 1565SOL    HW216350   2.476   2.125   2.590 -0.4092 -1.6088 -0.2139
 1566SOL     OW16351   9.723   4.201   2.284 -0.2470  0.0229 -0.0519
 1566SOL    HW116352   9.745   4.214   2.187 -0.0772 -0.1901 -0.0441
 1566SOL    HW216353   9.792   4.246   2.340 -0.0515 -0.3059 -0.0287
 1567SOL     OW16354   9.624   2.185   7.815 -0.4211 -0.0430 -0.3623
 1567SOL    HW116355   9.576   2.273   7.822 -1.7520 -0.7701 -0.1168
 1567SOL    HW216356   9.571   2.123   7.757  0.2915 -0.8265 -0.1867
 1568SOL     OW16357   1.413   7.806   7.911  0.4467 -0.4053 -0.6812
 1568SOL    HW116358   1.455   7.716   7.902 -0.9128 -1.0312 -0.9476
 1568SOL    HW216359   1.457   7.856   7.986  0.5407 -1.6847  0.1424
 1569SOL     OW16360   0.787   0.741   6.066  0.4170  0.0849 -0.4055
 1569SOL    HW116361   0.752   0.832   6.088 -1.4317 -0.7618  0.2658
 1569SOL    HW216362   0.847   0.709   6.139  2.3001  1.3461 -1.3395
 1570SOL     OW16363   2.657   7.072   2.445 -0.0857  1.0981 -0.4950
 1570SOL    HW116364   2.564   7.039   2.428 -0.4351  0.8201  1.8646
 1570SOL    HW216365   2.677   7.066   2.543  2.1617  1.8405 -0.8959
 1571SOL     OW16366   7.683   5.945   0.622 -0.7378 -0.4540  0.0440
 1571SOL    HW116367   7.776   5.966   0.593 -0.7094  0.6821  0.9175
 1571SOL    HW216368   7.674   5.847   0.639  0.4059 -0.5058  0.3498
 1572SOL     OW16369   0.167   6.140   4.708  0.0632  0.7142 -0.0420
 1572SOL    HW116370   0.235   6.150   4.636  0.4580  0.6625  0.3266
 1572SOL    HW216371   0.098   6.212   4.699 -0.1876  0.3865 -0.7980
 1573SOL     OW16372   4.050   9.234   3.392  0.1319  0.2440  0.4130
 1573SOL    HW116373   4.075   9.259   3.485  0.8085  0.6282  0.1314
 1573SOL    HW216374   4.133   9.221   3.337 -0.2448 -0.6373  0.0327
 1574SOL     OW16375   2.522   7.199   5.628  0.1122 -0.0345  0.0854
 1574SOL    HW116376   2.595   7.160   5.571  0.5245  1.5522 -0.4850
 1574SOL    HW216377   2.438   7.206   5.575 -0.0406 -0.4069  0.2754
 1575SOL     OW16378   5.181   8.598   3.189 -0.0640  0.0315  0.2661
 1575SOL    HW116379   5.206   8.519   3.133  1.9133  1.6320 -1.1654
 1575SOL    HW216380   5.189   8.574   3.286  1.7415 -1.1563 -0.1643
 1576SOL     OW16381   2.799   1.137   5.242  0.6798 -0.2682  0.5122
 1576SOL    HW116382   2.870   1.186   5.293  0.6094  0.0542  0.2978
 1576SOL    HW216383   2.731   1.202   5.209 -0.3199 -0.7077  1.6797
 1577SOL     OW16384   5.042   9.490   7.210  0.0507 -0.3429  0.5269
 1577SOL    HW116385   5.101   9.413   7.231  0.8553  0.0678 -0.1987
 1577SOL    HW216386   5.097   9.568   7.181 -0.9141 -0.6319 -2.3064
 1578SOL     OW16387   8.927   8.617   7.171 -0.9986 -0.5557 -0.1412
 1578SOL    HW116388   8.878   8.630   7.085 -1.4160 -0.2663  0.1372
 1578SOL    HW216389   8.862   8.619   7.247 -0.4749  0.5752  0.2957
 1579SOL     OW16390   9.156   2.933   5.451  0.0198 -0.2989 -0.1669
 1579SOL    HW116391   9.162   2.857   5.516  1.9350  0.5065  0.6479
 1579SOL    HW216392   9.222   2.918   5.376  1.4791  1.2434  0.7684
 1580SOL     OW16393   0.601   4.420   2.678 -0.2587  0.1033 -0.3636
 1580SOL    HW116394   0.603   4.338   2.621 -1.8609 -0.4703  0.3512
 1580SOL    HW216395   0.694   4.448   2.701  0.3147 -1.2760 -0.9654
 1581SOL     OW16396   0.696   7.090   4.924 -0.1583  0.0506  0.0047
 1581SOL    HW116397   0.780   7.138   4.949  0.3657 -0.2766 -1.1255
 1581SOL    HW216398   0.689   7.006   4.978  1.0146 -0.6923 -0.9692
 1582SOL     OW16399   2.879   8.218   7.561 -0.5309 -0.1868 -0.3375
 1582SOL    HW116400   2.895   8.309   7.598  2.6941  0.0278 -2.0510
 1582SOL    HW216401   2.925   8.150   7.618 -1.1556 -0.5234 -0.2345
 1583SOL     OW16402   6.673   1.474   7.816 -0.3763 -0.0977  0.6212
 1583SOL    HW116403   6.693   1.561   7.861 -1.4281  0.5671 -0.1711
 1583SOL    HW216404   6.676   1.400   7.883  1.4013  0.4242  1.1432
 1584SOL     OW16405   1.561   2.484   5.147  0.1895 -0.0727 -0.0559
 1584SOL    HW116406   1.527   2.484   5.241  0.7584  0.3825  0.1526
 1584SOL    HW216407   1.487   2.458   5.085  0.9711 -5.1322  0.9006
 1585SOL     OW16408   0.349   5.679   3.209 -0.1722  0.0485 -0.7415
 1585SOL    HW116409   0.339   5.583   3.236 -2.0853  0.9020  1.7843
 1585SOL    HW216410   0.400   5.728   3.280 -0.3113  1.1707 -1.4091
 1586SOL     OW16411   6.222   0.915   3.446  0.0264  0.3093 -0.4192
 1586SOL    HW116412   6.183   0.981   3.382  2.6647  3.0535  0.6919
 1586SOL    HW216413   6.238   0.959   3.534  1.0501 -2.0435  0.6190
 1587SOL     OW16414   0.591   9.928   4.131  0.2122 -0.8756 -0.8967
 1587SOL    HW116415   0.524   9.854   4.122 -0.6704 -0.2298  0.2122
 1587SOL    HW216416   0.682   9.893   4.109 -0.1357 -2.4004 -0.0108
 1588SOL     OW16417   9.584   5.871   4.354  0.3583  0.7745  0.5745
 1588SOL    HW116418   9.590   5.818   4.438  0.3909  0.4726  0.3791
 1588SOL    HW216419   9.637   5.956   4.364  0.2449  0.8069  0.9086
 1589SOL     OW16420   0.683   4.938   5.422 -0.1500 -0.1747  0.1039
 1589SOL    HW116421   0.665   5.030   5.388  2.2639  0.3458  0.1470
 1589SOL    HW216422   0.687   4.874   5.345  2.4727  0.5110 -0.3556
 1590SOL     OW16423   5.270   1.829   7.648  0.0247  0.2599 -0.1919
 1590SOL    HW116424   5.303   1.767   7.719  0.1987  0.2966 -0.2410
 1590SOL    HW216425   5.191   1.787   7.602  0.7804 -0.3758 -0.9167
 1591SOL     OW16426   4.829   1.754   5.021  0.2626 -0.0384 -0.9515
 1591SOL    HW116427   4.845   1.848   4.990 -2.6670  0.8867  0.2307
 1591SOL    HW216428   4.858   1.745   5.116 -0.2346 -0.0927 -0.8041
 1592SOL     OW16429   7.933   2.661   7.940  0.1740  0.2874  0.2211
 1592SOL    HW116430   7.934   2.583   7.878  0.5061  1.3751 -1.1598
 1592SOL    HW216431   7.838   2.690   7.955  0.1651  0.7414 -0.6975
 1593SOL     OW16432   3.489   4.247   6.006 -0.0763  0.2740  0.1389
 1593SOL    HW116433   3.475   4.271   5.910  1.5167 -1.6100 -0.6061
 1593SOL    HW216434   3.402   4.215   6.046 -1.5324  4.2729  0.3421
 1594SOL     OW16435   1.340   9.173   1.152  0.2173  0.7300  0.4352
 1594SOL    HW116436   1.313   9.243   1.085  1.2701  1.5522  0.8457
 1594SOL    HW216437   1.430   9.138   1.129  0.0508  0.1099  0.7176
 1595SOL     OW16438   4.847   4.563   4.291  0.5285 -0.5324 -0.2462
 1595SOL    HW116439   4.752   4.534   4.283  0.8479 -1.5132 -0.5806
 1595SOL    HW216440   4.851   4.659   4.321 -0.5587 -0.3825 -0.5702
 1596SOL     OW16441   7.016   4.657   0.304  0.4807  0.0069 -0.3562
 1596SOL    HW116442   6.923   4.628   0.279  0.1188  2.3603 -1.9143
 1596SOL    HW216443   7.048   4.603   0.382 -1.2622 -2.4712 -1.3076
 1597SOL     OW16444   9.301   5.921   5.867  0.0244  0.3153  0.1300
 1597SOL    HW116445   9.206   5.952   5.871  1.0759  3.8610 -0.9747
 1597SOL    HW216446   9.348   5.945   5.952  0.6405  1.0730 -0.4176
 1598SOL     OW16447   2.690   4.704   2.497 -0.5062 -0.1637  0.5140
 1598SOL    HW116448   2.637   4.625   2.465 -0.9823 -0.0997  1.1376
 1598SOL    HW216449   2.636   4.788   2.483 -0.6672 -0.1232  1.3677
 1599SOL     OW16450   0.657   2.680   6.721  0.1670 -0.3049 -0.1813
 1599SOL    HW116451   0.746   2.635   6.725 -0.5901 -1.8158 -0.0203
 1599SOL    HW216452   0.586   2.613   6.700 -0.8484  1.0159 -1.0388
 1600SOL     OW16453   0.505   7.039   5.194  0.0693  0.3605  0.0294
 1600SOL    HW116454   0.536   7.010   5.284  2.6056 -1.0050 -1.2134
 1600SOL    HW216455   0.459   6.963   5.148  0.9884  0.2471 -0.7392
 1601SOL     OW16456   0.737   1.844   3.295  0.1753  0.1657  0.5971
 1601SOL    HW116457   0.770   1.775   3.230 -1.0233  1.3706 -1.3567
 1601SOL    HW216458   0.800   1.851   3.372  0.4327 -2.9185  0.7062
 1602SOL     OW16459   2.648   7.324   6.775 -0.4058  0.0914 -0.2075
 1602SOL    HW116460   2.745   7.343   6.766 -0.3654  0.9722  1.9158
 1602SOL    HW216461   2.621   7.255   6.707  1.3235  1.0696 -1.9186
 1603SOL     OW16462   1.877   0.117   1.792  0.1174  0.6712 -0.8400
 1603SOL    HW116463   1.833   0.195   1.837  0.3080  1.0108 -1.2342
 1603SOL    HW216464   1.886   0.135   1.694  1.1481  0.6323 -0.7678
 1604SOL     OW16465   9.371   1.612   4.714  0.6223 -0.0478  0.3180
 1604SOL    HW116466   9.428   1.534   4.740  1.6260  0.8174  0.7876
 1604SOL    HW216467   9.348   1.606   4.617  0.9526 -0.7634  0.2794
 1605SOL     OW16468   4.432   1.752   3.963  0.2320 -0.2546  0.0041
 1605SOL    HW116469   4.514   1.698   3.979  0.4793  0.7027  2.0577
 1605SOL    HW216470   4.457   1.839   3.919  0.1212 -0.6533 -0.8637
 1606SOL     OW16471   9.721   2.068   5.780  0.3973  0.2112  0.1591
 1606SOL    HW116472   9.636   2.120   5.780  0.1091 -0.2596 -0.1885
 1606SOL    HW216473   9.786   2.110   5.843 -0.2067  0.3798  0.6677
 1607SOL     OW16474   7.564   0.389   1.686 -0.4929 -0.2795 -0.2227
 1607SOL    HW116475   7.557   0.468   1.626 -1.7851  0.4761  0.8886
 1607SOL    HW216476   7.583   0.307   1.632  0.3184  0.6997 -1.4324
 1608SOL     OW16477   1.571   1.886   1.444 -0.3896 -0.0130  0.1490
 1608SOL    HW116478   1.488   1.942   1.439  0.2102  0.7892 -1.0216
 1608SOL    HW216479   1.577   1.828   1.362 -0.3949 -0.9242  0.7872
 1609SOL     OW16480   2.777   3.150   0.370  0.3266 -0.4870  0.4353
 1609SOL    HW116481   2.731   3.068   0.404 -0.1378 -0.2762  0.3216
 1609SOL    HW216482   2.721   3.231   0.389 -0.9104 -0.5652 -2.5562
 1610SOL     OW16483   3.569   9.319   8.114 -0.0243  0.1787 -0.1013
 1610SOL    HW116484   3.530   9.408   8.138 -0.1188 -0.2207  1.2666
 1610SOL    HW216485   3.495   9.254   8.097  0.0298 -0.0123  0.3680
 1611SOL     OW16486   2.103   0.062   6.840  0.2873  0.0417 -0.2898
 1611SOL    HW116487   2.089   0.125   6.917  0.2572  0.0520 -0.3034
 1611SOL    HW216488   2.139  -0.025   6.875  0.6360  0.1791 -0.3120
 1612SOL     OW16489   4.353   4.761   6.454  0.2851 -0.1086 -0.4262
 1612SOL    HW116490   4.389   4.813   6.377  0.4161  2.0172  1.0157
 1612SOL    HW216491   4.254   4.752   6.445  0.2578  0.4269 -0.6809
 1613SOL     OW16492   1.635   6.628   2.683 -0.2809 -0.1840 -0.0617
 1613SOL    HW116493   1.551   6.607   2.633 -0.1105  1.1384 -0.9241
 1613SOL    HW216494   1.672   6.715   2.651 -0.4099  0.9345  2.7101
 1614SOL     OW16495   1.372   9.902   1.480  0.3049 -0.2397  0.2802
 1614SOL    HW116496   1.331   9.855   1.557  0.1846  0.0003  0.3615
 1614SOL    HW216497   1.426   9.837   1.426 -2.7080 -1.2833 -1.6275
 1615SOL     OW16498   7.384   6.909   2.858 -0.4318  0.1569  0.1352
 1615SOL    HW116499   7.319   6.976   2.821  0.5915  1.3764  0.5058
 1615SOL    HW216500   7.446   6.955   2.922 -0.5649 -1.4193  1.4275
 1616SOL     OW16501   1.339   5.991   1.692 -0.5654 -0.5658 -0.2480
 1616SOL    HW116502   1.419   5.945   1.732 -0.1594  0.1631 -0.2089
 1616SOL    HW216503   1.259   5.974   1.750 -0.2294 -0.4913  0.2407
 1617SOL     OW16504   9.066   9.804   2.037 -0.2853 -0.0826  0.2412
 1617SOL    HW116505   9.001   9.800   2.113 -0.7873  1.8010 -0.0624
 1617SOL    HW216506   9.018   9.834   1.954  0.7863  0.5123 -0.1762
 1618SOL     OW16507   9.148   0.838   3.464 -0.0439  0.5435 -0.3690
 1618SOL    HW116508   9.112   0.899   3.535  0.3710  0.4267 -0.0600
 1618SOL    HW216509   9.221   0.782   3.502 -0.7757 -0.5180 -0.5258
 1619SOL     OW16510   4.016   0.254   8.157 -0.2299 -0.3179 -0.3061
 1619SOL    HW116511   3.960   0.211   8.087  0.1917 -0.3362 -0.6323
 1619SOL    HW216512   3.997   0.352   8.159 -1.1877 -0.5083  0.4358
 1620SOL     OW16513   9.471   6.035   7.660  0.1207  0.2222 -0.6046
 1620SOL    HW116514   9.488   6.066   7.566 -0.2539  0.9452 -0.4395
 1620SOL    HW216515   9.449   5.938   7.660 -0.7323  0.4074 -1.3556
 1621SOL     OW16516   2.451   1.390   3.697  0.4791 -0.2304 -0.0049
 1621SOL    HW116517   2.375   1.440   3.739  0.1160 -0.4240 -0.4258
 1621SOL    HW216518   2.537   1.435   3.721  0.3234 -0.6724  1.4221
 1622SOL     OW16519   5.327   9.074   3.096 -0.1464 -0.3832 -0.1215
 1622SOL    HW116520   5.331   8.978   3.122  2.7548 -0.2702  0.0165
 1622SOL    HW216521   5.337   9.082   2.997 -1.6658 -0.2632 -0.2835
 1623SOL     OW16522   2.082   8.068   6.676  0.3098 -0.1329  0.2257
 1623SOL    HW116523   2.102   7.970   6.677  0.3388 -0.1394  2.5679
 1623SOL    HW216524   2.097   8.106   6.768 -2.5038  1.4855  0.0788
 1624SOL     OW16525   8.577   3.594   1.147  0.3894  0.9940 -0.5877
 1624SOL    HW116526   8.557   3.620   1.241 -1.2151 -0.4468 -0.5021
 1624SOL    HW216527   8.603   3.675   1.094  0.4017  1.9468  0.8592
 1625SOL     OW16528   2.530   7.872   4.647  0.7758 -0.2790  0.2824
 1625SOL    HW116529   2.614   7.820   4.664  0.6415 -0.5207  0.2109
 1625SOL    HW216530   2.472   7.821   4.584  0.9964  0.3273 -0.4275
 1626SOL     OW16531   3.641   2.694   5.572 -0.3527  0.1579  0.3010
 1626SOL    HW116532   3.741   2.693   5.573 -0.3630 -0.0022  1.5894
 1626SOL    HW216533   3.607   2.713   5.664 -1.5274 -1.7053  0.2757
 1627SOL     OW16534   8.279   9.790   3.780 -0.3971  0.1802  0.3778
 1627SOL    HW116535   8.306   9.873   3.828  0.6172  0.0163  0.1065
 1627SOL    HW216536   8.180   9.778   3.786 -0.4352  0.9110  1.2046
 1628SOL     OW16537   1.807   1.094   6.083 -0.3498 -0.2434  0.0735
 1628SOL    HW116538   1.864   1.176   6.078 -1.0402  0.2111 -0.5337
 1628SOL    HW216539   1.807   1.048   5.995 -1.9145  0.4623 -0.3249
 1629SOL     OW16540   1.660   0.505   5.028 -0.4801  0.5602  0.2158
 1629SOL    HW116541   1.717   0.585   5.044  0.5504 -0.2565  0.7112
 1629SOL    HW216542   1.675   0.470   4.936 -1.7593  1.5895 -0.3854
 1630SOL     OW16543   6.362   9.626   6.801 -0.0521  0.0060  0.1670
 1630SOL    HW116544   6.424   9.565   6.750 -0.2057 -0.1437  0.1584
 1630SOL    HW216545   6.402   9.717   6.808 -1.1867  0.7422 -2.4806
 1631SOL     OW16546   3.091   2.595   5.606  0.0253 -0.1800  0.0027
 1631SOL    HW116547   3.024   2.536   5.650  1.1194 -1.0995  0.4735
 1631SOL    HW216548   3.053   2.687   5.596 -0.9792 -0.4632  1.0386
 1632SOL     OW16549   2.493   8.130   2.848  0.4845 -0.8288 -0.1842
 1632SOL    HW116550   2.520   8.081   2.931  1.4375 -2.2311 -1.2987
 1632SOL    HW216551   2.396   8.115   2.831  0.2314 -0.3615  0.7750
 1633SOL     OW16552   9.332   8.420   6.685 -0.1806 -0.2093 -0.1368
 1633SOL    HW116553   9.342   8.422   6.585 -1.2298 -0.0579 -0.2467
 1633SOL    HW216554   9.294   8.331   6.713  0.1447 -0.2654  0.1287
 1634SOL     OW16555   0.907   1.305   6.122 -0.4317 -0.5965 -0.4396
 1634SOL    HW116556   0.960   1.235   6.073  0.0293 -0.1078 -0.6351
 1634SOL    HW216557   0.952   1.326   6.208  0.0477  0.3031 -0.9087
 1635SOL     OW16558   8.004   9.210   4.754  0.1544  0.1142  0.0207
 1635SOL    HW116559   7.990   9.134   4.690  0.4538  0.8072 -0.8832
 1635SOL    HW216560   7.950   9.289   4.725 -1.2374 -0.1761  1.7305
 1636SOL     OW16561   0.645   7.435   4.214  0.3120  0.1527 -0.4580
 1636SOL    HW116562   0.638   7.369   4.139  1.6503  1.2377 -1.5791
 1636SOL    HW216563   0.564   7.493   4.216  0.7458  0.8294 -1.7826
 1637SOL     OW16564   0.929   7.734   5.710 -0.4130  0.1955 -0.0399
 1637SOL    HW116565   0.896   7.825   5.737 -0.3052  0.2248 -0.0053
 1637SOL    HW216566   1.006   7.745   5.648 -0.5057  0.1282 -0.1686
 1638SOL     OW16567   6.984   7.654   3.062  0.5461 -0.2828 -0.1039
 1638SOL    HW116568   6.979   7.637   3.160 -0.3572 -0.7888 -0.2359
 1638SOL    HW216569   7.074   7.625   3.028  1.2156  0.7818  0.7332
 1639SOL     OW16570   4.763   9.619   4.311 -0.0445 -0.5808 -0.5887
 1639SOL    HW116571   4.689   9.570   4.357  0.9534 -1.2345  0.3516
 1639SOL    HW216572   4.833   9.644   4.378  0.8994 -0.5503 -1.5803
 1640SOL     OW16573   0.398   4.415   0.133  0.2913  0.3458 -0.2212
 1640SOL    HW116574   0.330   4.396   0.062  0.0591 -0.6846  0.2643
 1640SOL    HW216575   0.444   4.502   0.113 -0.3877  0.5006 -1.1506
 1641SOL     OW16576   4.003   7.905   5.285 -0.4696  0.2235 -0.0220
 1641SOL    HW116577   3.990   7.976   5.215 -3.1153 -0.1884 -0.0151
 1641SOL    HW216578   4.009   7.949   5.375  1.2385  0.6422 -0.3291
 1642SOL     OW16579   6.151   9.467   2.245  0.4761 -0.1209 -0.3106
 1642SOL    HW116580   6.167   9.489   2.341  2.5117 -1.9298 -0.1918
 1642SOL    HW216581   6.121   9.372   2.237  0.3779 -0.0026 -1.4597
 1643SOL     OW16582   8.085   5.593   1.404  0.1957 -0.0670  0.0637
 1643SOL    HW116583   8.150   5.539   1.350  0.5683 -0.1866  0.6223
 1643SOL    HW216584   8.006   5.617   1.348  0.5835 -0.1861 -0.5303
 1644SOL     OW16585   5.240   9.920   5.966 -0.7455  0.8255  0.5288
 1644SOL    HW116586   5.177   9.951   5.896 -0.9600 -1.0533 -0.1502
 1644SOL    HW216587   5.326   9.970   5.959 -0.9220  0.9426 -0.8034
 1645SOL     OW16588   7.796   0.991   7.652  0.3419 -0.3167 -0.1187
 1645SOL    HW116589   7.744   1.068   7.614  0.6429 -0.2460 -0.3970
 1645SOL    HW216590   7.796   0.996   7.752 -0.0623 -0.2390 -0.1214
 1646SOL     OW16591   4.023   1.751   0.710  0.1870  0.0304 -0.9268
 1646SOL    HW116592   3.933   1.753   0.754  1.1200 -3.2996  1.2996
 1646SOL    HW216593   4.012   1.732   0.613 -1.5224 -0.9151 -0.5744
 1647SOL     OW16594   3.540   0.090   0.303  0.3526  0.0600  0.2326
 1647SOL    HW116595   3.596   0.008   0.289  0.9777  0.5086  0.0870
 1647SOL    HW216596   3.573   0.164   0.244 -0.1882  0.4307  0.3839
 1648SOL     OW16597   8.185   2.917   7.662 -0.1179  0.6748 -0.1109
 1648SOL    HW116598   8.240   2.838   7.689 -1.4005 -0.0305  0.4762
 1648SOL    HW216599   8.209   2.943   7.569 -0.3619 -1.0289 -0.6733
 1649SOL     OW16600   8.372   9.916   6.021  0.7287 -0.3466  0.2472
 1649SOL    HW116601   8.437   9.850   5.982  0.9326  0.0603 -0.1059
 1649SOL    HW216602   8.287   9.868   6.046  1.4407 -1.0270  1.4304
 1650SOL     OW16603   6.723   4.906   1.037 -0.4188  0.0254 -0.2184
 1650SOL    HW116604   6.673   4.935   1.119 -2.3626 -1.8414 -0.7134
 1650SOL    HW216605   6.791   4.837   1.062 -0.3128  0.1995 -0.0263
 1651SOL     OW16606   8.347   4.975   4.222 -0.3281 -0.0135 -0.7071
 1651SOL    HW116607   8.410   5.044   4.186 -1.4510  2.9926  2.8978
 1651SOL    HW216608   8.261   4.978   4.172  0.1680  0.1074 -1.5613
 1652SOL     OW16609   8.910   2.283   4.529  0.1667  0.1685 -0.0599
 1652SOL    HW116610   8.900   2.305   4.626 -0.9420  0.5773 -0.2512
 1652SOL    HW216611   8.819   2.266   4.490  0.5600  0.5097 -1.1345
 1653SOL     OW16612   1.931   9.819   6.313  0.2530 -0.1859 -0.4054
 1653SOL    HW116613   1.982   9.813   6.399  0.9462  0.7548 -0.7390
 1653SOL    HW216614   1.905   9.914   6.297 -0.6681 -0.4994 -0.7865
 1654SOL     OW16615   3.857   0.153   7.741 -0.3813  0.1963  0.0559
 1654SOL    HW116616   3.760   0.178   7.747 -0.3398  0.0672  1.3585
 1654SOL    HW216617   3.910   0.232   7.711 -0.9497  0.1233 -1.1746
 1655SOL     OW16618   0.871   8.569   3.748 -0.1766 -0.5561  0.0020
 1655SOL    HW116619   0.893   8.537   3.840 -1.1004 -0.6191  0.2046
 1655SOL    HW216620   0.882   8.493   3.683 -1.1519 -0.9630  0.3050
 1656SOL     OW16621   3.648   8.623   5.627  0.0965 -0.1881  0.4290
 1656SOL    HW116622   3.706   8.635   5.547  0.6570 -0.6676  0.7616
 1656SOL    HW216623   3.693   8.659   5.708  0.3809 -1.4786  0.8625
 1657SOL     OW16624   8.831   4.758   6.267 -0.0830 -1.0835 -0.3685
 1657SOL    HW116625   8.785   4.744   6.179  0.0337 -2.0907 -0.2722
 1657SOL    HW216626   8.930   4.750   6.254 -0.0855 -1.5805 -0.0875
 1658SOL     OW16627   0.631   0.979   6.034 -0.0162  0.3345  0.4754
 1658SOL    HW116628   0.633   1.049   5.963 -0.2093  0.2902  0.4258
 1658SOL    HW216629   0.640   1.022   6.124  1.3169  0.2949  0.3624
 1659SOL     OW16630   3.058   7.274   2.311 -0.0076  0.2341  0.5014
 1659SOL    HW116631   3.097   7.344   2.371 -1.6212 -0.8048  2.8636
 1659SOL    HW216632   2.963   7.299   2.288 -1.0653 -1.7776  2.4878
 1660SOL     OW16633   9.967   9.472   7.938  0.3101  0.0843 -0.0165
 1660SOL    HW116634   9.999   9.544   7.999 -0.4196  0.2800  0.1406
 1660SOL    HW216635   9.929   9.513   7.855 -1.0220 -0.0675  0.5064
 1661SOL     OW16636   6.058   7.886   5.188 -0.1430 -0.1916  0.0284
 1661SOL    HW116637   6.088   7.878   5.283 -0.3923 -1.1302  0.0301
 1661SOL    HW216638   6.022   7.979   5.172 -0.6619 -0.2200  1.0106
 1662SOL     OW16639   4.457   9.656   3.177  0.0218 -0.1893 -0.2906
 1662SOL    HW116640   4.399   9.666   3.258 -2.1363 -1.1736 -1.6737
 1662SOL    HW216641   4.424   9.715   3.104  1.4588  0.0757 -0.7461
 1663SOL     OW16642   8.271   8.979   8.168 -0.1343 -0.0824  0.1161
 1663SOL    HW116643   8.184   8.986   8.120  0.8708 -0.5509 -1.8104
 1663SOL    HW216644   8.330   9.056   8.144 -0.0643  0.3240  1.5394
 1664SOL     OW16645   1.010   3.627   4.050 -0.0702 -0.8023  0.3044
 1664SOL    HW116646   1.019   3.533   4.082  0.0590 -1.1904 -0.8437
 1664SOL    HW216647   0.968   3.627   3.959  1.0059  0.1779 -0.2038
 1665SOL     OW16648   4.084   4.822   7.112  0.0360  0.2837 -0.4155
 1665SOL    HW116649   4.175   4.835   7.151 -0.3551  0.2105  0.5450
 1665SOL    HW216650   4.028   4.767   7.175 -1.3316  2.0908  0.0052
 1666SOL     OW16651   1.242   8.302   0.189  0.5490 -1.0566 -0.8357
 1666SOL    HW116652   1.183   8.331   0.114 -0.0360  0.2061  0.0754
 1666SOL    HW216653   1.188   8.248   0.254  0.3568  0.1720  0.0413
 1667SOL     OW16654   2.338   4.424   4.528 -0.0223  0.1668 -0.0552
 1667SOL    HW116655   2.387   4.473   4.456 -0.8992 -0.7383 -1.2766
 1667SOL    HW216656   2.315   4.489   4.601 -0.0205  1.3104 -1.0465
 1668SOL     OW16657   9.228   6.573   1.631 -0.4733  0.0940  0.0570
 1668SOL    HW116658   9.273   6.560   1.543 -1.7847 -1.3042 -0.4306
 1668SOL    HW216659   9.210   6.484   1.673 -0.3905  0.7217  1.4696
 1669SOL     OW16660   1.846   8.928   8.153  0.0172  0.2260 -0.0543
 1669SOL    HW116661   1.882   8.940   8.245 -2.4735  1.1857  0.8257
 1669SOL    HW216662   1.746   8.929   8.155 -0.0893  0.2363 -2.7655
 1670SOL     OW16663   0.117   8.491   4.984  0.0641 -0.2338 -0.0598
 1670SOL    HW116664   0.040   8.436   5.016 -0.4445  1.5742  1.9420
 1670SOL    HW216665   0.083   8.574   4.940  0.8521 -0.3123 -0.8240
 1671SOL     OW16666   2.903   2.614   4.034 -0.1602 -0.4271 -0.2945
 1671SOL    HW116667   2.837   2.565   3.977 -0.0198 -0.5074 -0.3879
 1671SOL    HW216668   2.941   2.691   3.984 -0.5754 -0.0636 -0.0556
 1672SOL     OW16669   2.050   2.878   1.796  0.5609  0.2344 -0.2186
 1672SOL    HW116670   2.125   2.943   1.807 -0.1919  0.9222  0.9899
 1672SOL    HW216671   1.997   2.901   1.714 -0.3266  1.8058  0.7674
 1673SOL     OW16672   1.041   8.270   7.798 -0.2565 -0.1787 -0.5722
 1673SOL    HW116673   0.951   8.306   7.820 -0.5478 -1.4987  0.3872
 1673SOL    HW216674   1.077   8.219   7.875  1.1528 -0.0063 -1.0925
 1674SOL     OW16675   0.199   0.493   2.752  0.1691  0.4836  0.0234
 1674SOL    HW116676   0.238   0.462   2.839 -0.6907 -0.5327  0.0517
 1674SOL    HW216677   0.123   0.554   2.769 -1.4099 -1.4384  0.0290
 1675SOL     OW16678   1.564   7.431   0.264 -0.2264 -0.0556 -0.4505
 1675SOL    HW116679   1.618   7.389   0.191 -1.1476 -1.8401 -0.1238
 1675SOL    HW216680   1.594   7.396   0.352 -0.8904  0.0995 -0.1589
 1676SOL     OW16681   9.081   2.490   1.036 -0.2413 -0.0441  0.3608
 1676SOL    HW116682   9.134   2.547   1.099 -1.7609 -0.9364  2.5168
 1676SOL    HW216683   9.050   2.545   0.959  1.3120  1.1735  0.5742
 1677SOL     OW16684   6.080   3.109   0.753 -0.6200  0.6577 -0.3460
 1677SOL    HW116685   6.135   3.192   0.763 -0.1933  0.4255 -0.7609
 1677SOL    HW216686   6.135   3.030   0.779 -1.6920  0.6743  2.1815
 1678SOL     OW16687   9.066   8.291   6.341 -0.3460 -0.1347 -0.3855
 1678SOL    HW116688   8.996   8.274   6.272 -0.4544  0.0448 -0.3191
 1678SOL    HW216689   9.111   8.205   6.365 -0.1825 -0.1704 -0.8150
 1679SOL     OW16690   1.342   7.503   7.093 -0.6134 -0.4025  1.2088
 1679SOL    HW116691   1.323   7.407   7.113 -1.3436 -0.7824 -1.2032
 1679SOL    HW216692   1.439   7.515   7.072 -0.9696 -1.0659 -0.8979
 1680SOL     OW16693   2.410   9.433   4.864  0.1464  0.3714  0.1791
 1680SOL    HW116694   2.468   9.370   4.813  0.0929  1.0374 -0.7269
 1680SOL    HW216695   2.363   9.494   4.800 -1.1015  0.2251  0.9383
 1681SOL     OW16696   6.055   9.544   3.093  0.0694 -0.0030 -0.0963
 1681SOL    HW116697   6.119   9.482   3.138 -0.6971 -0.8969 -0.2328
 1681SOL    HW216698   6.106   9.606   3.033  0.7640 -1.0561 -0.6039
 1682SOL     OW16699   3.985   1.020   5.814 -0.1480 -0.7654 -0.3909
 1682SOL    HW116700   4.050   1.009   5.739 -0.6728  1.6245 -1.2376
 1682SOL    HW216701   3.893   0.993   5.782 -0.8414  2.6603 -1.4622
 1683SOL     OW16702   5.840   8.575   5.010  0.2184 -0.2113  0.9643
 1683SOL    HW116703   5.836   8.522   4.926  2.6242 -1.1144  1.3594
 1683SOL    HW216704   5.777   8.652   5.005  1.3406  0.5792 -2.2424
 1684SOL     OW16705   0.296   9.165   6.195 -0.1120  0.3418  0.3154
 1684SOL    HW116706   0.221   9.170   6.129 -1.0813 -0.8678  1.2883
 1684SOL    HW216707   0.275   9.221   6.275 -0.4294 -0.7342  1.0044
 1685SOL     OW16708   0.801   4.299   3.191 -0.3368  0.0124 -0.3064
 1685SOL    HW116709   0.833   4.322   3.099 -1.6815  0.1425 -0.7466
 1685SOL    HW216710   0.791   4.383   3.244  2.6452 -0.2092  0.7314
 1686SOL     OW16711   9.553   6.407   1.245 -0.0385  0.0701 -0.1329
 1686SOL    HW116712   9.565   6.490   1.190 -0.6054 -1.0147 -1.9224
 1686SOL    HW216713   9.480   6.422   1.312 -0.0464  1.0429 -0.3498
 1687SOL     OW16714   5.382   5.362   1.628 -0.7535 -0.2244  0.2755
 1687SOL    HW116715   5.472   5.406   1.618 -1.5091  1.0576 -1.1190
 1687SOL    HW216716   5.364   5.307   1.546 -2.0911  1.1587 -0.3875
 1688SOL     OW16717   9.097   1.750   3.100 -0.0229  0.2058  0.3005
 1688SOL    HW116718   9.063   1.710   3.185 -1.3901  0.5752 -0.0533
 1688SOL    HW216719   9.140   1.838   3.118 -1.9212  1.1421  0.4122
 1689SOL     OW16720   0.134   4.644   5.110  0.0876  0.5424  0.2831
 1689SOL    HW116721   0.165   4.697   5.189 -2.5046 -0.2196  1.8813
 1689SOL    HW216722   0.187   4.559   5.104  1.2483  1.2606  0.3677
 1690SOL     OW16723   9.911   8.375   1.448 -0.0625 -0.1176 -0.1819
 1690SOL    HW116724   9.884   8.329   1.364  0.2258  0.2757 -0.4900
 1690SOL    HW216725   9.991   8.432   1.431  0.0110 -0.0522  0.3637
 1691SOL     OW16726   1.884   1.280   0.156  0.0758  0.2369 -0.4071
 1691SOL    HW116727   1.891   1.304   0.253  2.8641  1.1381 -0.8058
 1691SOL    HW216728   1.946   1.204   0.136  0.7700  1.1571 -1.8338
 1692SOL     OW16729   0.683   7.856   0.824 -0.2079  0.2228 -0.0778
 1692SOL    HW116730   0.587   7.834   0.839 -0.1544 -1.4975 -1.9559
 1692SOL    HW216731   0.701   7.950   0.853 -2.5102  0.6453  0.0748
 1693SOL     OW16732   0.344   5.033   0.708  0.5455  0.4030 -0.1680
 1693SOL    HW116733   0.398   4.949   0.711  0.5236  0.4085  0.5357
 1693SOL    HW216734   0.320   5.054   0.613 -0.2440 -0.8978 -0.2832
 1694SOL     OW16735   1.409   1.033   3.318  0.0068 -0.2041 -0.2586
 1694SOL    HW116736   1.331   1.091   3.293 -0.3296 -1.1610 -1.4737
 1694SOL    HW216737   1.490   1.062   3.267  0.3163  0.4454  0.6005
 1695SOL     OW16738   8.969   6.865   4.498  0.3111 -0.1265  0.7453
 1695SOL    HW116739   8.975   6.934   4.569 -0.2576 -1.0212  1.6760
 1695SOL    HW216740   8.878   6.868   4.456 -0.3962 -1.5894  2.1248
 1696SOL     OW16741   4.471   3.330   8.025 -0.0411 -0.0615  0.3735
 1696SOL    HW116742   4.540   3.270   8.065 -0.3982 -0.3692  0.5270
 1696SOL    HW216743   4.390   3.332   8.083  0.3661  1.4052  0.9158
 1697SOL     OW16744   3.955   7.644   1.231  0.0231 -0.5010 -0.4338
 1697SOL    HW116745   3.871   7.697   1.227  0.8146  0.8948  0.9031
 1697SOL    HW216746   3.933   7.549   1.253 -1.2299 -0.2673 -0.6206
 1698SOL     OW16747   6.468   0.496   1.206  0.1627 -0.2855 -0.5887
 1698SOL    HW116748   6.516   0.577   1.241  2.1691 -0.9985 -1.5937
 1698SOL    HW216749   6.481   0.492   1.106 -2.3253 -0.3054 -0.9373
 1699SOL     OW16750   2.735   0.964   4.881 -0.5792 -0.5605  0.0122
 1699SOL    HW116751   2.682   0.940   4.800 -0.1141 -0.0433 -0.4461
 1699SOL    HW216752   2.679   0.949   4.963 -2.4885  2.6759 -0.5986
 1700SOL     OW16753   0.681   5.967   6.679  0.1410 -0.0594 -0.2111
 1700SOL    HW116754   0.690   6.046   6.618  0.4867  0.0557 -0.0131
 1700SOL    HW216755   0.677   5.998   6.774 -1.4809 -0.1675 -0.2275
 1701SOL     OW16756   4.618   2.311   6.257  0.2003  0.0690 -0.2239
 1701SOL    HW116757   4.527   2.352   6.261  0.6003  0.8958  0.5416
 1701SOL    HW216758   4.677   2.354   6.326  0.7916 -1.3959  0.1940
 1702SOL     OW16759   3.733   4.427   0.257 -0.0225 -0.3374  0.2755
 1702SOL    HW116760   3.832   4.438   0.246 -0.0647 -0.4698 -0.2366
 1702SOL    HW216761   3.706   4.337   0.223 -0.1632 -0.7294  1.3863
 1703SOL     OW16762   1.185   1.787   5.082 -0.7548  0.0026 -0.2044
 1703SOL    HW116763   1.104   1.769   5.137 -0.4716  0.2273  0.2879
 1703SOL    HW216764   1.183   1.881   5.048  0.4525  0.7832  1.7818
 1704SOL     OW16765   6.979   5.205   6.980 -0.1701  0.4448  0.4151
 1704SOL    HW116766   7.039   5.135   6.940 -0.9513  0.8314 -1.4789
 1704SOL    HW216767   6.921   5.163   7.050 -0.2820 -0.7057 -0.3473
 1705SOL     OW16768   3.539   2.367   3.609 -0.1640 -0.2528  0.0494
 1705SOL    HW116769   3.440   2.378   3.614 -0.4047 -1.6331 -1.2756
 1705SOL    HW216770   3.578   2.379   3.700 -1.3393  2.0207  0.2908
 1706SOL     OW16771   9.277   6.967   8.160 -0.3362  0.2631  0.6080
 1706SOL    HW116772   9.348   6.949   8.228  0.0369 -0.8762 -0.0773
 1706SOL    HW216773   9.188   6.968   8.205 -0.0706 -0.2674  1.1552
 1707SOL     OW16774   2.653   5.505   7.015 -0.2891  0.4430  0.0190
 1707SOL    HW116775   2.575   5.443   7.021 -0.2538  0.1651 -2.0494
 1707SOL    HW216776   2.738   5.453   7.018 -0.1973  0.6259  0.8310
 1708SOL     OW16777   7.026   9.652   5.141 -0.1303  0.4610  0.5397
 1708SOL    HW116778   7.049   9.712   5.064  0.1031  0.0341  0.2762
 1708SOL    HW216779   7.074   9.684   5.223  2.2437 -1.0127 -0.2295
 1709SOL     OW16780   5.398   8.311   3.298 -0.1130  0.1525  0.2064
 1709SOL    HW116781   5.370   8.215   3.309  0.7704  0.0720  1.8518
 1709SOL    HW216782   5.318   8.370   3.302 -0.4863 -0.3894  0.7648
 1710SOL     OW16783   8.270   0.284   5.105 -0.0730  0.0051 -0.2642
 1710SOL    HW116784   8.319   0.284   5.018 -0.2727  1.3051 -0.3849
 1710SOL    HW216785   8.320   0.228   5.171  1.2252  0.7877 -0.5749
 1711SOL     OW16786   8.333   5.326   1.514  0.2270 -0.0188 -0.4943
 1711SOL    HW116787   8.237   5.306   1.492  0.1363  0.3656 -0.4547
 1711SOL    HW216788   8.387   5.330   1.430 -0.1413  1.5681 -0.6684
 1712SOL     OW16789   3.038   6.345   3.632 -0.0919 -0.5379 -0.3648
 1712SOL    HW116790   3.018   6.306   3.722  1.3693 -0.5506 -0.0378
 1712SOL    HW216791   3.078   6.274   3.574 -1.2565 -0.5951 -1.1180
 1713SOL     OW16792   4.946   8.138   4.908 -0.2112  0.0662  0.1605
 1713SOL    HW116793   5.005   8.182   4.976 -0.7893 -0.2323  0.8615
 1713SOL    HW216794   4.853   8.133   4.943 -0.3327 -0.9019 -0.2802
 1714SOL     OW16795   4.349   3.374   6.328 -0.0314  0.1495 -0.3363
 1714SOL    HW116796   4.348   3.449   6.262 -1.1000 -0.3850 -0.9323
 1714SOL    HW216797   4.438   3.327   6.324  0.7810  1.5907  0.3004
 1715SOL     OW16798   6.168   1.640   3.347  0.0471  0.5378 -0.0385
 1715SOL    HW116799   6.173   1.727   3.397 -0.3608  0.8236 -0.4840
 1715SOL    HW216800   6.087   1.590   3.376 -1.3012  1.6081 -1.8207
 1716SOL     OW16801   2.624   2.917   7.491 -0.2921 -0.2359 -0.9144
 1716SOL    HW116802   2.532   2.947   7.515 -0.4684 -1.2274 -0.3481
 1716SOL    HW216803   2.618   2.840   7.427  0.1144 -1.3215  0.3335
 1717SOL     OW16804   1.386   1.947   2.632 -0.4399 -0.7343 -0.2768
 1717SOL    HW116805   1.467   2.005   2.643 -0.7606 -0.4900  0.7870
 1717SOL    HW216806   1.392   1.898   2.545 -0.9365  2.0910 -1.9525
 1718SOL     OW16807   4.460   2.702   5.485  0.1480 -0.4810  0.4388
 1718SOL    HW116808   4.433   2.769   5.416 -0.8600  0.1619  1.4361
 1718SOL    HW216809   4.500   2.622   5.440  0.9901  0.6081 -0.7807
 1719SOL     OW16810   3.237   2.685   3.050 -0.0221 -0.0326 -0.7063
 1719SOL    HW116811   3.195   2.610   3.101 -0.2593 -0.5865 -1.6991
 1719SOL    HW216812   3.282   2.748   3.113  1.4522 -1.7895  0.0276
 1720SOL     OW16813   9.407   5.003   1.337 -0.5110 -0.0513  0.1070
 1720SOL    HW116814   9.311   5.028   1.323 -0.6902 -0.3259  0.7998
 1720SOL    HW216815   9.413   4.904   1.353  0.0879 -0.3268 -1.7319
 1721SOL     OW16816   6.995   3.357   1.950  0.4344 -0.2214  0.0251
 1721SOL    HW116817   7.078   3.412   1.951 -0.0819  0.5512  0.7083
 1721SOL    HW216818   7.012   3.271   1.902  1.5941 -0.0174  0.0753
 1722SOL     OW16819   7.498   0.486   4.771 -0.5604 -0.0154 -0.2689
 1722SOL    HW116820   7.478   0.408   4.711 -2.6323  0.1096  0.2294
 1722SOL    HW216821   7.527   0.452   4.861  2.3018 -0.2014 -1.2090
 1723SOL     OW16822   7.978   6.256   2.017 -0.1966  0.5275 -0.0388
 1723SOL    HW116823   7.912   6.325   1.990  0.0826  0.9352  0.3217
 1723SOL    HW216824   8.060   6.264   1.961  0.4449  1.4719  1.0106
 1724SOL     OW16825   0.797   3.065   6.872 -0.0038 -0.3135 -0.6459
 1724SOL    HW116826   0.707   3.108   6.872  0.0560 -0.1130  2.1257
 1724SOL    HW216827   0.837   3.072   6.781 -2.8562 -0.5847 -1.9681
 1725SOL     OW16828   6.200   7.621   4.504  0.3619  0.2059  0.2994
 1725SOL    HW116829   6.212   7.703   4.448  1.5240 -0.7477 -0.9035
 1725SOL    HW216830   6.106   7.616   4.537  0.0230  1.5124 -0.4445
 1726SOL     OW16831   9.680   0.024   1.913  0.1093  0.5229 -0.2380
 1726SOL    HW116832   9.686   0.045   2.011 -1.6014  1.8823 -0.4167
 1726SOL    HW216833   9.601  -0.034   1.896  0.3547  0.3590 -0.8317
 1727SOL     OW16834   5.092   2.370   4.890 -0.5380 -0.2332  0.3046
 1727SOL    HW116835   5.003   2.357   4.846 -0.3445 -1.6084  0.2763
 1727SOL    HW216836   5.120   2.466   4.883 -1.4794 -0.0252 -0.7277
 1728SOL     OW16837   0.137   6.143   0.557  0.1113 -0.4919 -0.0470
 1728SOL    HW116838   0.210   6.153   0.490  0.7728 -1.0092  0.5836
 1728SOL    HW216839   0.125   6.046   0.579 -0.0988 -0.3311  0.5710
 1729SOL     OW16840   1.074   1.094   1.774  0.3657  0.0829  0.1548
 1729SOL    HW116841   1.102   1.096   1.678  0.6591  0.0747  0.2422
 1729SOL    HW216842   1.085   1.001   1.810 -1.2800 -0.3024 -0.2647
 1730SOL     OW16843   4.533   2.560   4.845 -0.2797 -0.2305 -0.2444
 1730SOL    HW116844   4.480   2.644   4.838 -0.0804  0.0743  1.6434
 1730SOL    HW216845   4.615   2.567   4.787  0.4166  1.4012  0.8979
 1731SOL     OW16846   9.880   8.290   0.697 -0.1348 -0.1545  0.5820
 1731SOL    HW116847   9.865   8.380   0.737  0.9161  0.2024  0.1845
 1731SOL    HW216848   9.835   8.220   0.754  0.9838  0.3813  2.1589
 1732SOL     OW16849   0.678   0.427   2.924  0.5543  0.0304 -0.0944
 1732SOL    HW116850   0.705   0.500   2.861  1.4191 -0.9531 -0.8894
 1732SOL    HW216851   0.611   0.462   2.989 -1.0802  0.8283 -2.1475
 1733SOL     OW16852   0.577   0.950   5.566 -0.5419 -0.3652 -0.3488
 1733SOL    HW116853   0.559   0.965   5.663  0.4862  0.0345 -0.2071
 1733SOL    HW216854   0.551   1.032   5.514 -1.3054 -0.6652 -0.4402
 1734SOL     OW16855   2.920   8.521   0.875  0.7892  0.5735 -0.0094
 1734SOL    HW116856   2.883   8.474   0.955  2.2749 -0.8862 -0.1551
 1734SOL    HW216857   2.886   8.477   0.792  1.1338  0.5769 -0.1539
 1735SOL     OW16858   0.908   4.186   0.270 -0.0200  0.1308  0.0844
 1735SOL    HW116859   0.877   4.141   0.353 -1.1032  0.8619  0.0853
 1735SOL    HW216860   0.835   4.244   0.234  0.7891  0.6079 -0.8184
 1736SOL     OW16861   4.955   8.637   6.570  0.2189  0.0582 -1.2578
 1736SOL    HW116862   5.044   8.682   6.579 -0.3895  1.1948 -0.7754
 1736SOL    HW216863   4.888   8.703   6.535 -0.5436 -0.6567 -1.1609
 1737SOL     OW16864   7.288   8.801   6.056  0.2213  0.0102  0.4172
 1737SOL    HW116865   7.202   8.835   6.016 -0.3785 -2.8010 -0.8358
 1737SOL    HW216866   7.267   8.746   6.137  0.9990  0.8027  1.1624
 1738SOL     OW16867   8.832   7.801   4.492 -0.0333 -0.2940 -0.6258
 1738SOL    HW116868   8.929   7.811   4.516  0.1657 -1.6868 -0.7826
 1738SOL    HW216869   8.819   7.715   4.442 -1.3103  0.0160 -0.8451
 1739SOL     OW16870   6.725   9.281   2.885 -0.6240  0.2447 -0.4383
 1739SOL    HW116871   6.727   9.182   2.877  0.9418  0.2697 -0.6223
 1739SOL    HW216872   6.638   9.310   2.924 -0.2581 -1.3730  1.6791
 1740SOL     OW16873   0.841   8.224   8.098  0.3545 -0.4732 -0.7289
 1740SOL    HW116874   0.850   8.128   8.124 -0.1147 -0.5666 -0.9223
 1740SOL    HW216875   0.746   8.253   8.108  0.6967  0.2944  0.4705
 1741SOL     OW16876   3.647   4.783   1.099  0.2192  0.2427 -0.0119
 1741SOL    HW116877   3.622   4.876   1.071 -1.0045 -0.4021 -1.1176
 1741SOL    HW216878   3.746   4.772   1.095  0.2624  1.0328 -1.3723
 1742SOL     OW16879   9.569   7.021   3.772 -0.2865 -0.2501 -0.3765
 1742SOL    HW116880   9.631   6.971   3.712  0.5365 -1.4979  1.4884
 1742SOL    HW216881   9.614   7.038   3.860 -2.3269 -0.5539  0.7572
 1743SOL     OW16882   0.508   3.694   6.429  0.2433  0.9629  0.3555
 1743SOL    HW116883   0.528   3.601   6.459  1.4266  1.4621  1.1362
 1743SOL    HW216884   0.438   3.691   6.357 -0.5771 -0.4308  1.1874
 1744SOL     OW16885   8.829   9.694   4.173  0.5354 -0.3764 -0.1039
 1744SOL    HW116886   8.749   9.743   4.138 -0.6587 -0.8096  1.9383
 1744SOL    HW216887   8.882   9.658   4.096 -1.6603 -0.7794 -1.4809
 1745SOL     OW16888   4.442   3.308   4.326  0.3092 -0.1380 -0.5098
 1745SOL    HW116889   4.419   3.389   4.381  1.0575 -0.2811  0.0215
 1745SOL    HW216890   4.374   3.236   4.343  1.0759 -0.5283  0.9944
 1746SOL     OW16891   8.216   5.189   7.102 -0.1243  0.3829  0.1023
 1746SOL    HW116892   8.201   5.269   7.043 -0.5375  0.2203 -0.0168
 1746SOL    HW216893   8.279   5.126   7.057 -0.7404  0.0786 -0.3429
 1747SOL     OW16894   0.253   4.068   2.843 -0.2192  0.0214 -0.0348
 1747SOL    HW116895   0.280   3.996   2.779  0.4664  0.9957 -0.8608
 1747SOL    HW216896   0.307   4.060   2.927 -0.5982 -0.8052  0.1385
 1748SOL     OW16897   0.315   1.400   3.774  0.1425 -0.2760  0.0029
 1748SOL    HW116898   0.389   1.339   3.746  0.0355 -0.2293 -0.3892
 1748SOL    HW216899   0.250   1.411   3.698 -0.0591 -0.0085  0.2122
 1749SOL     OW16900   8.846   4.813   6.664 -0.5632 -0.3378  0.2817
 1749SOL    HW116901   8.813   4.869   6.589  0.1854 -0.0692  0.1575
 1749SOL    HW216902   8.783   4.736   6.678 -1.4592  0.3829  0.2945
 1750SOL     OW16903   6.444   1.944   0.122 -0.0922  0.2831  0.1018
 1750SOL    HW116904   6.497   2.018   0.082 -0.1761  0.1583 -0.2405
 1750SOL    HW216905   6.415   1.880   0.051 -0.0007 -0.0926  0.3987
 1751SOL     OW16906   6.826   0.439   2.852 -0.1381 -0.1705  0.1533
 1751SOL    HW116907   6.781   0.425   2.940  1.2879 -0.1514  0.8964
 1751SOL    HW216908   6.877   0.525   2.853 -1.1979  0.4977 -1.1691
 1752SOL     OW16909   2.134   7.861   4.971  0.4871 -0.3317  0.2572
 1752SOL    HW116910   2.136   7.895   5.065  0.4955  0.5806 -0.0688
 1752SOL    HW216911   2.163   7.934   4.909 -0.8635 -0.4849 -0.5753
 1753SOL     OW16912   1.504   6.937   0.340  0.3743  0.1633 -0.2552
 1753SOL    HW116913   1.525   7.009   0.406 -0.2139  1.0421 -1.0118
 1753SOL    HW216914   1.557   6.954   0.256  1.2285 -1.0213  0.0364
 1754SOL     OW16915   0.566   0.186   2.830  0.4786  0.1973 -0.1059
 1754SOL    HW116916   0.611   0.269   2.861 -1.0355  0.5228  1.3048
 1754SOL    HW216917   0.484   0.210   2.777  0.0680 -0.3994  0.2527
 1755SOL     OW16918   8.237   5.291   5.655  0.4311  0.6366 -0.0954
 1755SOL    HW116919   8.159   5.352   5.663 -0.5567 -0.4446 -1.2001
 1755SOL    HW216920   8.321   5.345   5.651 -0.4463  1.9631 -1.3838
 1756SOL     OW16921   0.750   2.094   7.381  0.1737 -0.1916 -0.1433
 1756SOL    HW116922   0.825   2.115   7.318 -0.7050 -1.5994 -1.6897
 1756SOL    HW216923   0.664   2.130   7.343 -0.2454 -0.3959  0.6081
 1757SOL     OW16924   1.464   1.096   1.591  0.0142  0.0830  0.5437
 1757SOL    HW116925   1.439   1.112   1.686  1.8540  0.3101  0.9909
 1757SOL    HW216926   1.524   1.168   1.559  0.5781 -0.7729 -0.3525
 1758SOL     OW16927   4.839   5.263   1.278  0.0267 -0.4625 -0.0969
 1758SOL    HW116928   4.756   5.209   1.290  0.5260 -0.7866  2.0264
 1758SOL    HW216929   4.864   5.305   1.365  1.9822 -0.1989 -0.7698
 1759SOL     OW16930   7.810   6.262   6.904 -0.5738  0.0431 -0.0497
 1759SOL    HW116931   7.897   6.244   6.951 -1.0794 -0.2174  0.7988
 1759SOL    HW216932   7.820   6.243   6.807  0.4004  0.2782 -0.0028
 1760SOL     OW16933   2.894   3.984   5.423 -0.4277  0.2613  0.3593
 1760SOL    HW116934   2.818   3.960   5.363 -1.4435  3.2082  0.3952
 1760SOL    HW216935   2.899   4.083   5.433  2.8098  0.0809  1.1897
 1761SOL     OW16936   8.918   1.729   6.254 -0.1888  0.5555  0.0537
 1761SOL    HW116937   8.853   1.804   6.257  0.1245  0.8017  0.9382
 1761SOL    HW216938   9.011   1.766   6.248 -0.0101  0.2464  0.9215
 1762SOL     OW16939   1.947   7.380   4.701  0.5196 -0.3888  0.0665
 1762SOL    HW116940   2.043   7.355   4.690  0.1729 -1.0170 -1.5762
 1762SOL    HW216941   1.941   7.460   4.762  2.3589  1.7894 -2.4786
 1763SOL     OW16942   4.267   1.745   2.747 -0.3944 -0.0019  0.1366
 1763SOL    HW116943   4.201   1.790   2.807 -1.3189  0.0885 -0.9498
 1763SOL    HW216944   4.303   1.812   2.682 -1.4150 -0.7103 -1.1719
 1764SOL     OW16945   3.133   1.591   4.731 -0.4676 -0.0247  0.3221
 1764SOL    HW116946   3.145   1.566   4.635  1.9828 -0.0072  0.5983
 1764SOL    HW216947   3.151   1.688   4.743 -1.5255  0.1384  0.7002
 1765SOL     OW16948   4.010   5.865   7.679 -0.2051 -0.3101  0.2769
 1765SOL    HW116949   3.972   5.938   7.622  1.9821  0.3124 -0.4609
 1765SOL    HW216950   3.998   5.777   7.634  1.2601  0.1493 -1.0396
 1766SOL     OW16951   7.452   3.536   6.425  0.3656  0.2673 -0.0361
 1766SOL    HW116952   7.404   3.520   6.338 -0.8351 -1.1277  0.8732
 1766SOL    HW216953   7.415   3.617   6.469 -0.4391 -0.1963  0.1488
 1767SOL     OW16954   9.871   0.140   6.793  0.1339 -0.6541 -0.1101
 1767SOL    HW116955   9.827   0.052   6.778  0.5881 -1.1560  1.4674
 1767SOL    HW216956   9.888   0.153   6.890 -1.0414  1.7325 -0.2063
 1768SOL     OW16957   0.094   4.064   3.847  0.4660  0.1478 -0.3775
 1768SOL    HW116958   0.068   4.008   3.768 -0.8803  1.5562 -0.9555
 1768SOL    HW216959   0.181   4.109   3.829  0.8984 -0.6869 -0.4382
 1769SOL     OW16960   6.169   9.110   6.097  0.5497  0.0960  0.2034
 1769SOL    HW116961   6.135   9.183   6.156  0.8070 -0.6012  1.2189
 1769SOL    HW216962   6.094   9.076   6.040  0.7913  2.3090 -1.5374
 1770SOL     OW16963   3.021   3.303   5.732  0.2076  0.3021 -0.7541
 1770SOL    HW116964   3.051   3.209   5.716 -3.0874 -0.6809 -1.4379
 1770SOL    HW216965   2.963   3.332   5.656 -0.6423  2.1112  0.5749
 1771SOL     OW16966   8.064   5.637   6.896  0.7290  0.1961  0.1912
 1771SOL    HW116967   8.097   5.543   6.886  1.2876  0.3159  0.8700
 1771SOL    HW216968   8.013   5.645   6.982  0.5594  0.4791  0.0636
 1772SOL     OW16969   0.731   5.487   6.711  0.3436 -0.1465  0.4151
 1772SOL    HW116970   0.677   5.474   6.794 -1.6369  1.7945 -0.5205
 1772SOL    HW216971   0.745   5.399   6.666 -0.2643 -0.9416  1.7356
 1773SOL     OW16972   2.239   1.151   3.609 -0.1572 -0.4063  0.3756
 1773SOL    HW116973   2.295   1.156   3.526 -2.2382  1.8618 -0.9698
 1773SOL    HW216974   2.263   1.226   3.670 -1.4084  0.3624 -0.0454
 1774SOL     OW16975   2.945   9.440   0.519 -0.7034  0.1708 -0.2976
 1774SOL    HW116976   2.959   9.343   0.539 -0.2289 -0.1000 -1.8486
 1774SOL    HW216977   2.904   9.449   0.428  0.1872  1.4631 -0.5798
 1775SOL     OW16978   9.673   4.361   0.325 -0.7533 -0.1479  0.2488
 1775SOL    HW116979   9.712   4.316   0.404  0.6305 -0.6299 -0.6870
 1775SOL    HW216980   9.677   4.300   0.246 -0.0048  1.1231 -0.7303
 1776SOL     OW16981   0.372   6.822   1.170  0.3839 -0.4005 -0.5766
 1776SOL    HW116982   0.388   6.847   1.265 -0.5742  0.3368 -0.6058
 1776SOL    HW216983   0.333   6.900   1.121 -2.0600 -1.7482 -0.8145
 1777SOL     OW16984   5.315   0.690   5.104  0.0392 -0.1614 -0.5012
 1777SOL    HW116985   5.290   0.595   5.121 -0.8499 -0.0764 -1.3180
 1777SOL    HW216986   5.380   0.694   5.028 -0.5463 -0.0624 -1.0063
 1778SOL     OW16987   5.788   0.002   5.381  0.0346 -0.0521 -0.3119
 1778SOL    HW116988   5.804   0.007   5.480  1.6683  0.1068 -0.5641
 1778SOL    HW216989   5.876  -0.001   5.334 -0.7483 -0.9763 -1.7242
 1779SOL     OW16990   9.968   7.460   8.014  0.2241  0.2569 -0.1565
 1779SOL    HW116991   9.912   7.473   7.932 -0.1594 -1.4515 -0.1689
 1779SOL    HW216992   9.909   7.460   8.095  0.3206 -0.5172 -0.0865
 1780SOL     OW16993   7.913   4.313   5.578  0.3537  0.8190  0.2168
 1780SOL    HW116994   7.822   4.306   5.537  0.5848 -0.2719 -0.1151
 1780SOL    HW216995   7.904   4.331   5.676 -0.2250  0.0488  0.3069
 1781SOL     OW16996   2.900   2.920   4.609 -0.3645 -0.3339  0.2084
 1781SOL    HW116997   2.975   2.873   4.563 -0.5484  1.3531 -1.8772
 1781SOL    HW216998   2.892   3.014   4.574 -2.9287 -0.2215  0.9625
 1782SOL     OW16999   8.043   3.165   7.564 -0.7488  0.4135  0.1630
 1782SOL    HW117000   8.037   3.102   7.487 -0.8881  1.5912 -0.7941
 1782SOL    HW217001   8.105   3.127   7.633 -1.2343 -1.0104 -0.1634
 1783SOL     OW17002   5.487   1.328   4.668 -0.2593 -0.0761  0.6851
 1783SOL    HW117003   5.400   1.280   4.675  0.0172 -0.5793  0.6270
 1783SOL    HW217004   5.498   1.365   4.576 -0.0556 -0.6743  0.4721
 1784SOL     OW17005   3.273   5.651   6.416 -0.2069  0.1975 -0.4427
 1784SOL    HW117006   3.218   5.669   6.334 -2.5620 -0.2051  1.0021
 1784SOL    HW217007   3.213   5.644   6.495  2.1241  1.5439  1.5038
 1785SOL     OW17008   6.915   1.454   2.692  0.0147  0.3309  0.1476
 1785SOL    HW117009   6.835   1.404   2.724 -0.7720  0.8388 -0.9794
 1785SOL    HW217010   6.933   1.431   2.596 -0.0853  1.8268 -0.2507
 1786SOL     OW17011   2.726   6.092   7.725 -0.4726  0.0039  0.2648
 1786SOL    HW117012   2.695   6.186   7.737 -2.1029 -0.2475 -1.7542
 1786SOL    HW217013   2.798   6.089   7.655 -1.4683 -0.4191 -0.7589
 1787SOL     OW17014   3.642   2.175   0.822  0.1638 -0.0711  0.3220
 1787SOL    HW117015   3.624   2.225   0.737  0.7128  1.5373  1.1432
 1787SOL    HW217016   3.728   2.207   0.862 -0.7440  0.1015  2.1724
 1788SOL     OW17017   2.260   1.635   0.979 -0.4168  0.0585  0.0770
 1788SOL    HW117018   2.281   1.674   1.069 -1.5983  0.5258  0.1657
 1788SOL    HW217019   2.199   1.557   0.990  0.8610 -0.9976 -0.2036
 1789SOL     OW17020   6.839   0.668   1.063 -0.7916 -0.1914  0.6926
 1789SOL    HW117021   6.874   0.683   1.155 -0.0538  0.4603  0.3161
 1789SOL    HW217022   6.884   0.589   1.022  0.1221  0.5266  0.2824
 1790SOL     OW17023   4.469   8.531   2.851  0.2459 -0.1457 -0.0739
 1790SOL    HW117024   4.473   8.624   2.814 -1.6598 -0.1251 -0.3315
 1790SOL    HW217025   4.411   8.531   2.933  0.3321 -1.0736 -0.0161
 1791SOL     OW17026   5.892   3.789   0.394  0.6358  0.0287  0.9410
 1791SOL    HW117027   5.978   3.829   0.428 -0.0957  1.7068  0.8581
 1791SOL    HW217028   5.852   3.732   0.466 -0.6176  3.1297  2.7676
 1792SOL     OW17029   0.968   7.092   5.034 -0.6669  0.3591 -0.1891
 1792SOL    HW117030   1.054   7.092   4.984 -0.2942  0.9398  0.4455
 1792SOL    HW217031   0.956   7.180   5.080  0.1422 -0.9532  2.6629
 1793SOL     OW17032   1.406   3.654   6.735  0.0245 -0.0991  0.2221
 1793SOL    HW117033   1.390   3.688   6.828 -0.1403 -0.0224  0.1653
 1793SOL    HW217034   1.377   3.723   6.669 -1.3050 -0.7779  0.0869
 1794SOL     OW17035   7.100   2.699   4.390 -0.1066  0.2509 -0.1042
 1794SOL    HW117036   7.041   2.752   4.329 -2.6871 -1.0745  1.1518
 1794SOL    HW217037   7.062   2.702   4.483  2.3463  0.1331  0.9271
 1795SOL     OW17038   5.670   5.627   1.220  0.0150  0.4645  0.2516
 1795SOL    HW117039   5.607   5.699   1.192  1.7952  2.3106  0.8800
 1795SOL    HW217040   5.760   5.643   1.179  0.6382 -0.9921  0.9871
 1796SOL     OW17041   1.845   1.616   5.750 -0.1966 -0.2222 -0.2638
 1796SOL    HW117042   1.891   1.535   5.713  0.1367 -0.2212  0.1342
 1796SOL    HW217043   1.862   1.621   5.849  0.9581  1.0973 -0.5161
 1797SOL     OW17044   8.669   8.289   3.363 -0.0673 -0.4356 -0.2482
 1797SOL    HW117045   8.598   8.314   3.297  0.1670  2.4981  0.5644
 1797SOL    HW217046   8.731   8.223   3.321 -2.8565 -2.6132 -1.1946
 1798SOL     OW17047   6.864   2.963   5.842  0.3517 -0.2525 -0.5465
 1798SOL    HW117048   6.954   2.986   5.806  0.2189  0.0862 -0.6603
 1798SOL    HW217049   6.798   2.957   5.767  0.4460 -1.3114 -0.5604
 1799SOL     OW17050   3.904   1.507   0.355 -0.2303 -0.3268 -0.0459
 1799SOL    HW117051   3.919   1.408   0.359 -1.6054 -0.5580 -0.2935
 1799SOL    HW217052   3.992   1.554   0.349  0.3971 -1.5845 -0.9381
 1800SOL     OW17053   3.528   6.228   5.548 -0.0137  0.0853 -0.0862
 1800SOL    HW117054   3.513   6.129   5.547 -0.4458  0.1548 -0.6158
 1800SOL    HW217055   3.538   6.259   5.642 -1.4881 -0.2226  0.1783
 1801SOL     OW17056   3.271   5.701   2.085 -0.6732 -0.0971 -0.1163
 1801SOL    HW117057   3.271   5.611   2.041 -1.2166  0.4522 -1.2620
 1801SOL    HW217058   3.315   5.694   2.175  0.8455 -1.1640 -0.9139
 1802SOL     OW17059   9.127   6.161   7.430  0.1568 -0.0983  0.0605
 1802SOL    HW117060   9.122   6.254   7.393  0.7700 -0.9252 -2.2153
 1802SOL    HW217061   9.065   6.101   7.379  2.0791 -1.5781 -0.6175
 1803SOL     OW17062   2.915   7.163   0.196 -0.3206 -0.1753 -0.3997
 1803SOL    HW117063   2.855   7.242   0.191  1.2870  1.0111 -1.2088
 1803SOL    HW217064   3.011   7.192   0.192  0.3158 -2.0971 -0.0707
 1804SOL     OW17065   2.372   9.680   8.189  0.0623  0.1770 -0.2925
 1804SOL    HW117066   2.408   9.624   8.114 -0.3513  0.7853 -0.9418
 1804SOL    HW217067   2.315   9.753   8.153 -1.2717 -0.3534  0.7068
 1805SOL     OW17068   3.931   8.457   6.851 -0.2595  0.5812 -0.1820
 1805SOL    HW117069   3.954   8.539   6.799  0.5576  0.2705 -0.3238
 1805SOL    HW217070   3.995   8.384   6.827 -0.6365  0.0714  0.3585
 1806SOL     OW17071   2.655   9.459   1.984 -0.0164  0.1188 -0.0181
 1806SOL    HW117072   2.676   9.472   2.081  0.8800  1.3090 -0.3751
 1806SOL    HW217073   2.639   9.361   1.967  0.9163 -0.2422  1.1064
 1807SOL     OW17074   9.064   5.833   4.716  0.3268  0.2475 -0.8132
 1807SOL    HW117075   9.068   5.916   4.771 -1.7966 -0.1370 -0.0294
 1807SOL    HW217076   9.156   5.809   4.685  1.5938  0.3981  2.6899
 1808SOL     OW17077   2.337   5.754   5.152  0.3240  0.0748 -0.4605
 1808SOL    HW117078   2.372   5.661   5.145  1.4677  0.5436 -1.2479
 1808SOL    HW217079   2.293   5.780   5.067  1.3960  0.7914 -0.8038
 1809SOL     OW17080   0.416   9.057   0.839 -0.6375  0.1303 -0.2326
 1809SOL    HW117081   0.328   9.103   0.850  0.3309  2.1288 -0.6859
 1809SOL    HW217082   0.485   9.103   0.894  0.1114 -1.4832  0.1892
 1810SOL     OW17083   9.369   1.210   5.208 -0.3466  0.1715 -0.2452
 1810SOL    HW117084   9.382   1.111   5.203  1.0709  0.2874  0.6858
 1810SOL    HW217085   9.315   1.241   5.130 -1.5791 -1.4508 -0.0524
 1811SOL     OW17086   8.264   1.649   7.289 -0.5358  0.1444  0.4685
 1811SOL    HW117087   8.175   1.692   7.281  0.1172  0.8852 -3.6381
 1811SOL    HW217088   8.254   1.549   7.281 -1.0821  0.1311  1.2411
 1812SOL     OW17089   5.091   4.725   0.656  0.1991 -0.7052  0.0049
 1812SOL    HW117090   5.001   4.727   0.698  1.4776 -2.3486  2.9879
 1812SOL    HW217091   5.127   4.632   0.655  2.9105  0.2545  1.2828
 1813SOL     OW17092   3.538   5.974   6.306 -0.8052 -0.1933 -0.2002
 1813SOL    HW117093   3.508   5.962   6.211 -0.5880  1.2710 -0.4718
 1813SOL    HW217094   3.471   6.028   6.356 -0.8711 -0.8807  0.4607
 1814SOL     OW17095   2.390   0.580   2.159  0.4879 -0.1830  0.1865
 1814SOL    HW117096   2.435   0.644   2.221  1.3069  0.1664 -0.7552
 1814SOL    HW217097   2.397   0.614   2.065 -2.9844  0.5761  0.1587
 1815SOL     OW17098   9.399   3.787   4.655 -0.4855 -0.0156  0.2420
 1815SOL    HW117099   9.481   3.741   4.690 -0.4468 -1.3627 -1.5642
 1815SOL    HW217100   9.408   3.801   4.557 -2.0591  0.6366  0.1807
 1816SOL     OW17101   0.367   1.855   5.656  0.1854  0.4086 -0.1076
 1816SOL    HW117102   0.375   1.948   5.621 -1.0450  0.0967 -1.2619
 1816SOL    HW217103   0.423   1.845   5.738 -0.9922  2.6483  1.0079
 1817SOL     OW17104   7.289   2.506   0.550  0.1124  0.4959  0.6766
 1817SOL    HW117105   7.379   2.462   0.556  0.4010  1.2765  2.7620
 1817SOL    HW217106   7.231   2.456   0.487  1.7452 -0.5020 -0.0733
 1818SOL     OW17107   8.597   1.851   4.342  0.2415  0.2187 -0.3476
 1818SOL    HW117108   8.497   1.862   4.344  0.2003 -0.2100  0.0944
 1818SOL    HW217109   8.621   1.781   4.275  0.2401  0.2795 -0.4115
 1819SOL     OW17110   8.324   3.646   4.264  0.1396 -0.2017  0.1216
 1819SOL    HW117111   8.273   3.641   4.178 -0.6490  1.1732  0.4990
 1819SOL    HW217112   8.269   3.607   4.338  0.9205 -1.6208 -0.0298
 1820SOL     OW17113   9.482   3.142   5.217  0.4213  0.2067  0.1579
 1820SOL    HW117114   9.397   3.106   5.178  0.6780 -0.2500  0.0242
 1820SOL    HW217115   9.467   3.166   5.313 -0.1985  1.2948 -0.2032
 1821SOL     OW17116   8.951   5.716   2.692  0.3018  0.0979  0.1096
 1821SOL    HW117117   8.920   5.623   2.669 -0.5215  0.5704 -0.7576
 1821SOL    HW217118   8.973   5.721   2.789 -1.1747 -0.6003  0.4988
 1822SOL     OW17119   6.647   7.720   4.508 -0.8009  0.4918 -0.0528
 1822SOL    HW117120   6.601   7.665   4.577 -0.5912  0.5619  0.1434
 1822SOL    HW217121   6.598   7.713   4.421 -1.9776  1.7065  0.5113
 1823SOL     OW17122   7.316   0.550   0.064  0.1993 -0.1618 -0.4635
 1823SOL    HW117123   7.292   0.607  -0.014 -0.0756  0.6334  0.1999
 1823SOL    HW217124   7.308   0.603   0.149 -3.1044 -1.9738  0.4864
 1824SOL     OW17125   5.386   4.100   0.368 -0.0571  0.8009  0.2972
 1824SOL    HW117126   5.427   4.164   0.433  1.4286  0.9918 -0.8132
 1824SOL    HW217127   5.440   4.017   0.365  0.8502  1.4486 -1.9258
 1825SOL     OW17128   1.799   9.131   6.924  0.6749 -0.1022  0.0146
 1825SOL    HW117129   1.778   9.086   7.011 -0.9036 -0.9802 -0.7976
 1825SOL    HW217130   1.716   9.172   6.887  1.9450  2.8597  0.3509
 1826SOL     OW17131   3.946   9.168   2.288  0.0869  0.8097 -0.2334
 1826SOL    HW117132   3.989   9.183   2.377  1.0726 -2.1166 -0.1851
 1826SOL    HW217133   4.006   9.113   2.230 -2.0590 -0.3453 -1.4405
 1827SOL     OW17134   6.948   9.963   3.632  0.2923 -0.0594 -0.4419
 1827SOL    HW117135   6.900  10.010   3.707 -0.1489 -0.4555 -0.4791
 1827SOL    HW217136   6.885   9.949   3.556  0.9268  0.9869 -1.1754
 1828SOL     OW17137   7.938   6.984   6.148  0.3845 -0.0024 -0.3193
 1828SOL    HW117138   7.910   7.080   6.160 -0.2751 -0.3746  1.3682
 1828SOL    HW217139   8.028   6.981   6.107  0.8928  1.3881  0.6197
 1829SOL     OW17140   3.215   4.756   0.549 -0.4280 -0.4091 -0.1031
 1829SOL    HW117141   3.207   4.694   0.627 -1.9778 -1.1192 -0.7966
 1829SOL    HW217142   3.254   4.707   0.471 -1.8065 -0.5681 -0.7018
 1830SOL     OW17143   8.294   4.000   0.528 -0.1424 -0.6404  0.1464
 1830SOL    HW117144   8.327   3.916   0.571  0.2304 -2.0173 -2.7301
 1830SOL    HW217145   8.324   4.003   0.433 -1.2170  2.1637 -0.1513
 1831SOL     OW17146   0.799   5.467   7.538  0.2036 -0.2283 -0.7134
 1831SOL    HW117147   0.791   5.545   7.600  0.7402  1.0910 -2.2457
 1831SOL    HW217148   0.871   5.406   7.571  0.4014  0.3887  0.0239
 1832SOL     OW17149   4.389   7.654   3.087  0.2739  0.0538 -0.2751
 1832SOL    HW117150   4.293   7.679   3.083  0.9276  2.8331  0.4209
 1832SOL    HW217151   4.436   7.686   3.005  0.7072 -0.7600 -0.3466
 1833SOL     OW17152   8.612   1.074   1.178  0.5022  0.0201 -0.0900
 1833SOL    HW117153   8.680   1.141   1.148  1.0863 -0.9153 -0.8790
 1833SOL    HW217154   8.645   0.982   1.159 -1.2975 -0.4283 -1.1655
 1834SOL     OW17155   2.354   9.758   1.816  0.0888  0.1667  0.4265
 1834SOL    HW117156   2.350   9.660   1.836 -2.6740 -0.2769 -2.0644
 1834SOL    HW217157   2.287   9.806   1.873  0.0288  0.3682  0.1836
 1835SOL     OW17158   0.185   0.870   7.057 -0.3704 -0.5051  0.0305
 1835SOL    HW117159   0.187   0.812   7.138  2.0801  1.4910  1.4701
 1835SOL    HW217160   0.102   0.926   7.058 -0.1452 -0.1733  1.4229
 1836SOL     OW17161   8.912   7.052   7.294  0.4452  0.3078  0.4135
 1836SOL    HW117162   8.874   7.132   7.246 -2.0665  0.1596  2.0566
 1836SOL    HW217163   8.870   7.045   7.384  0.1994 -3.1980  0.0747
 1837SOL     OW17164   1.277   4.658   3.395  0.3591  0.0014  0.0461
 1837SOL    HW117165   1.367   4.700   3.382 -0.2635  1.3578  0.1000
 1837SOL    HW217166   1.262   4.640   3.492  0.6715 -0.4549  0.0110
 1838SOL     OW17167   1.701   9.652   4.110 -0.0494  0.2535 -0.7285
 1838SOL    HW117168   1.791   9.687   4.083  0.4605  0.0775  0.6938
 1838SOL    HW217169   1.665   9.594   4.036  0.3759  1.4232 -1.8810
 1839SOL     OW17170   0.691   0.749   3.603  0.5260 -0.2843 -0.0801
 1839SOL    HW117171   0.734   0.826   3.555 -0.3637  0.0922 -0.2747
 1839SOL    HW217172   0.763   0.691   3.643  1.2307  0.0876 -0.7912
 1840SOL     OW17173   0.742   9.524   2.745  0.4478 -1.0391 -0.2124
 1840SOL    HW117174   0.812   9.530   2.674 -0.1378 -3.6616 -1.0713
 1840SOL    HW217175   0.773   9.462   2.817  0.8108  1.1922  1.6068
 1841SOL     OW17176   2.738   9.984   0.988  0.1719  0.1321  0.1090
 1841SOL    HW117177   2.640   9.964   0.993  0.3623 -0.6986  0.7300
 1841SOL    HW217178   2.779   9.934   0.912  0.0024  0.9894 -0.5560
 1842SOL     OW17179   2.999   9.310   6.933 -1.1553  0.7867 -1.4545
 1842SOL    HW117180   3.099   9.313   6.928 -1.0110  0.2591  0.4985
 1842SOL    HW217181   2.964   9.233   6.880 -0.3201 -0.5823 -0.0653
 1843SOL     OW17182   9.940   1.643   4.394 -0.6182 -0.0647  0.4559
 1843SOL    HW117183   9.853   1.678   4.358 -0.4773  0.7955  0.9375
 1843SOL    HW217184   9.998   1.613   4.319 -1.0605  0.0085  0.0856
 1844SOL     OW17185   3.362   3.375   6.804  0.5265 -0.1949 -0.1891
 1844SOL    HW117186   3.286   3.327   6.760  1.0943 -1.4414  0.1749
 1844SOL    HW217187   3.436   3.390   6.738  0.7694 -0.7407 -0.0422
 1845SOL     OW17188   1.387   1.209   4.422  0.5891  0.0152  0.0267
 1845SOL    HW117189   1.419   1.115   4.415 -0.4561 -0.4134  0.7733
 1845SOL    HW217190   1.373   1.247   4.331 -0.6829 -1.1585 -0.2919
 1846SOL     OW17191   8.752   2.747   1.559  0.5114 -1.1445 -0.4489
 1846SOL    HW117192   8.765   2.789   1.649 -0.0807 -2.9103  0.4804
 1846SOL    HW217193   8.657   2.759   1.530  1.0959  0.8795 -1.6148
 1847SOL     OW17194   4.919   3.093   6.118  0.2812 -0.2458  1.0277
 1847SOL    HW117195   4.953   3.181   6.152 -0.9408  0.3624  0.6853
 1847SOL    HW217196   4.969   3.069   6.034  0.1844  0.4216  0.7766
 1848SOL     OW17197   3.694   1.244   4.132  0.0154  0.0332 -0.4268
 1848SOL    HW117198   3.779   1.241   4.183 -0.3378 -0.6334  0.1337
 1848SOL    HW217199   3.644   1.158   4.145 -2.3162  1.6470  1.9478
 1849SOL     OW17200   0.403   1.715   3.370 -0.4613 -0.5242 -0.1470
 1849SOL    HW117201   0.306   1.716   3.395 -0.9000  2.2063 -1.7428
 1849SOL    HW217202   0.458   1.751   3.445 -0.6455 -2.0485  0.7475
 1850SOL     OW17203   0.871   5.976   0.708  0.8315 -0.2196 -0.2218
 1850SOL    HW117204   0.790   6.025   0.675  0.2055 -0.8869  0.3294
 1850SOL    HW217205   0.853   5.939   0.799  0.8941 -2.5119 -1.1315
 1851SOL     OW17206   2.595   4.005   1.662  0.3602 -0.3803 -0.1128
 1851SOL    HW117207   2.538   4.060   1.723 -0.4387 -0.6736 -0.5959
 1851SOL    HW217208   2.680   3.980   1.710  1.0898  1.9237 -0.1617
 1852SOL     OW17209   1.479   8.782   0.952 -0.8986  0.0439  0.3692
 1852SOL    HW117210   1.527   8.707   0.997  0.5907  0.7652  0.0224
 1852SOL    HW217211   1.416   8.745   0.883 -0.4312 -0.8921  0.4413
 1853SOL     OW17212   4.103   9.276   2.740  0.5415  0.2573  0.4653
 1853SOL    HW117213   4.135   9.195   2.790 -0.3958  0.8223  2.0151
 1853SOL    HW217214   4.046   9.247   2.663  2.8410 -0.6664 -0.9604
 1854SOL     OW17215   0.506   3.514   3.140  0.5803  0.6238  0.4317
 1854SOL    HW117216   0.467   3.423   3.128  1.4856  0.2025  0.6678
 1854SOL    HW217217   0.567   3.515   3.220  1.5397  1.0987 -0.2887
 1855SOL     OW17218   2.310   2.217   1.559  0.4642 -0.6129 -0.2408
 1855SOL    HW117219   2.296   2.283   1.633  0.7249 -0.5896 -0.2139
 1855SOL    HW217220   2.351   2.262   1.480  3.5904 -1.3680  0.8912
 1856SOL     OW17221   8.151   8.793   7.475 -0.2283  0.2799 -0.2349
 1856SOL    HW117222   8.141   8.873   7.534  0.9694 -0.5734  1.1330
 1856SOL    HW217223   8.060   8.753   7.458 -0.7014  1.2180  0.0514
 1857SOL     OW17224   1.302   6.617   4.345 -0.7920 -0.2545  0.7116
 1857SOL    HW117225   1.355   6.675   4.407  2.3548 -2.0398 -0.1965
 1857SOL    HW217226   1.293   6.525   4.385 -2.3983 -0.2505  0.4015
 1858SOL     OW17227   8.731   4.433   5.805 -0.4669 -0.0326  0.3436
 1858SOL    HW117228   8.688   4.377   5.876 -1.0079 -1.1175 -0.8369
 1858SOL    HW217229   8.806   4.382   5.764 -0.3204  0.4986 -0.0497
 1859SOL     OW17230   0.524   9.591   2.303 -0.2150  0.0889  0.1035
 1859SOL    HW117231   0.471   9.675   2.303 -1.0720 -0.4506  0.4347
 1859SOL    HW217232   0.463   9.512   2.290  0.8991 -0.2892 -3.4196
 1860SOL     OW17233   3.722   9.122   7.032  0.5355  0.3738 -0.2279
 1860SOL    HW117234   3.658   9.132   7.108 -0.5304  0.6042 -1.1284
 1860SOL    HW217235   3.711   9.200   6.969  0.3085 -0.5880 -1.3949
 1861SOL     OW17236   4.537   6.636   2.635 -0.2305  0.1030 -0.2011
 1861SOL    HW117237   4.464   6.704   2.627 -0.6472 -0.6248 -3.1441
 1861SOL    HW217238   4.514   6.572   2.708 -1.5092  1.1232  0.3229
 1862SOL     OW17239   4.634   0.336   4.802 -0.5429 -0.5897  0.2327
 1862SOL    HW117240   4.593   0.385   4.726 -0.1682  0.1048  0.4821
 1862SOL    HW217241   4.733   0.331   4.790 -0.6335 -1.7753 -0.0793
 1863SOL     OW17242   8.279   4.716   5.140  0.1131  0.9420 -0.0918
 1863SOL    HW117243   8.373   4.692   5.113 -0.1001  1.3232 -1.2053
 1863SOL    HW217244   8.267   4.699   5.238  0.2210 -2.6012 -0.6532
 1864SOL     OW17245   3.960   2.941   0.398  0.0550  0.0116 -0.2799
 1864SOL    HW117246   4.045   2.936   0.451  0.4708  0.9866 -0.8278
 1864SOL    HW217247   3.977   2.909   0.305  0.0918  1.1914 -0.6915
 1865SOL     OW17248   1.934   9.044   1.175 -0.3332  0.0245  0.4416
 1865SOL    HW117249   1.950   8.951   1.142 -0.9074  0.6140 -1.5322
 1865SOL    HW217250   1.847   9.048   1.224 -2.2274  0.3148 -2.7978
 1866SOL     OW17251   9.295   1.085   5.782 -0.1303 -0.7795  0.4561
 1866SOL    HW117252   9.279   1.095   5.684  2.1239 -1.4221 -0.0037
 1866SOL    HW217253   9.222   1.029   5.822 -0.9785 -0.6508 -0.8823
 1867SOL     OW17254   9.860   7.683   6.008 -0.2187 -0.1779 -0.4003
 1867SOL    HW117255   9.945   7.711   5.964  0.2098  0.0796  0.5848
 1867SOL    HW217256   9.835   7.591   5.978 -0.2876  0.2556 -1.6972
 1868SOL     OW17257   4.271   0.496   7.913  0.3516  0.2299 -0.6313
 1868SOL    HW117258   4.361   0.538   7.907  0.4167 -0.0220 -1.4062
 1868SOL    HW217259   4.250   0.475   8.009 -0.1495  3.0412 -0.0756
 1869SOL     OW17260   8.172   2.661   6.960  0.1272  0.3672  0.6244
 1869SOL    HW117261   8.165   2.703   6.870 -0.6482  0.6258  0.7996
 1869SOL    HW217262   8.217   2.572   6.952 -1.0250 -0.1559 -0.1940
 1870SOL     OW17263   9.031   8.229   2.174  0.0575  0.2751  0.3133
 1870SOL    HW117264   9.062   8.265   2.086  2.6735  0.7928  1.3844
 1870SOL    HW217265   9.030   8.303   2.241  0.2886 -0.5732  1.2568
 1871SOL     OW17266   2.294   2.150   5.768 -0.3623 -0.4839  0.2641
 1871SOL    HW117267   2.220   2.084   5.761  0.2798 -1.1871  0.0677
 1871SOL    HW217268   2.373   2.118   5.716 -0.2102  0.6664 -0.2425
 1872SOL     OW17269   8.656   5.664   5.226 -0.7556  0.7677 -0.3285
 1872SOL    HW117270   8.678   5.759   5.205  0.5222  0.1441 -1.9193
 1872SOL    HW217271   8.644   5.613   5.140  1.4707 -1.1659  0.4491
 1873SOL     OW17272   0.154   2.112   5.650  0.1122  0.5020  0.3136
 1873SOL    HW117273   0.189   2.044   5.587 -2.0846 -0.4888  0.1171
 1873SOL    HW217274   0.124   2.067   5.735  1.7536  1.6438  1.5413
 1874SOL     OW17275   9.737   3.909   0.235  0.2061 -0.4340 -0.3253
 1874SOL    HW117276   9.833   3.895   0.260  0.3230  1.1109  0.1325
 1874SOL    HW217277   9.682   3.924   0.317  0.0275  1.3136 -0.7421
 1875SOL     OW17278   2.195   7.874   5.558  0.0444 -0.1735 -0.0772
 1875SOL    HW117279   2.148   7.795   5.597  0.6420 -0.7059 -0.4221
 1875SOL    HW217280   2.182   7.953   5.617 -1.3296 -0.2922 -0.1990
 1876SOL     OW17281   2.794   9.041   4.334 -0.1712  0.0159  0.5648
 1876SOL    HW117282   2.761   9.067   4.425  0.5992  1.3094  0.4818
 1876SOL    HW217283   2.889   9.012   4.340 -0.4270 -0.8868  0.3284
 1877SOL     OW17284   0.459   2.356   5.783 -0.0074  0.2231 -0.2029
 1877SOL    HW117285   0.517   2.325   5.859 -0.1748  2.7985  1.0418
 1877SOL    HW217286   0.516   2.389   5.709  0.1612  1.6917  0.5612
 1878SOL     OW17287   3.582   0.161   0.568 -0.6413 -0.6175  0.1218
 1878SOL    HW117288   3.611   0.082   0.622 -0.0692  0.4951  1.5014
 1878SOL    HW217289   3.576   0.136   0.472  4.0573 -1.1871 -0.1592
 1879SOL     OW17290   7.063   1.812   3.889  0.3854  0.0128 -0.0399
 1879SOL    HW117291   7.018   1.839   3.974  0.6681 -1.8106  0.7016
 1879SOL    HW217292   7.135   1.746   3.909  2.2775  1.5916 -1.3999
 1880SOL     OW17293   3.001   0.266   7.506  0.1592  0.2630 -0.1238
 1880SOL    HW117294   3.069   0.320   7.555  0.8780 -1.0722  0.3691
 1880SOL    HW217295   3.036   0.174   7.489 -0.4228  0.4204 -2.3782
 1881SOL     OW17296   3.125   4.788   3.990  0.5624 -0.4952 -0.0589
 1881SOL    HW117297   3.133   4.865   3.927 -1.1333 -0.1345  0.1382
 1881SOL    HW217298   3.105   4.705   3.938  1.0031 -0.5363 -0.1591
 1882SOL     OW17299   7.795   3.971   2.081 -0.0803 -0.3215  0.2581
 1882SOL    HW117300   7.874   3.998   2.136  1.4321 -2.5271 -0.7608
 1882SOL    HW217301   7.813   3.990   1.985 -1.0757 -0.1848  0.0935
 1883SOL     OW17302   6.548   0.322   2.500  1.0782  0.6573 -0.0041
 1883SOL    HW117303   6.630   0.309   2.556  2.1325  0.6214 -1.5157
 1883SOL    HW217304   6.573   0.319   2.403 -0.9182 -0.8182 -0.5190
 1884SOL     OW17305   8.673   4.222   6.012 -0.4288 -0.8297 -0.1400
 1884SOL    HW117306   8.710   4.131   5.996 -0.6919 -0.8664 -0.5266
 1884SOL    HW217307   8.601   4.218   6.081  0.1174 -0.7939  0.4424
 1885SOL     OW17308   9.003   0.108   6.232 -0.2751  0.4881  0.3656
 1885SOL    HW117309   8.926   0.131   6.173  0.1628  2.1809  0.4277
 1885SOL    HW217310   9.084   0.157   6.201  0.3831 -0.0085  1.2858
 1886SOL     OW17311   1.714   6.871   1.340 -0.0949  0.3293  0.2074
 1886SOL    HW117312   1.663   6.791   1.309  0.8557  0.1669 -0.9985
 1886SOL    HW217313   1.670   6.910   1.421 -0.8739 -1.0798  0.4702
 1887SOL     OW17314   8.932   9.333   0.988  0.3646 -0.5405 -0.0055
 1887SOL    HW117315   8.860   9.400   1.001  0.9321  0.2886 -1.0993
 1887SOL    HW217316   8.893   9.248   0.953 -0.0667 -0.0504 -0.7128
 1888SOL     OW17317   3.030   2.951   6.616  0.5759 -0.1290  0.7057
 1888SOL    HW117318   2.994   2.975   6.706  1.5476 -0.7202  1.2591
 1888SOL    HW217319   3.120   2.992   6.604  0.2685  0.3028 -0.1720
 1889SOL     OW17320   3.383   7.709   2.035  0.3279  0.9847 -0.0574
 1889SOL    HW117321   3.308   7.766   2.067 -0.8279  0.7004 -2.1557
 1889SOL    HW217322   3.431   7.669   2.113 -1.9937  0.8039  1.3250
 1890SOL     OW17323   9.129   9.659   2.628  0.4862 -0.1519 -0.4619
 1890SOL    HW117324   9.130   9.734   2.694  0.7805 -0.7341  0.2053
 1890SOL    HW217325   9.152   9.693   2.537  0.9172  0.5078 -0.1066
 1891SOL     OW17326   0.012   2.551   0.448  0.8678 -0.1095 -0.1141
 1891SOL    HW117327  -0.085   2.563   0.428  1.1932 -0.0041 -1.6664
 1891SOL    HW217328   0.022   2.507   0.537 -0.6600 -2.4346 -1.0457
 1892SOL     OW17329   8.319   5.771   3.231  0.4653  0.3952 -0.3766
 1892SOL    HW117330   8.340   5.868   3.221  0.7607  0.4430  0.6249
 1892SOL    HW217331   8.397   5.725   3.274 -0.0536 -0.1040  0.0340
 1893SOL     OW17332   9.166   1.996   4.276 -0.0517  0.3696 -0.5906
 1893SOL    HW117333   9.261   2.024   4.296  0.2098 -1.5749  1.0326
 1893SOL    HW217334   9.166   1.905   4.236 -1.2438  0.3681 -0.6045
 1894SOL     OW17335   9.419   5.106   3.610 -0.2894 -0.2539 -0.0947
 1894SOL    HW117336   9.355   5.093   3.685 -0.4993 -0.8478 -0.3744
 1894SOL    HW217337   9.375   5.084   3.523 -0.5845  2.1165 -0.5822
 1895SOL     OW17338   3.737   8.117   7.305 -0.6781 -0.2390  0.1421
 1895SOL    HW117339   3.687   8.186   7.254 -0.1770 -0.3570 -0.5220
 1895SOL    HW217340   3.681   8.083   7.380 -1.0176  0.7126  0.3267
 1896SOL     OW17341   9.851   6.193   0.537 -0.0655  0.1380 -0.2276
 1896SOL    HW117342   9.948   6.190   0.562 -0.7147 -0.4506  2.3460
 1896SOL    HW217343   9.813   6.101   0.542 -1.2913  0.6987  1.0966
 1897SOL     OW17344   0.143   1.010   3.586 -0.4181 -0.3012  0.0332
 1897SOL    HW117345   0.117   1.022   3.682 -1.9254 -1.4187 -0.2185
 1897SOL    HW217346   0.242   1.020   3.577 -0.2643 -0.1354  1.7008
 1898SOL     OW17347   5.767   9.764   6.587 -0.8873  0.4218 -0.0575
 1898SOL    HW117348   5.740   9.677   6.629  0.5108  0.0352  0.0506
 1898SOL    HW217349   5.755   9.758   6.488  1.1728 -0.6211 -0.2552
 1899SOL     OW17350   3.225   8.405   6.260  0.1963 -0.1876 -0.8974
 1899SOL    HW117351   3.217   8.477   6.330  0.5234 -0.6559 -0.3701
 1899SOL    HW217352   3.181   8.436   6.176 -1.0385  0.0198 -0.1994
 1900SOL     OW17353   5.780   6.392   1.333 -0.3782 -0.2446  0.0563
 1900SOL    HW117354   5.743   6.484   1.346 -0.1239 -0.0797 -0.4124
 1900SOL    HW217355   5.708   6.325   1.354 -0.7572  0.0664 -0.2407
 1901SOL     OW17356   5.543   1.002   7.087  0.3022 -0.0676 -0.7624
 1901SOL    HW117357   5.593   0.956   7.014 -1.0578  0.2968 -1.9460
 1901SOL    HW217358   5.522   1.096   7.059 -1.5665 -0.4014 -0.5595
 1902SOL     OW17359   1.700   6.007   1.060 -0.0626 -0.8030  0.1685
 1902SOL    HW117360   1.757   6.088   1.044 -0.0084 -0.9126 -0.1932
 1902SOL    HW217361   1.728   5.933   0.999  1.3032 -1.8152  1.9980
 1903SOL     OW17362   2.257   1.643   3.026 -0.1953 -0.2930  0.6521
 1903SOL    HW117363   2.338   1.638   3.084  0.0751  0.3829  0.3455
 1903SOL    HW217364   2.199   1.563   3.041  1.0884 -1.3397  0.0420
 1904SOL     OW17365   0.574   3.116   3.695  0.3594 -0.0608  0.4031
 1904SOL    HW117366   0.622   3.033   3.724  0.1635 -0.8601 -1.5120
 1904SOL    HW217367   0.640   3.182   3.659  0.4838  0.5250  1.6770
 1905SOL     OW17368   2.824   6.835   1.295 -0.2414 -0.4221  0.0772
 1905SOL    HW117369   2.809   6.823   1.393 -1.1028  1.2750  0.1636
 1905SOL    HW217370   2.841   6.932   1.275  0.5033 -0.8356 -1.3702
 1906SOL     OW17371   9.678   4.836   7.510  0.4178 -0.0863  0.0850
 1906SOL    HW117372   9.756   4.781   7.539  0.8773  0.6612  0.2815
 1906SOL    HW217373   9.595   4.781   7.513  0.4809 -0.0853  2.6341
 1907SOL     OW17374   8.915   1.550   5.252 -0.4792 -0.1754 -0.0139
 1907SOL    HW117375   8.847   1.511   5.189  1.0859  0.0956 -1.9122
 1907SOL    HW217376   8.971   1.616   5.203  0.5028  0.3641  1.8014
 1908SOL     OW17377   3.888   2.217   0.060  0.2093  0.3606  0.6075
 1908SOL    HW117378   3.832   2.297   0.084 -1.6265 -0.9639  0.8879
 1908SOL    HW217379   3.858   2.138   0.114  1.5147 -0.7025 -0.1813
 1909SOL     OW17380   8.987   4.604   3.984 -0.2069  0.4828 -0.4934
 1909SOL    HW117381   9.024   4.524   3.937 -0.2284  1.5860 -2.4756
 1909SOL    HW217382   8.888   4.607   3.973 -0.3830  0.0042  0.8542
 1910SOL     OW17383   5.851   8.153   3.408 -0.4487  0.4225  0.0937
 1910SOL    HW117384   5.820   8.239   3.449 -0.4522 -0.0696  1.1539
 1910SOL    HW217385   5.793   8.130   3.330  1.0249  2.6029 -1.7362
 1911SOL     OW17386   7.892   2.017   3.522  0.5309 -0.1205  0.5300
 1911SOL    HW117387   7.989   2.033   3.543  0.0972  2.8442  0.4247
 1911SOL    HW217388   7.840   2.013   3.607  0.4652  0.2467  0.5074
 1912SOL     OW17389   1.509   4.480   3.289  0.2566 -0.0365 -0.0600
 1912SOL    HW117390   1.420   4.498   3.331  0.3062  0.1309 -0.0293
 1912SOL    HW217391   1.503   4.495   3.190 -0.0017 -0.9412 -0.1908
 1913SOL     OW17392   8.066   2.188   1.375  0.2804 -0.5962 -0.0917
 1913SOL    HW117393   8.070   2.132   1.292  1.1671 -0.8237  0.0963
 1913SOL    HW217394   8.149   2.243   1.382  0.2431 -0.6287  0.6784
 1914SOL     OW17395   3.393   2.952   0.968 -0.1053 -0.5156  0.3517
 1914SOL    HW117396   3.438   3.028   0.922  0.9726 -1.1390  0.3569
 1914SOL    HW217397   3.356   2.983   1.055  0.7380 -0.0986  0.5680
 1915SOL     OW17398   8.092   0.914   5.236  0.8737 -0.0884  0.2050
 1915SOL    HW117399   8.095   1.012   5.259  2.4717  0.0896 -0.6494
 1915SOL    HW217400   8.184   0.875   5.245  0.0139 -1.8201  1.7469
 1916SOL     OW17401   1.932   5.308   7.281  0.1926 -0.2487 -0.3636
 1916SOL    HW117402   1.910   5.232   7.343  1.3627 -0.2980  0.0051
 1916SOL    HW217403   2.027   5.299   7.250 -0.6360 -0.7050 -2.8765
 1917SOL     OW17404   2.593   3.574   2.168  0.0569 -0.2135  0.1584
 1917SOL    HW117405   2.647   3.576   2.084  0.9982 -0.3796  0.7576
 1917SOL    HW217406   2.568   3.668   2.193 -1.8833 -0.2969 -1.3532
 1918SOL     OW17407   5.695   0.373   2.557 -0.4483  0.2165 -0.0652
 1918SOL    HW117408   5.779   0.424   2.543  0.0003 -0.7116 -0.8021
 1918SOL    HW217409   5.688   0.346   2.653 -0.1461  0.7036  0.0934
 1919SOL     OW17410   8.690   2.429   2.958  0.0408  0.2571  0.3353
 1919SOL    HW117411   8.785   2.459   2.948  0.0707  0.5270  1.3074
 1919SOL    HW217412   8.645   2.485   3.027 -0.8219  0.1135 -0.1107
 1920SOL     OW17413   4.674   8.429   3.469 -0.0710 -0.3665 -0.1814
 1920SOL    HW117414   4.696   8.519   3.504  0.9833 -1.4395  2.0358
 1920SOL    HW217415   4.575   8.417   3.467 -0.1809  0.2713  1.0604
 1921SOL     OW17416   2.666   5.374   4.591 -0.1562  0.4052 -0.9250
 1921SOL    HW117417   2.662   5.325   4.503 -0.3093  1.2424 -1.3886
 1921SOL    HW217418   2.576   5.370   4.635  0.0882 -0.5712 -0.4921
 1922SOL     OW17419   3.724   1.851   1.143  0.2879  0.1052  0.1180
 1922SOL    HW117420   3.752   1.938   1.183 -0.3767  0.2046  0.3808
 1922SOL    HW217421   3.624   1.845   1.143  0.2097  0.7184 -2.8239
 1923SOL     OW17422   8.067   1.393   5.139 -0.3564 -0.0020  0.0495
 1923SOL    HW117423   7.992   1.371   5.076 -0.6384  0.8122  0.0955
 1923SOL    HW217424   8.052   1.483   5.178 -0.2235 -0.5450  1.3602
 1924SOL     OW17425   8.546   7.326   3.993 -0.2572  0.1549 -0.4437
 1924SOL    HW117426   8.641   7.357   3.988 -0.5329  1.0489 -0.2405
 1924SOL    HW217427   8.536   7.240   3.944  0.6984 -0.0345 -0.3134
 1925SOL     OW17428   3.392   1.404   5.556  0.0033 -0.6128  0.4405
 1925SOL    HW117429   3.366   1.382   5.649  0.5307 -0.0040  0.7413
 1925SOL    HW217430   3.475   1.461   5.557 -0.3185 -0.1124 -0.3692
 1926SOL     OW17431   5.233   0.439   5.708 -0.0404 -0.2935  0.4393
 1926SOL    HW117432   5.238   0.418   5.806  0.4489  1.7393  0.8774
 1926SOL    HW217433   5.296   0.513   5.687 -1.0382  0.1130 -1.2093
 1927SOL     OW17434   8.327   1.901   4.350  0.6648  0.2363  0.4171
 1927SOL    HW117435   8.368   1.983   4.311 -0.4045  0.4544 -0.2628
 1927SOL    HW217436   8.275   1.925   4.432  0.0358  0.3006  0.0032
 1928SOL     OW17437   7.918   4.867   6.718  0.1083  0.4860 -0.2708
 1928SOL    HW117438   7.919   4.782   6.666 -2.7111  1.0736 -1.3567
 1928SOL    HW217439   7.975   4.935   6.673 -0.0369  0.0945 -1.0461
 1929SOL     OW17440   4.777   8.047   4.497 -0.3997  0.4186 -0.5507
 1929SOL    HW117441   4.855   8.033   4.436  0.7648 -0.2417  1.0682
 1929SOL    HW217442   4.710   7.973   4.483  0.2049 -0.1391 -0.5188
 1930SOL     OW17443   3.401   2.227   6.647  0.5565 -0.2746 -0.1020
 1930SOL    HW117444   3.330   2.157   6.636 -0.4811  0.6802  0.3955
 1930SOL    HW217445   3.483   2.199   6.598  0.5064 -2.3167  0.9213
 1931SOL     OW17446   6.949   5.708   1.254  0.4140 -0.4525 -0.3267
 1931SOL    HW117447   6.899   5.633   1.298 -0.9839  0.4337 -0.3769
 1931SOL    HW217448   6.924   5.714   1.158 -0.3090  0.7521 -0.0769
 1932SOL     OW17449   8.914   6.202   3.159 -0.7015  0.3223 -0.1226
 1932SOL    HW117450   8.846   6.128   3.153 -1.0380  0.5322  0.9645
 1932SOL    HW217451   8.913   6.241   3.251  2.2127 -0.9065  0.4757
 1933SOL     OW17452   7.806   1.963   1.725  0.0373  0.1146 -0.8686
 1933SOL    HW117453   7.756   1.877   1.713 -1.5081  1.0171 -0.8587
 1933SOL    HW217454   7.853   1.961   1.814 -0.0277 -0.6896 -0.8413
 1934SOL     OW17455   1.160   9.599   5.628  0.7917 -0.2166  0.7759
 1934SOL    HW117456   1.069   9.606   5.669  0.8549 -0.7997  1.0240
 1934SOL    HW217457   1.210   9.523   5.670  1.6548  0.5422  1.1413
 1935SOL     OW17458   8.940   1.686   6.536 -0.3199  0.1456 -0.0814
 1935SOL    HW117459   8.845   1.685   6.567 -0.3568 -2.9471 -0.0735
 1935SOL    HW217460   8.943   1.669   6.438  0.3184 -4.0113  0.5668
 1936SOL     OW17461   7.125   7.881   2.705  0.2498  0.1410  0.0984
 1936SOL    HW117462   7.200   7.946   2.717  2.5774 -2.4128  0.1672
 1936SOL    HW217463   7.053   7.900   2.771  1.8294  1.3690  1.5272
 1937SOL     OW17464   4.881   0.616   7.778 -0.3387 -0.0501 -0.1199
 1937SOL    HW117465   4.947   0.628   7.852  1.0635 -2.0624 -1.0009
 1937SOL    HW217466   4.927   0.580   7.697 -2.2716 -0.1776 -1.2064
 1938SOL     OW17467   7.310   9.451   6.386  0.2178 -0.2784 -0.1411
 1938SOL    HW117468   7.254   9.395   6.447 -0.5984 -0.3811 -0.9668
 1938SOL    HW217469   7.256   9.475   6.305  0.7399  1.2178 -0.0660
 1939SOL     OW17470   6.325   9.339   6.861 -0.3209 -0.1811  0.8039
 1939SOL    HW117471   6.294   9.341   6.766  2.5359 -0.2997 -0.1840
 1939SOL    HW217472   6.365   9.428   6.885  0.3703 -0.6378  1.3779
 1940SOL     OW17473   7.250   5.893   1.656 -0.2327 -0.8109 -0.3701
 1940SOL    HW117474   7.208   5.875   1.567 -0.4645  0.6484 -0.5673
 1940SOL    HW217475   7.247   5.991   1.675  0.3444 -1.0458  0.9879
 1941SOL     OW17476   1.721   2.189   7.298  0.3412 -0.1343 -0.1160
 1941SOL    HW117477   1.775   2.228   7.372  0.6740  0.1918 -0.5288
 1941SOL    HW217478   1.780   2.168   7.220 -0.3198  1.4504 -1.0708
 1942SOL     OW17479   0.580   9.331   2.905 -0.0510  0.4383 -0.3096
 1942SOL    HW117480   0.537   9.290   2.824 -0.6529 -0.9055  0.6742
 1942SOL    HW217481   0.678   9.315   2.903 -0.1406 -0.0810 -0.4929
 1943SOL     OW17482   3.490   9.040   0.222  0.2996  0.5642 -0.2105
 1943SOL    HW117483   3.555   9.062   0.149 -0.8178  0.0689 -1.3678
 1943SOL    HW217484   3.397   9.045   0.186 -0.1325 -3.1539  0.2067
 1944SOL     OW17485   3.517   3.080   5.457 -0.3745  0.0111 -0.8537
 1944SOL    HW117486   3.502   2.984   5.433  0.4231  0.0941 -1.6934
 1944SOL    HW217487   3.592   3.117   5.402 -1.1969  1.3394 -1.0918
 1945SOL     OW17488   3.299   1.360   3.616 -0.1405  0.0516 -0.0629
 1945SOL    HW117489   3.203   1.358   3.644  0.3810 -0.9869  1.7330
 1945SOL    HW217490   3.336   1.267   3.619  1.0782  0.5291 -0.2143
 1946SOL     OW17491   0.946   4.699   5.143  0.3748 -0.0500  0.4190
 1946SOL    HW117492   0.947   4.645   5.059 -2.4444  0.0036  0.2989
 1946SOL    HW217493   0.998   4.652   5.214 -1.4677 -2.6038  0.1176
 1947SOL     OW17494   1.377   9.420   1.913  0.5495 -0.1515  0.5398
 1947SOL    HW117495   1.421   9.375   1.991  1.4979 -0.1000  0.0374
 1947SOL    HW217496   1.368   9.517   1.931  1.5123 -0.0057  0.2530
 1948SOL     OW17497   4.034   1.327   1.939  0.3286  0.3446 -0.2064
 1948SOL    HW117498   4.013   1.268   2.017  0.5877 -0.5814 -0.8157
 1948SOL    HW217499   3.992   1.288   1.857 -0.8434  1.8719 -0.3634
 1949SOL     OW17500   8.733   7.510   6.806  0.4399  0.0044  0.1085
 1949SOL    HW117501   8.639   7.481   6.824 -0.2976  1.7473 -0.8213
 1949SOL    HW217502   8.773   7.547   6.890  0.0503 -0.0530  0.3204
 1950SOL     OW17503   5.942   1.511   0.278  0.1801 -0.0902  1.2070
 1950SOL    HW117504   6.005   1.499   0.355  2.4079  0.7030 -0.4382
 1950SOL    HW217505   5.994   1.535   0.196 -2.1783 -0.6465 -0.4947
 1951SOL     OW17506   2.432   9.283   7.571 -0.1672  0.2301  0.6513
 1951SOL    HW117507   2.386   9.265   7.658  2.8681 -0.7007  2.1455
 1951SOL    HW217508   2.431   9.200   7.515  0.5279 -0.1028  1.1165
 1952SOL     OW17509   9.414   9.616   3.085  0.6450 -0.2294 -0.0010
 1952SOL    HW117510   9.478   9.540   3.096  1.9854  0.6560 -1.5368
 1952SOL    HW217511   9.457   9.688   3.032 -1.6132  0.4281 -0.9848
 1953SOL     OW17512   9.688   9.846   6.713  0.1875 -0.2462  0.7687
 1953SOL    HW117513   9.593   9.879   6.708  0.6732  1.0575 -0.2659
 1953SOL    HW217514   9.693   9.768   6.775 -1.1072  1.3240  2.9341
 1954SOL     OW17515   8.552   3.634   5.869  0.1993 -0.0450  0.4633
 1954SOL    HW117516   8.603   3.597   5.791 -0.8893  0.1253 -0.3442
 1954SOL    HW217517   8.483   3.568   5.898 -0.2869  0.4456  0.4248
 1955SOL     OW17518   1.015   1.219   2.879 -0.1984  0.3369 -0.3301
 1955SOL    HW117519   1.002   1.273   2.962  0.0680  0.7972 -0.5818
 1955SOL    HW217520   1.019   1.122   2.902  4.3373  0.6800  0.7683
 1956SOL     OW17521   7.731   0.126   1.926 -0.0789  0.0669  0.3424
 1956SOL    HW117522   7.737   0.117   2.025 -1.1943  1.1779  0.5329
 1956SOL    HW217523   7.818   0.101   1.884  0.2758 -0.7741  1.5724
 1957SOL     OW17524   1.183   5.755   0.799  0.1525  0.0162  0.0973
 1957SOL    HW117525   1.168   5.824   0.870 -1.5978 -0.6934  0.4459
 1957SOL    HW217526   1.153   5.790   0.711  0.9715  0.3647 -0.0457
 1958SOL     OW17527   4.356   1.930   0.991  0.0858 -0.0254  0.2520
 1958SOL    HW117528   4.360   1.947   0.892  1.2229  0.6772  0.4155
 1958SOL    HW217529   4.289   1.858   1.009 -2.5566  2.0541 -0.7623
 1959SOL     OW17530   1.561   5.880   0.696 -0.2162  0.4639  0.0585
 1959SOL    HW117531   1.589   5.840   0.783 -0.1690 -0.1919 -0.2504
 1959SOL    HW217532   1.576   5.813   0.622 -0.3357  0.9785 -0.4384
 1960SOL     OW17533   1.420   8.661   3.303  0.0182 -0.0720  0.1546
 1960SOL    HW117534   1.432   8.602   3.223 -0.8357  0.4687 -0.3773
 1960SOL    HW217535   1.456   8.614   3.384  0.1793 -0.9472 -0.4112
 1961SOL     OW17536   9.169   6.252   0.039  0.2146  0.5652 -0.5252
 1961SOL    HW117537   9.075   6.256   0.074 -0.8894  1.1375 -3.4679
 1961SOL    HW217538   9.203   6.345   0.026  0.7861  0.3491 -0.5777
 1962SOL     OW17539   9.843   3.457   4.774  0.3875 -0.2221  0.1596
 1962SOL    HW117540   9.847   3.366   4.731 -0.2036 -0.1382 -0.0748
 1962SOL    HW217541   9.837   3.446   4.873 -0.7571 -0.4603  0.0690
 1963SOL     OW17542   4.976   9.384   2.406 -0.7398  0.1491  0.0718
 1963SOL    HW117543   4.955   9.454   2.338 -0.4453 -0.5082 -0.7089
 1963SOL    HW217544   4.999   9.427   2.493  0.2184  1.0573 -0.6192
 1964SOL     OW17545   0.948   7.283   4.584  0.3635  0.0361 -0.4364
 1964SOL    HW117546   0.884   7.326   4.521  0.6919  1.3093  0.0683
 1964SOL    HW217547   0.967   7.346   4.660  1.5090 -0.6752 -0.1148
 1965SOL     OW17548   0.089   7.670   5.814  0.0453  0.3832 -0.7417
 1965SOL    HW117549   0.140   7.593   5.776 -0.6849 -0.5490  0.1397
 1965SOL    HW217550   0.059   7.731   5.740 -2.6308 -2.1760 -1.8418
 1966SOL     OW17551   2.153   8.556   7.923  0.3213 -0.1306 -0.5220
 1966SOL    HW117552   2.207   8.604   7.993 -0.4173  0.7446 -0.5342
 1966SOL    HW217553   2.071   8.609   7.903 -0.8631 -1.7500 -0.0611
 1967SOL     OW17554   8.901   6.053   4.218  0.4604 -0.1260 -0.0829
 1967SOL    HW117555   8.963   5.988   4.175  1.6805  0.8745  0.1506
 1967SOL    HW217556   8.817   6.006   4.245  1.5182 -1.7222  0.4984
 1968SOL     OW17557   9.172   3.978   6.387 -0.1635  0.4837 -0.0896
 1968SOL    HW117558   9.108   3.995   6.312 -1.4287 -0.3008  0.8016
 1968SOL    HW217559   9.264   3.963   6.349 -0.2008  3.0482 -1.2780
 1969SOL     OW17560   0.549   4.289   7.940  0.2891 -0.0226  0.7091
 1969SOL    HW117561   0.519   4.208   7.888  0.9534 -0.4663  1.0211
 1969SOL    HW217562   0.538   4.272   8.038 -0.2798  0.5492  0.7482
 1970SOL     OW17563   8.369   3.215   5.596 -0.6110  0.0324  0.2346
 1970SOL    HW117564   8.397   3.222   5.500 -1.1179 -0.3788  0.0583
 1970SOL    HW217565   8.451   3.216   5.654 -0.2118 -1.2489 -0.2891
 1971SOL     OW17566   7.550   7.365   1.960  0.2044 -0.3052 -0.1138
 1971SOL    HW117567   7.514   7.454   1.988  1.2797  0.2699 -0.5303
 1971SOL    HW217568   7.550   7.358   1.860  0.5013 -0.6140 -0.0949
 1972SOL     OW17569   3.445   4.524   3.008 -0.1084  0.2295  0.0732
 1972SOL    HW117570   3.358   4.513   3.055 -0.7174  1.5733 -0.7199
 1972SOL    HW217571   3.430   4.566   2.918  0.8734 -3.4994 -1.9417
 1973SOL     OW17572   0.855   0.286   5.937 -0.1626 -0.0203  0.5766
 1973SOL    HW117573   0.874   0.384   5.927 -1.4945  0.2343  0.4450
 1973SOL    HW217574   0.864   0.261   6.034  1.1720  0.0077  0.4686
 1974SOL     OW17575   6.756   1.842   4.745  0.0580 -0.0899  0.6008
 1974SOL    HW117576   6.692   1.770   4.719 -1.0103  1.2574 -0.5607
 1974SOL    HW217577   6.848   1.804   4.751 -0.5158 -1.5859  0.1676
 1975SOL     OW17578   2.936   7.758   7.207 -0.2769 -0.0254  0.1570
 1975SOL    HW117579   2.915   7.758   7.109 -2.2707  0.2723  0.5826
 1975SOL    HW217580   3.021   7.810   7.222 -0.3903  0.6256 -1.3147
 1976SOL     OW17581   2.070   5.554   1.453 -0.1206  0.3272  0.3457
 1976SOL    HW117582   2.039   5.528   1.362 -2.6149 -0.7197  1.4678
 1976SOL    HW217583   2.033   5.644   1.477 -1.2552 -0.3432  1.1640
 1977SOL     OW17584   9.259   8.113   4.136 -0.7857  0.4419 -0.0562
 1977SOL    HW117585   9.268   8.061   4.221  2.5336  0.2677 -0.4497
 1977SOL    HW217586   9.245   8.210   4.157  1.4700  0.6193  0.7176
 1978SOL     OW17587   2.697   6.746   4.837 -0.2495  0.3006  0.0938
 1978SOL    HW117588   2.723   6.650   4.837 -1.7893 -0.1321 -1.4249
 1978SOL    HW217589   2.644   6.767   4.755  1.1950  2.7610 -0.2749
 1979SOL     OW17590   8.146   0.366   7.284  0.6858  0.6930 -0.0930
 1979SOL    HW117591   8.153   0.285   7.225  0.3074  0.6224 -0.0400
 1979SOL    HW217592   8.093   0.343   7.365 -1.1779  1.5499 -1.0545
 1980SOL     OW17593   2.031   7.847   5.801  0.1448 -0.1648 -0.1752
 1980SOL    HW117594   1.967   7.900   5.857  0.1322 -0.6314  0.2629
 1980SOL    HW217595   2.125   7.868   5.829  0.1311 -0.5630  0.1740
 1981SOL     OW17596   2.193   1.075   0.359 -0.4133  0.2614  0.3952
 1981SOL    HW117597   2.212   0.980   0.333 -1.0292  0.4353 -0.7167
 1981SOL    HW217598   2.094   1.089   0.363 -0.3304  0.5177  1.8590
 1982SOL     OW17599   5.201   2.794   0.630 -0.2815 -0.5495 -0.1543
 1982SOL    HW117600   5.116   2.788   0.577 -0.6907  0.5472  0.3715
 1982SOL    HW217601   5.187   2.854   0.708  0.7384 -1.0511  0.4152
 1983SOL     OW17602   3.149   4.478   6.764  0.1435  0.3145 -0.1818
 1983SOL    HW117603   3.234   4.433   6.738  0.1374 -0.6998  1.4657
 1983SOL    HW217604   3.170   4.561   6.816  0.1361  1.1046 -1.4330
 1984SOL     OW17605   5.746   0.339   3.496  0.3549 -0.0198  0.1223
 1984SOL    HW117606   5.730   0.246   3.461 -0.5992  0.6304 -1.1927
 1984SOL    HW217607   5.779   0.333   3.590  0.4962 -1.7058 -0.0068
 1985SOL     OW17608   2.340   7.255   6.468  0.0815 -0.0214  0.2731
 1985SOL    HW117609   2.261   7.218   6.419 -1.1314  0.0311  2.1306
 1985SOL    HW217610   2.311   7.287   6.558  2.4848 -1.3115  1.5562
 1986SOL     OW17611   3.405   5.309   0.430 -0.4944  0.2769  0.1024
 1986SOL    HW117612   3.386   5.384   0.493 -0.0585  0.6857 -0.2588
 1986SOL    HW217613   3.500   5.313   0.400  0.3988 -2.1576  2.4070
 1987SOL     OW17614   4.182   8.547   5.630  0.1588 -0.0354  0.3027
 1987SOL    HW117615   4.202   8.603   5.710 -1.7505  1.9910 -0.5848
 1987SOL    HW217616   4.268   8.513   5.591  1.3349  2.0142  1.0369
 1988SOL     OW17617   7.818   7.564   1.642 -0.2023 -0.0195  0.9033
 1988SOL    HW117618   7.910   7.602   1.630  1.1659 -3.0240  1.2749
 1988SOL    HW217619   7.785   7.583   1.734  0.4160  0.3365  1.0547
 1989SOL     OW17620   9.007   5.529   3.778 -0.3686  0.8659  0.1692
 1989SOL    HW117621   9.049   5.453   3.728 -0.9842 -1.0266  2.4466
 1989SOL    HW217622   9.079   5.590   3.812  0.2034  0.6230 -0.5811
 1990SOL     OW17623   1.272   1.970   6.014 -0.5247 -0.3329  0.7103
 1990SOL    HW117624   1.235   2.056   5.981  0.4921 -0.7225 -1.5787
 1990SOL    HW217625   1.198   1.906   6.032 -1.1322 -0.0306 -0.6815
 1991SOL     OW17626   7.015   3.153   0.434 -0.3699 -1.1982 -0.2909
 1991SOL    HW117627   7.002   3.131   0.530 -2.8989 -1.4289 -0.6548
 1991SOL    HW217628   6.968   3.238   0.412  0.1901 -1.1421 -1.3200
 1992SOL     OW17629   7.932   4.362   6.608  0.5677  0.6884  0.0195
 1992SOL    HW117630   7.986   4.316   6.678  3.5807  1.8233 -1.4509
 1992SOL    HW217631   7.846   4.395   6.647  1.7200  0.3975  2.8780
 1993SOL     OW17632   8.000   3.797   2.680 -0.1695 -0.0457  0.2163
 1993SOL    HW117633   8.047   3.875   2.721 -0.3596  0.0572  0.2388
 1993SOL    HW217634   8.002   3.720   2.744 -0.1511  0.0019  0.2734
 1994SOL     OW17635   8.251   4.147   4.360 -0.3339 -0.2114  0.5198
 1994SOL    HW117636   8.168   4.124   4.309 -0.4513  1.2826  0.0145
 1994SOL    HW217637   8.312   4.068   4.362 -0.2379 -0.2333 -2.1309
 1995SOL     OW17638   9.287   6.983   2.039  0.5837  0.5505  0.8835
 1995SOL    HW117639   9.217   7.042   2.079  0.6685  0.2772  1.4505
 1995SOL    HW217640   9.345   7.037   1.978 -1.8637  0.1610 -1.8382
 1996SOL     OW17641   5.761   5.267   0.407  0.1071 -0.6859  0.1057
 1996SOL    HW117642   5.663   5.265   0.429  0.4070  1.5670  1.8865
 1996SOL    HW217643   5.809   5.204   0.469  0.0177 -0.3037  0.5655
 1997SOL     OW17644   6.696   2.027   5.727  0.4809 -0.2606  0.1954
 1997SOL    HW117645   6.639   2.031   5.810  0.6060 -1.5554  0.3609
 1997SOL    HW217646   6.770   1.960   5.741  1.2354  0.4152 -0.5169
 1998SOL     OW17647   7.823   1.294   5.010 -0.6312  0.6219  0.2999
 1998SOL    HW117648   7.779   1.226   4.953  0.3328  1.2032 -1.1758
 1998SOL    HW217649   7.805   1.275   5.107 -0.4115 -1.6730 -0.1010
 1999SOL     OW17650   9.386   2.148   5.588  0.4827 -0.0657 -0.0907
 1999SOL    HW117651   9.429   2.192   5.509 -1.0829 -0.0294 -0.9337
 1999SOL    HW217652   9.369   2.052   5.566  0.3895 -0.1487  0.3536
 2000SOL     OW17653   3.911   4.253   3.556 -0.7830 -0.4655  0.4694
 2000SOL    HW117654   3.980   4.272   3.625 -0.9354  0.2052  0.4408
 2000SOL    HW217655   3.822   4.285   3.589 -0.5761  1.4441 -0.7484
 2001SOL     OW17656   2.145   3.620   1.774 -0.0483 -0.0569  0.7636
 2001SOL    HW117657   2.050   3.604   1.747  0.1678 -1.5407  0.8507
 2001SOL    HW217658   2.200   3.638   1.692 -0.3489  0.5178  0.6868
 2002SOL     OW17659   9.526   6.651   7.082 -0.3054 -0.1801  0.6267
 2002SOL    HW117660   9.514   6.552   7.082 -0.1244 -0.2053  1.3527
 2002SOL    HW217661   9.438   6.696   7.067 -0.6997 -0.4230  2.1323
 2003SOL     OW17662   9.509   9.666   2.717  0.2460  0.2715 -0.1083
 2003SOL    HW117663   9.455   9.583   2.703  0.5438  0.3712 -2.0636
 2003SOL    HW217664   9.587   9.666   2.654  2.2154  0.4228  2.2409
 2004SOL     OW17665   9.703   3.650   0.062  0.1181 -0.2437  0.2427
 2004SOL    HW117666   9.739   3.720   0.123  1.1931  0.3672 -1.0624
 2004SOL    HW217667   9.642   3.590   0.113 -1.8283  2.3746  1.0893
 2005SOL     OW17668   0.910   1.681   3.132 -0.0177 -0.0957  0.3865
 2005SOL    HW117669   0.832   1.618   3.132  0.7625 -1.1289 -2.0369
 2005SOL    HW217670   0.900   1.747   3.057  0.9599  0.3682  0.6527
 2006SOL     OW17671   1.964   3.267   4.303 -0.3818 -0.1252 -0.3587
 2006SOL    HW117672   1.977   3.227   4.393 -0.5241 -1.7817 -1.0485
 2006SOL    HW217673   1.866   3.278   4.285 -0.3926 -0.6770 -0.6672
 2007SOL     OW17674   7.344   5.497   1.693  0.5550 -0.3890 -0.0374
 2007SOL    HW117675   7.412   5.569   1.680 -0.5523  0.4598 -1.1888
 2007SOL    HW217676   7.304   5.471   1.605 -0.2476 -1.2313  0.5576
 2008SOL     OW17677   1.850   6.475   1.413 -0.4444  1.0699  0.3543
 2008SOL    HW117678   1.789   6.420   1.470  0.2022 -0.2905 -0.2590
 2008SOL    HW217679   1.798   6.514   1.337 -0.2592 -1.3939 -1.0836
 2009SOL     OW17680   0.088   4.098   4.606 -0.3749  0.0611 -0.1776
 2009SOL    HW117681   0.066   4.172   4.543 -0.8452 -0.9357 -1.2124
 2009SOL    HW217682   0.156   4.038   4.563 -1.3443 -1.1031 -0.1024
 2010SOL     OW17683   9.761   6.128   4.406 -0.0017 -0.3991 -0.1910
 2010SOL    HW117684   9.831   6.113   4.476  0.8475 -0.3223 -1.0323
 2010SOL    HW217685   9.703   6.205   4.434  0.9664  0.2921 -0.0589
 2011SOL     OW17686   4.005   4.817   7.906  0.4722 -0.7167 -0.2960
 2011SOL    HW117687   3.912   4.854   7.917  1.2098  0.5826  1.8511
 2011SOL    HW217688   4.052   4.868   7.834 -0.6014 -1.6720 -1.7110
 2012SOL     OW17689   1.906   1.992   0.729  0.1542  0.2863 -0.0332
 2012SOL    HW117690   2.002   1.981   0.752  0.5207  0.5486 -1.4088
 2012SOL    HW217691   1.896   1.999   0.630 -1.3690 -0.6806  0.0323
 2013SOL     OW17692   2.305   6.887   7.742  0.4215  0.1062  0.8837
 2013SOL    HW117693   2.383   6.894   7.805  0.3668 -0.2808  0.9916
 2013SOL    HW217694   2.233   6.833   7.784  0.0162  0.6232  0.8559
 2014SOL     OW17695   6.926   2.264   0.793  0.0670  0.0451 -0.4435
 2014SOL    HW117696   6.903   2.353   0.755 -1.3127 -0.5351 -0.9925
 2014SOL    HW217697   7.012   2.270   0.844  1.1630  1.1750 -2.3943
 2015SOL     OW17698   2.748   4.344   0.119  0.3345  0.1459 -0.3710
 2015SOL    HW117699   2.821   4.292   0.075  0.4492  1.9809 -2.4460
 2015SOL    HW217700   2.659   4.307   0.092  0.4476 -0.7973  0.5191
 2016SOL     OW17701   2.487   6.759   6.680  0.5341  0.1598  1.3230
 2016SOL    HW117702   2.469   6.713   6.593  0.5468  0.1508  1.3254
 2016SOL    HW217703   2.408   6.750   6.740  0.7531 -0.3436  1.5379
 2017SOL     OW17704   0.526   3.674   3.835  0.3757  0.3081 -0.3619
 2017SOL    HW117705   0.459   3.621   3.782 -0.7946  0.8776  0.5160
 2017SOL    HW217706   0.480   3.718   3.911  1.5661  1.6375 -0.3929
 2018SOL     OW17707   5.382   9.654   4.148  0.0465  0.8966 -0.2609
 2018SOL    HW117708   5.435   9.639   4.065 -2.6520  0.3726 -1.9497
 2018SOL    HW217709   5.400   9.580   4.213 -0.1582 -0.3943 -1.6454
 2019SOL     OW17710   0.624   6.819   2.011 -0.6271 -0.3655 -0.1514
 2019SOL    HW117711   0.627   6.895   1.946 -2.3276  1.0753  1.3932
 2019SOL    HW217712   0.598   6.854   2.101 -1.1439 -2.7430  0.6426
 2020SOL     OW17713   3.995   6.766   2.812 -0.0023 -0.1021  0.2321
 2020SOL    HW117714   4.037   6.846   2.855  0.1812  0.1939 -0.5048
 2020SOL    HW217715   3.987   6.780   2.714 -2.5376  0.1452  0.4583
 2021SOL     OW17716   5.176   9.703   7.097 -0.2295 -0.1108  0.2257
 2021SOL    HW117717   5.145   9.679   7.005  0.7282 -1.3173  0.2096
 2021SOL    HW217718   5.272   9.732   7.094 -0.5895  1.1532  0.6482
 2022SOL     OW17719   7.085   5.626   0.294 -0.0283 -0.4266 -0.2330
 2022SOL    HW117720   7.125   5.655   0.207  0.1320 -0.3351 -0.1293
 2022SOL    HW217721   7.001   5.575   0.277 -0.3226  0.1162 -0.4146
 2023SOL     OW17722   9.370   8.173   2.701  0.3587  0.6436  0.1697
 2023SOL    HW117723   9.310   8.093   2.692  1.9747 -0.5894  0.0114
 2023SOL    HW217724   9.320   8.248   2.744 -0.6532 -1.1048  2.1206
 2024SOL     OW17725   0.934   7.344   2.842 -0.0677 -0.5883  0.1704
 2024SOL    HW117726   1.013   7.404   2.853 -0.3417 -0.6334  2.6182
 2024SOL    HW217727   0.862   7.392   2.792 -0.0226  0.8896  1.5033
 2025SOL     OW17728   7.618   3.307   7.725 -0.8146 -0.2883  0.0472
 2025SOL    HW117729   7.647   3.320   7.630 -0.4360 -1.5104 -0.0119
 2025SOL    HW217730   7.628   3.393   7.775  0.1175  0.0546 -0.7238
 2026SOL     OW17731   3.337   1.292   2.492 -0.2603  0.0106 -0.1971
 2026SOL    HW117732   3.298   1.334   2.410  0.3502  0.3196 -0.3338
 2026SOL    HW217733   3.370   1.364   2.553 -2.4804 -0.1358  1.2234
 2027SOL     OW17734   8.891   7.637   1.905 -0.0757 -0.6389  0.0515
 2027SOL    HW117735   8.833   7.599   1.834 -0.2292 -1.7288  0.7544
 2027SOL    HW217736   8.854   7.726   1.934 -0.0086 -0.1876 -1.2068
 2028SOL     OW17737   3.889   0.858   6.877 -0.3796  0.0644 -0.3455
 2028SOL    HW117738   3.820   0.930   6.884 -0.4866 -0.1381  0.7750
 2028SOL    HW217739   3.967   0.880   6.936  0.1133 -0.1660 -0.8960
 2029SOL     OW17740   5.553   5.244   2.314 -0.1741 -0.3732 -0.2734
 2029SOL    HW117741   5.597   5.184   2.247 -0.9726 -1.7116  0.3902
 2029SOL    HW217742   5.455   5.226   2.316 -0.0447 -0.9869  1.8861
 2030SOL     OW17743   3.024   5.873   2.822  0.1516 -0.4226 -0.2348
 2030SOL    HW117744   2.999   5.832   2.734 -0.5522 -0.8089  0.1412
 2030SOL    HW217745   3.114   5.841   2.850  0.2046 -0.6106 -0.6232
 2031SOL     OW17746   5.320   0.715   8.134 -0.2263  0.4153  0.0607
 2031SOL    HW117747   5.320   0.815   8.126  0.7569  0.1735 -3.6499
 2031SOL    HW217748   5.408   0.684   8.169 -0.5404  0.8186  1.2361
 2032SOL     OW17749   8.541   2.049   3.357 -0.1084  0.6863 -0.3403
 2032SOL    HW117750   8.568   2.086   3.268  0.5216 -0.5904 -0.6897
 2032SOL    HW217751   8.619   2.047   3.418 -0.4439  1.1637  0.1056
 2033SOL     OW17752   8.813   3.911   4.920  0.3172  0.5752  0.2040
 2033SOL    HW117753   8.906   3.876   4.923  0.4902  0.8431 -1.4554
 2033SOL    HW217754   8.758   3.867   4.991  0.6077 -2.8954 -1.5848
 2034SOL     OW17755   2.457   5.391   4.014  0.0538 -0.0974 -0.4252
 2034SOL    HW117756   2.408   5.475   4.038  0.5859  0.4283 -1.1494
 2034SOL    HW217757   2.458   5.380   3.915  2.5130  0.6183 -0.5227
 2035SOL     OW17758   2.300   3.061   1.696  0.1037  0.3433 -0.2277
 2035SOL    HW117759   2.241   3.042   1.618 -0.7153 -1.1602  0.7391
 2035SOL    HW217760   2.252   3.121   1.761  0.3043  0.5379 -0.2564
 2036SOL     OW17761   7.837   3.294   0.570 -0.2171 -0.4149 -0.3597
 2036SOL    HW117762   7.936   3.295   0.580 -0.1668 -0.7727 -0.8123
 2036SOL    HW217763   7.805   3.200   0.557 -0.7915 -0.4869  1.4236
 2037SOL     OW17764   4.270   6.519   1.169  0.2039 -0.3912 -0.1893
 2037SOL    HW117765   4.217   6.470   1.238  1.6577  0.4066  1.5228
 2037SOL    HW217766   4.329   6.455   1.120  0.7166 -0.6474  0.7582
 2038SOL     OW17767   6.998   1.832   3.514  0.8917  0.3804 -0.0150
 2038SOL    HW117768   7.000   1.889   3.432 -0.4759 -0.4640 -0.6493
 2038SOL    HW217769   7.091   1.822   3.549  1.6260  0.0135 -1.9835
 2039SOL     OW17770   6.648   1.494   4.925 -0.2091 -0.0953 -0.6390
 2039SOL    HW117771   6.628   1.547   4.842 -0.1678 -0.4091 -0.8487
 2039SOL    HW217772   6.747   1.485   4.936 -0.1603  1.4065  0.3679
 2040SOL     OW17773   5.932   9.970   5.631  0.3283 -0.6030 -0.4739
 2040SOL    HW117774   5.891  10.017   5.709  1.3175 -1.3842  0.5178
 2040SOL    HW217775   6.011  10.021   5.598  1.2528 -1.4279  0.4458
 2041SOL     OW17776   9.686   0.077   6.527  0.4403 -0.3470  0.0844
 2041SOL    HW117777   9.736   0.079   6.441  1.3264  0.6078  0.6153
 2041SOL    HW217778   9.709  -0.007   6.577 -0.8789 -1.4175 -1.0653
 2042SOL     OW17779   9.989   9.334   6.480  0.0736  0.0559 -0.2799
 2042SOL    HW117780   9.963   9.269   6.552  1.4343 -2.2220 -1.7851
 2042SOL    HW217781  10.089   9.340   6.477  0.0228  0.0661 -2.0410
 2043SOL     OW17782   1.745   8.726   1.820 -0.1141 -0.0372  0.1793
 2043SOL    HW117783   1.804   8.751   1.897  0.9412  0.7391 -0.8649
 2043SOL    HW217784   1.677   8.660   1.850 -0.7037  1.4281  2.1581
 2044SOL     OW17785   3.741   0.193   5.929  0.0999 -0.0439  0.4543
 2044SOL    HW117786   3.647   0.170   5.953  0.6752 -1.6632  1.2036
 2044SOL    HW217787   3.793   0.212   6.012  0.4844  0.6888  0.0550
 2045SOL     OW17788   8.931   2.598   5.727 -0.2795  0.4696  0.2927
 2045SOL    HW117789   8.865   2.585   5.652 -0.0051  0.0546  0.1269
 2045SOL    HW217790   8.881   2.604   5.814 -0.6956  2.1074 -0.0413
 2046SOL     OW17791   4.362   5.011   1.519  0.0220 -0.0645 -0.7142
 2046SOL    HW117792   4.393   5.062   1.600 -1.4575 -0.9674  0.4712
 2046SOL    HW217793   4.288   5.062   1.475 -1.1717 -0.9331  0.2295
 2047SOL     OW17794   6.492   2.496   4.677  0.1228 -0.2067 -0.2781
 2047SOL    HW117795   6.432   2.457   4.607 -0.0259  0.0992 -0.3225
 2047SOL    HW217796   6.585   2.503   4.641  0.2242 -0.8481 -0.1466
 2048SOL     OW17797   0.283   1.141   6.746 -0.2173 -0.5160 -0.1776
 2048SOL    HW117798   0.373   1.116   6.781 -0.0781  0.3741  0.0899
 2048SOL    HW217799   0.277   1.240   6.734 -0.3490 -0.7736 -2.4136
 2049SOL     OW17800   3.123   7.413   1.610  0.6721 -0.0329 -0.1276
 2049SOL    HW117801   3.128   7.468   1.527 -0.4848 -0.1870 -0.3020
 2049SOL    HW217802   3.143   7.317   1.587 -0.2525 -0.1770 -0.3332
 2050SOL     OW17803   0.791   2.830   1.756  0.4890  0.9034  0.2682
 2050SOL    HW117804   0.821   2.917   1.794  1.3122  1.2767 -1.2244
 2050SOL    HW217805   0.796   2.832   1.656  0.0395 -0.6720  0.1880
 2051SOL     OW17806   4.435   1.894   6.305 -0.1696  0.2483  0.1644
 2051SOL    HW117807   4.396   1.978   6.266  0.2404  0.3916  0.0628
 2051SOL    HW217808   4.475   1.839   6.231  1.2302  0.8450  0.4516
 2052SOL     OW17809   1.001   5.688   5.223 -0.0052  0.0404 -0.4345
 2052SOL    HW117810   0.939   5.612   5.208 -0.6513  0.6196 -0.7547
 2052SOL    HW217811   0.983   5.760   5.156  1.0898  0.1725 -0.6035
 2053SOL     OW17812   4.076   3.070   5.044  1.0010 -0.1577 -0.2186
 2053SOL    HW117813   4.064   3.068   5.143  0.6075  0.8116 -0.2417
 2053SOL    HW217814   4.006   3.128   5.003 -0.8541 -3.0971 -1.3800
 2054SOL     OW17815   1.163   8.471   4.668  0.2734  0.1652  0.1491
 2054SOL    HW117816   1.166   8.539   4.742  1.6254 -1.1134  1.3113
 2054SOL    HW217817   1.121   8.511   4.587 -1.9453  1.3662  1.8566
 2055SOL     OW17818   0.075   8.227   0.122 -0.3227  0.4800  0.3245
 2055SOL    HW117819   0.019   8.182   0.192 -0.6461 -0.0474 -0.2715
 2055SOL    HW217820   0.022   8.237   0.038  0.0304  1.2095  0.1812
 2056SOL     OW17821   2.672   3.976   2.697 -0.3277 -0.2233 -0.0934
 2056SOL    HW117822   2.698   3.952   2.790 -1.6778 -1.0777  0.0798
 2056SOL    HW217823   2.605   3.910   2.663 -0.5943  0.6510 -1.3171
 2057SOL     OW17824   5.382   9.069   3.784  0.0580  0.2945  0.7378
 2057SOL    HW117825   5.314   8.997   3.768  0.0999  0.3247  0.4085
 2057SOL    HW217826   5.362   9.115   3.870 -0.5509  0.5422  0.4642
 2058SOL     OW17827   0.062   9.029   0.017  0.5920  0.4635 -0.2107
 2058SOL    HW117828   0.012   8.942   0.023  1.7424 -0.1412  0.8391
 2058SOL    HW217829   0.032   9.079  -0.064 -0.3859 -0.7217 -0.6005
 2059SOL     OW17830   2.160   5.791   3.359 -0.1075 -0.4096 -0.3558
 2059SOL    HW117831   2.086   5.744   3.311 -0.0099  0.0926 -1.0115
 2059SOL    HW217832   2.126   5.878   3.395  0.8519  1.1111 -3.0403
 2060SOL     OW17833   0.907   0.033   4.981 -0.1671  0.1669 -0.5750
 2060SOL    HW117834   0.851   0.034   5.063 -1.3881  1.7627 -1.4088
 2060SOL    HW217835   0.857  -0.011   4.907  0.3166  0.1534 -0.9005
 2061SOL     OW17836   2.753   5.635   4.747  0.3417 -0.3349  0.2806
 2061SOL    HW117837   2.727   5.562   4.683  2.1422 -0.4036 -0.3980
 2061SOL    HW217838   2.725   5.723   4.711 -0.4217 -0.5465  0.3470
 2062SOL     OW17839   1.509   0.017   5.990 -0.3045 -0.0788  0.8246
 2062SOL    HW117840   1.503   0.108   5.950  1.3065  0.0560  0.8723
 2062SOL    HW217841   1.477   0.020   6.085  0.5631  0.6191  1.0988
 2063SOL     OW17842   7.784   0.166   7.125  0.0281 -0.0227  0.3807
 2063SOL    HW117843   7.883   0.172   7.117  0.0188 -1.0241 -0.5674
 2063SOL    HW217844   7.760   0.125   7.213  0.4930 -1.0252  0.0460
 2064SOL     OW17845   2.033   0.354   2.085  0.1775 -0.4842 -0.3205
 2064SOL    HW117846   1.955   0.399   2.042  0.3570  0.5012  0.3611
 2064SOL    HW217847   2.002   0.275   2.137 -0.4466  0.3074  0.5083
 2065SOL     OW17848   7.155   3.682   0.533  0.2653 -0.8134 -0.2262
 2065SOL    HW117849   7.203   3.622   0.597 -1.1642 -1.2496  0.4526
 2065SOL    HW217850   7.159   3.642   0.441  1.7685 -0.5072 -0.3040
 2066SOL     OW17851   4.388   1.519   7.339  0.3831  0.2833  0.1320
 2066SOL    HW117852   4.316   1.514   7.408 -0.4413  0.5159 -0.7100
 2066SOL    HW217853   4.476   1.501   7.382 -0.0522  1.0646  1.3713
 2067SOL     OW17854   3.688   8.932   1.543  0.1432  0.1222  0.0988
 2067SOL    HW117855   3.775   8.931   1.592  0.5421  1.7576 -0.5334
 2067SOL    HW217856   3.614   8.909   1.606  0.8854  0.1360  0.9858
 2068SOL     OW17857   8.037   0.240   6.979  0.0176 -0.2126  0.6294
 2068SOL    HW117858   8.040   0.201   6.887 -0.7784 -0.4083  0.6794
 2068SOL    HW217859   8.000   0.333   6.975  1.7539  0.4853  0.5306
 2069SOL     OW17860   7.666   1.257   5.904  0.5484 -0.2257 -0.0864
 2069SOL    HW117861   7.603   1.255   5.982  0.0964  0.3467 -0.4350
 2069SOL    HW217862   7.705   1.166   5.891 -1.4715 -1.0125 -0.8911
 2070SOL     OW17863   9.923   3.384   4.418  0.3005 -0.2030  0.1088
 2070SOL    HW117864   9.914   3.480   4.445  0.0899  0.0667 -0.9001
 2070SOL    HW217865  10.016   3.368   4.384 -0.2411  0.1104 -1.5297
 2071SOL     OW17866   2.369   8.358   0.439  0.4389  0.0796 -0.0999
 2071SOL    HW117867   2.381   8.259   0.436  1.2364  0.1904 -0.9362
 2071SOL    HW217868   2.443   8.402   0.389 -0.4809  1.0580 -0.6308
 2072SOL     OW17869   1.136   4.742   7.549 -0.3634 -0.0357  0.4150
 2072SOL    HW117870   1.204   4.813   7.532  1.9702 -2.2037  0.4998
 2072SOL    HW217871   1.110   4.742   7.645 -1.9348  1.9897  0.0462
 2073SOL     OW17872   0.204   2.179   4.275  0.2915  0.0066  0.1502
 2073SOL    HW117873   0.273   2.107   4.277  0.6836  0.3760  0.1370
 2073SOL    HW217874   0.224   2.245   4.348  0.9121  0.9898 -0.8986
 2074SOL     OW17875   2.441   5.341   1.910 -0.2130  0.2591  0.5790
 2074SOL    HW117876   2.534   5.352   1.944  0.9977 -3.3261 -1.2533
 2074SOL    HW217877   2.395   5.268   1.961 -1.1531  0.3635 -0.1056
 2075SOL     OW17878   4.425   1.528   1.197  0.2811  0.6078  0.0364
 2075SOL    HW117879   4.344   1.587   1.193 -0.7089 -0.7285  0.0206
 2075SOL    HW217880   4.458   1.511   1.104 -1.9672 -2.2534 -0.3059
 2076SOL     OW17881   0.009   5.437   7.684 -0.0897  0.2032  0.4106
 2076SOL    HW117882  -0.045   5.515   7.714 -0.1708  0.3364 -0.0844
 2076SOL    HW217883   0.077   5.467   7.617 -0.0399 -0.1270  0.3119
 2077SOL     OW17884   9.807   8.510   7.078 -0.2846  0.0041 -0.0684
 2077SOL    HW117885   9.892   8.456   7.077 -0.0965  0.2783  0.9931
 2077SOL    HW217886   9.732   8.452   7.111 -0.6343 -0.4062 -1.5451
 2078SOL     OW17887   3.817   4.236   2.486  0.4205 -0.4398 -0.5953
 2078SOL    HW117888   3.867   4.258   2.570 -0.6364  0.1670 -0.1114
 2078SOL    HW217889   3.859   4.283   2.408  0.1505  0.6765 -0.0706
 2079SOL     OW17890   8.416   5.890   2.144 -0.0719  0.1335  0.4098
 2079SOL    HW117891   8.475   5.890   2.224  1.8269  0.7396 -0.9481
 2079SOL    HW217892   8.442   5.815   2.083 -1.8954 -0.6959  0.6271
 2080SOL     OW17893   3.405   5.546   7.278  0.4653 -0.4649 -0.1471
 2080SOL    HW117894   3.426   5.531   7.374  2.5483 -1.4736 -0.7245
 2080SOL    HW217895   3.315   5.509   7.256  1.3622 -3.2692  0.6872
 2081SOL     OW17896   6.955   7.085   5.752  0.0394 -0.0930  0.7306
 2081SOL    HW117897   7.000   7.171   5.731 -2.5060  1.2827  0.7761
 2081SOL    HW217898   6.910   7.091   5.841 -0.6846 -1.2586  0.4552
 2082SOL     OW17899   0.465   4.436   7.505  0.1494  0.2497 -0.3662
 2082SOL    HW117900   0.509   4.490   7.434  0.3940 -2.1416 -2.1003
 2082SOL    HW217901   0.470   4.484   7.592  0.5418  2.8758 -1.8006
 2083SOL     OW17902   9.005   7.889   2.945  0.5476  0.1731 -0.2139
 2083SOL    HW117903   9.020   7.959   2.876 -1.9579  1.9053  0.9513
 2083SOL    HW217904   9.022   7.927   3.036 -1.0328 -0.6408  0.4499
 2084SOL     OW17905   1.750   0.068   2.949  0.2143 -0.1893 -0.3257
 2084SOL    HW117906   1.769   0.084   2.852  0.5328 -1.1500 -0.4175
 2084SOL    HW217907   1.691  -0.012   2.959 -1.5375  1.1133  0.1424
 2085SOL     OW17908   8.857   9.027   1.644  0.4791  0.4402 -0.6480
 2085SOL    HW117909   8.910   8.974   1.712  1.8699  0.1707 -1.9129
 2085SOL    HW217910   8.776   9.065   1.688  1.6035  0.6803  1.3096
 2086SOL     OW17911   9.117   0.242   7.393  0.3180  0.4192  0.2190
 2086SOL    HW117912   9.154   0.150   7.407 -1.6187 -0.4757 -0.4079
 2086SOL    HW217913   9.064   0.245   7.309 -0.0999  1.9696  0.5174
 2087SOL     OW17914   6.586   9.322   6.031  0.1550 -0.3249 -0.3189
 2087SOL    HW117915   6.576   9.256   5.957 -1.9399  0.9278 -1.1792
 2087SOL    HW217916   6.585   9.274   6.119 -0.2418 -1.5227 -0.9751
 2088SOL     OW17917   9.834   6.733   4.967 -0.0989  0.7335  0.4681
 2088SOL    HW117918   9.886   6.660   5.012 -1.3692 -0.2297  0.3939
 2088SOL    HW217919   9.867   6.744   4.874  0.8690  1.0467  0.8361
 2089SOL     OW17920   6.310   1.085   6.337 -0.1146  0.6216 -0.3740
 2089SOL    HW117921   6.288   1.102   6.433  1.6846 -1.1382  0.3731
 2089SOL    HW217922   6.247   1.016   6.301  0.1873  0.1656 -0.0299
 2090SOL     OW17923   0.889   9.906   3.759 -0.2927  0.6584  0.2355
 2090SOL    HW117924   0.821   9.867   3.698 -1.5181  1.8030  0.8454
 2090SOL    HW217925   0.905  10.002   3.735 -1.8119  1.5413  2.5270
 2091SOL     OW17926   1.545   2.391   5.768  0.2476  0.9823 -0.6276
 2091SOL    HW117927   1.451   2.397   5.732 -1.0693 -0.2482  2.4435
 2091SOL    HW217928   1.592   2.315   5.724 -0.9896  0.1409 -0.5422
 2092SOL     OW17929   6.697   9.842   4.381  0.0603 -0.4040  0.3461
 2092SOL    HW117930   6.668   9.934   4.405  1.7110  0.3282 -0.4335
 2092SOL    HW217931   6.696   9.785   4.463  0.8534  0.7966  1.2039
 2093SOL     OW17932   2.916   8.332   2.814 -0.3326 -0.7301  0.4138
 2093SOL    HW117933   3.011   8.307   2.792 -0.0267  0.0793  0.7730
 2093SOL    HW217934   2.854   8.278   2.758  0.2537 -2.9849  1.8410
 2094SOL     OW17935   5.867   5.129   1.217 -0.5046  0.0509 -0.1058
 2094SOL    HW117936   5.850   5.047   1.272 -1.0006 -0.1941 -0.6158
 2094SOL    HW217937   5.785   5.151   1.164 -0.4147  0.9552  0.1267
 2095SOL     OW17938   4.415   0.905   0.719  0.3106 -0.8228  0.2085
 2095SOL    HW117939   4.474   0.841   0.769  0.1212 -1.9868 -1.0267
 2095SOL    HW217940   4.450   0.998   0.730  0.8787 -1.1798  1.6176
 2096SOL     OW17941   2.198   2.808   5.911  0.0565  0.5126 -0.1021
 2096SOL    HW117942   2.211   2.781   6.006 -1.6516 -0.6986 -0.1833
 2096SOL    HW217943   2.282   2.847   5.875  1.4487 -1.2043  1.1989
 2097SOL     OW17944   9.530   2.930   2.438  0.3097  0.0809  0.0844
 2097SOL    HW117945   9.537   2.993   2.516 -1.6527  0.2614  0.1206
 2097SOL    HW217946   9.596   2.958   2.368  0.9676  0.8756  0.9962
 2098SOL     OW17947   3.565   7.943   1.162  0.1091 -0.3304  0.6918
 2098SOL    HW117948   3.603   7.851   1.175  0.1521 -0.4788 -0.4509
 2098SOL    HW217949   3.487   7.955   1.223  0.6997 -0.7766  1.5498
 2099SOL     OW17950   9.862   4.845   2.264  0.3233  0.0719 -0.3260
 2099SOL    HW117951   9.835   4.879   2.174 -0.3296 -0.7561 -0.4498
 2099SOL    HW217952   9.921   4.765   2.254 -0.7295 -0.7704 -0.0306
 2100SOL     OW17953   9.246   6.225   6.709 -0.0167 -0.2196  0.3387
 2100SOL    HW117954   9.256   6.283   6.790  0.0437  0.6483 -0.2909
 2100SOL    HW217955   9.214   6.280   6.632  0.6844 -0.8835 -0.4314
 2101SOL     OW17956   0.888   3.382   8.166  0.3926  0.5766 -0.1585
 2101SOL    HW117957   0.910   3.471   8.206 -0.4558  0.3279  0.9036
 2101SOL    HW217958   0.819   3.394   8.094  1.1562  0.9024 -0.8533
 2102SOL     OW17959   9.410   8.746   0.063 -0.1299 -0.2653  0.0215
 2102SOL    HW117960   9.348   8.808   0.014 -0.1243 -0.8782 -0.7644
 2102SOL    HW217961   9.497   8.793   0.079 -1.1683  1.0030  2.1415
 2103SOL     OW17962   7.338   7.185   3.699  0.3258  0.4266 -0.5631
 2103SOL    HW117963   7.340   7.252   3.772 -1.5681 -1.2373  1.0703
 2103SOL    HW217964   7.247   7.145   3.692  1.4675 -2.2104 -1.2546
 2104SOL     OW17965   8.327   2.769   5.679 -0.0447  0.7992  0.1346
 2104SOL    HW117966   8.349   2.675   5.703 -1.7355  0.1117 -0.8707
 2104SOL    HW217967   8.270   2.770   5.597 -1.5793  2.5802  1.1707
 2105SOL     OW17968   5.540   7.441   3.170  0.2533 -0.0307 -0.5339
 2105SOL    HW117969   5.575   7.371   3.109  0.7441 -0.3976  0.1554
 2105SOL    HW217970   5.588   7.436   3.258 -0.2263  0.6806 -0.2204
 2106SOL     OW17971   1.392   6.876   5.440 -0.0815  0.6004  0.4198
 2106SOL    HW117972   1.294   6.882   5.418  0.0699  0.1412 -0.4043
 2106SOL    HW217973   1.445   6.923   5.369  0.3223  0.5151  0.6651
 2107SOL     OW17974   1.306   6.003   3.241 -0.7464 -0.7806 -0.6042
 2107SOL    HW117975   1.238   5.942   3.199 -0.1329 -1.3358 -0.8020
 2107SOL    HW217976   1.342   5.960   3.323 -2.3901  0.5726  0.8561
 2108SOL     OW17977   7.055   6.827   5.081  0.2238 -0.5898 -0.2683
 2108SOL    HW117978   6.969   6.878   5.088  0.8382  0.3337  0.7713
 2108SOL    HW217979   7.045   6.738   5.127  0.6252  0.6301  2.2642
 2109SOL     OW17980   4.656   8.070   5.532 -0.0315 -1.2056 -0.3830
 2109SOL    HW117981   4.738   8.013   5.539  1.7879  1.2163 -1.3830
 2109SOL    HW217982   4.659   8.142   5.601 -2.0111 -1.8803  0.4558
 2110SOL     OW17983   8.241   6.620   4.170  0.1603 -0.8663 -0.3184
 2110SOL    HW117984   8.292   6.542   4.134 -0.0155 -1.6525  1.1079
 2110SOL    HW217985   8.183   6.591   4.246  0.6013  0.7586  0.6823
 2111SOL     OW17986   2.292   5.430   7.661  0.1463 -0.1038  0.0368
 2111SOL    HW117987   2.272   5.527   7.644  1.0132  0.5017  2.2440
 2111SOL    HW217988   2.241   5.374   7.596 -1.8964  1.7526 -0.0444
 2112SOL     OW17989   6.073   0.623   6.014  0.3340 -0.6926  0.1571
 2112SOL    HW117990   5.985   0.591   5.980  0.5119 -0.0031 -0.9889
 2112SOL    HW217991   6.079   0.723   6.004  1.2944 -0.7508  0.0850
 2113SOL     OW17992   4.579   8.053   2.035 -0.0478  0.3066 -0.1886
 2113SOL    HW117993   4.534   8.122   2.092 -0.7484  0.4159 -0.8626
 2113SOL    HW217994   4.565   8.075   1.939 -2.3097 -2.0304 -0.4456
 2114SOL     OW17995   9.369   8.559   3.697  0.2017  0.4207 -0.1684
 2114SOL    HW117996   9.439   8.562   3.626 -1.0984  1.4750 -1.4455
 2114SOL    HW217997   9.280   8.580   3.656 -0.5808  0.9694  1.7673
 2115SOL     OW17998   2.235   8.163   1.727 -0.2497 -0.0321 -0.6674
 2115SOL    HW117999   2.296   8.194   1.654 -0.8239  2.2872 -0.2031
 2115SOL    HW218000   2.140   8.176   1.700 -0.4654  1.4415  0.6936
 2116SOL     OW18001   1.530   3.635   7.752 -0.2124  0.1696  0.1329
 2116SOL    HW118002   1.568   3.593   7.670  2.2148  1.4625  0.5578
 2116SOL    HW218003   1.484   3.721   7.728 -0.1230  0.1929  0.0491
 2117SOL     OW18004   8.471   8.571   2.508  0.4788 -0.3962 -0.1084
 2117SOL    HW118005   8.509   8.659   2.480 -0.3620 -0.1922 -0.6240
 2117SOL    HW218006   8.542   8.518   2.554  0.7055  0.9533  1.1331
 2118SOL     OW18007   3.840   3.203   5.468 -0.2804  0.8037  0.2321
 2118SOL    HW118008   3.807   3.187   5.375 -1.1245 -1.8636  0.9558
 2118SOL    HW218009   3.789   3.277   5.510 -3.6004 -1.4868  0.3982
 2119SOL     OW18010   6.553   4.850   1.634  0.0509 -0.1975  0.5479
 2119SOL    HW118011   6.637   4.801   1.655 -1.0955 -2.0692  0.9034
 2119SOL    HW218012   6.491   4.790   1.585 -1.2914  1.0066  0.7301
 2120SOL     OW18013   2.870   8.015   4.143 -0.4766 -0.7131 -0.5418
 2120SOL    HW118014   2.819   7.939   4.101 -1.2736 -0.9870  0.9013
 2120SOL    HW218015   2.818   8.052   4.219 -0.3084  1.6440 -1.5331
 2121SOL     OW18016   2.095   5.455   0.774 -0.2735  0.3730  0.1836
 2121SOL    HW118017   2.182   5.424   0.738 -0.4145 -0.3490  0.4622
 2121SOL    HW218018   2.037   5.488   0.699 -0.1330 -0.0562 -0.1111
 2122SOL     OW18019   3.328   7.197   3.692 -0.1137  0.1069 -0.0576
 2122SOL    HW118020   3.234   7.232   3.702 -0.3271 -0.3289 -0.5145
 2122SOL    HW218021   3.371   7.192   3.782 -0.9032 -0.7135  0.2858
 2123SOL     OW18022   3.172   3.052   5.676  0.4224 -0.9745  0.4213
 2123SOL    HW118023   3.260   3.090   5.705  0.9760 -2.0811  0.2157
 2123SOL    HW218024   3.175   3.032   5.578 -1.0414  1.6465 -0.2081
 2124SOL     OW18025   7.109   7.538   6.387  0.4356  0.0093 -0.1927
 2124SOL    HW118026   7.060   7.470   6.333  0.5979  2.4107 -3.5314
 2124SOL    HW218027   7.179   7.583   6.330  0.2537  3.0418  1.8128
 2125SOL     OW18028   4.245   4.292   3.559 -0.2979 -0.1882 -0.2828
 2125SOL    HW118029   4.235   4.347   3.477  0.5201 -1.2352 -1.1000
 2125SOL    HW218030   4.264   4.351   3.637  2.3861  0.5605 -1.4443
 2126SOL     OW18031   3.765   4.702   1.476  0.1442  0.0033 -0.3142
 2126SOL    HW118032   3.776   4.659   1.387 -0.4539 -0.1538 -0.3122
 2126SOL    HW218033   3.851   4.694   1.528  0.5066  0.1430 -0.8876
 2127SOL     OW18034   2.305   8.411   0.719  0.7717  0.1321 -0.0482
 2127SOL    HW118035   2.379   8.474   0.695  1.1151 -0.5147 -0.6997
 2127SOL    HW218036   2.324   8.321   0.680  0.6819 -0.6019  1.5264
 2128SOL     OW18037   7.111   5.947   5.705  0.1253 -0.4087 -0.0231
 2128SOL    HW118038   7.101   5.938   5.606  0.3229  0.6500 -0.1433
 2128SOL    HW218039   7.022   5.966   5.746  0.3750  1.2111 -0.2269
 2129SOL     OW18040   6.240   2.197   4.469  0.0389 -0.7293  0.5468
 2129SOL    HW118041   6.304   2.156   4.404 -0.4825  0.0373 -0.4574
 2129SOL    HW218042   6.214   2.289   4.438 -1.1188 -0.8125  1.2193
 2130SOL     OW18043   8.991   6.380   2.392  0.0743  0.0755 -0.7913
 2130SOL    HW118044   9.032   6.453   2.446  0.1862 -1.1436  0.8221
 2130SOL    HW218045   8.893   6.375   2.411 -0.1547  0.5549 -1.7983
 2131SOL     OW18046   8.575   7.794   4.072 -0.1154  0.3197 -0.4880
 2131SOL    HW118047   8.599   7.876   4.123 -1.4294  1.0607 -1.0465
 2131SOL    HW218048   8.658   7.757   4.029  0.6442  0.8115  0.5266
 2132SOL     OW18049   0.573   5.506   4.241  0.1732 -0.4464 -0.3801
 2132SOL    HW118050   0.514   5.479   4.317  0.5121 -0.5333 -0.1435
 2132SOL    HW218051   0.569   5.436   4.169 -0.0028 -0.4592 -0.3567
 2133SOL     OW18052   8.031   3.597   6.799 -0.4171  0.0432 -0.6340
 2133SOL    HW118053   7.956   3.531   6.792 -0.4734  0.1194 -0.7461
 2133SOL    HW218054   8.107   3.567   6.740  0.0900 -0.6396  0.3560
 2134SOL     OW18055   4.187   9.939   6.524  0.1576  0.4851  0.3804
 2134SOL    HW118056   4.164  10.025   6.477 -0.4463 -0.1833 -0.5525
 2134SOL    HW218057   4.103   9.893   6.552  0.4429 -0.5843 -0.5272
 2135SOL     OW18058   1.341   4.471   0.297  0.0383  0.1366  0.0200
 2135SOL    HW118059   1.288   4.503   0.375  0.7703 -0.2214  0.6764
 2135SOL    HW218060   1.333   4.536   0.222  0.1239  0.9861  0.7368
 2136SOL     OW18061   0.028   5.476   1.802  0.4705 -0.1677  0.1619
 2136SOL    HW118062  -0.071   5.476   1.784  0.2408  3.0126  1.0201
 2136SOL    HW218063   0.070   5.396   1.759 -2.1411 -0.3807 -2.1569
 2137SOL     OW18064   4.096   2.384   1.065  0.4792 -0.1296  0.4320
 2137SOL    HW118065   4.165   2.446   1.029  0.8589 -1.2704 -0.8609
 2137SOL    HW218066   4.141   2.310   1.116  0.3242 -1.4536 -1.2874
 2138SOL     OW18067   9.207   4.864   0.075  0.4368  0.0011 -0.0321
 2138SOL    HW118068   9.224   4.954   0.037  0.8403  1.2394  2.9902
 2138SOL    HW218069   9.112   4.859   0.108  0.1710 -0.9595 -0.9209
 2139SOL     OW18070   3.976   2.680   7.434 -0.4544 -0.7115  1.0827
 2139SOL    HW118071   3.942   2.718   7.348  0.8017 -0.4200  0.7102
 2139SOL    HW218072   3.934   2.729   7.511  0.0743  0.4838  0.6171
 2140SOL     OW18073   9.818   3.357   3.009 -0.2171  0.2953 -0.2209
 2140SOL    HW118074   9.794   3.288   3.078 -0.7632  2.3780  1.7409
 2140SOL    HW218075   9.773   3.443   3.032  0.5787  1.3655 -2.5460
 2141SOL     OW18076   4.994   0.596   4.931  0.5502 -0.3509  0.2109
 2141SOL    HW118077   4.919   0.585   4.865 -1.1242  1.3762  1.7720
 2141SOL    HW218078   5.057   0.666   4.899  1.4397 -1.6829 -1.0216
 2142SOL     OW18079   1.861   8.340   6.880  0.2433  0.4186 -0.0099
 2142SOL    HW118080   1.939   8.282   6.902 -1.2544 -1.3548  0.6774
 2142SOL    HW218081   1.885   8.436   6.900  1.6809 -0.2670  1.7165
 2143SOL     OW18082   4.156   2.032   5.250  0.0477  0.8727 -0.1007
 2143SOL    HW118083   4.233   1.969   5.249  0.1739  1.0429 -0.8218
 2143SOL    HW218084   4.073   1.983   5.280  0.1639  0.3959 -0.5565
 2144SOL     OW18085   9.960   1.214   1.586  0.2287 -0.1695 -0.2869
 2144SOL    HW118086   9.949   1.116   1.572  0.0046 -0.2635  0.5075
 2144SOL    HW218087  10.055   1.235   1.610  0.4373 -0.1014 -1.1474
 2145SOL     OW18088   2.356   3.082   0.158  0.9343 -0.3117 -0.2985
 2145SOL    HW118089   2.411   3.035   0.088 -0.6866 -1.5485 -0.7856
 2145SOL    HW218090   2.262   3.046   0.156  0.7160  0.0397  2.1458
 2146SOL     OW18091   0.917   6.771   3.653  0.2653  0.8734  0.3975
 2146SOL    HW118092   1.008   6.730   3.649 -0.2976 -0.2290 -1.9418
 2146SOL    HW218093   0.925   6.870   3.641  1.2077  0.8919  1.1047
 2147SOL     OW18094   6.548   1.728   0.469  0.5750  0.7302 -0.4451
 2147SOL    HW118095   6.483   1.771   0.533 -0.9746 -1.4397 -0.5122
 2147SOL    HW218096   6.502   1.706   0.384  1.2963 -1.1490 -0.3766
 2148SOL     OW18097   0.810   0.669   7.563 -0.1815  0.8092 -0.4229
 2148SOL    HW118098   0.782   0.620   7.480 -0.3688  1.0008 -0.4711
 2148SOL    HW218099   0.741   0.659   7.634  1.8642 -2.9301  1.1728
 2149SOL     OW18100   3.463   9.065   6.215  0.5559  0.6207  0.2842
 2149SOL    HW118101   3.457   9.117   6.300  0.0275 -0.5245  0.9580
 2149SOL    HW218102   3.412   8.979   6.225 -1.7293  1.6307 -2.0675
 2150SOL     OW18103   7.398   2.900   0.095 -0.4952  0.2150 -0.2425
 2150SOL    HW118104   7.358   2.947   0.173 -1.6078 -1.5672  0.3014
 2150SOL    HW218105   7.479   2.849   0.125 -1.2873 -0.9869 -0.0756
 2151SOL     OW18106   0.217   2.135   4.973  0.3857  0.1102 -0.2847
 2151SOL    HW118107   0.267   2.165   4.891 -0.1633  1.7390 -0.0303
 2151SOL    HW218108   0.247   2.188   5.052  0.8510 -1.4034  0.5800
 2152SOL     OW18109   0.255   1.210   1.223  0.1007  0.1112 -0.4069
 2152SOL    HW118110   0.187   1.137   1.224  1.1549 -0.8858  0.7496
 2152SOL    HW218111   0.217   1.291   1.269 -0.5418 -0.1994 -0.3849
 2153SOL     OW18112   9.879   1.969   1.049  0.1274  0.2272 -0.5376
 2153SOL    HW118113   9.963   1.927   1.015  0.2362  0.8177 -1.0094
 2153SOL    HW218114   9.848   1.921   1.131 -0.9540 -2.1540 -2.3008
 2154SOL     OW18115   9.791   8.224   1.253  0.3295  0.4604 -0.5781
 2154SOL    HW118116   9.851   8.157   1.211  0.7556  0.1572  0.4953
 2154SOL    HW218117   9.696   8.202   1.232  0.3708 -1.4203  1.1079
 2155SOL     OW18118   1.392   6.112   6.801  0.1366  0.6688  0.2161
 2155SOL    HW118119   1.381   6.074   6.893  1.7659  2.2675  1.0967
 2155SOL    HW218120   1.410   6.037   6.736  1.0175 -0.2820  1.5355
 2156SOL     OW18121   9.627   0.112   2.178 -0.2305  0.9957  0.3363
 2156SOL    HW118122   9.573   0.194   2.157 -1.2546  0.6751  1.6503
 2156SOL    HW218123   9.598   0.075   2.266  1.4214  0.2024  0.5670
 2157SOL     OW18124   4.147   2.036   3.503 -0.4310  0.5838  0.4166
 2157SOL    HW118125   4.167   1.938   3.493 -2.3833  0.1515  0.5982
 2157SOL    HW218126   4.098   2.068   3.422 -0.5888  1.2086  0.7595
 2158SOL     OW18127   9.727   5.680   1.574 -0.0756 -0.0927 -0.2375
 2158SOL    HW118128   9.790   5.756   1.558 -1.3931  0.6749 -1.9095
 2158SOL    HW218129   9.638   5.702   1.535 -1.1924 -1.4690  1.4695
 2159SOL     OW18130   8.630   3.009   4.662 -0.5781  0.2210  0.4980
 2159SOL    HW118131   8.607   2.963   4.748  0.8231 -0.0689  0.7203
 2159SOL    HW218132   8.722   2.982   4.633 -0.5050  1.3954 -0.3749
 2160SOL     OW18133   0.828   9.787   4.076 -0.2457 -0.2530 -0.5634
 2160SOL    HW118134   0.927   9.788   4.059 -0.0215 -0.8363  0.7091
 2160SOL    HW218135   0.802   9.700   4.116 -1.5559 -0.7628 -2.4522
 2161SOL     OW18136   7.807   9.073   6.966 -0.4228 -0.4254 -0.5271
 2161SOL    HW118137   7.835   8.984   7.003 -0.5713 -0.8194 -1.3457
 2161SOL    HW218138   7.852   9.088   6.878 -2.4634 -0.8874 -1.6632
 2162SOL     OW18139   1.960   2.572   6.091  0.0752 -0.1783 -0.2482
 2162SOL    HW118140   2.054   2.541   6.099  0.8984  2.1542 -0.4964
 2162SOL    HW218141   1.941   2.600   5.997 -0.3547  0.8992  0.1491
 2163SOL     OW18142   5.055   0.774   2.415 -0.6005 -0.2597  0.1389
 2163SOL    HW118143   5.083   0.836   2.488 -1.3797  0.4880 -0.1943
 2163SOL    HW218144   5.132   0.714   2.392  0.8712  1.9549 -0.9658
 2164SOL     OW18145   6.897   3.663   1.298  0.0525 -0.2535  0.2115
 2164SOL    HW118146   6.883   3.757   1.327 -0.3467  0.3773 -1.9318
 2164SOL    HW218147   6.986   3.653   1.255 -0.8903 -0.2532 -1.8046
 2165SOL     OW18148   7.790   7.222   3.224  0.4085  0.0154 -0.5946
 2165SOL    HW118149   7.850   7.251   3.149  0.3729 -2.8917 -1.8119
 2165SOL    HW218150   7.695   7.241   3.201  0.3953 -0.9238 -1.3363
 2166SOL     OW18151   1.582   8.481   3.471  0.5563 -1.0933 -0.0213
 2166SOL    HW118152   1.631   8.568   3.466  1.6812 -1.7113  0.1806
 2166SOL    HW218153   1.570   8.455   3.567 -0.3937 -0.8282 -0.0590
 2167SOL     OW18154   4.463   3.463   0.554 -0.1609  0.4374  0.1675
 2167SOL    HW118155   4.410   3.475   0.638  0.3476  0.9876  0.4133
 2167SOL    HW218156   4.559   3.449   0.577 -0.0370  0.4835 -0.3195
 2168SOL     OW18157   4.144   4.109   2.450  0.3194  0.5224 -0.3554
 2168SOL    HW118158   4.155   4.174   2.524  2.4548  1.2026 -1.2169
 2168SOL    HW218159   4.168   4.017   2.482  1.6906  0.8856 -0.3013
 2169SOL     OW18160   3.303   9.964   7.520  0.0559  0.3822 -0.2241
 2169SOL    HW118161   3.275   9.915   7.438 -0.4399  0.6818 -0.2386
 2169SOL    HW218162   3.225  10.018   7.555 -0.0820 -0.6494  1.0976
 2170SOL     OW18163   7.145   2.267   4.533 -0.3171  0.8574 -0.4381
 2170SOL    HW118164   7.174   2.351   4.487 -0.4659  0.9683 -0.3271
 2170SOL    HW218165   7.077   2.289   4.603 -2.0464  0.4111 -1.9160
 2171SOL     OW18166   4.141   7.359   5.330 -0.1844  0.6276 -0.4268
 2171SOL    HW118167   4.043   7.347   5.317 -0.5298 -0.4771  2.7767
 2171SOL    HW218168   4.190   7.315   5.255 -2.0762 -0.9737 -0.7709
 2172SOL     OW18169   5.639   8.217   5.742  0.1118  0.2443 -0.2984
 2172SOL    HW118170   5.703   8.173   5.678 -0.8163  0.0059 -1.0804
 2172SOL    HW218171   5.642   8.169   5.830 -0.2330 -0.8307 -0.8637
 2173SOL     OW18172   9.912   1.458   0.273 -0.2985  0.1202 -0.3370
 2173SOL    HW118173   9.966   1.487   0.194  0.4063  2.1208  0.8307
 2173SOL    HW218174   9.967   1.397   0.330  0.4537  1.4730  0.4054
 2174SOL     OW18175   8.422   0.426   4.850  0.1238  0.3653  0.0703
 2174SOL    HW118176   8.365   0.490   4.900  0.5073  0.9787 -0.2681
 2174SOL    HW218177   8.518   0.453   4.858  0.5145 -1.3855  1.7090
 2175SOL     OW18178   0.986   3.333   0.797 -0.6450 -0.0069  0.1102
 2175SOL    HW118179   1.043   3.258   0.831 -0.2906  0.5636  0.7993
 2175SOL    HW218180   0.914   3.297   0.738  0.4862 -0.7331 -0.8390
 2176SOL     OW18181   0.111   4.622   3.125 -0.0090  0.3929 -0.5743
 2176SOL    HW118182   0.015   4.640   3.144 -0.2897 -1.7344  0.1711
 2176SOL    HW218183   0.156   4.590   3.208  0.6257 -1.4363 -1.5882
 2177SOL     OW18184   4.089   1.517   8.125  0.4512  0.2602  0.2850
 2177SOL    HW118185   4.017   1.585   8.139  0.2500 -0.1738  1.4704
 2177SOL    HW218186   4.095   1.494   8.028  1.7813  3.3076 -0.4232
 2178SOL     OW18187   7.899   9.432   4.346 -0.6165  0.2311 -0.1665
 2178SOL    HW118188   7.948   9.445   4.260 -1.9046  0.9246 -0.8266
 2178SOL    HW218189   7.829   9.361   4.335  1.0666 -1.6873  1.1400
 2179SOL     OW18190   9.133   0.708   0.718  0.3364 -0.0864  0.2223
 2179SOL    HW118191   9.190   0.693   0.799 -1.0232  0.7529  1.3409
 2179SOL    HW218192   9.144   0.803   0.687  1.4046 -0.5940 -1.0312
 2180SOL     OW18193   0.419   4.152   2.073  0.2174 -0.0317  0.2555
 2180SOL    HW118194   0.415   4.146   1.973  0.5867  0.3008  0.2212
 2180SOL    HW218195   0.331   4.186   2.108  0.5124  1.0514 -0.0424
 2181SOL     OW18196   2.291   2.049   5.112  0.2210 -0.4985  0.1413
 2181SOL    HW118197   2.203   2.039   5.065 -0.8863  0.3395  1.9833
 2181SOL    HW218198   2.282   2.018   5.207  1.1794  2.0487  1.1004
 2182SOL     OW18199   1.097   0.882   1.339  0.1734  0.7851 -0.1550
 2182SOL    HW118200   1.172   0.931   1.295 -0.8689  1.2607 -1.4696
 2182SOL    HW218201   1.083   0.794   1.294  1.8522 -0.6428  2.0168
 2183SOL     OW18202   4.338   7.738   3.673  0.3932 -0.2428  0.2978
 2183SOL    HW118203   4.403   7.801   3.630 -0.2494 -1.0611 -1.9704
 2183SOL    HW218204   4.280   7.789   3.737  2.9631  0.5557  2.0791
 2184SOL     OW18205   0.519   4.590   6.941  0.8157 -0.0708 -0.0285
 2184SOL    HW118206   0.559   4.646   7.013 -0.3014  0.7676 -0.0460
 2184SOL    HW218207   0.459   4.521   6.982  1.7064 -0.8685 -0.0447
 2185SOL     OW18208   8.668   3.035   7.075 -0.0318 -0.3664  0.2293
 2185SOL    HW118209   8.597   3.079   7.130  0.8144 -0.2567  1.2576
 2185SOL    HW218210   8.757   3.073   7.100  0.1238  1.8520 -3.3141
 2186SOL     OW18211   2.313   5.096   2.037 -0.4415  1.2842 -0.5530
 2186SOL    HW118212   2.217   5.106   2.063 -0.2520  1.3935  0.1192
 2186SOL    HW218213   2.355   5.022   2.091 -0.2189  1.0488 -1.0397
 2187SOL     OW18214   7.410   0.075   7.638  0.2748  0.0799 -0.3737
 2187SOL    HW118215   7.481   0.007   7.656 -0.6479 -0.5860  0.8324
 2187SOL    HW218216   7.405   0.138   7.716 -2.0622 -1.3102  0.6497
 2188SOL     OW18217   8.067   1.668   3.900 -0.0725  0.3157  0.0330
 2188SOL    HW118218   8.120   1.730   3.958  0.9974 -1.3655  0.9024
 2188SOL    HW218219   8.058   1.580   3.946 -0.3599 -0.6269 -1.8014
 2189SOL     OW18220   5.995   2.397   0.927 -0.3469  0.2310  0.0026
 2189SOL    HW118221   5.991   2.495   0.945  1.1952  0.2844  0.1176
 2189SOL    HW218222   5.912   2.368   0.878 -0.5327  1.6771 -0.5490
 2190SOL     OW18223   4.626   0.554   5.148  0.2653 -0.4673 -0.3741
 2190SOL    HW118224   4.593   0.589   5.061  0.2765  2.2504  0.6418
 2190SOL    HW218225   4.723   0.578   5.158 -0.4370  1.7953  1.5499
 2191SOL     OW18226   1.663   1.053   3.206 -0.1805  0.2726  0.2468
 2191SOL    HW118227   1.691   0.958   3.226 -1.2415  0.1789  1.3502
 2191SOL    HW218228   1.700   1.080   3.118  0.5386 -1.0173  0.1297
 2192SOL     OW18229   8.724   4.305   4.304 -0.5951  0.0841 -0.9728
 2192SOL    HW118230   8.678   4.220   4.331  1.0499 -0.7599 -0.7819
 2192SOL    HW218231   8.657   4.367   4.262 -2.0564 -0.8068  0.0010
 2193SOL     OW18232   3.756   0.048   1.917  0.0783 -0.5594 -0.0004
 2193SOL    HW118233   3.788   0.059   2.011 -0.2560 -1.3356  0.2110
 2193SOL    HW218234   3.720  -0.045   1.905 -0.7140 -0.1781 -0.6399
 2194SOL     OW18235   6.528   0.680   5.879  0.2304  0.4531 -0.5493
 2194SOL    HW118236   6.437   0.645   5.854  0.0125  0.0307  0.7986
 2194SOL    HW218237   6.521   0.736   5.961  1.2914 -0.1472 -0.0342
 2195SOL     OW18238   8.780   3.069   3.781 -0.0532  0.0305  0.2351
 2195SOL    HW118239   8.852   3.001   3.765 -0.5911 -0.5004  0.0839
 2195SOL    HW218240   8.693   3.023   3.796 -0.3677  0.6780  0.3964
 2196SOL     OW18241   9.061   7.356   6.888  0.2050 -0.1806  0.1476
 2196SOL    HW118242   9.067   7.456   6.897  0.0389 -0.1348 -0.2602
 2196SOL    HW218243   8.965   7.329   6.881  0.2462 -0.3776  0.3641
 2197SOL     OW18244   2.864   5.098   5.995 -0.1903  0.5728 -0.1958
 2197SOL    HW118245   2.810   5.107   5.911  1.8803  0.7527 -1.5567
 2197SOL    HW218246   2.877   5.188   6.037  0.6280  0.8096 -0.9230
 2198SOL     OW18247   8.491   5.563   3.555 -0.5851 -0.4637  0.2066
 2198SOL    HW118248   8.447   5.644   3.594  0.5536  0.2756 -0.0037
 2198SOL    HW218249   8.547   5.519   3.625 -0.4475 -0.5132  0.0655
 2199SOL     OW18250   8.226   9.190   4.101 -0.3119  0.2019  0.1386
 2199SOL    HW118251   8.283   9.194   4.183  1.0785  0.8389 -0.8328
 2199SOL    HW218252   8.283   9.167   4.022 -1.5841 -0.1460 -0.7010
 2200SOL     OW18253   5.836   5.236   0.852 -0.6401 -0.3512  0.1433
 2200SOL    HW118254   5.906   5.182   0.899  0.0660  1.2492  0.9873
 2200SOL    HW218255   5.881   5.301   0.791 -1.4830 -0.7939 -0.9548
 2201SOL     OW18256   9.484   1.035   5.986 -0.2992 -0.2363 -0.1082
 2201SOL    HW118257   9.418   0.988   5.928 -1.1318  1.5665 -0.6646
 2201SOL    HW218258   9.449   1.125   6.011  2.2218  1.0537 -0.9748
 2202SOL     OW18259   3.510   3.447   0.234  0.3702 -0.3293 -0.3388
 2202SOL    HW118260   3.457   3.370   0.199  0.5592  0.0600 -1.5191
 2202SOL    HW218261   3.588   3.464   0.173  1.8264 -0.8698  1.3517
 2203SOL     OW18262   0.972   5.307   0.465  0.3253  0.0893 -0.1173
 2203SOL    HW118263   0.884   5.262   0.478  0.4134 -0.7008 -2.0346
 2203SOL    HW218264   1.045   5.247   0.499  0.1784  0.4300  0.8038
 2204SOL     OW18265   2.681   4.977   4.991  0.2128 -0.3024  0.2879
 2204SOL    HW118266   2.730   4.932   4.916  1.0045  1.7151 -0.4253
 2204SOL    HW218267   2.585   4.947   4.989 -0.1639  0.9103 -2.5256
 2205SOL     OW18268   2.323   0.985   5.426 -0.2854 -0.3012 -1.2826
 2205SOL    HW118269   2.399   0.986   5.492 -1.3740 -0.5651  0.0082
 2205SOL    HW218270   2.338   0.911   5.360  0.3468 -0.6589 -0.7559
 2206SOL     OW18271   9.805   6.593   3.462 -0.1754  0.0935  0.1293
 2206SOL    HW118272   9.800   6.580   3.561 -2.3292 -1.0433 -0.1014
 2206SOL    HW218273   9.898   6.621   3.437  0.6162 -0.4101  2.3678
 2207SOL     OW18274   0.754   8.115   0.936  0.7040 -0.3643 -0.1934
 2207SOL    HW118275   0.840   8.165   0.951 -0.4318  0.7925  2.7320
 2207SOL    HW218276   0.699   8.166   0.870  1.3125  0.0793 -0.3745
 2208SOL     OW18277   4.135   4.466   3.989  0.6066 -0.5176  0.0070
 2208SOL    HW118278   4.206   4.471   3.918 -2.2393 -0.7595 -2.9551
 2208SOL    HW218279   4.119   4.557   4.026  1.3671 -0.2010 -0.4253
 2209SOL     OW18280   2.754   7.875   3.402 -0.3670  0.0529  0.0295
 2209SOL    HW118281   2.815   7.884   3.323 -1.4620  0.5930 -0.7751
 2209SOL    HW218282   2.780   7.794   3.455  0.8273  0.0816 -0.4843
 2210SOL     OW18283   6.556   0.944   2.619  0.4404 -0.1799  0.0722
 2210SOL    HW118284   6.594   1.035   2.598  0.3393 -0.2963 -0.6272
 2210SOL    HW218285   6.522   0.944   2.712 -0.3389  0.7707 -0.1969
 2211SOL     OW18286   1.718   2.174   6.894 -0.0709 -0.2122 -0.4179
 2211SOL    HW118287   1.749   2.169   6.799 -1.3623  0.4313 -0.8842
 2211SOL    HW218288   1.787   2.133   6.953  1.0164 -0.0972 -1.5711
 2212SOL     OW18289   4.516   0.585   1.066 -0.3744  0.0095 -0.5996
 2212SOL    HW118290   4.599   0.552   1.110 -1.3114 -0.8513  0.5423
 2212SOL    HW218291   4.475   0.511   1.013 -0.5980  0.3432 -0.8944
 2213SOL     OW18292   5.543   5.600   0.525  0.3319  0.0160 -0.3514
 2213SOL    HW118293   5.522   5.528   0.591  1.5162  0.2370  0.2871
 2213SOL    HW218294   5.632   5.581   0.484  1.0869  1.5968  0.5126
 2214SOL     OW18295   4.703   4.023   0.607 -0.1479  0.2493 -0.6151
 2214SOL    HW118296   4.656   3.947   0.562 -0.6801 -0.7017  1.4823
 2214SOL    HW218297   4.637   4.081   0.654  0.6485 -0.9613  2.1634
 2215SOL     OW18298   2.595   3.305   6.965  0.4883 -0.0587  0.2047
 2215SOL    HW118299   2.531   3.360   7.018  1.3373  1.0035  0.1284
 2215SOL    HW218300   2.622   3.224   7.018 -0.8046 -0.4568  0.2883
 2216SOL     OW18301   2.470   6.770   2.850  0.4105  0.2914  0.2090
 2216SOL    HW118302   2.407   6.739   2.779 -0.7033 -1.0595  1.7598
 2216SOL    HW218303   2.434   6.745   2.940  2.0831  1.4747  1.2299
 2217SOL     OW18304   7.180   9.357   4.161  0.4060 -0.1366  0.3193
 2217SOL    HW118305   7.082   9.375   4.168  0.1384 -0.8215 -1.3282
 2217SOL    HW218306   7.227   9.442   4.136 -0.0711 -0.2908 -1.1706
 2218SOL     OW18307   8.320   4.997   3.710  0.0413 -0.0456  0.1709
 2218SOL    HW118308   8.402   5.052   3.725  0.2029 -0.6637  1.6399
 2218SOL    HW218309   8.289   4.960   3.797 -2.1638  0.6870 -0.2755
 2219SOL     OW18310   2.780   9.887   7.427 -0.6544  0.1389  0.4124
 2219SOL    HW118311   2.771   9.929   7.337  0.4616 -1.7463 -0.5943
 2219SOL    HW218312   2.727   9.802   7.430 -0.5975  0.1289  1.5101
 2220SOL     OW18313   0.010   1.581   6.125  0.1758 -0.3102  0.1682
 2220SOL    HW118314   0.024   1.561   6.222  0.0700 -1.9736 -0.1500
 2220SOL    HW218315  -0.073   1.536   6.093 -1.2108  2.3194 -0.1009
 2221SOL     OW18316   4.455   0.835   2.609 -0.3031  0.3813  0.7570
 2221SOL    HW118317   4.431   0.755   2.554 -1.9269  1.4364 -0.1114
 2221SOL    HW218318   4.444   0.917   2.554 -1.2794  1.4169  2.4628
 2222SOL     OW18319   8.398   8.856   0.272  0.0509  0.3915  0.5032
 2222SOL    HW118320   8.338   8.782   0.240  2.7131 -1.4481 -0.3891
 2222SOL    HW218321   8.426   8.912   0.194 -0.1053  0.9629  0.8553
 2223SOL     OW18322   2.246   5.377   3.559  0.1989 -0.0712  0.6893
 2223SOL    HW118323   2.216   5.389   3.464  2.7516  0.9071 -0.0609
 2223SOL    HW218324   2.301   5.294   3.566 -0.1734 -0.2642  1.3665
 2224SOL     OW18325   4.671   4.071   5.610 -0.0061 -0.1590 -0.3339
 2224SOL    HW118326   4.602   4.066   5.682  1.4372 -0.5640  1.0605
 2224SOL    HW218327   4.759   4.098   5.650  1.2268 -2.0936 -1.6574
 2225SOL     OW18328   4.483   4.656   3.902 -0.4650  0.0332  0.2575
 2225SOL    HW118329   4.452   4.667   3.997  1.2949  0.6397  0.7790
 2225SOL    HW218330   4.569   4.607   3.901 -0.3724  0.2084 -1.0311
 2226SOL     OW18331   4.074   1.666   6.084 -0.6392 -0.1916  0.1186
 2226SOL    HW118332   3.989   1.616   6.101 -1.9251  0.7758 -2.9900
 2226SOL    HW218333   4.131   1.613   6.021  1.2543 -0.9763  2.4334
 2227SOL     OW18334   8.393   0.119   1.286 -0.3136  0.1249  0.0979
 2227SOL    HW118335   8.391   0.204   1.235  1.4139  0.0057 -0.2107
 2227SOL    HW218336   8.486   0.104   1.321 -1.0529 -0.6717  1.7618
 2228SOL     OW18337   9.791   1.541   7.301 -0.0349 -0.1313 -0.6333
 2228SOL    HW118338   9.872   1.491   7.270  0.2085  0.1024 -0.3733
 2228SOL    HW218339   9.709   1.497   7.265  0.1562 -0.9841 -0.0508
 2229SOL     OW18340   1.138   8.218   1.204 -0.3740  0.2732 -0.2471
 2229SOL    HW118341   1.193   8.135   1.193 -1.6099 -0.6764  0.5842
 2229SOL    HW218342   1.183   8.280   1.267  0.0481 -0.2224 -0.0633
 2230SOL     OW18343   8.016   5.846   0.616  0.7463  0.2899  0.0527
 2230SOL    HW118344   7.999   5.915   0.546 -3.3200 -0.6059  0.0651
 2230SOL    HW218345   8.010   5.755   0.576 -0.5844 -0.2017  1.3155
 2231SOL     OW18346   8.279   3.225   7.117  0.3131 -0.3446 -0.2697
 2231SOL    HW118347   8.261   3.316   7.156  0.3204 -0.5209  0.1509
 2231SOL    HW218348   8.278   3.231   7.017  0.1877  0.0941 -0.2453
 2232SOL     OW18349   8.680   7.066   2.072 -0.6673  0.1103  0.2214
 2232SOL    HW118350   8.688   7.165   2.072 -0.8056  0.1233  0.5306
 2232SOL    HW218351   8.583   7.040   2.077 -0.6074 -0.0412  0.5798
 2233SOL     OW18352   0.408   6.135   2.037  0.1819 -0.3136  0.9557
 2233SOL    HW118353   0.340   6.180   2.095  0.8795  1.3151  0.5280
 2233SOL    HW218354   0.499   6.148   2.075  0.7861  1.8322 -1.1251
 2234SOL     OW18355   6.866   2.742   5.254  0.5696 -0.4192  0.7139
 2234SOL    HW118356   6.872   2.744   5.154  3.2258  0.4990  0.8652
 2234SOL    HW218357   6.770   2.734   5.281 -0.4281  2.0296 -1.8775
 2235SOL     OW18358   2.259   8.961   6.656  0.4916  0.4130  1.0379
 2235SOL    HW118359   2.189   8.910   6.607  0.0265  0.6434  1.4596
 2235SOL    HW218360   2.228   9.055   6.671  0.9872  0.5843  1.0145
 2236SOL     OW18361   1.006   6.018   4.662 -0.2235 -0.3064 -0.1049
 2236SOL    HW118362   0.915   5.994   4.630 -0.3373 -2.1633  1.5134
 2236SOL    HW218363   1.014   6.118   4.670 -2.9184 -0.2321  2.0747
 2237SOL     OW18364   1.878   1.985   3.392  0.0958  0.8495 -0.2475
 2237SOL    HW118365   1.849   1.897   3.428  0.4232  1.2204  0.9409
 2237SOL    HW218366   1.959   2.017   3.442  0.2665  1.5915 -0.9872
 2238SOL     OW18367   9.043   1.426   1.045  0.1504 -0.7920  0.5873
 2238SOL    HW118368   8.997   1.477   0.972  0.6046 -0.3644  0.5991
 2238SOL    HW218369   9.086   1.345   1.006 -0.0302 -0.8284  0.4624
 2239SOL     OW18370   6.992   9.029   3.547  0.0766 -0.1711  0.1538
 2239SOL    HW118371   7.000   9.101   3.479 -0.4514  0.1010  0.3743
 2239SOL    HW218372   7.069   9.034   3.611  0.7048 -0.5815 -0.5649
 2240SOL     OW18373   8.561   2.214   2.834 -0.2771 -0.1956  0.1323
 2240SOL    HW118374   8.471   2.215   2.878 -0.5123  0.9643 -0.3440
 2240SOL    HW218375   8.618   2.285   2.875 -0.5125  0.9237 -1.4417
 2241SOL     OW18376   8.823   5.212   0.432 -0.2063  0.2893  0.0220
 2241SOL    HW118377   8.905   5.246   0.478  0.0581  0.3514 -0.4963
 2241SOL    HW218378   8.752   5.282   0.436  0.8519  1.5489 -2.4177
 2242SOL     OW18379   7.091   0.721   5.168  0.3568 -0.1286  0.0492
 2242SOL    HW118380   7.133   0.631   5.173  0.7308  0.1120  1.3299
 2242SOL    HW218381   7.086   0.761   5.259 -1.4090  0.4145 -0.2510
 2243SOL     OW18382   3.073   3.048   3.507  0.7116 -0.0892 -0.1372
 2243SOL    HW118383   3.027   3.005   3.584  1.3668 -0.3942  0.0898
 2243SOL    HW218384   3.172   3.029   3.512  0.5786 -1.3302 -1.8273
 2244SOL     OW18385   1.370   9.574   5.479  0.4124  0.2116  0.6103
 2244SOL    HW118386   1.275   9.583   5.510  0.1537  1.1127 -0.3948
 2244SOL    HW218387   1.371   9.545   5.383  1.1749 -0.9998  0.9711
 2245SOL     OW18388   4.752   9.368   3.632  0.1052  0.3359  0.0340
 2245SOL    HW118389   4.808   9.449   3.649  2.1398 -1.2572  1.1474
 2245SOL    HW218390   4.737   9.319   3.718 -0.1106 -1.1083 -0.8095
 2246SOL     OW18391   3.259   7.706   4.799 -0.1112  0.3275 -0.3651
 2246SOL    HW118392   3.170   7.695   4.755 -0.7146  0.9718  0.6614
 2246SOL    HW218393   3.297   7.616   4.822 -0.4610  0.0518 -0.8668
 2247SOL     OW18394   2.385   6.992   2.424  0.2520  0.4565  0.0953
 2247SOL    HW118395   2.342   6.997   2.334  0.9019 -2.7004 -0.4585
 2247SOL    HW218396   2.340   6.920   2.478  2.8516 -0.8161  0.6165
 2248SOL     OW18397   8.755   4.391   2.580  0.2392 -0.5370 -1.3495
 2248SOL    HW118398   8.670   4.394   2.634  0.3805  0.9611 -1.1973
 2248SOL    HW218399   8.733   4.374   2.484 -0.1388 -1.3609 -1.1290
 2249SOL     OW18400   1.663   8.136   1.025 -0.1560  0.1330 -0.2134
 2249SOL    HW118401   1.680   8.145   0.927 -2.3256  1.7299 -0.4965
 2249SOL    HW218402   1.612   8.052   1.043  0.7108 -0.4370 -0.3579
 2250SOL     OW18403   1.462   0.056   1.196 -0.1338  0.3880 -0.2810
 2250SOL    HW118404   1.441   0.061   1.098  1.8791  0.6793 -0.7350
 2250SOL    HW218405   1.411   0.127   1.245 -0.4816  0.8239 -1.2562
 2251SOL     OW18406   5.462   0.866   6.003 -0.1712 -0.1306  0.0437
 2251SOL    HW118407   5.377   0.859   5.950 -0.6591  0.1308  0.7906
 2251SOL    HW218408   5.517   0.784   5.987  0.8383  1.0672 -2.8342
 2252SOL     OW18409   9.575   4.745   2.191 -0.6740 -0.0754 -0.0631
 2252SOL    HW118410   9.481   4.723   2.215 -0.7987  0.1237 -0.3720
 2252SOL    HW218411   9.637   4.678   2.232 -0.8510  0.5324  1.1947
 2253SOL     OW18412   5.501   8.011   3.954  0.0542 -0.1464 -0.1137
 2253SOL    HW118413   5.582   7.999   4.011  0.0644 -0.5144 -0.2052
 2253SOL    HW218414   5.457   7.922   3.938 -1.5057  0.2805  1.6226
 2254SOL     OW18415   9.966   6.457   5.289  0.1365  0.7389 -0.1536
 2254SOL    HW118416  10.061   6.443   5.262 -0.0901 -0.1624 -0.5290
 2254SOL    HW218417   9.925   6.368   5.312 -2.0501  0.3742 -4.8895
 2255SOL     OW18418   8.116   3.865   6.430  0.1187  0.0369 -0.3650
 2255SOL    HW118419   8.095   3.912   6.515 -0.6436  0.3624 -0.7233
 2255SOL    HW218420   8.031   3.847   6.380  0.2156 -3.3496  0.6078
 2256SOL     OW18421   1.128   1.703   6.226  0.0410 -0.2260  0.1469
 2256SOL    HW118422   1.116   1.744   6.135  1.3680  0.8606  0.4428
 2256SOL    HW218423   1.129   1.775   6.295  0.4167 -0.9355  0.8925
 2257SOL     OW18424   0.506   0.642   7.964  0.0655  0.5289 -0.1469
 2257SOL    HW118425   0.579   0.635   7.896 -0.2659 -1.0309 -0.3513
 2257SOL    HW218426   0.423   0.679   7.921 -0.6953 -2.1071 -1.0534
 2258SOL     OW18427   2.779   8.726   1.667 -0.1761 -0.4835  0.0005
 2258SOL    HW118428   2.739   8.705   1.756 -2.0636  0.6413 -0.5732
 2258SOL    HW218429   2.732   8.675   1.596  1.1561 -1.1765 -0.4072
 2259SOL     OW18430   1.098   1.139   4.308  0.1749 -0.2565  0.0348
 2259SOL    HW118431   1.115   1.113   4.403  0.5819  0.3966  0.1424
 2259SOL    HW218432   1.008   1.182   4.301  1.1166  1.8791  0.5666
 2260SOL     OW18433   5.289   4.804   1.532  0.1226 -0.9909  0.6706
 2260SOL    HW118434   5.320   4.826   1.625 -0.5072 -1.3432  0.9696
 2260SOL    HW218435   5.198   4.842   1.517  0.9329  0.5588 -0.4206
 2261SOL     OW18436   9.939   0.741   1.202  0.2305  0.2306 -0.0252
 2261SOL    HW118437   9.913   0.825   1.155  2.5401 -0.2041 -2.2073
 2261SOL    HW218438   9.910   0.662   1.148  1.1192 -0.3031  0.2634
 2262SOL     OW18439   8.510   4.168   4.035 -0.3373  0.3974 -0.3653
 2262SOL    HW118440   8.600   4.176   3.991 -0.8317  1.0997 -1.2644
 2262SOL    HW218441   8.472   4.259   4.051 -1.4714  0.0922 -1.2146
 2263SOL     OW18442   3.587   3.402   1.933 -0.2031  0.5231  0.1256
 2263SOL    HW118443   3.608   3.333   1.864 -3.0065 -0.4070  0.1384
 2263SOL    HW218444   3.576   3.357   2.022 -0.2570  1.2530  0.4891
 2264SOL     OW18445   0.237   4.741   4.853  0.7863 -0.2124  0.0435
 2264SOL    HW118446   0.320   4.687   4.844  1.2347  0.5243 -0.2723
 2264SOL    HW218447   0.184   4.708   4.931  0.9898 -1.1889 -0.2347
 2265SOL     OW18448   8.143   7.120   3.745 -0.1616 -0.0593 -0.3798
 2265SOL    HW118449   8.058   7.128   3.692 -0.7225 -1.8731  0.1930
 2265SOL    HW218450   8.125   7.146   3.840  0.0556  0.1184 -0.3896
 2266SOL     OW18451   5.836   8.952   3.784 -0.0809  0.2494  0.1141
 2266SOL    HW118452   5.754   8.916   3.740  0.1219 -1.8284  1.3749
 2266SOL    HW218453   5.915   8.942   3.723 -0.2600 -0.2577 -0.0304
 2267SOL     OW18454   5.342   8.980   2.731 -0.0948  0.2160  0.4680
 2267SOL    HW118455   5.440   8.990   2.746 -0.0935  0.6804  0.1716
 2267SOL    HW218456   5.310   9.054   2.672 -0.3736 -0.7507 -0.5848
 2268SOL     OW18457   0.023   2.812   2.617  0.1490  0.0695 -0.3101
 2268SOL    HW118458  -0.019   2.878   2.679  1.9929  0.3573  0.6732
 2268SOL    HW218459  -0.046   2.776   2.554 -2.0833 -1.3076  2.8176
 2269SOL     OW18460   1.000   9.220   2.208  0.1154 -0.1759  0.3895
 2269SOL    HW118461   1.040   9.228   2.116  0.4854 -1.7767  0.3847
 2269SOL    HW218462   0.917   9.165   2.202 -0.5541  0.7749  0.8373
 2270SOL     OW18463   7.074   4.281   0.051  0.5742 -0.5062  0.4431
 2270SOL    HW118464   7.112   4.304  -0.038 -1.5843 -0.2458 -0.4389
 2270SOL    HW218465   7.115   4.196   0.084  1.5899 -0.4590 -0.6758
 2271SOL     OW18466   7.598   6.152   7.031 -0.6408 -0.6596  0.0153
 2271SOL    HW118467   7.599   6.164   7.131 -0.8263 -1.5560  0.1262
 2271SOL    HW218468   7.683   6.188   6.993 -0.5328 -0.3790  0.5094
 2272SOL     OW18469   9.620   0.730   2.483 -0.4897 -0.1455 -0.0644
 2272SOL    HW118470   9.702   0.779   2.512 -0.4853 -0.9443  1.3416
 2272SOL    HW218471   9.643   0.668   2.408 -0.3930  1.5995 -1.5076
 2273SOL     OW18472   2.255   2.631   5.003 -0.1092  0.0410 -0.0096
 2273SOL    HW118473   2.178   2.672   4.954  0.6550  1.4756 -0.0421
 2273SOL    HW218474   2.341   2.658   4.959  0.3532 -3.1663 -1.1760
 2274SOL     OW18475   9.982   7.130   3.173  0.2751  0.6000 -0.2769
 2274SOL    HW118476  10.064   7.121   3.115 -1.4814  0.3501 -2.7865
 2274SOL    HW218477   9.999   7.199   3.244  3.3351 -0.8491  0.4866
 2275SOL     OW18478   1.314   0.043   0.129 -0.6016 -0.5733 -0.3628
 2275SOL    HW118479   1.219   0.067   0.107 -0.4143  0.2860 -0.2436
 2275SOL    HW218480   1.366   0.034   0.044 -0.7457 -0.8598 -0.4211
 2276SOL     OW18481   4.148   3.469   7.555  1.0458 -0.0212 -0.5131
 2276SOL    HW118482   4.158   3.412   7.474  0.6957  0.2867 -0.7698
 2276SOL    HW218483   4.098   3.419   7.626  0.5029  0.0651 -0.8350
 2277SOL     OW18484   9.476   7.777   6.126 -0.5333  0.4645 -0.0183
 2277SOL    HW118485   9.554   7.828   6.161 -0.1795  0.9187 -1.4377
 2277SOL    HW218486   9.509   7.693   6.083 -0.8795  0.3899 -0.1368
 2278SOL     OW18487   4.555   2.257   1.314  0.0221 -0.1123 -0.3960
 2278SOL    HW118488   4.500   2.223   1.391 -0.2396  0.1422 -0.4702
 2278SOL    HW218489   4.521   2.218   1.229  0.0848 -0.1156 -0.4188
 2279SOL     OW18490   2.770   0.778   6.704  0.3793  0.2269 -0.0287
 2279SOL    HW118491   2.701   0.768   6.776 -0.3628  1.0542 -0.6027
 2279SOL    HW218492   2.767   0.697   6.644  0.4794 -0.1195  0.4371
 2280SOL     OW18493   3.274   2.630   5.097 -0.4101 -0.1501  0.3499
 2280SOL    HW118494   3.228   2.551   5.139  0.7986 -0.3093  1.4054
 2280SOL    HW218495   3.305   2.605   5.005 -1.8453 -0.2440 -0.1132
 2281SOL     OW18496   7.167   9.206   5.420  0.0567  0.2521  0.0792
 2281SOL    HW118497   7.102   9.221   5.495  1.6903  0.7156  1.4443
 2281SOL    HW218498   7.237   9.278   5.422  1.0508 -0.6683 -0.8768
 2282SOL     OW18499   1.224   0.118   5.651  0.1636  0.2212  0.6360
 2282SOL    HW118500   1.174   0.204   5.652 -0.6827 -0.2812  2.4004
 2282SOL    HW218501   1.316   0.133   5.687  0.3825  0.6047 -0.0795
 2283SOL     OW18502   3.398   0.500   0.662 -0.2049  0.2152  0.5772
 2283SOL    HW118503   3.435   0.525   0.573 -1.5542 -0.0981 -0.0806
 2283SOL    HW218504   3.435   0.411   0.689  0.0791  0.2320  0.2464
 2284SOL     OW18505   0.183   9.965   4.523 -0.2689 -0.2004  0.3248
 2284SOL    HW118506   0.248   9.999   4.455 -0.1442 -0.6760  0.2075
 2284SOL    HW218507   0.170   9.867   4.510 -2.0223  0.1335 -0.5036
 2285SOL     OW18508   7.728   2.830   4.676 -0.3883 -0.0431 -0.8346
 2285SOL    HW118509   7.640   2.853   4.718  0.6899  0.5138  1.2494
 2285SOL    HW218510   7.719   2.748   4.621 -2.3181  0.2755 -1.0220
 2286SOL     OW18511   2.611   2.449   0.212  0.4043 -0.5101 -0.2874
 2286SOL    HW118512   2.694   2.401   0.185  0.0564 -1.0003 -0.4895
 2286SOL    HW218513   2.547   2.453   0.135  0.6562  0.7863 -0.4549
 2287SOL     OW18514   1.971   9.140   4.147 -0.5471 -0.1025 -0.0888
 2287SOL    HW118515   1.998   9.082   4.224 -1.4297 -0.4880 -0.0696
 2287SOL    HW218516   1.920   9.219   4.180 -1.6395 -0.6959 -0.3508
 2288SOL     OW18517   3.425   0.752   0.752 -0.4657 -0.2071  0.0206
 2288SOL    HW118518   3.397   0.657   0.735 -0.4134 -0.1018 -0.6631
 2288SOL    HW218519   3.359   0.814   0.709 -0.5267  0.0680  0.5105
 2289SOL     OW18520   2.006   5.826   8.040  0.1672  0.0969  0.3623
 2289SOL    HW118521   1.927   5.769   8.063 -0.1520  0.5400  0.3588
 2289SOL    HW218522   2.081   5.804   8.103  0.1492 -0.5467  0.1641
 2290SOL     OW18523   9.336   0.322   4.723 -0.2647 -0.2838  0.1494
 2290SOL    HW118524   9.347   0.347   4.626  3.0201 -0.9090  0.2983
 2290SOL    HW218525   9.332   0.222   4.731  0.1883 -0.2580  0.7036
 2291SOL     OW18526   9.362   7.108   3.203 -0.0865  0.1066 -0.2660
 2291SOL    HW118527   9.264   7.111   3.225 -0.0480  1.1286 -0.2150
 2291SOL    HW218528   9.414   7.146   3.279  0.3279 -0.1472 -0.4270
 2292SOL     OW18529   1.973   5.782   1.540 -0.4079  0.2290 -0.3112
 2292SOL    HW118530   2.030   5.855   1.578  0.2209 -0.1856 -0.4537
 2292SOL    HW218531   1.890   5.822   1.501  0.4711  0.9969 -1.4193
 2293SOL     OW18532   4.367   9.812   0.864  0.2639 -0.2906  0.3625
 2293SOL    HW118533   4.308   9.816   0.783  0.2959 -0.5715  0.3233
 2293SOL    HW218534   4.344   9.887   0.926  0.0085 -0.2751  0.2505
 2294SOL     OW18535   3.351   0.524   5.301  0.3777  0.5128 -0.1675
 2294SOL    HW118536   3.346   0.512   5.202  2.3211  2.1476 -0.4836
 2294SOL    HW218537   3.261   0.552   5.336 -0.2530  0.1742 -1.4833
 2295SOL     OW18538   8.402   3.414   5.931  0.6526  0.2599 -0.8761
 2295SOL    HW118539   8.317   3.377   5.894  0.0585 -0.3517  1.0546
 2295SOL    HW218540   8.458   3.340   5.967  1.0828  0.8802 -0.2703
 2296SOL     OW18541   7.720   1.450   6.464 -0.1676  0.5259 -0.9333
 2296SOL    HW118542   7.694   1.492   6.550 -2.4500 -0.1999 -1.2372
 2296SOL    HW218543   7.795   1.386   6.479 -2.3079 -1.5919  0.9963
 2297SOL     OW18544   8.284   2.502   7.642  0.8020 -0.3055 -0.3106
 2297SOL    HW118545   8.274   2.450   7.727 -1.7619  1.2579  0.4061
 2297SOL    HW218546   8.332   2.587   7.661  1.8164 -0.7592 -0.7970
 2298SOL     OW18547   8.978   9.141   6.127 -0.8150 -0.0895  0.4857
 2298SOL    HW118548   8.978   9.236   6.095  0.1850  0.5244  2.2414
 2298SOL    HW218549   8.999   9.139   6.225  0.2868 -2.2034  0.2359
 2299SOL     OW18550   4.483   8.689   5.718 -0.2199 -0.1954  0.2958
 2299SOL    HW118551   4.458   8.638   5.636 -0.1344  1.1402 -0.5808
 2299SOL    HW218552   4.401   8.708   5.771 -0.4872  0.2830 -0.2812
 2300SOL     OW18553   9.118   5.834   6.759  0.5629  0.4611  0.0377
 2300SOL    HW118554   9.056   5.756   6.769  0.1763  0.7703  0.0259
 2300SOL    HW218555   9.065   5.918   6.752  1.0241  0.8637  1.2950
 2301SOL     OW18556   3.254   7.089   7.627 -0.1458  0.0835  0.7981
 2301SOL    HW118557   3.294   7.106   7.537 -1.6139  0.1050  0.1303
 2301SOL    HW218558   3.295   7.150   7.695  1.2956 -0.2498  0.2437
 2302SOL     OW18559   1.900   7.438   2.161  0.3185  0.4685 -0.1625
 2302SOL    HW118560   1.851   7.378   2.098 -1.9227  1.3843  0.6696
 2302SOL    HW218561   1.933   7.385   2.239 -1.7139  0.2700  0.6063
 2303SOL     OW18562   8.911   4.341   3.399  0.0777 -0.2434  0.0711
 2303SOL    HW118563   8.840   4.319   3.331 -1.1626 -1.1737  1.6420
 2303SOL    HW218564   8.905   4.438   3.423  0.1595 -0.0330 -0.7229
 2304SOL     OW18565   2.481   4.853   4.508 -0.2010  0.2190  0.3806
 2304SOL    HW118566   2.503   4.856   4.410 -3.1711 -0.7743 -0.3742
 2304SOL    HW218567   2.420   4.929   4.531 -2.6478 -1.7709  0.5939
 2305SOL     OW18568   8.087   6.642   7.672  0.1069  0.2639  0.2400
 2305SOL    HW118569   8.167   6.687   7.712  0.2282  1.6389 -1.4371
 2305SOL    HW218570   8.089   6.545   7.693  1.7030  0.4574  1.0745
 2306SOL     OW18571   0.055   7.209   5.665 -0.5681  0.3000 -0.7730
 2306SOL    HW118572  -0.025   7.268   5.677 -0.6651 -0.2925  1.8032
 2306SOL    HW218573   0.040   7.147   5.588 -1.5544  1.8489 -1.8485
 2307SOL     OW18574   3.555   0.956   5.918 -0.1526 -0.1198 -0.1537
 2307SOL    HW118575   3.601   0.934   6.004 -0.5317 -1.1507 -0.1973
 2307SOL    HW218576   3.463   0.915   5.919 -0.0520 -0.3794 -1.1615
 2308SOL     OW18577   0.905   1.311   3.739  0.3483  0.4399  0.0462
 2308SOL    HW118578   0.928   1.348   3.649  0.0762 -0.5064 -0.4166
 2308SOL    HW218579   0.981   1.327   3.802  0.9296  0.2623 -0.6057
 2309SOL     OW18580   2.783   2.550   1.089 -0.5374  0.4165 -0.2123
 2309SOL    HW118581   2.872   2.511   1.067 -1.6477 -2.0135 -0.6447
 2309SOL    HW218582   2.756   2.522   1.181 -1.2831  0.2831 -0.4631
 2310SOL     OW18583   3.491   5.842   1.640  0.0970 -0.2339 -0.0282
 2310SOL    HW118584   3.392   5.833   1.630 -0.1522  1.9815  0.1216
 2310SOL    HW218585   3.513   5.938   1.659  2.2312 -0.8046  0.4241
 2311SOL     OW18586   5.563   3.838   0.336  0.1615  0.1007  0.4720
 2311SOL    HW118587   5.589   3.823   0.432  0.4888 -0.7781  0.2565
 2311SOL    HW218588   5.540   3.750   0.295  0.8322  0.3777 -0.4970
 2312SOL     OW18589   8.089   9.234   1.549 -0.3611  0.0182  0.7788
 2312SOL    HW118590   8.001   9.188   1.560 -0.1633 -0.8112 -0.9423
 2312SOL    HW218591   8.076   9.321   1.502 -0.3934  0.4222  1.5343
 2313SOL     OW18592   6.608   1.044   2.259  0.4465 -0.4840 -0.3279
 2313SOL    HW118593   6.542   0.969   2.248 -0.6677  0.4786 -0.3566
 2313SOL    HW218594   6.585   1.096   2.341  1.4774 -0.4316 -0.0717
 2314SOL     OW18595   1.748   7.710   7.071 -0.1835  0.0459 -0.6461
 2314SOL    HW118596   1.691   7.632   7.046 -0.5575 -0.1064  0.6835
 2314SOL    HW218597   1.791   7.748   6.988 -0.7493 -0.9726 -1.4077
 2315SOL     OW18598   1.805   4.653   6.185  0.7694  0.1745  0.1769
 2315SOL    HW118599   1.845   4.727   6.132  1.0382  0.2658  0.5055
 2315SOL    HW218600   1.877   4.592   6.218  0.4670 -0.7510 -0.8693
 2316SOL     OW18601   4.390   7.518   1.783  0.3636  0.0427 -0.4691
 2316SOL    HW118602   4.368   7.475   1.870 -0.3300 -1.3988 -1.3306
 2316SOL    HW218603   4.312   7.573   1.751  0.5665  0.4619 -0.2453
 2317SOL     OW18604   8.958   9.820   6.727  0.2920  0.1472 -0.3994
 2317SOL    HW118605   8.981   9.835   6.631 -0.9049 -0.0809 -0.7312
 2317SOL    HW218606   9.023   9.870   6.785  1.1060  0.1647 -1.3143
 2318SOL     OW18607   7.476   1.333   6.375 -0.4755  0.1932  0.1411
 2318SOL    HW118608   7.472   1.341   6.276 -0.1375 -3.7273 -0.2989
 2318SOL    HW218609   7.558   1.380   6.410  0.8717 -0.6803 -1.7667
 2319SOL     OW18610   2.275   1.053   1.046  0.2427  0.0128 -0.3734
 2319SOL    HW118611   2.306   1.146   1.028 -0.5022  0.3047 -0.1884
 2319SOL    HW218612   2.244   1.045   1.141  1.2966 -0.7089 -0.0879
 2320SOL     OW18613   8.188   6.894   4.314 -0.0587  0.2314  0.5174
 2320SOL    HW118614   8.244   6.924   4.236  0.6947  0.2329  1.0518
 2320SOL    HW218615   8.183   6.794   4.314 -0.5627  0.2549  0.1217
 2321SOL     OW18616   1.617   7.441   7.011  0.4452  0.5485 -0.1686
 2321SOL    HW118617   1.671   7.432   6.927  0.6972 -1.2780  0.1697
 2321SOL    HW218618   1.657   7.385   7.083 -1.9539 -1.0093  0.0346
 2322SOL     OW18619   8.932   1.394   1.905  0.1295 -0.2491  0.0173
 2322SOL    HW118620   8.925   1.479   1.958  0.4200  0.3145 -0.8534
 2322SOL    HW218621   8.845   1.376   1.860  0.2855 -0.0473 -0.3633
 2323SOL     OW18622   9.154   6.814   1.871 -0.1471 -0.1329 -0.2159
 2323SOL    HW118623   9.110   6.739   1.921  1.3770 -1.8027 -1.2950
 2323SOL    HW218624   9.179   6.887   1.935  0.4864 -1.6092  1.2669
 2324SOL     OW18625   4.000   0.600   1.204  0.2090  0.1692  0.8087
 2324SOL    HW118626   3.953   0.618   1.118  1.2769 -1.2199 -0.1110
 2324SOL    HW218627   4.098   0.616   1.192  0.8154 -3.0987  0.7848
 2325SOL     OW18628   5.818   9.685   5.593 -0.4205  0.3493 -0.7398
 2325SOL    HW118629   5.888   9.749   5.562 -0.4741  0.6152 -0.3305
 2325SOL    HW218630   5.824   9.675   5.693  1.6499 -2.7621 -1.1263
 2326SOL     OW18631   7.151   3.710   2.438  0.2017  0.4637  0.2601
 2326SOL    HW118632   7.113   3.685   2.349  0.8743 -1.1540  0.3977
 2326SOL    HW218633   7.162   3.809   2.444 -1.1195  0.6959 -0.9284
 2327SOL     OW18634   4.693   5.951   1.683 -0.3273  0.5701  0.0339
 2327SOL    HW118635   4.599   5.934   1.652 -0.6144  0.0675  1.1644
 2327SOL    HW218636   4.692   6.023   1.752  0.1222  0.5341  0.0762
 2328SOL     OW18637   0.583   8.943   3.637  0.2324 -0.4561 -0.1313
 2328SOL    HW118638   0.627   8.867   3.591  1.8834  0.7734 -0.6146
 2328SOL    HW218639   0.539   9.002   3.569 -1.9280 -1.5026  0.3185
 2329SOL     OW18640   0.750   7.499   6.982  0.7545  0.1419 -0.1323
 2329SOL    HW118641   0.831   7.553   7.004  1.0335 -0.8517  1.3468
 2329SOL    HW218642   0.762   7.455   6.893  1.5865  0.4728 -0.1884
 2330SOL     OW18643   4.576   4.188   2.861 -0.3842  0.3860 -0.2088
 2330SOL    HW118644   4.541   4.182   2.768 -1.8145  2.9689  0.1001
 2330SOL    HW218645   4.502   4.167   2.926  0.4412 -0.7998  0.3702
 2331SOL     OW18646   9.831   0.715   3.050 -0.4752 -0.5524  0.2762
 2331SOL    HW118647   9.749   0.658   3.040 -0.7134 -0.1315 -0.1946
 2331SOL    HW218648   9.836   0.748   3.144 -0.5970 -0.9606  0.4265
 2332SOL     OW18649   1.933   1.685   1.360 -0.1651  0.0762  0.2922
 2332SOL    HW118650   1.978   1.596   1.351  1.0908  0.8330 -1.0035
 2332SOL    HW218651   1.834   1.671   1.367  0.2753 -1.7011  4.6903
 2333SOL     OW18652   8.072   2.982   4.946  0.2267 -0.1118  0.0684
 2333SOL    HW118653   8.056   3.074   4.982 -0.6689 -0.0416 -0.4998
 2333SOL    HW218654   8.089   2.919   5.023 -2.9979 -0.2288  0.7708
 2334SOL     OW18655   1.224   1.858   1.943 -0.1034 -0.2463 -0.1883
 2334SOL    HW118656   1.240   1.767   1.980  0.2664  0.2184  0.8141
 2334SOL    HW218657   1.142   1.897   1.986  0.1926  0.2059 -0.0312
 2335SOL     OW18658   2.626   6.634   4.261 -0.0165  0.0200  0.1452
 2335SOL    HW118659   2.615   6.681   4.173 -0.6140  1.4201  0.9356
 2335SOL    HW218660   2.549   6.659   4.321 -0.2968 -1.9380  0.6111
 2336SOL     OW18661   3.088   3.682   6.651  0.7752  0.1487  0.1744
 2336SOL    HW118662   3.095   3.716   6.745  1.3532 -1.2592  0.6500
 2336SOL    HW218663   3.010   3.620   6.644  1.5553 -0.8208  0.0604
 2337SOL     OW18664   7.683   3.682   2.983  0.4336 -0.0430  0.2689
 2337SOL    HW118665   7.773   3.683   2.940 -0.4113  1.3579 -1.5274
 2337SOL    HW218666   7.665   3.771   3.025  0.1295 -0.5222  1.1683
 2338SOL     OW18667   0.094   1.848   3.220 -0.0915  0.7007  0.6679
 2338SOL    HW118668   0.115   1.877   3.313 -1.7127 -0.8135  1.5636
 2338SOL    HW218669  -0.006   1.845   3.208  0.0730 -0.6922 -0.5689
 2339SOL     OW18670   3.645   6.135   1.461 -0.0714  0.1696  0.9196
 2339SOL    HW118671   3.578   6.131   1.387  1.1196  0.2434 -0.1943
 2339SOL    HW218672   3.600   6.120   1.548 -1.6197  0.8380  0.2432
 2340SOL     OW18673   1.370   9.358   2.601 -0.0757 -0.4742 -0.1548
 2340SOL    HW118674   1.364   9.300   2.682  1.2519 -1.9658 -1.0728
 2340SOL    HW218675   1.301   9.330   2.534  0.7688 -1.2378 -0.7256
 2341SOL     OW18676   7.590   2.015   7.832 -0.0437  0.3108  0.4982
 2341SOL    HW118677   7.599   1.928   7.881  1.7228  0.5631  0.6469
 2341SOL    HW218678   7.588   2.090   7.897  3.4249  0.7335  0.2139
 2342SOL     OW18679   9.828   0.901   6.654  0.3716  0.1409  0.3209
 2342SOL    HW118680   9.866   0.824   6.603 -0.6945  0.3404 -0.8093
 2342SOL    HW218681   9.826   0.982   6.595 -0.9980  0.3502  0.6362
 2343SOL     OW18682   3.760   9.734   4.740 -0.2094 -0.1512  0.3446
 2343SOL    HW118683   3.745   9.811   4.678  1.4630 -1.9400 -2.3549
 2343SOL    HW218684   3.673   9.710   4.784 -2.1856 -0.8628 -3.7166
 2344SOL     OW18685   6.041   0.504   5.257  0.3039 -0.2085 -0.1899
 2344SOL    HW118686   6.076   0.564   5.329 -0.3534 -0.2411  0.1615
 2344SOL    HW218687   6.067   0.410   5.277 -0.0252 -0.2396  0.0997
 2345SOL     OW18688   1.554   4.704   4.935 -0.4290  0.1810 -0.0483
 2345SOL    HW118689   1.624   4.640   4.966 -1.1228 -0.5468  0.0163
 2345SOL    HW218690   1.534   4.687   4.838 -0.1870  0.6909 -0.1884
 2346SOL     OW18691   2.364   3.894   5.948 -0.2509  0.6552  0.4154
 2346SOL    HW118692   2.362   3.924   6.043 -0.4391 -2.8799  1.6285
 2346SOL    HW218693   2.271   3.870   5.919  0.1279 -0.5354  0.1513
 2347SOL     OW18694   0.014   2.797   5.717 -0.2746  0.3315 -0.2253
 2347SOL    HW118695   0.112   2.806   5.735 -0.2754  0.8430 -0.4753
 2347SOL    HW218696  -0.012   2.700   5.724  0.1956  0.2241  0.0878
 2348SOL     OW18697   6.901   8.804   4.580  0.0161 -0.2684  0.0777
 2348SOL    HW118698   6.978   8.864   4.602  0.7122 -0.6604 -1.2336
 2348SOL    HW218699   6.815   8.848   4.607  0.6801  0.2761  1.3202
 2349SOL     OW18700   3.863   5.117   0.497 -0.0646  0.3491 -0.8272
 2349SOL    HW118701   3.817   5.125   0.585 -0.6500 -2.2461 -0.8740
 2349SOL    HW218702   3.796   5.127   0.423  0.0697  0.3905 -0.9440
 2350SOL     OW18703   7.750   0.773   1.731 -0.1562 -0.0356 -0.1059
 2350SOL    HW118704   7.822   0.826   1.686  1.3700 -1.8602  0.1767
 2350SOL    HW218705   7.772   0.761   1.828 -1.8980  1.1992  0.4733
 2351SOL     OW18706   5.887   1.928   3.328 -0.2438 -0.1594  0.1756
 2351SOL    HW118707   5.986   1.931   3.343 -0.2731  0.4097  0.2806
 2351SOL    HW218708   5.858   2.012   3.283 -0.7029 -0.2567  0.2894
 2352SOL     OW18709   9.484   8.049   2.438  0.0582  0.3557 -0.1737
 2352SOL    HW118710   9.420   7.992   2.490 -1.6754  2.1043 -0.3613
 2352SOL    HW218711   9.495   8.138   2.483  0.0925  1.1451 -1.7171
 2353SOL     OW18712   2.757   7.395   2.570  0.0188  0.8458 -0.6483
 2353SOL    HW118713   2.701   7.386   2.487  1.3772 -1.0300 -1.3893
 2353SOL    HW218714   2.706   7.360   2.648  0.5225 -1.9301 -1.5052
 2354SOL     OW18715   4.839   1.820   0.412  0.3800 -0.4072  0.6358
 2354SOL    HW118716   4.923   1.801   0.463  0.6251  0.0422  0.4064
 2354SOL    HW218717   4.773   1.747   0.428  0.1893  0.0761  2.1557
 2355SOL     OW18718   3.650   4.109   1.783  0.2266 -0.8254 -0.1662
 2355SOL    HW118719   3.717   4.035   1.779  0.2538 -0.7048 -3.5612
 2355SOL    HW218720   3.695   4.196   1.760 -0.0623  0.1079  2.5990
 2356SOL     OW18721   1.103   3.559   2.075  0.1472  0.3293  0.1265
 2356SOL    HW118722   1.077   3.564   1.978 -1.1411  1.5446  0.5224
 2356SOL    HW218723   1.089   3.466   2.109 -0.1240  0.0839 -0.6452
 2357SOL     OW18724   2.819   9.335   0.207  0.2277  0.0460 -0.1738
 2357SOL    HW118725   2.873   9.263   0.166  0.8430 -0.6331  1.7662
 2357SOL    HW218726   2.761   9.297   0.279  0.4439  1.4263  0.7710
 2358SOL     OW18727   8.732   1.181   7.302  0.0857  0.4874  0.4011
 2358SOL    HW118728   8.689   1.271   7.293 -0.3475  0.3211  0.8348
 2358SOL    HW218729   8.662   1.111   7.312  0.3957  0.0199 -0.6045
 2359SOL     OW18730   3.325   0.862   6.027  0.3044 -0.1164  0.6169
 2359SOL    HW118731   3.274   0.780   6.003  1.0362  0.4288 -3.0422
 2359SOL    HW218732   3.262   0.931   6.063 -0.2346 -2.3858  4.3100
 2360SOL     OW18733   4.141   6.189   1.149 -0.3091 -0.1120  0.3290
 2360SOL    HW118734   4.076   6.113   1.157 -0.8295  0.4297  1.3272
 2360SOL    HW218735   4.092   6.271   1.120 -0.1419  0.3864  1.4222
 2361SOL     OW18736   6.702   8.177   5.392  1.2478  0.8586  0.0220
 2361SOL    HW118737   6.733   8.084   5.414  2.6170  1.1730 -0.5843
 2361SOL    HW218738   6.753   8.243   5.447  0.3410  1.2747  0.3805
 2362SOL     OW18739   9.336   8.130   7.817 -0.1540  0.2837 -0.1320
 2362SOL    HW118740   9.386   8.145   7.732  0.1016  0.7835  0.1058
 2362SOL    HW218741   9.247   8.177   7.812  0.7039  2.0420  0.6660
 2363SOL     OW18742   2.956   2.575   4.302  0.3762  0.3469  0.5329
 2363SOL    HW118743   3.008   2.491   4.317 -0.0418  0.2493  1.4976
 2363SOL    HW218744   2.949   2.593   4.204 -0.1283 -1.1098  0.2942
 2364SOL     OW18745   3.939   2.248   4.045  0.5404  0.0706  0.1966
 2364SOL    HW118746   3.866   2.260   4.112  0.6511 -0.0971  0.3444
 2364SOL    HW218747   3.908   2.283   3.956  0.8488  1.4701  0.6297
 2365SOL     OW18748   1.865   2.288   0.237 -0.0205 -0.4187 -0.3180
 2365SOL    HW118749   1.949   2.315   0.285  1.0019 -2.9635 -0.6286
 2365SOL    HW218750   1.787   2.300   0.297  1.1129 -2.4666  1.6378
 2366SOL     OW18751   0.215   8.761   0.121 -0.0785  0.4404 -0.4078
 2366SOL    HW118752   0.119   8.765   0.094 -0.2006 -0.8309 -0.1842
 2366SOL    HW218753   0.222   8.764   0.221  0.2673  3.1148 -0.4576
 2367SOL     OW18754   8.989   3.575   3.910 -0.2406 -0.2011  0.2960
 2367SOL    HW118755   9.044   3.628   3.974 -1.1767  2.4028 -0.9752
 2367SOL    HW218756   8.931   3.512   3.961  0.7837  0.0935  1.8707
 2368SOL     OW18757   9.584   4.058   4.801 -0.2589  0.3774  0.0753
 2368SOL    HW118758   9.486   4.059   4.821  0.0554  1.6188  1.6503
 2368SOL    HW218759   9.629   3.987   4.856 -0.1713  0.2464 -0.1628
 2369SOL     OW18760   0.345   7.683   5.235  0.2088  0.2082  0.0112
 2369SOL    HW118761   0.433   7.710   5.272 -0.3008  2.5895 -0.4027
 2369SOL    HW218762   0.353   7.668   5.136  0.9335 -3.2614  0.5581
 2370SOL     OW18763   2.493   9.905   6.848  0.5120 -0.5304  0.1819
 2370SOL    HW118764   2.468   9.864   6.936 -0.1675  0.7366  0.5905
 2370SOL    HW218765   2.428   9.876   6.778  0.2826 -0.4946  0.3812
 2371SOL     OW18766   4.096   5.289   7.992  0.0780  0.2301  0.0279
 2371SOL    HW118767   4.135   5.200   7.967 -0.2722  0.1657 -0.2943
 2371SOL    HW218768   4.103   5.301   8.091  1.5702  0.5418 -0.1096
 2372SOL     OW18769   9.844   6.017   7.047 -0.2777  0.1209 -0.1938
 2372SOL    HW118770   9.783   5.962   6.989  0.6369 -0.2837 -0.7731
 2372SOL    HW218771   9.857   5.971   7.135  1.2382 -1.0516 -1.0301
 2373SOL     OW18772   4.792   0.163   1.124  0.1875  0.1360  0.3515
 2373SOL    HW118773   4.742   0.161   1.038  0.7956  0.2317 -0.0049
 2373SOL    HW218774   4.890   0.154   1.106  0.1808 -1.7633  1.1438
 2374SOL     OW18775   1.394   5.137   7.414 -0.0313 -0.0656 -0.6415
 2374SOL    HW118776   1.480   5.156   7.367 -1.0336  1.0252 -2.1139
 2374SOL    HW218777   1.366   5.218   7.465  0.7769 -1.0696  1.4104
 2375SOL     OW18778   6.801   0.786   0.386 -0.2400 -0.0010  0.0504
 2375SOL    HW118779   6.867   0.860   0.378  0.0692 -0.1120  1.3852
 2375SOL    HW218780   6.745   0.801   0.468 -0.8486 -0.7098 -0.2346
 2376SOL     OW18781   3.031   7.643   7.462  0.0492 -0.3328 -0.0718
 2376SOL    HW118782   2.994   7.674   7.550 -1.0007 -1.0821 -0.2399
 2376SOL    HW218783   2.987   7.693   7.388  0.2665 -0.3580 -0.2181
 2377SOL     OW18784   6.359   3.060   0.904 -0.1159  0.1897 -0.9349
 2377SOL    HW118785   6.289   3.032   0.970  1.1104 -1.4846 -0.2924
 2377SOL    HW218786   6.321   3.129   0.842 -1.9264  0.2510  0.2006
 2378SOL     OW18787   5.292   5.242   0.601  0.1182 -0.0820 -0.2520
 2378SOL    HW118788   5.228   5.189   0.657  0.7884 -0.4310  0.1937
 2378SOL    HW218789   5.246   5.271   0.517 -0.5782 -0.4612 -0.0110
 2379SOL     OW18790   9.691   5.534   4.686 -0.6827  0.5024 -0.3353
 2379SOL    HW118791   9.665   5.626   4.654 -0.6273  0.7173  0.2237
 2379SOL    HW218792   9.757   5.494   4.623 -0.0888  1.1760 -0.1555
 2380SOL     OW18793   8.417   2.881   2.640 -0.5909 -0.2463  0.1680
 2380SOL    HW118794   8.484   2.820   2.683  0.6118  0.1932 -1.0202
 2380SOL    HW218795   8.406   2.854   2.544  0.0654  1.4681 -0.4068
 2381SOL     OW18796   8.846   6.606   0.911 -0.6872 -0.1580 -0.1463
 2381SOL    HW118797   8.858   6.695   0.956 -0.3090  0.3079 -1.1592
 2381SOL    HW218798   8.930   6.552   0.921 -0.4969  0.0628 -0.5506
 2382SOL     OW18799   8.808   2.887   1.793  0.3094  0.2322 -0.4799
 2382SOL    HW118800   8.714   2.896   1.826  0.1563  0.3207 -0.9330
 2382SOL    HW218801   8.871   2.929   1.859 -0.1151  1.7754 -1.0300
 2383SOL     OW18802   8.176   1.072   7.175  0.1122  0.6894 -0.1656
 2383SOL    HW118803   8.080   1.064   7.203  0.5122 -1.3567  0.6872
 2383SOL    HW218804   8.233   1.017   7.236  1.7174  1.0450 -1.3212
 2384SOL     OW18805   6.768   0.570   0.027  0.0108  0.2019  0.1682
 2384SOL    HW118806   6.729   0.662   0.026  0.0486  0.2097 -1.1219
 2384SOL    HW218807   6.843   0.565  -0.039  1.6795 -0.0329  2.0459
 2385SOL     OW18808   1.200   3.664   4.463  0.3210  0.3626 -0.2324
 2385SOL    HW118809   1.212   3.732   4.535 -0.2135  0.5637 -0.3246
 2385SOL    HW218810   1.107   3.628   4.467  0.5060 -0.1279 -0.3876
 2386SOL     OW18811   6.376   9.196   5.484 -0.2957 -0.5341  0.3033
 2386SOL    HW118812   6.463   9.207   5.436 -0.9298 -0.4828 -0.8691
 2386SOL    HW218813   6.380   9.242   5.572 -0.3138  2.5500 -1.2456
 2387SOL     OW18814   0.981   3.796   5.083 -0.1642 -0.2910  0.4323
 2387SOL    HW118815   0.950   3.858   5.155 -0.2382  0.2985 -0.0992
 2387SOL    HW218816   0.904   3.741   5.051 -0.5448  0.7125 -0.4304
 2388SOL     OW18817   1.558   3.297   0.873 -0.0573 -0.6494  0.5860
 2388SOL    HW118818   1.516   3.224   0.819  1.3898  0.9292 -2.8748
 2388SOL    HW218819   1.646   3.267   0.908  1.6543  0.0821 -2.8455
 2389SOL     OW18820   5.911   5.645   1.113 -0.6263  0.3088 -0.2595
 2389SOL    HW118821   5.945   5.560   1.072  2.9183  1.1452  0.7423
 2389SOL    HW218822   5.909   5.717   1.043  1.0228  0.5858 -0.0420
 2390SOL     OW18823   8.513   4.768   7.193 -0.0755  0.4981 -0.4880
 2390SOL    HW118824   8.601   4.755   7.238  0.0079 -0.4333 -0.9007
 2390SOL    HW218825   8.528   4.797   7.098 -0.1157 -2.6950 -1.5331
 2391SOL     OW18826   5.695   0.621   3.778 -0.2588  0.3034  0.3917
 2391SOL    HW118827   5.689   0.677   3.695 -1.2010  0.2834  0.4355
 2391SOL    HW218828   5.682   0.678   3.859  0.4186  0.2829  0.5159
 2392SOL     OW18829   6.552   1.439   5.669  0.2937 -0.4780 -0.6271
 2392SOL    HW118830   6.593   1.516   5.620  0.5528 -0.0972  0.1764
 2392SOL    HW218831   6.454   1.433   5.647  0.4309 -0.3723 -1.2614
 2393SOL     OW18832   1.243   4.346   6.809  0.0243  0.1089  0.1674
 2393SOL    HW118833   1.311   4.411   6.775  0.6377 -0.0976  0.9651
 2393SOL    HW218834   1.216   4.373   6.902 -0.9388  0.1547 -0.1284
 2394SOL     OW18835   2.458   8.035   4.277  0.5348  0.3009  0.4137
 2394SOL    HW118836   2.430   7.951   4.230 -0.4547  2.2593 -2.6849
 2394SOL    HW218837   2.380   8.074   4.325  0.1927  0.9983 -0.6788
 2395SOL     OW18838   0.713   9.795   3.558  0.3356 -0.1980 -0.3718
 2395SOL    HW118839   0.688   9.720   3.496 -0.6062 -0.2615  0.0752
 2395SOL    HW218840   0.725   9.879   3.505 -1.9904  0.0951 -0.4932
 2396SOL     OW18841   8.812   4.911   4.940  0.3607 -0.0184 -0.4007
 2396SOL    HW118842   8.848   4.834   4.992  0.4599 -0.4174 -1.0597
 2396SOL    HW218843   8.886   4.977   4.923 -0.0180  0.9017  1.3472
 2397SOL     OW18844   8.688   4.334   3.222  0.6384 -1.0573 -0.2812
 2397SOL    HW118845   8.681   4.317   3.124  1.4657 -1.3548 -0.2883
 2397SOL    HW218846   8.654   4.426   3.242  1.7040 -0.4903 -1.0264
 2398SOL     OW18847   4.165   6.139   1.493 -0.1004  0.1485 -0.4274
 2398SOL    HW118848   4.074   6.099   1.482  0.1910 -0.9625  1.0191
 2398SOL    HW218849   4.230   6.091   1.433  0.2736 -1.7100  1.3986
 2399SOL     OW18850   7.356   2.341   6.107  0.4274  0.4573  0.0919
 2399SOL    HW118851   7.267   2.315   6.068  1.2718 -1.1646 -0.8244
 2399SOL    HW218852   7.363   2.441   6.111 -0.0504  0.6984 -3.2204
 2400SOL     OW18853   1.340   4.360   8.035 -0.0223  0.2958 -0.4578
 2400SOL    HW118854   1.367   4.388   7.943 -0.6897 -0.0385 -0.7584
 2400SOL    HW218855   1.240   4.351   8.039 -0.0603  1.0003  0.4896
 2401SOL     OW18856   3.831   5.704   8.050  0.1218 -0.5870 -0.1439
 2401SOL    HW118857   3.816   5.762   7.970 -1.4399 -0.2029  0.4181
 2401SOL    HW218858   3.911   5.645   8.034  0.9422  0.7975 -1.2270
 2402SOL     OW18859   7.682   9.505   2.192  0.2299  0.3005  0.1799
 2402SOL    HW118860   7.589   9.469   2.195  0.5947 -0.6146  0.9329
 2402SOL    HW218861   7.680   9.600   2.161 -0.6926 -0.5494 -2.5218
 2403SOL     OW18862   9.605   6.131   0.731 -0.3110  0.0682 -0.0650
 2403SOL    HW118863   9.672   6.138   0.804  0.4448 -3.1905 -0.3617
 2403SOL    HW218864   9.635   6.184   0.652  1.8097 -1.1019 -0.0749
 2404SOL     OW18865   0.144   8.350   2.818  0.0839 -0.0108 -0.3065
 2404SOL    HW118866   0.044   8.345   2.815  0.1027 -0.0267 -1.1422
 2404SOL    HW218867   0.182   8.264   2.784  0.3810 -0.5102  1.2745
 2405SOL     OW18868   9.245   0.917   7.342  0.0060 -0.1520  0.6074
 2405SOL    HW118869   9.275   0.906   7.247  0.3387 -1.6237  0.8702
 2405SOL    HW218870   9.323   0.901   7.403  0.1829  2.4182  1.0918
 2406SOL     OW18871   8.404   7.560   4.082  0.0657  0.0687 -0.2505
 2406SOL    HW118872   8.448   7.649   4.090  0.3145  0.0446 -1.3766
 2406SOL    HW218873   8.472   7.488   4.093  0.3218  0.0325 -2.0637
 2407SOL     OW18874   9.881   3.743   3.463 -1.0923 -0.0605  0.0420
 2407SOL    HW118875   9.789   3.714   3.487 -0.0307 -0.4673  3.9836
 2407SOL    HW218876   9.902   3.831   3.506 -0.0810  0.7243 -1.9452
 2408SOL     OW18877   2.118   8.590   6.416  0.6002 -0.0141  0.8812
 2408SOL    HW118878   2.107   8.550   6.325 -1.2505  1.3510  0.4746
 2408SOL    HW218879   2.063   8.539   6.482  0.3756  0.2178  0.8715
 2409SOL     OW18880   8.758   5.284   5.801 -0.9483 -0.2758 -0.2477
 2409SOL    HW118881   8.821   5.213   5.833 -0.5319  0.0731 -0.2830
 2409SOL    HW218882   8.719   5.256   5.713 -0.2133 -0.1240 -0.6258
 2410SOL     OW18883   1.457   6.544   6.646  0.5271 -0.0287 -0.0188
 2410SOL    HW118884   1.527   6.616   6.650  1.1782 -0.5258 -1.9437
 2410SOL    HW218885   1.429   6.530   6.551 -2.5590  0.4865  0.7559
 2411SOL     OW18886   1.838   6.086   6.007 -0.1016 -0.3953  0.1821
 2411SOL    HW118887   1.863   5.990   5.994 -0.7369 -0.3339 -1.6165
 2411SOL    HW218888   1.918   6.144   5.991 -0.1734 -0.5161 -0.6519
 2412SOL     OW18889   8.268   5.865   0.752 -0.4203  0.0718  0.0001
 2412SOL    HW118890   8.314   5.777   0.767 -2.5432 -0.7778  1.8282
 2412SOL    HW218891   8.171   5.849   0.734 -0.5490  1.9734 -1.0709
 2413SOL     OW18892   2.319   5.157   3.703 -0.3273 -0.0487  0.4154
 2413SOL    HW118893   2.274   5.210   3.775 -1.0860  1.1398 -0.9070
 2413SOL    HW218894   2.413   5.190   3.691 -0.2083 -0.2326  0.8384
 2414SOL     OW18895   2.695   3.699   5.622 -0.3175  0.5952  0.3249
 2414SOL    HW118896   2.598   3.723   5.622 -0.5666 -0.4066  0.6727
 2414SOL    HW218897   2.749   3.780   5.642 -1.0958  1.1070  0.3801
 2415SOL     OW18898   9.932   8.715   3.840  0.1537  0.3202  0.2009
 2415SOL    HW118899   9.847   8.664   3.855 -0.7439  1.2945 -1.3380
 2415SOL    HW218900  10.003   8.653   3.807 -0.0412 -0.4519  1.2119
 2416SOL     OW18901   9.459   9.550   4.772  0.0786 -0.2574  0.4657
 2416SOL    HW118902   9.437   9.494   4.692  0.4862  0.4981 -0.1940
 2416SOL    HW218903   9.390   9.537   4.842 -0.2944 -0.9298 -0.0210
 2417SOL     OW18904   7.307   6.809   6.915 -0.0758  0.0053 -0.3552
 2417SOL    HW118905   7.333   6.713   6.902  0.4324 -0.0321  0.8390
 2417SOL    HW218906   7.278   6.823   7.010  0.1206  1.0926 -0.4467
 2418SOL     OW18907   1.193   1.151   0.552  0.1045 -0.2357  0.3474
 2418SOL    HW118908   1.176   1.060   0.516  1.6201  0.0632 -1.1884
 2418SOL    HW218909   1.244   1.144   0.638 -0.5709 -0.8551  0.6993
 2419SOL     OW18910   1.945   4.246   4.597 -0.1772 -0.4336  0.0700
 2419SOL    HW118911   1.904   4.219   4.684  2.0889  2.7296  2.2138
 2419SOL    HW218912   2.041   4.217   4.595  0.5407  1.8864 -0.1997
 2420SOL     OW18913   1.718   0.793   1.697  0.3182 -0.0359 -0.2616
 2420SOL    HW118914   1.625   0.764   1.674  1.5664 -3.3710 -1.4761
 2420SOL    HW218915   1.751   0.739   1.774  1.3199  0.9732  0.0150
 2421SOL     OW18916   1.769   7.383   1.111  0.2415 -0.4705 -1.2215
 2421SOL    HW118917   1.797   7.436   1.191  1.1914  0.4119 -2.1142
 2421SOL    HW218918   1.730   7.296   1.140  1.2592 -0.4743  0.1706
 2422SOL     OW18919   0.688   2.580   7.411  0.5872 -0.0126  0.1295
 2422SOL    HW118920   0.595   2.615   7.425  1.1168  1.6754 -0.4633
 2422SOL    HW218921   0.704   2.502   7.472 -1.9472 -1.7169 -1.2363
 2423SOL     OW18922   2.638   4.430   1.096  0.3569  0.7933  0.7656
 2423SOL    HW118923   2.637   4.481   1.182  1.7293  0.3513  1.0519
 2423SOL    HW218924   2.676   4.487   1.024  1.3626  0.3953  0.9644
 2424SOL     OW18925   1.094   4.561   3.226 -0.2595 -0.1296 -0.3545
 2424SOL    HW118926   1.165   4.572   3.296 -0.5202 -0.7327  0.0121
 2424SOL    HW218927   1.075   4.649   3.184 -0.4944  0.3427  0.7244
 2425SOL     OW18928   0.377   8.317   7.666  0.0944  0.3352 -0.1558
 2425SOL    HW118929   0.395   8.328   7.763 -0.3538 -0.3364  0.0101
 2425SOL    HW218930   0.393   8.221   7.639 -0.8217  0.2736 -0.5046
 2426SOL     OW18931   3.381   1.987   4.147 -0.1101 -0.1580  0.2792
 2426SOL    HW118932   3.361   2.076   4.107  0.6710 -0.0571  0.1098
 2426SOL    HW218933   3.407   1.923   4.075  1.9029  0.1873  0.6588
 2427SOL     OW18934   0.566   2.101   5.073 -0.0120  0.1949  0.0528
 2427SOL    HW118935   0.493   2.099   5.141  0.4462 -0.4703  0.5243
 2427SOL    HW218936   0.532   2.144   4.989 -0.5456  1.0984  0.7276
 2428SOL     OW18937   8.180   4.663   2.251 -0.0651  0.1771 -0.5305
 2428SOL    HW118938   8.107   4.600   2.226 -0.8078  0.4882  0.8246
 2428SOL    HW218939   8.172   4.746   2.196 -0.6980  0.1908 -0.4216
 2429SOL     OW18940   0.464   8.245   6.493 -0.5995  0.1668  0.4197
 2429SOL    HW118941   0.524   8.293   6.428 -0.3929  1.2659  1.4059
 2429SOL    HW218942   0.370   8.276   6.479 -0.7873 -0.7325 -0.3734
 2430SOL     OW18943   2.756   4.397   0.524  0.2176  0.0203 -0.3341
 2430SOL    HW118944   2.811   4.335   0.580  0.6374  0.8712  0.2198
 2430SOL    HW218945   2.685   4.346   0.476 -1.9717 -0.3730  3.1827
 2431SOL     OW18946   6.725   2.118   1.185  0.0343 -0.1346 -0.2349
 2431SOL    HW118947   6.714   2.217   1.193  2.6066  0.2478 -1.0180
 2431SOL    HW218948   6.649   2.080   1.132 -1.7356  1.1956  1.2966
 2432SOL     OW18949   8.609   2.371   5.838  0.3805 -0.0735 -0.1684
 2432SOL    HW118950   8.624   2.301   5.907 -1.2807  1.1324  1.4626
 2432SOL    HW218951   8.637   2.336   5.748 -0.5372 -2.8735  0.5908
 2433SOL     OW18952   8.536   7.708   7.007  0.0151 -0.0590  0.0336
 2433SOL    HW118953   8.630   7.683   7.030 -0.7471 -2.1254  1.0752
 2433SOL    HW218954   8.502   7.774   7.074  0.0910 -0.8181  0.8359
 2434SOL     OW18955   8.109   1.530   6.024  0.2968 -0.1642 -0.0544
 2434SOL    HW118956   8.015   1.495   6.019  0.8470 -1.5370 -1.4139
 2434SOL    HW218957   8.115   1.616   5.974 -0.1690 -0.2665 -0.2877
 2435SOL     OW18958   3.342   8.654   7.855  0.6092 -0.0684 -0.5408
 2435SOL    HW118959   3.402   8.634   7.777 -0.9755 -1.2019 -1.4930
 2435SOL    HW218960   3.293   8.740   7.838 -2.1068 -1.8972 -2.2872
 2436SOL     OW18961   8.680   6.503   6.017  1.0344 -0.3629 -0.3804
 2436SOL    HW118962   8.774   6.531   5.998  0.5444  1.3118 -0.3955
 2436SOL    HW218963   8.624   6.584   6.034 -0.0829 -1.4301  1.1445
 2437SOL     OW18964   7.505   4.349   2.100 -0.0165 -0.1438 -0.0669
 2437SOL    HW118965   7.574   4.403   2.052  0.8844 -1.6838 -0.5384
 2437SOL    HW218966   7.463   4.405   2.172  0.9519  1.1401 -0.4757
 2438SOL     OW18967   1.082   1.150   5.049  0.2616 -0.4506 -0.4110
 2438SOL    HW118968   0.992   1.107   5.058  0.2456 -0.2537  0.3823
 2438SOL    HW218969   1.101   1.168   4.952 -0.9963  0.4713 -0.4935
 2439SOL     OW18970   2.591   2.905   2.090  0.1097 -0.0204  0.3361
 2439SOL    HW118971   2.597   2.913   1.991 -0.6415 -1.3260  0.1823
 2439SOL    HW218972   2.543   2.985   2.127  0.5302  0.5425 -0.3326
 2440SOL     OW18973   3.582   3.172   4.660  1.0595  0.0452 -0.3562
 2440SOL    HW118974   3.557   3.084   4.619  1.4228  0.3419 -1.2105
 2440SOL    HW218975   3.503   3.210   4.708  0.9117 -0.7668  0.0557
 2441SOL     OW18976   2.294   3.950   3.096 -0.5744  0.0220  0.3880
 2441SOL    HW118977   2.225   3.967   3.026  0.4507 -0.9480 -0.8732
 2441SOL    HW218978   2.382   3.931   3.053  1.1239  3.7627  2.0033
 2442SOL     OW18979   6.835   6.621   6.665  0.2733 -0.3026 -0.4205
 2442SOL    HW118980   6.856   6.524   6.650  2.0413 -0.1048  0.6170
 2442SOL    HW218981   6.889   6.655   6.743 -1.0488  1.2675 -0.1612
 2443SOL     OW18982   9.073   1.072   4.919  0.2065 -0.3485 -0.0208
 2443SOL    HW118983   9.025   1.027   4.844  1.3506 -0.9193 -0.4111
 2443SOL    HW218984   9.006   1.120   4.977 -1.0124 -2.3070  0.2475
 2444SOL     OW18985   1.679   2.975   7.764 -0.1035 -0.5468 -0.2241
 2444SOL    HW118986   1.634   2.940   7.846 -0.0505  1.4990  0.6917
 2444SOL    HW218987   1.619   3.039   7.717  0.8566  0.2558 -0.3827
 2445SOL     OW18988   3.709   3.731   4.373  0.4663 -0.5185  0.2820
 2445SOL    HW118989   3.733   3.746   4.277  0.9544 -1.2378  0.2947
 2445SOL    HW218990   3.610   3.745   4.384  0.2938 -1.1310 -0.4585
 2446SOL     OW18991   2.434   8.770   2.069  0.0426  0.0600  0.2056
 2446SOL    HW118992   2.530   8.790   2.089  0.6328 -1.5190 -0.9877
 2446SOL    HW218993   2.376   8.818   2.135  1.5811  2.0490  0.1621
 2447SOL     OW18994   7.397   0.585   7.270 -0.4351 -0.1143 -0.3748
 2447SOL    HW118995   7.392   0.486   7.274  0.6498 -0.2118 -1.2134
 2447SOL    HW218996   7.477   0.617   7.322 -1.4554  0.4152  0.9128
 2448SOL     OW18997   4.606   8.918   4.529  0.4668 -0.2388 -0.6877
 2448SOL    HW118998   4.518   8.949   4.565 -0.0819 -1.4774 -0.9278
 2448SOL    HW218999   4.677   8.928   4.599 -0.0150  0.0727 -0.2434
 2449SOL     OW19000   0.643   7.911   6.066 -0.4115 -0.5242  0.1678
 2449SOL    HW119001   0.638   7.880   5.970  0.7464 -0.1525 -0.0196
 2449SOL    HW219002   0.609   7.839   6.126 -0.5754 -0.9943 -0.4841
 2450SOL     OW19003   2.260   4.562   3.311 -0.1755 -0.5317  0.1047
 2450SOL    HW119004   2.237   4.542   3.406  1.7962  0.8337  0.9134
 2450SOL    HW219005   2.208   4.642   3.281  0.7042  0.2857  0.7180
 2451SOL     OW19006   7.489   1.942   2.643 -0.2412  0.1021 -0.1976
 2451SOL    HW119007   7.494   2.004   2.721  2.8816 -0.3190 -0.0266
 2451SOL    HW219008   7.496   1.847   2.675  2.3490 -0.0308 -1.0375
 2452SOL     OW19009   0.666   5.285   0.241  0.3347  0.2333 -0.4276
 2452SOL    HW119010   0.722   5.368   0.231 -0.9551  1.2612  0.6089
 2452SOL    HW219011   0.613   5.271   0.158  2.1371 -0.7905 -1.4503
 2453SOL     OW19012   2.058   2.992   5.573  0.3579 -0.0062  0.4521
 2453SOL    HW119013   2.148   3.036   5.574  0.2735  0.1540  1.3468
 2453SOL    HW219014   2.069   2.893   5.575  0.5034  0.0300  1.8073
 2454SOL     OW19015   4.306   4.897   2.316  0.3795  0.2586  0.2198
 2454SOL    HW119016   4.274   4.869   2.406 -0.6771  0.1794 -0.1757
 2454SOL    HW219017   4.398   4.936   2.324 -0.0715  1.0791  1.4491
 2455SOL     OW19018   2.929   7.672   3.904 -0.0509  0.1697  0.0153
 2455SOL    HW119019   2.946   7.644   3.999  1.6180 -0.7036 -0.5195
 2455SOL    HW219020   2.842   7.720   3.898 -0.1113  0.3348  2.0182
 2456SOL     OW19021   0.217   1.690   1.449 -0.2121 -0.0021 -0.4300
 2456SOL    HW119022   0.153   1.766   1.437  0.2425  0.7765  1.9296
 2456SOL    HW219023   0.166   1.604   1.454 -0.7865  0.2132 -2.2710
 2457SOL     OW19024   4.025   3.283   3.026 -0.0946 -0.1259  0.3407
 2457SOL    HW119025   4.120   3.310   3.009 -0.1871 -0.1516 -0.2447
 2457SOL    HW219026   4.008   3.193   2.987 -0.3229 -0.1818  0.5678
 2458SOL     OW19027   2.024   9.024   3.367  0.3568  0.0346 -0.1973
 2458SOL    HW119028   2.124   9.028   3.355  0.2735  0.5279 -0.7321
 2458SOL    HW219029   1.985   9.114   3.347 -0.0621  0.1943  1.2535
 2459SOL     OW19030   8.944   6.533   5.981 -0.0604 -0.1458  0.2748
 2459SOL    HW119031   8.973   6.451   5.931  0.4334 -0.9162  1.8040
 2459SOL    HW219032   9.021   6.596   5.990 -0.0366 -0.1949  0.4204
 2460SOL     OW19033   8.344   4.597   3.165  0.1448 -0.7588 -0.4404
 2460SOL    HW119034   8.296   4.509   3.165  0.0018 -0.7209  2.4540
 2460SOL    HW219035   8.277   4.671   3.168  0.2948 -0.6603  1.0486
 2461SOL     OW19036   8.002   3.157   4.220  0.0038 -0.1372  0.1984
 2461SOL    HW119037   7.930   3.094   4.248 -0.5345  0.1613 -0.5092
 2461SOL    HW219038   8.087   3.106   4.208 -0.5921 -0.8545 -1.0630
 2462SOL     OW19039   1.077   3.776   6.329 -0.6825 -0.2849  0.5945
 2462SOL    HW119040   1.088   3.686   6.373 -2.3690 -0.4609  0.6924
 2462SOL    HW219041   1.164   3.803   6.287  0.0804 -1.5728  1.2906
 2463SOL     OW19042   9.105   2.703   3.548 -0.0230 -0.2457  0.4477
 2463SOL    HW119043   9.066   2.782   3.501 -0.6042 -0.6960  0.1639
 2463SOL    HW219044   9.035   2.659   3.603  0.1442 -0.8980  0.1515
 2464SOL     OW19045   9.830   3.799   2.908  0.1357  0.2665 -0.4220
 2464SOL    HW119046   9.903   3.763   2.967  1.0327 -0.3510 -1.8798
 2464SOL    HW219047   9.782   3.722   2.865  0.3928  0.7375 -1.5619
 2465SOL     OW19048   2.138   5.897   4.468 -0.6044 -0.6594 -0.3308
 2465SOL    HW119049   2.102   5.971   4.410  0.6930 -0.7386 -1.2416
 2465SOL    HW219050   2.189   5.937   4.544 -0.2199 -0.6138 -0.6138
 2466SOL     OW19051   5.684   4.056   1.767 -0.3126 -0.1830  0.3801
 2466SOL    HW119052   5.644   4.092   1.682 -0.1576 -0.3387  0.2427
 2466SOL    HW219053   5.615   4.004   1.817 -0.2106 -0.6489  0.0279
 2467SOL     OW19054   3.253   9.791   0.619  0.3366  0.4476  0.4333
 2467SOL    HW119055   3.232   9.694   0.605  1.6460  0.0303  1.2364
 2467SOL    HW219056   3.254   9.838   0.531 -0.6785 -0.1775  0.0676
 2468SOL     OW19057   3.549   8.318   7.228  0.1536  0.3342  1.0013
 2468SOL    HW119058   3.547   8.412   7.195 -1.3097 -0.7567 -2.1879
 2468SOL    HW219059   3.456   8.286   7.243  0.4298 -1.6055 -1.0716
 2469SOL     OW19060   8.350   3.959   6.339  0.4561 -0.3099 -0.1568
 2469SOL    HW119061   8.263   3.961   6.388  0.8888  2.5635  0.5283
 2469SOL    HW219062   8.332   3.960   6.240 -0.2956 -0.8775 -0.0301
 2470SOL     OW19063   1.832   2.396   2.590 -0.3032  0.3485  0.0493
 2470SOL    HW119064   1.821   2.305   2.631 -0.0723 -0.3814 -1.4550
 2470SOL    HW219065   1.871   2.458   2.657 -0.6088 -0.6180  1.1557
 2471SOL     OW19066   7.862   2.263   5.790 -0.1360 -0.0171  0.1195
 2471SOL    HW119067   7.837   2.166   5.794  0.6632 -0.1776  2.1656
 2471SOL    HW219068   7.957   2.273   5.820  0.1713  1.2773 -1.2514
 2472SOL     OW19069   8.160   8.114   5.494  0.2373  0.2486  0.5039
 2472SOL    HW119070   8.104   8.081   5.418  3.0153 -0.5024 -1.2918
 2472SOL    HW219071   8.112   8.189   5.540 -2.2252 -0.3733 -0.9307
 2473SOL     OW19072   1.025   3.195   5.730  0.0212  0.0342  0.1745
 2473SOL    HW119073   1.099   3.262   5.734 -0.1529  0.2633 -0.4296
 2473SOL    HW219074   1.020   3.146   5.817  1.4812 -0.6196 -0.0869
 2474SOL     OW19075   7.659   2.707   7.998 -0.1771  0.0766 -0.2576
 2474SOL    HW119076   7.646   2.755   7.911  1.6058  1.2628  0.1120
 2474SOL    HW219077   7.661   2.608   7.981 -0.1677  0.2756 -1.5135
 2475SOL     OW19078   0.335   9.209   7.321 -0.1578 -0.2154 -0.2106
 2475SOL    HW119079   0.406   9.168   7.264  0.2910 -0.2635  0.3859
 2475SOL    HW219080   0.301   9.141   7.387  0.1293  0.1792  0.3450
 2476SOL     OW19081   1.099   1.610   0.577 -0.2078  0.5274 -0.0135
 2476SOL    HW119082   1.198   1.612   0.569 -0.2747  0.6332 -0.8751
 2476SOL    HW219083   1.073   1.608   0.674  0.6436 -0.5793  0.2005
 2477SOL     OW19084   7.806   2.924   2.660  0.0498 -0.0158  0.3226
 2477SOL    HW119085   7.712   2.905   2.686  0.2108 -0.8719  0.2813
 2477SOL    HW219086   7.866   2.906   2.738  0.1092  1.2511  0.5883
 2478SOL     OW19087   1.287   4.277   0.531 -0.1404 -0.1342 -0.3381
 2478SOL    HW119088   1.295   4.352   0.596  0.9768  0.8388 -1.5703
 2478SOL    HW219089   1.325   4.305   0.442 -2.5747 -1.0587 -1.7230
 2479SOL     OW19090   3.700   5.585   2.311 -0.3311 -0.4877 -0.0524
 2479SOL    HW119091   3.735   5.558   2.401  2.2969  1.2708 -0.5109
 2479SOL    HW219092   3.684   5.503   2.256  2.3875 -1.4318  0.4600
 2480SOL     OW19093   8.614   2.823   3.613 -0.3682 -0.3215  0.1345
 2480SOL    HW119094   8.616   2.759   3.536 -1.4292  0.3694 -0.4680
 2480SOL    HW219095   8.546   2.792   3.680  0.2675 -0.6978  0.6211
 2481SOL     OW19096   3.732   8.722   0.197 -0.4135 -0.7274 -0.4859
 2481SOL    HW119097   3.808   8.781   0.168 -1.2990  0.4746 -0.3732
 2481SOL    HW219098   3.705   8.664   0.121  1.3109 -1.9220 -0.2203
 2482SOL     OW19099   9.511   7.479   3.830  0.1215 -0.0648  0.3613
 2482SOL    HW119100   9.422   7.433   3.826  0.6293 -0.9497 -1.0695
 2482SOL    HW219101   9.583   7.413   3.813  1.0527  0.7264  1.1724
 2483SOL     OW19102   8.929   6.002   7.359 -0.1008  0.4164  0.3036
 2483SOL    HW119103   8.843   5.976   7.316  0.4731 -0.4276 -0.3420
 2483SOL    HW219104   8.915   6.012   7.458 -0.2654 -2.7869  0.6475
 2484SOL     OW19105   1.992   7.644   5.612 -0.0690 -0.0617  0.5146
 2484SOL    HW119106   1.898   7.612   5.597  0.3928 -2.3663  2.1235
 2484SOL    HW219107   1.990   7.726   5.668 -1.1824  0.8181 -0.7858
 2485SOL     OW19108   2.299   0.721   0.718 -0.6141 -0.1999 -0.4989
 2485SOL    HW119109   2.268   0.630   0.745 -0.6167 -0.5013 -1.4980
 2485SOL    HW219110   2.248   0.790   0.770  0.0370 -0.7760  0.9194
 2486SOL     OW19111   2.198   7.475   1.583 -0.4000  0.2366  0.4484
 2486SOL    HW119112   2.203   7.556   1.642  1.8225  0.6982 -0.3306
 2486SOL    HW219113   2.243   7.494   1.496  1.2582 -2.2083  0.7144
 2487SOL     OW19114   8.873   4.599   6.969  0.3433  0.2167 -0.3804
 2487SOL    HW119115   8.852   4.696   6.966  0.5850  0.2932  0.3676
 2487SOL    HW219116   8.844   4.556   6.883  0.2071  0.9369 -0.6974
 2488SOL     OW19117   3.601   9.888   3.962  0.0157  0.3328  0.0535
 2488SOL    HW119118   3.681   9.879   3.902  0.3953  0.5378  0.5321
 2488SOL    HW219119   3.621   9.846   4.051 -1.1898 -1.6553 -0.5697
 2489SOL     OW19120   3.364   1.670   1.414  0.2736 -0.2063 -0.2179
 2489SOL    HW119121   3.276   1.649   1.458  0.2376  0.3001 -0.0451
 2489SOL    HW219122   3.378   1.608   1.337 -0.5222  0.1091 -0.6267
 2490SOL     OW19123   7.455   4.785   5.645  0.2902 -0.4587  0.6553
 2490SOL    HW119124   7.460   4.771   5.546  1.0217  0.3760  0.5703
 2490SOL    HW219125   7.527   4.847   5.674  0.7030 -1.4876  1.8743
 2491SOL     OW19126   0.046   9.956   1.645  0.0391  0.2546  0.4918
 2491SOL    HW119127   0.130   9.913   1.677 -0.6949 -1.1324  0.5987
 2491SOL    HW219128  -0.033   9.905   1.680 -0.8147  0.4342 -1.1391
 2492SOL     OW19129   9.242   5.215   5.334  0.1056  0.0627  0.0590
 2492SOL    HW119130   9.252   5.277   5.257 -0.7240  1.5068  1.0840
 2492SOL    HW219131   9.183   5.139   5.309  0.0197  0.4078 -0.7858
 2493SOL     OW19132   1.355   2.598   7.518 -0.5199 -0.1245  0.0843
 2493SOL    HW119133   1.290   2.548   7.575  0.1315 -1.9664 -0.7783
 2493SOL    HW219134   1.411   2.658   7.577 -1.3443 -0.3405  1.1025
 2494SOL     OW19135   8.668   9.817   2.617 -0.0839 -0.1792  0.3862
 2494SOL    HW119136   8.737   9.750   2.645 -0.3189  0.4083  2.4945
 2494SOL    HW219137   8.579   9.791   2.654 -0.4814  0.4578 -0.1146
 2495SOL     OW19138   6.851   0.384   4.995  0.2254  0.5159 -0.1972
 2495SOL    HW119139   6.827   0.441   5.074  1.8250  2.5171 -1.0874
 2495SOL    HW219140   6.777   0.385   4.929 -1.0387 -0.9987  1.1710
 2496SOL     OW19141   2.839   4.182   6.919 -0.1856 -0.4862 -0.5016
 2496SOL    HW119142   2.930   4.145   6.937  0.3932  0.6227 -1.1285
 2496SOL    HW219143   2.812   4.162   6.825 -0.4463 -0.5286 -0.4175
 2497SOL     OW19144   5.516   4.307   0.131 -0.4450 -0.9387  0.0811
 2497SOL    HW119145   5.571   4.334   0.209  0.2528  0.1584 -0.7821
 2497SOL    HW219146   5.547   4.218   0.097  1.4254  0.0850 -0.9649
 2498SOL     OW19147   5.280   0.507   4.401  0.2587 -0.0173 -0.2894
 2498SOL    HW119148   5.234   0.432   4.354 -0.5295  0.8723 -0.9842
 2498SOL    HW219149   5.224   0.590   4.392  1.9164  1.0372 -0.9814
 2499SOL     OW19150   1.441   8.173   4.156  0.2156  0.0694 -0.3189
 2499SOL    HW119151   1.426   8.268   4.183 -0.6661  0.2369 -1.3541
 2499SOL    HW219152   1.373   8.115   4.200 -0.5862  0.2116 -1.3302
 2500SOL     OW19153   1.388   2.357   7.935  0.0912 -0.1901 -0.0385
 2500SOL    HW119154   1.481   2.322   7.921  0.7127  1.5048 -0.2860
 2500SOL    HW219155   1.379   2.391   8.028 -0.3478 -0.5083  0.0375
 2501SOL     OW19156   2.278   6.105   1.763  0.2250 -0.8932  0.6177
 2501SOL    HW119157   2.331   6.186   1.737  0.7871 -1.2153  0.7543
 2501SOL    HW219158   2.198   6.097   1.704  0.3494 -0.4278  0.3838
 2502SOL     OW19159   0.962   3.085   3.128  0.0668 -0.3379  0.5405
 2502SOL    HW119160   0.900   3.164   3.134 -1.0735 -1.2387  0.7229
 2502SOL    HW219161   0.917   3.011   3.078  1.2695 -0.7620  0.0662
 2503SOL     OW19162   9.350   3.878   1.512 -0.5810 -0.0247 -0.2304
 2503SOL    HW119163   9.295   3.958   1.490  2.1337  1.2087 -2.9002
 2503SOL    HW219164   9.304   3.796   1.476 -1.1528  0.8784 -1.6230
 2504SOL     OW19165   0.539   8.027   4.327  0.3087 -0.1968  0.3131
 2504SOL    HW119166   0.441   8.006   4.335  0.5308 -1.4777 -0.2609
 2504SOL    HW219167   0.554   8.085   4.248 -0.1299  0.9821  1.0801
 2505SOL     OW19168   7.518   4.584   1.543  0.5275  0.2601  0.6769
 2505SOL    HW119169   7.483   4.643   1.470  0.6269 -0.6177 -0.0988
 2505SOL    HW219170   7.450   4.515   1.566 -0.0874  1.4306  2.4654
 2506SOL     OW19171   1.439   2.327   6.031  0.2045  0.1172  0.7730
 2506SOL    HW119172   1.507   2.257   6.010 -1.1177 -1.4104  1.4964
 2506SOL    HW219173   1.439   2.396   5.958  0.1136 -1.7028 -0.9882
 2507SOL     OW19174   7.984   5.246   1.847 -0.7209  0.3566  0.1232
 2507SOL    HW119175   8.028   5.326   1.886 -1.2742 -0.5650  2.7345
 2507SOL    HW219176   8.051   5.172   1.839 -1.1429 -0.2098  1.6267
 2508SOL     OW19177   2.246   9.398   0.825  0.0384 -0.1053 -0.0957
 2508SOL    HW119178   2.307   9.325   0.795  1.7703  0.9813  0.7316
 2508SOL    HW219179   2.264   9.419   0.921 -0.2729  1.5910 -0.4026
 2509SOL     OW19180   8.109   9.659   4.807  0.0911  0.9122  0.0966
 2509SOL    HW119181   8.161   9.574   4.803 -0.7112  0.4247 -0.0467
 2509SOL    HW219182   8.012   9.638   4.822 -0.5110  1.6648 -2.5388
 2510SOL     OW19183   2.105   3.747   4.913 -0.2115 -0.0221  0.3855
 2510SOL    HW119184   2.070   3.669   4.966 -1.1134 -0.2622 -0.5505
 2510SOL    HW219185   2.029   3.790   4.863  0.7010 -0.1179 -1.1126
 2511SOL     OW19186   2.919   6.889   2.774 -0.1715  0.5552 -0.6114
 2511SOL    HW119187   2.822   6.886   2.748 -0.5569  0.0881  0.8468
 2511SOL    HW219188   2.972   6.833   2.710 -0.9476  0.2620 -1.0092
 2512SOL     OW19189   2.287   9.620   3.659 -0.5084  0.0670 -0.6068
 2512SOL    HW119190   2.286   9.522   3.677  0.1158  0.1952  0.1965
 2512SOL    HW219191   2.360   9.641   3.594  0.9524  0.2679  1.0366
 2513SOL     OW19192   2.617   9.309   3.948  0.0817  0.7635 -0.1991
 2513SOL    HW119193   2.681   9.339   4.019 -1.5098  1.4839  0.9786
 2513SOL    HW219194   2.571   9.225   3.978 -0.2525  0.8083 -0.5816
 2514SOL     OW19195   7.456   4.297   6.588  0.1769  0.0029  0.2948
 2514SOL    HW119196   7.452   4.329   6.493  1.4779 -1.1209 -0.1645
 2514SOL    HW219197   7.364   4.292   6.626 -0.5070 -1.0673 -1.4484
 2515SOL     OW19198   8.560   7.973   0.438  0.1821  0.2670 -0.3533
 2515SOL    HW119199   8.594   8.057   0.480  1.3007 -0.8395  0.9907
 2515SOL    HW219200   8.635   7.908   0.427 -0.5861 -0.4160 -1.7875
 2516SOL     OW19201   2.490   1.546   2.702  0.1099 -0.2122  0.5060
 2516SOL    HW119202   2.562   1.607   2.669 -1.0086  0.2358 -1.1687
 2516SOL    HW219203   2.461   1.485   2.629 -0.9295 -0.6611  1.2689
 2517SOL     OW19204   7.506   8.539   3.073 -0.2766  0.3307  0.2386
 2517SOL    HW119205   7.416   8.582   3.063 -0.9937 -0.9041  1.2716
 2517SOL    HW219206   7.556   8.583   3.147 -1.2245 -0.9247  1.6602
 2518SOL     OW19207   2.052   7.202   3.104 -0.3060 -0.3906  0.4882
 2518SOL    HW119208   2.090   7.210   3.196  0.6001  0.3680  0.0546
 2518SOL    HW219209   2.123   7.170   3.041 -0.8947 -0.8153  0.0328
 2519SOL     OW19210   0.236   4.763   7.684  0.1925 -0.1950 -0.5686
 2519SOL    HW119211   0.145   4.765   7.726  0.3682 -1.5802 -0.1269
 2519SOL    HW219212   0.294   4.831   7.729  1.0542 -3.1551  3.0341
 2520SOL     OW19213   0.062   8.507   0.194 -0.1930 -0.7608  0.2848
 2520SOL    HW119214   0.132   8.545   0.134 -1.4929  0.4814 -0.4490
 2520SOL    HW219215   0.048   8.410   0.171  0.1905 -0.6171 -0.5829
 2521SOL     OW19216   3.738   7.903   5.854 -0.0788 -0.2504 -0.4809
 2521SOL    HW119217   3.641   7.915   5.877  0.0243  1.4066 -0.8649
 2521SOL    HW219218   3.780   7.841   5.920 -1.4157 -1.0707 -0.3643
 2522SOL     OW19219   3.350   8.288   1.941 -0.1736  0.3444 -0.1159
 2522SOL    HW119220   3.359   8.355   2.014  1.0552  0.9691 -0.8118
 2522SOL    HW219221   3.402   8.318   1.861  0.0839 -1.2442 -0.5778
 2523SOL     OW19222   8.265   4.175   3.231  0.0045 -0.3177  0.1247
 2523SOL    HW119223   8.350   4.156   3.182 -0.5796  0.2424 -1.1377
 2523SOL    HW219224   8.212   4.091   3.241  0.5357 -0.5990  0.5875
 2524SOL     OW19225   1.180   2.382   4.817 -0.1113 -0.3945  0.5060
 2524SOL    HW119226   1.248   2.399   4.745 -0.7586 -0.5385 -0.1363
 2524SOL    HW219227   1.120   2.461   4.825 -1.0743 -1.0395 -0.2467
 2525SOL     OW19228   8.787   2.022   3.482 -0.1453  0.2000 -0.0143
 2525SOL    HW119229   8.879   2.018   3.444 -0.0257  0.6286  0.2295
 2525SOL    HW219230   8.779   2.101   3.543 -0.7159  0.2453 -0.1440
 2526SOL     OW19231   7.716   6.606   2.534 -0.0321  0.1344 -0.5163
 2526SOL    HW119232   7.783   6.654   2.591  0.5139  2.7756 -3.2888
 2526SOL    HW219233   7.637   6.665   2.519 -1.2449 -1.4741 -0.5196
 2527SOL     OW19234   2.526   0.728   0.550  0.5808 -0.1673 -0.4341
 2527SOL    HW119235   2.457   0.756   0.617  1.9713  2.6268 -0.0821
 2527SOL    HW219236   2.483   0.674   0.478 -1.0459 -2.8589  2.4019
 2528SOL     OW19237   1.745   3.768   3.515  0.0401 -0.5685  0.2665
 2528SOL    HW119238   1.816   3.727   3.571  1.3923 -1.3003 -1.9027
 2528SOL    HW219239   1.718   3.856   3.553  2.1226 -0.2729  1.1043
 2529SOL     OW19240   7.262   7.418   5.761  0.4556 -0.0162 -0.0725
 2529SOL    HW119241   7.168   7.383   5.755 -0.0229  1.1749  0.4770
 2529SOL    HW219242   7.270   7.480   5.839  1.0281  1.9508 -1.6734
 2530SOL     OW19243   7.750   0.162   0.903 -0.2462 -0.1853  0.0013
 2530SOL    HW119244   7.704   0.075   0.919 -1.0550  0.0913 -0.8044
 2530SOL    HW219245   7.701   0.235   0.950 -0.0854 -0.0324 -0.0679
 2531SOL     OW19246   9.879   9.230   2.308 -0.6105 -0.0256  0.0241
 2531SOL    HW119247   9.892   9.156   2.242 -0.8264 -0.0457  0.0047
 2531SOL    HW219248   9.782   9.238   2.331 -0.5478  0.0412  0.2705
 2532SOL     OW19249   1.897   7.700   6.798 -0.1254 -0.3486 -0.4417
 2532SOL    HW119250   1.873   7.796   6.790 -0.6096 -0.2818  1.4947
 2532SOL    HW219251   1.995   7.691   6.811 -0.2005 -0.0468  0.3543
 2533SOL     OW19252   9.591   1.769   5.315  0.0507 -0.5647  0.2924
 2533SOL    HW119253   9.653   1.707   5.363 -0.1299 -1.4264 -0.5639
 2533SOL    HW219254   9.501   1.765   5.359 -0.1169 -1.3531 -0.1143
 2534SOL     OW19255   7.683   1.739   1.389  0.4425 -0.4549  0.8893
 2534SOL    HW119256   7.636   1.655   1.363  1.5929 -1.0925  0.8636
 2534SOL    HW219257   7.633   1.818   1.353  0.9304 -1.2428 -1.5886
 2535SOL     OW19258   2.532   7.428   6.317  0.1755 -0.4031 -0.2566
 2535SOL    HW119259   2.601   7.355   6.318  0.8305  0.2136 -0.1271
 2535SOL    HW219260   2.443   7.389   6.341  0.4916 -1.1878 -0.3223
 2536SOL     OW19261   4.057   1.962   3.786 -0.8743 -0.0657  0.9623
 2536SOL    HW119262   4.081   2.009   3.701 -0.2102  0.9694  1.7019
 2536SOL    HW219263   3.986   2.015   3.833 -1.4115 -0.7628  0.9341
 2537SOL     OW19264   6.819   9.123   4.634  0.5457  0.2870 -0.1012
 2537SOL    HW119265   6.802   9.162   4.725  1.2835 -0.4164  0.3534
 2537SOL    HW219266   6.744   9.063   4.609  1.5453 -1.5425  1.1849
 2538SOL     OW19267   1.187   2.097   3.445  0.3858  0.7661 -0.0051
 2538SOL    HW119268   1.243   2.171   3.484  3.0816 -1.0339 -0.3646
 2538SOL    HW219269   1.171   2.115   3.348  3.0062 -0.2173 -0.6590
 2539SOL     OW19270   0.659   3.724   1.632  0.8533  0.8785  0.4245
 2539SOL    HW119271   0.630   3.702   1.539  0.5953 -0.3282  0.7798
 2539SOL    HW219272   0.751   3.763   1.629  1.0989  0.2763 -0.2907
 2540SOL     OW19273   3.738   9.225   0.656 -0.2350  0.0964  1.0274
 2540SOL    HW119274   3.788   9.144   0.685 -0.8709 -1.1374 -1.1878
 2540SOL    HW219275   3.654   9.198   0.609 -0.0818  2.0132 -0.4350
 2541SOL     OW19276   2.204   6.263   3.748 -0.3310  0.4373 -0.1356
 2541SOL    HW119277   2.208   6.189   3.814  1.0368 -1.0093 -1.7932
 2541SOL    HW219278   2.235   6.348   3.791 -1.1743 -0.1008  1.5585
 2542SOL     OW19279   1.372   5.879   6.593 -0.3412 -0.2008 -0.3511
 2542SOL    HW119280   1.277   5.883   6.562 -0.1108 -1.2148 -1.2301
 2542SOL    HW219281   1.429   5.935   6.533 -0.6332  1.8852  1.2514
 2543SOL     OW19282   2.141   6.409   2.107 -0.1364 -0.3547 -0.1340
 2543SOL    HW119283   2.097   6.328   2.070  0.9620 -1.4455  0.9149
 2543SOL    HW219284   2.195   6.454   2.035 -0.4128 -0.7717 -0.6015
 2544SOL     OW19285   0.436   4.554   3.418 -0.1592 -0.3931  0.3402
 2544SOL    HW119286   0.473   4.461   3.415 -1.9378 -1.1107 -0.0985
 2544SOL    HW219287   0.511   4.620   3.409  1.1996 -1.7592  1.3123
 2545SOL     OW19288   5.046   8.807   3.579  0.3083 -0.1286  0.1141
 2545SOL    HW119289   4.989   8.888   3.570  2.0304  0.9550 -1.2719
 2545SOL    HW219290   5.129   8.817   3.524  1.2551 -2.2048  1.0754
 2546SOL     OW19291   3.911   1.952   6.616  0.3840 -0.0905 -0.2407
 2546SOL    HW119292   3.954   1.967   6.705  0.5975 -5.0223  0.6117
 2546SOL    HW219293   3.980   1.958   6.544  0.9405  0.2145  0.3163
 2547SOL     OW19294   7.971   1.250   4.432  0.0058  0.2603 -0.3481
 2547SOL    HW119295   8.056   1.288   4.468  0.5414  0.0087 -1.3135
 2547SOL    HW219296   7.925   1.197   4.502  0.5771  0.5185  0.2216
 2548SOL     OW19297   3.654   3.965   1.389 -0.6192 -0.2312  0.2085
 2548SOL    HW119298   3.659   3.942   1.292  1.4446 -0.4848  0.3513
 2548SOL    HW219299   3.616   3.887   1.440  0.7065 -1.0851 -0.0805
 2549SOL     OW19300   1.619   3.181   0.111  0.2131 -0.4340  0.0271
 2549SOL    HW119301   1.678   3.250   0.069 -0.3048  1.1897  1.9038
 2549SOL    HW219302   1.528   3.219   0.126 -0.8683 -2.4238 -1.4015
 2550SOL     OW19303   2.219   9.168   1.530  0.1952  0.2367 -0.0777
 2550SOL    HW119304   2.141   9.223   1.500 -0.2898 -0.9912 -1.1031
 2550SOL    HW219305   2.278   9.147   1.452 -0.9662 -2.7915 -0.2076
 2551SOL     OW19306   4.644   8.456   3.192 -0.4548 -0.2961  0.1247
 2551SOL    HW119307   4.575   8.522   3.222 -0.3782 -0.2806  0.2679
 2551SOL    HW219308   4.735   8.493   3.211 -0.4332 -1.1233  1.6525
 2552SOL     OW19309   8.227   7.049   0.608  0.6361 -0.2319 -0.7611
 2552SOL    HW119310   8.256   7.049   0.704 -0.2233  0.2079 -0.4943
 2552SOL    HW219311   8.259   7.132   0.563  0.6381 -0.2132 -0.7258
 2553SOL     OW19312   7.924   6.864   7.571 -0.4126 -0.2224 -0.3678
 2553SOL    HW119313   7.947   6.788   7.632 -1.2979 -0.3146 -0.1452
 2553SOL    HW219314   7.964   6.949   7.606 -3.4931  0.2875  2.0376
 2554SOL     OW19315   5.659   7.879   5.077  0.4621  0.5588  1.1600
 2554SOL    HW119316   5.596   7.940   5.029  0.6494 -1.1374 -1.3594
 2554SOL    HW219317   5.740   7.930   5.106  1.5343  1.2091 -2.6360
 2555SOL     OW19318   2.552   7.619   7.194 -0.1067 -0.3285  0.2067
 2555SOL    HW119319   2.598   7.652   7.112 -1.2129 -1.0542 -0.7317
 2555SOL    HW219320   2.468   7.571   7.167 -0.4318 -0.6403  1.7598
 2556SOL     OW19321   9.073   7.280   5.104  0.5114  0.1480  0.4968
 2556SOL    HW119322   9.169   7.261   5.085  0.0990 -1.5890  0.0647
 2556SOL    HW219323   9.020   7.277   5.019  0.3318  2.8072  0.4803
 2557SOL     OW19324   9.125   8.573   3.515 -0.7588 -0.1621  0.1985
 2557SOL    HW119325   9.148   8.629   3.435  1.1321 -0.3501  0.5925
 2557SOL    HW219326   9.033   8.536   3.504 -1.1109  1.0643 -1.1787
 2558SOL     OW19327   1.804   9.605   7.006  0.1186  0.1267  0.1837
 2558SOL    HW119328   1.705   9.617   7.005  0.3753  2.4575 -2.1358
 2558SOL    HW219329   1.826   9.508   7.019 -2.4612 -0.5154  0.0230
 2559SOL     OW19330   3.077   0.936   0.949  0.0307  0.7782  0.2838
 2559SOL    HW119331   3.169   0.932   0.908 -0.8446  1.1586 -1.7689
 2559SOL    HW219332   3.034   0.846   0.941  0.2837  0.5527  1.4117
 2560SOL     OW19333   0.665   2.860   3.210 -0.2660  0.4437 -0.3569
 2560SOL    HW119334   0.580   2.846   3.159  0.1550 -3.2033 -0.1787
 2560SOL    HW219335   0.743   2.840   3.150  0.3993  1.2418  0.2321
 2561SOL     OW19336   1.800   9.384   6.273  0.3729  0.0742  0.6949
 2561SOL    HW119337   1.712   9.415   6.309  0.0546 -0.0151  0.0208
 2561SOL    HW219338   1.831   9.448   6.202 -0.1226 -0.9377 -0.4660
 2562SOL     OW19339   4.281   3.268   0.468 -0.3350  0.0297 -0.3820
 2562SOL    HW119340   4.277   3.183   0.522 -0.4295 -0.2995 -0.9038
 2562SOL    HW219341   4.357   3.324   0.500  0.4986 -0.8180 -0.8437
 2563SOL     OW19342   7.322   7.435   5.265 -0.1455  0.1768 -0.2645
 2563SOL    HW119343   7.357   7.459   5.356 -0.7169  0.5830 -0.1456
 2563SOL    HW219344   7.236   7.384   5.274 -0.9071  1.3695 -0.5900
 2564SOL     OW19345   7.740   9.029   5.770  0.1113  0.4049  1.0648
 2564SOL    HW119346   7.767   9.125   5.773  0.2564  0.3750  0.6986
 2564SOL    HW219347   7.647   9.021   5.734 -0.7264  0.5789  3.0917
 2565SOL     OW19348   9.695   7.109   1.227 -0.3022 -0.6089  0.1664
 2565SOL    HW119349   9.741   7.057   1.155  0.9305  0.2754  0.2936
 2565SOL    HW219350   9.723   7.075   1.316  1.1691  0.7946  0.2618
 2566SOL     OW19351   4.604   1.214   5.508  0.2241 -0.2209  0.1684
 2566SOL    HW119352   4.526   1.172   5.461 -0.4558  0.5629  0.5748
 2566SOL    HW219353   4.675   1.236   5.441 -0.2569 -0.1576 -0.3293
 2567SOL     OW19354   7.996   1.679   0.178  0.7829  0.2599 -0.3065
 2567SOL    HW119355   8.033   1.587   0.165 -2.8302 -1.2094 -0.9905
 2567SOL    HW219356   7.963   1.688   0.272  1.2633  0.8830 -0.2032
 2568SOL     OW19357   5.605   9.592   7.089 -0.2578  0.2444  0.1530
 2568SOL    HW119358   5.557   9.545   7.015 -0.7434  0.5326  0.2793
 2568SOL    HW219359   5.546   9.664   7.126  0.2576  0.5721  0.3432
 2569SOL     OW19360   3.801   9.984   5.717  0.1337  0.0292 -0.1040
 2569SOL    HW119361   3.708   9.993   5.682 -0.0706 -0.9107  0.2074
 2569SOL    HW219362   3.812  10.043   5.798 -0.3724 -0.3456  0.2367
 2570SOL     OW19363   0.799   9.225   8.126  0.1964 -0.5040 -0.1038
 2570SOL    HW119364   0.832   9.167   8.200 -0.5478 -2.8855 -1.5891
 2570SOL    HW219365   0.820   9.183   8.038 -0.9727  1.1368 -1.1977
 2571SOL     OW19366   1.750   6.559   4.853 -0.2539 -0.4413 -0.0756
 2571SOL    HW119367   1.802   6.530   4.933 -1.2660  2.5333  1.7432
 2571SOL    HW219368   1.772   6.500   4.775  0.8709 -3.2838  2.3338
 2572SOL     OW19369   6.042   9.997   4.515  0.4577  0.2202  0.2023
 2572SOL    HW119370   6.057   9.898   4.504 -2.3409 -0.1007 -1.1722
 2572SOL    HW219371   6.034  10.019   4.612  2.1467 -0.7359  0.5700
 2573SOL     OW19372   4.216   4.657   1.969  0.0105 -0.0373  0.1558
 2573SOL    HW119373   4.124   4.627   1.995 -1.0914  0.0119 -3.5224
 2573SOL    HW219374   4.283   4.588   1.996 -1.3155 -0.9667  1.0873
 2574SOL     OW19375   9.456   9.626   3.504 -0.0674  1.2452  0.7061
 2574SOL    HW119376   9.393   9.551   3.485  1.0516  0.6727 -0.9358
 2574SOL    HW219377   9.464   9.684   3.423  1.9370  0.9695  0.6772
 2575SOL     OW19378   9.924   3.858   7.548 -0.2551  0.4272 -0.0566
 2575SOL    HW119379   9.865   3.911   7.609 -0.3419  0.6895 -0.3649
 2575SOL    HW219380  10.004   3.825   7.599 -0.6117  0.1682  0.3323
 2576SOL     OW19381   7.710   6.437   4.457 -0.1035  0.1846 -0.0045
 2576SOL    HW119382   7.721   6.511   4.523 -0.3933  0.6841 -0.5102
 2576SOL    HW219383   7.685   6.475   4.368  0.4530 -0.4686 -0.4468
 2577SOL     OW19384   8.011   8.634   5.793  0.1746 -0.5034 -0.5436
 2577SOL    HW119385   7.914   8.646   5.771 -0.2806 -0.0564  1.6433
 2577SOL    HW219386   8.066   8.690   5.731 -0.9885 -0.3260 -1.4395
 2578SOL     OW19387   0.592   7.560   2.422 -0.8789 -0.5491 -0.1562
 2578SOL    HW119388   0.530   7.605   2.357 -1.7314 -0.5819  0.6311
 2578SOL    HW219389   0.558   7.573   2.515  0.1639 -0.7881  0.2663
 2579SOL     OW19390   0.882   5.923   3.045  0.2040 -0.8076  0.2706
 2579SOL    HW119391   0.800   5.885   3.087  0.2394  0.4679  1.5558
 2579SOL    HW219392   0.864   5.945   2.949 -1.4334  0.8519  0.9379
 2580SOL     OW19393   0.686   6.488   8.116 -0.6070  0.3507  0.2251
 2580SOL    HW119394   0.602   6.492   8.169 -0.6706  0.1277  0.1432
 2580SOL    HW219395   0.697   6.395   8.079 -1.1324  0.7882 -1.0593
 2581SOL     OW19396   7.592   8.663   4.882 -0.8675  0.0224  0.1343
 2581SOL    HW119397   7.532   8.656   4.961  0.1457 -1.4221  0.7871
 2581SOL    HW219398   7.536   8.666   4.799 -1.8788  0.0694  0.7965
 2582SOL     OW19399   2.180   8.894   2.740 -0.2280  0.5540 -0.1564
 2582SOL    HW119400   2.208   8.910   2.835  1.0686 -0.1531 -0.4083
 2582SOL    HW219401   2.243   8.941   2.678 -0.2561 -0.1042 -0.6963
 2583SOL     OW19402   6.606   2.162   0.038 -1.3679  0.0853  0.2109
 2583SOL    HW119403   6.608   2.165  -0.062 -2.7130  0.6542  0.1901
 2583SOL    HW219404   6.662   2.237   0.074 -0.9392 -0.0751 -0.1135
 2584SOL     OW19405   0.774   3.569   2.296  0.3036  0.4173 -0.0107
 2584SOL    HW119406   0.827   3.516   2.362  0.0622  0.1484 -0.0296
 2584SOL    HW219407   0.832   3.639   2.254  0.3243  0.9175  0.8478
 2585SOL     OW19408   8.402   6.025   3.193 -0.1860 -0.8236 -0.2037
 2585SOL    HW119409   8.426   6.021   3.096  3.4288  0.9269  0.5121
 2585SOL    HW219410   8.395   6.121   3.221 -0.8750 -1.3182  1.3502
 2586SOL     OW19411   2.869   2.644   6.202  0.2674  0.1516 -0.4477
 2586SOL    HW119412   2.904   2.628   6.294  2.5046 -0.4620 -1.3760
 2586SOL    HW219413   2.889   2.738   6.174 -0.6532  0.4211 -0.2108
 2587SOL     OW19414   3.347   4.416   3.424  0.1433 -0.7481  0.4433
 2587SOL    HW119415   3.285   4.474   3.371 -0.3922 -0.8647  0.9405
 2587SOL    HW219416   3.313   4.322   3.424  0.0110 -0.6994  1.2016
 2588SOL     OW19417   5.809   8.652   3.736  0.7372 -0.2770  0.3796
 2588SOL    HW119418   5.779   8.712   3.810  0.7773 -1.6685  1.5397
 2588SOL    HW219419   5.792   8.557   3.761 -0.7975 -0.7105 -2.0857
 2589SOL     OW19420   8.821   3.843   3.464  0.2491 -0.0448  0.1974
 2589SOL    HW119421   8.918   3.867   3.460  0.0973  0.4347 -0.6497
 2589SOL    HW219422   8.785   3.834   3.371 -0.5140 -0.2504  0.5081
 2590SOL     OW19423   2.225   7.659   7.193  0.8379 -0.1141 -0.0028
 2590SOL    HW119424   2.195   7.640   7.286 -2.2107 -0.2438 -0.9650
 2590SOL    HW219425   2.238   7.572   7.144 -2.3478 -0.0253 -1.1111
 2591SOL     OW19426   1.464   4.779   4.308  0.3780  0.1293 -0.0136
 2591SOL    HW119427   1.374   4.738   4.298 -0.4922  2.3754 -1.8997
 2591SOL    HW219428   1.457   4.863   4.362  1.2983  0.3593 -0.2306
 2592SOL     OW19429   5.072   1.817   5.561 -0.3653  0.4598  0.3146
 2592SOL    HW119430   5.037   1.807   5.655 -0.0362 -0.0588  0.3871
 2592SOL    HW219431   4.995   1.812   5.497 -0.5996  0.8756  0.5583
 2593SOL     OW19432   6.348   0.878   4.647  0.4073 -0.4712  0.4919
 2593SOL    HW119433   6.329   0.961   4.698 -0.2988  0.1319 -0.7177
 2593SOL    HW219434   6.307   0.885   4.556  0.8188 -1.9101  0.1804
 2594SOL     OW19435   3.294   4.845   7.139  0.1627  0.4545 -0.2303
 2594SOL    HW119436   3.278   4.816   7.233 -1.9169 -1.6454 -1.1927
 2594SOL    HW219437   3.267   4.941   7.128 -1.7434  0.0434  0.7688
 2595SOL     OW19438   2.537   4.447   6.014  0.1638  0.3035 -0.2799
 2595SOL    HW119439   2.442   4.463   5.986  0.1607 -0.0108 -0.4447
 2595SOL    HW219440   2.551   4.350   6.033  0.8372  0.1163 -1.6830
 2596SOL     OW19441   9.080   2.675   4.729 -0.4238  0.0412  0.2867
 2596SOL    HW119442   9.155   2.658   4.664 -1.5165  1.1209 -1.3042
 2596SOL    HW219443   8.996   2.695   4.678 -1.6066 -0.3484  2.0544
 2597SOL     OW19444   2.777   9.414   3.429 -0.1182 -0.0582 -0.1255
 2597SOL    HW119445   2.853   9.470   3.396  0.3998 -1.1631 -0.8136
 2597SOL    HW219446   2.811   9.343   3.491 -0.8664  0.8410  1.3490
 2598SOL     OW19447   1.814   8.560   0.958 -0.2420 -0.2395 -0.4652
 2598SOL    HW119448   1.857   8.478   0.922 -0.4110 -0.8312  0.6887
 2598SOL    HW219449   1.719   8.541   0.982 -0.0546  0.0830  0.5564
 2599SOL     OW19450   9.550   1.108   3.893 -0.0785 -0.3401  0.7798
 2599SOL    HW119451   9.476   1.140   3.834  0.8805  0.2190 -0.1268
 2599SOL    HW219452   9.617   1.058   3.839  1.4982  1.3372  1.1257
 2600SOL     OW19453   3.660   7.986   5.324 -0.7179  0.5429  0.3567
 2600SOL    HW119454   3.687   8.015   5.232 -1.1989  2.4708  0.7921
 2600SOL    HW219455   3.601   7.905   5.318  0.3417 -0.1497 -0.9393
 2601SOL     OW19456   2.627   7.414   0.409  0.0867 -0.1883  0.2497
 2601SOL    HW119457   2.620   7.314   0.413  1.4140 -0.2569  1.0153
 2601SOL    HW219458   2.677   7.448   0.488  0.2242  1.0336 -0.3419
 2602SOL     OW19459   9.244   8.730   1.559  0.2890  0.5240  0.8652
 2602SOL    HW119460   9.274   8.809   1.506 -0.1842 -0.0626 -0.2892
 2602SOL    HW219461   9.239   8.650   1.500 -2.1399  0.2761  1.3550
 2603SOL     OW19462   3.456   9.922   0.929 -0.1650 -0.9757  0.0859
 2603SOL    HW119463   3.539   9.973   0.953 -0.7979 -0.3024  0.8689
 2603SOL    HW219464   3.431   9.943   0.834 -0.4805  0.2769  0.4301
 2604SOL     OW19465   1.292   2.723   7.285 -0.2210  0.5879 -0.2432
 2604SOL    HW119466   1.380   2.760   7.256 -0.6552  0.7583 -1.3734
 2604SOL    HW219467   1.300   2.685   7.377  1.1775  0.0390 -0.5909
 2605SOL     OW19468   0.588   3.024   4.635 -0.0404  0.0733  0.4597
 2605SOL    HW119469   0.658   2.956   4.612 -0.6775 -0.5952  0.4614
 2605SOL    HW219470   0.512   2.979   4.680 -1.1326  0.5503 -0.8735
 2606SOL     OW19471   0.537   0.106   5.062  0.0902  0.1763 -0.1252
 2606SOL    HW119472   0.575   0.197   5.049 -0.9603  0.5569 -0.5801
 2606SOL    HW219473   0.605   0.047   5.105  0.9430  1.0361 -0.2923
 2607SOL     OW19474   6.746   2.764   4.181  0.2775  0.2461  0.3052
 2607SOL    HW119475   6.653   2.743   4.149  1.2438 -1.7729 -1.2971
 2607SOL    HW219476   6.800   2.800   4.105  1.3476 -0.3441  0.7783
 2608SOL     OW19477   0.891   6.095   1.793 -0.2143 -0.2331 -0.2100
 2608SOL    HW119478   0.852   6.009   1.825  0.7468  0.1992  2.2011
 2608SOL    HW219479   0.860   6.170   1.851 -0.7642  1.0284 -2.0777
 2609SOL     OW19480   7.734   1.095   1.593  0.9071 -0.1359  0.0564
 2609SOL    HW119481   7.689   1.125   1.677  0.7990  0.6430 -0.2716
 2609SOL    HW219482   7.819   1.048   1.616  0.1800 -1.1827  0.6545
 2610SOL     OW19483   1.818   7.520   1.345 -0.7135  0.2077 -0.0131
 2610SOL    HW119484   1.913   7.551   1.339 -0.4362 -0.2245  1.9320
 2610SOL    HW219485   1.759   7.595   1.373 -0.3939 -0.3696  2.3190
 2611SOL     OW19486   3.256   8.386   7.764  0.2497 -0.3941 -0.2265
 2611SOL    HW119487   3.228   8.309   7.823  0.4029  0.2453  0.6965
 2611SOL    HW219488   3.258   8.470   7.818  3.0098 -0.2482 -0.4759
 2612SOL     OW19489   4.167   9.283   1.013 -0.1129 -0.3125  0.2267
 2612SOL    HW119490   4.186   9.381   1.011  0.3191 -0.4113 -1.1151
 2612SOL    HW219491   4.071   9.268   1.036  0.0211  0.3903  1.2821
 2613SOL     OW19492   2.884   1.419   1.913  0.3401  0.0285 -0.4205
 2613SOL    HW119493   2.826   1.365   1.974 -0.1506  1.0927  0.0773
 2613SOL    HW219494   2.868   1.516   1.930  3.1281  0.3580  0.5594
 2614SOL     OW19495   7.991   4.521   2.021  0.0822 -0.6606 -0.1463
 2614SOL    HW119496   7.959   4.577   1.945  0.8130 -0.2370 -0.1420
 2614SOL    HW219497   7.916   4.508   2.087  0.2142  1.2039  0.3895
 2615SOL     OW19498   3.786   8.530   6.592 -0.0309 -0.1465 -0.3858
 2615SOL    HW119499   3.755   8.457   6.653  0.8267 -0.4730 -0.3324
 2615SOL    HW219500   3.733   8.613   6.611 -1.0407 -0.7614 -0.4817
 2616SOL     OW19501   1.327   5.796   7.061 -0.2598  0.1968 -0.5055
 2616SOL    HW119502   1.256   5.804   6.991 -1.8751 -1.8163  0.8516
 2616SOL    HW219503   1.309   5.861   7.134 -0.8518 -0.4785 -0.0477
 2617SOL     OW19504   8.438   5.505   0.213 -0.1462  0.3467 -0.2165
 2617SOL    HW119505   8.531   5.512   0.177  0.0724 -2.0459 -0.2145
 2617SOL    HW219506   8.384   5.445   0.154 -1.0703 -0.0122  0.9790
 2618SOL     OW19507   2.044   2.784   0.514  0.3501 -0.2727 -0.0680
 2618SOL    HW119508   2.128   2.787   0.460 -0.7148 -0.4111 -1.7863
 2618SOL    HW219509   1.979   2.721   0.471 -2.4226  3.3730 -1.4752
 2619SOL     OW19510   4.672   3.035   3.984 -0.2555 -0.2388 -0.3232
 2619SOL    HW119511   4.727   2.965   4.029  2.7659  1.9515 -0.4223
 2619SOL    HW219512   4.593   3.058   4.041  1.6162  0.0484  2.2165
 2620SOL     OW19513   3.748   1.949   7.447 -0.1893  0.6129 -0.2584
 2620SOL    HW119514   3.778   1.853   7.441  0.8650  0.7762  2.0860
 2620SOL    HW219515   3.826   2.009   7.427 -0.0703  1.0017  1.3576
 2621SOL     OW19516   6.382   4.662   1.484 -0.3875 -0.0977  0.3985
 2621SOL    HW119517   6.352   4.591   1.547  2.7067  0.9722  3.2187
 2621SOL    HW219518   6.479   4.649   1.463 -0.2769  2.1407 -0.6351
 2622SOL     OW19519   7.614   2.438   1.141  0.2479 -0.1596  0.1731
 2622SOL    HW119520   7.543   2.508   1.132 -1.5629 -1.7339  1.9386
 2622SOL    HW219521   7.697   2.469   1.093 -1.7644  1.4646 -2.4118
 2623SOL     OW19522   7.618   9.357   3.848  0.4418  0.0490  0.3495
 2623SOL    HW119523   7.618   9.291   3.924  2.4757 -1.9576 -1.3323
 2623SOL    HW219524   7.591   9.310   3.764 -0.2714  1.9095 -0.4757
 2624SOL     OW19525   2.036   6.551   1.652  1.0178 -0.1740 -0.3791
 2624SOL    HW119526   2.095   6.488   1.602  2.0861  1.0127 -0.6446
 2624SOL    HW219527   2.003   6.622   1.589  2.0015  1.0695  0.4909
 2625SOL     OW19528   8.150   2.575   2.854 -0.3850 -0.5398 -0.5629
 2625SOL    HW119529   8.156   2.516   2.773 -1.4621  0.1331 -1.1453
 2625SOL    HW219530   8.084   2.648   2.837 -0.3839 -0.2057  0.8120
 2626SOL     OW19531   9.414   6.117   2.105 -1.0150  0.2425 -0.1029
 2626SOL    HW119532   9.369   6.183   2.045 -3.8004  1.4202  3.0925
 2626SOL    HW219533   9.448   6.165   2.186  0.7420 -1.6316  0.2984
 2627SOL     OW19534   0.215   6.311   2.160  0.0104 -0.3552  0.5253
 2627SOL    HW119535   0.219   6.406   2.192 -1.2612  0.7147 -2.2875
 2627SOL    HW219536   0.120   6.280   2.160  0.0534 -0.5426 -1.4663
 2628SOL     OW19537   9.616   5.066   0.807  0.6557  0.1654 -0.1677
 2628SOL    HW119538   9.585   5.050   0.713 -0.9801  0.2770  0.3369
 2628SOL    HW219539   9.716   5.065   0.810  0.7253  0.6101 -1.9830
 2629SOL     OW19540   2.010   2.782   7.065  0.8531 -0.3556  0.3743
 2629SOL    HW119541   2.031   2.704   7.123 -0.9296  0.2406  1.8926
 2629SOL    HW219542   2.040   2.866   7.110  1.2463 -0.0335 -0.4773
 2630SOL     OW19543   0.776   7.598   5.922 -0.1922  0.2858 -0.7256
 2630SOL    HW119544   0.677   7.601   5.904 -0.2369  0.0856 -0.5141
 2630SOL    HW219545   0.825   7.637   5.844 -0.4669  0.9223 -0.5846
 2631SOL     OW19546   1.073   5.936   0.316 -0.5321  0.0493 -0.0912
 2631SOL    HW119547   1.024   6.023   0.308  2.0726  1.6809  1.0889
 2631SOL    HW219548   1.169   5.954   0.339 -0.7925 -3.2578  4.0908
 2632SOL     OW19549   1.147   5.667   4.514 -0.3106 -0.5735  0.0027
 2632SOL    HW119550   1.054   5.700   4.527 -0.1805 -0.6829  1.2745
 2632SOL    HW219551   1.164   5.652   4.417 -0.6999  2.1066 -0.4999
 2633SOL     OW19552   0.902   4.267   1.809 -0.1378 -0.3230 -0.4664
 2633SOL    HW119553   0.873   4.300   1.899  0.7807  1.8340 -0.9316
 2633SOL    HW219554   0.836   4.297   1.740  0.1614 -0.3585 -0.7686
 2634SOL     OW19555   0.538   6.748   1.765  0.1988 -0.0299 -0.5011
 2634SOL    HW119556   0.482   6.665   1.762 -1.5618  1.1036  0.4370
 2634SOL    HW219557   0.547   6.779   1.859  0.2071  1.2547 -0.9166
 2635SOL     OW19558   2.836   9.943   1.725 -0.0440 -0.0670  0.2964
 2635SOL    HW119559   2.850   9.860   1.779  0.9644 -0.9025 -1.2023
 2635SOL    HW219560   2.741   9.948   1.695 -0.3300 -0.1909  1.1668
 2636SOL     OW19561   5.046   2.051   3.525 -0.2066  0.1476 -0.4994
 2636SOL    HW119562   5.062   2.060   3.426 -0.2812 -1.1389 -0.6285
 2636SOL    HW219563   4.948   2.046   3.542 -0.2862  2.4155 -0.1769
 2637SOL     OW19564   1.180   8.672   0.954 -0.6172  0.0826 -0.0032
 2637SOL    HW119565   1.170   8.771   0.966 -1.6774  0.2113 -1.7892
 2637SOL    HW219566   1.224   8.633   1.035  1.8320  2.3023 -0.2109
 2638SOL     OW19567   4.493   0.666   4.910  0.5463 -0.2377 -0.1452
 2638SOL    HW119568   4.513   0.762   4.894  0.6638 -0.2619 -0.1496
 2638SOL    HW219569   4.406   0.657   4.958  0.6383 -0.1187  0.0461
 2639SOL     OW19570   0.145   0.821   8.054 -0.2211  0.2482  0.3050
 2639SOL    HW119571   0.197   0.772   8.124 -1.4230 -0.5365  0.6848
 2639SOL    HW219572   0.047   0.816   8.076 -0.5605  0.6343 -1.0290
 2640SOL     OW19573   3.424   8.300   5.218 -0.1726  0.0754  0.1517
 2640SOL    HW119574   3.455   8.374   5.158 -1.2176  1.7017  1.5836
 2640SOL    HW219575   3.494   8.282   5.287  0.1658 -0.4018 -0.3172
 2641SOL     OW19576   3.649   3.884   5.396  0.0714 -0.5144 -0.4919
 2641SOL    HW119577   3.677   3.957   5.334 -0.7292 -0.3450 -0.6509
 2641SOL    HW219578   3.593   3.921   5.470  1.8443 -0.5484  0.9266
 2642SOL     OW19579   5.285   6.664   1.997  0.2460  0.2382  0.1775
 2642SOL    HW119580   5.204   6.606   1.987  1.0447 -0.9549  0.4810
 2642SOL    HW219581   5.257   6.756   2.024 -1.0478  0.0250 -0.3911
 2643SOL     OW19582   6.239   9.071   3.642  0.7105 -0.4725  0.1147
 2643SOL    HW119583   6.316   9.017   3.608  0.5814  0.1441 -1.1898
 2643SOL    HW219584   6.273   9.155   3.683  0.7709 -0.5140  0.1499
 2644SOL     OW19585   1.424   1.823   5.678 -0.5635  0.1628  0.6144
 2644SOL    HW119586   1.483   1.749   5.709 -1.0834  0.2243  1.7961
 2644SOL    HW219587   1.350   1.786   5.621 -0.1239 -0.0663  0.1915
 2645SOL     OW19588   8.147   1.596   4.870  0.3079  0.6901 -0.3516
 2645SOL    HW119589   8.105   1.539   4.941  2.4363 -2.2460 -1.3430
 2645SOL    HW219590   8.083   1.667   4.842 -2.1233 -0.6670  1.5644
 2646SOL     OW19591   8.107   3.066   2.508 -0.1251 -0.1752  0.3348
 2646SOL    HW119592   8.144   3.120   2.583  1.0494  2.0740 -1.7812
 2646SOL    HW219593   8.026   3.111   2.471 -0.2793 -0.8704 -0.1993
 2647SOL     OW19594   1.636   3.889   6.648  0.1393  0.0945  0.2523
 2647SOL    HW119595   1.590   3.839   6.720  0.0864  0.2949  0.3596
 2647SOL    HW219596   1.615   3.848   6.559  0.3656 -0.2717  0.3684
 2648SOL     OW19597   9.567   3.256   7.606  0.5501  0.0460  0.0914
 2648SOL    HW119598   9.593   3.340   7.656  0.2805 -0.2188  0.6829
 2648SOL    HW219599   9.640   3.232   7.543  1.5713 -0.4433  1.4215
 2649SOL     OW19600   6.394   7.933   4.984  0.7338 -0.1651  0.3720
 2649SOL    HW119601   6.478   7.881   4.967  0.8117  0.2990 -0.6865
 2649SOL    HW219602   6.329   7.917   4.909  1.1771  2.1045 -0.5328
 2650SOL     OW19603   2.820   8.350   3.060  0.1095  0.2108 -0.5839
 2650SOL    HW119604   2.840   8.352   2.962  0.5459 -0.0931 -0.5014
 2650SOL    HW219605   2.905   8.354   3.112 -0.1843  1.6289 -0.1960
 2651SOL     OW19606   1.861   5.100   3.337 -0.1503 -0.0603 -0.5429
 2651SOL    HW119607   1.848   5.102   3.436  0.3451  0.9931 -0.4855
 2651SOL    HW219608   1.909   5.016   3.311  3.0602  1.3487  0.5664
 2652SOL     OW19609   3.548   2.569   1.586 -0.2361  0.3429  0.3059
 2652SOL    HW119610   3.628   2.591   1.641  0.8908 -0.8714 -0.8246
 2652SOL    HW219611   3.569   2.582   1.489 -1.5956  0.5879  0.0275
 2653SOL     OW19612   8.022   7.117   7.622 -0.4453 -0.0713  0.1179
 2653SOL    HW119613   8.003   7.203   7.670 -0.1042 -0.5514  1.1373
 2653SOL    HW219614   8.120   7.098   7.625 -0.3303  0.2411 -1.3914
 2654SOL     OW19615   8.641   2.678   4.744  0.0060 -0.2854  0.1292
 2654SOL    HW119616   8.625   2.581   4.727  1.4378 -0.8405  1.7541
 2654SOL    HW219617   8.554   2.724   4.760 -0.5574 -1.7514  1.4637
 2655SOL     OW19618   7.244   5.312   7.563  0.5161  0.4920 -0.5629
 2655SOL    HW119619   7.220   5.317   7.466  2.3206  1.3158 -0.9783
 2655SOL    HW219620   7.177   5.254   7.610 -1.3001  1.3763 -1.9872
 2656SOL     OW19621   8.827   9.817   4.433 -0.1713  0.0220 -0.0546
 2656SOL    HW119622   8.914   9.854   4.467 -0.4398 -0.8960  1.6612
 2656SOL    HW219623   8.841   9.778   4.342  1.3461 -0.6484  0.4545
 2657SOL     OW19624   0.929   8.774   6.061  0.2001  0.4018  0.6987
 2657SOL    HW119625   0.942   8.675   6.051 -0.3072  0.1557  2.2781
 2657SOL    HW219626   0.834   8.793   6.085 -0.0955  1.4210 -1.1762
 2658SOL     OW19627   9.562   0.481   7.158  0.1469 -0.2614 -0.2027
 2658SOL    HW119628   9.470   0.443   7.172  0.8166 -2.1346 -0.8010
 2658SOL    HW219629   9.598   0.450   7.070 -0.2021  3.6802 -1.8083
 2659SOL     OW19630   0.405   2.705   0.385  0.6238 -0.6149  0.4396
 2659SOL    HW119631   0.322   2.758   0.403  0.8053  0.2460 -1.1838
 2659SOL    HW219632   0.450   2.740   0.303  1.5291 -2.3614  0.1637
 2660SOL     OW19633   1.080   4.220   5.413  0.7420  0.2112  0.1272
 2660SOL    HW119634   0.990   4.239   5.451  0.9639 -0.1376  0.8409
 2660SOL    HW219635   1.110   4.297   5.357 -0.3190  0.0153 -0.7299
 2661SOL     OW19636   0.973   6.189   0.303 -0.1258 -0.7261  0.4360
 2661SOL    HW119637   1.045   6.229   0.361 -0.1376 -2.4898  1.7041
 2661SOL    HW219638   0.972   6.235   0.214  1.0935  0.8106  1.1980
 2662SOL     OW19639   7.430   0.176   7.966 -0.3085 -0.0712 -1.0694
 2662SOL    HW119640   7.369   0.253   7.945 -0.1488  0.0830 -0.9666
 2662SOL    HW219641   7.521   0.196   7.931  0.2256  0.6355  0.6694
 2663SOL     OW19642   5.632   0.691   4.053  0.0635  0.7133  0.7576
 2663SOL    HW119643   5.727   0.720   4.069 -0.8799  3.3929  1.8326
 2663SOL    HW219644   5.612   0.612   4.110  2.3102 -1.3313 -1.1800
 2664SOL     OW19645   2.235   8.561   5.259 -0.0221  0.1172  0.9685
 2664SOL    HW119646   2.242   8.660   5.250  1.0931 -0.0957 -0.7570
 2664SOL    HW219647   2.314   8.518   5.215 -1.0810 -1.5796  0.7026
 2665SOL     OW19648   4.663   9.396   4.817 -0.3301 -0.0823 -0.0703
 2665SOL    HW119649   4.628   9.483   4.784  0.1464  0.2224  0.2224
 2665SOL    HW219650   4.763   9.399   4.820 -0.3734  0.8829  4.0021
 2666SOL     OW19651   7.645   3.102   0.595 -0.7107  0.6252  0.3524
 2666SOL    HW119652   7.557   3.144   0.573 -0.8745  0.1139  0.0125
 2666SOL    HW219653   7.637   3.051   0.681 -1.0085 -0.1907 -0.1502
 2667SOL     OW19654   4.785   1.733   3.671  0.5017  0.0861 -0.3424
 2667SOL    HW119655   4.746   1.683   3.749  0.1108  0.9042 -0.0096
 2667SOL    HW219656   4.842   1.671   3.618  0.9264 -0.4329  0.7033
 2668SOL     OW19657   6.757   0.785   3.453 -0.3859 -0.5403  0.4074
 2668SOL    HW119658   6.814   0.858   3.415 -1.8717 -0.8668 -2.5154
 2668SOL    HW219659   6.703   0.822   3.529 -0.3537  1.1218 -0.3601
 2669SOL     OW19660   5.213   8.122   3.017  0.1801 -0.4119 -0.4227
 2669SOL    HW119661   5.273   8.049   3.050  2.3742  2.8904  3.2946
 2669SOL    HW219662   5.118   8.101   3.042  0.8422 -1.7759  1.0439
 2670SOL     OW19663   3.599   1.227   5.270 -0.2290 -0.2965  0.2598
 2670SOL    HW119664   3.630   1.288   5.343 -0.0594  0.7939 -0.7038
 2670SOL    HW219665   3.512   1.260   5.234 -0.6844 -1.2592  0.4775
 2671SOL     OW19666   1.462   9.719   4.714  0.4206 -0.0663  0.6209
 2671SOL    HW119667   1.515   9.747   4.634  0.3436  0.9642  0.9350
 2671SOL    HW219668   1.508   9.747   4.797 -0.8731  1.3262  0.8911
 2672SOL     OW19669   3.320   0.607   7.957 -0.7595  1.1659  0.1080
 2672SOL    HW119670   3.331   0.549   8.038 -0.9113  1.4802  0.3589
 2672SOL    HW219671   3.376   0.689   7.967 -0.4319  0.9874 -0.3123
 2673SOL     OW19672   1.054   7.310   4.119 -0.0418 -0.1707  0.1599
 2673SOL    HW119673   1.082   7.235   4.179 -0.2877  0.0869  0.6017
 2673SOL    HW219674   0.964   7.290   4.081  0.1784 -0.4043 -0.2482
 2674SOL     OW19675   9.878   2.291   0.494 -0.1365  0.2484  0.4620
 2674SOL    HW119676   9.944   2.230   0.451 -2.8705 -3.6522  1.4978
 2674SOL    HW219677   9.906   2.309   0.589  0.3128 -0.0161  0.3769
 2675SOL     OW19678   0.248   1.882   6.951  0.0882 -0.0309  0.5730
 2675SOL    HW119679   0.239   1.908   7.047  2.2492 -0.1244  0.8146
 2675SOL    HW219680   0.196   1.797   6.935  1.1441 -0.9878  2.0843
 2676SOL     OW19681   4.490   0.115   7.684  0.4606 -0.0870  0.0279
 2676SOL    HW119682   4.419   0.186   7.690  0.7828 -0.0108  5.0118
 2676SOL    HW219683   4.580   0.157   7.696  0.7739 -1.0505  1.2024
 2677SOL     OW19684   3.332   0.923   3.578  0.5565 -0.0005  0.6757
 2677SOL    HW119685   3.303   0.828   3.570  2.1332 -0.2885 -2.3556
 2677SOL    HW219686   3.344   0.962   3.487 -1.2771  3.5128  1.8251
 2678SOL     OW19687   6.600   1.581   5.946 -0.0348  0.0063  0.3388
 2678SOL    HW119688   6.591   1.507   5.879 -0.4089 -0.6274  1.0834
 2678SOL    HW219689   6.672   1.645   5.916  1.3046 -1.4355  0.4259
 2679SOL     OW19690   9.072   9.879   3.938  0.2013  0.1699  0.0521
 2679SOL    HW119691   9.112   9.924   4.018 -0.8959  1.5869 -0.1702
 2679SOL    HW219692   9.137   9.880   3.863 -0.3253  2.7632 -0.4169
 2680SOL     OW19693   2.940   9.070   3.946  0.0561 -0.4954  0.4880
 2680SOL    HW119694   2.865   9.016   3.984 -0.6671  1.0723  1.3085
 2680SOL    HW219695   2.997   9.011   3.888 -1.3686 -1.8689  0.4505
 2681SOL     OW19696   6.855   0.194   0.564  0.2400 -0.0185  0.3791
 2681SOL    HW119697   6.938   0.145   0.537  0.7910  0.5051  1.0862
 2681SOL    HW219698   6.855   0.284   0.520  0.8414  0.5998  1.5999
 2682SOL     OW19699   5.149   9.137   7.033 -0.3963  0.3549  0.1908
 2682SOL    HW119700   5.140   9.057   7.092  0.5147 -0.2661 -0.4949
 2682SOL    HW219701   5.221   9.197   7.067 -1.5197  1.2286  1.0747
 2683SOL     OW19702   2.305   6.583   5.049 -0.0408  0.3188 -0.6959
 2683SOL    HW119703   2.340   6.547   5.136  0.1729  0.1877 -0.8369
 2683SOL    HW219704   2.350   6.670   5.028 -1.6407  1.4391  0.3991
 2684SOL     OW19705   0.742   0.284   1.826 -0.3925 -0.3695 -0.2971
 2684SOL    HW119706   0.717   0.187   1.824 -2.0528  0.0523 -1.3204
 2684SOL    HW219707   0.775   0.311   1.735  0.4072 -0.0548  0.0831
 2685SOL     OW19708   2.667   4.684   7.753  0.2610 -0.9704 -0.0797
 2685SOL    HW119709   2.724   4.695   7.834 -0.6555 -2.2031  0.7544
 2685SOL    HW219710   2.597   4.755   7.752  0.1598 -1.0605  0.3161
 2686SOL     OW19711   4.233   4.701   5.074  0.2224  0.4633 -0.3480
 2686SOL    HW119712   4.324   4.667   5.098  0.4264  0.9870 -0.3766
 2686SOL    HW219713   4.199   4.761   5.146 -0.3966 -0.2748 -0.0102
 2687SOL     OW19714   8.859   9.056   2.728  0.5961 -0.4670  0.4241
 2687SOL    HW119715   8.890   9.024   2.638  0.4318  0.8232 -0.0911
 2687SOL    HW219716   8.891   8.992   2.798  1.9601 -0.7022 -0.3999
 2688SOL     OW19717   9.735   6.897   0.547  0.0344  0.0154  0.5163
 2688SOL    HW119718   9.766   6.984   0.509 -0.8401  0.5771  1.0752
 2688SOL    HW219719   9.798   6.824   0.519  0.2883  0.6744 -0.6855
 2689SOL     OW19720   9.097   2.694   7.725  0.3067  0.4324  0.3446
 2689SOL    HW119721   9.034   2.624   7.761  0.5110 -0.2547 -0.5916
 2689SOL    HW219722   9.047   2.780   7.712 -0.7652 -0.4192 -1.4703
 2690SOL     OW19723   9.724   0.906   2.863 -0.0637  0.0684  0.1723
 2690SOL    HW119724   9.749   0.831   2.924  0.3637  1.3124  1.5546
 2690SOL    HW219725   9.630   0.893   2.832 -0.6973  0.0186  2.0340
 2691SOL     OW19726   7.190   9.835   3.834  1.1452 -0.3420 -0.4156
 2691SOL    HW119727   7.151   9.804   3.748 -2.2311  1.1585  0.4874
 2691SOL    HW219728   7.203   9.756   3.895 -1.0750 -0.8518 -0.5502
 2692SOL     OW19729   4.504   7.021   2.521 -0.5095  0.3513 -0.3354
 2692SOL    HW119730   4.486   7.116   2.546  0.1783  0.1407  0.9890
 2692SOL    HW219731   4.601   7.001   2.532 -0.3610 -0.0709 -2.1677
 2693SOL     OW19732   5.394   8.784   4.968  0.3107  0.0178 -0.0294
 2693SOL    HW119733   5.427   8.714   4.904  1.3549  0.4190  0.0491
 2693SOL    HW219734   5.362   8.740   5.052 -0.4039 -0.4626 -0.5438
 2694SOL     OW19735   5.194   2.423   4.546  0.7573 -0.2718 -0.1601
 2694SOL    HW119736   5.241   2.436   4.459 -0.5699 -0.4598 -0.9246
 2694SOL    HW219737   5.165   2.328   4.555 -1.3444  0.2960 -0.6870
 2695SOL     OW19738   3.584   8.763   7.038 -0.1724 -0.1859 -0.1109
 2695SOL    HW119739   3.649   8.760   7.114 -0.4295 -0.5231  0.0953
 2695SOL    HW219740   3.557   8.857   7.021  1.9069  0.1907 -1.4960
 2696SOL     OW19741   2.591   2.411   0.888 -0.1609  0.2913  0.0924
 2696SOL    HW119742   2.629   2.324   0.857 -0.6306  0.0563  0.1781
 2696SOL    HW219743   2.662   2.464   0.935  0.7037  0.8782 -1.8480
 2697SOL     OW19744   7.979   0.986   4.976  0.6066 -0.3408 -0.3343
 2697SOL    HW119745   8.017   0.958   5.064 -0.5455  3.0581  1.3393
 2697SOL    HW219746   7.890   0.942   4.964  0.1069  0.2992  0.9030
 2698SOL     OW19747   3.081   0.384   2.823 -0.0555  0.3828 -1.0174
 2698SOL    HW119748   3.175   0.417   2.810 -0.1993  0.5019 -1.7371
 2698SOL    HW219749   3.084   0.299   2.876  0.5742 -0.4027 -2.2788
 2699SOL     OW19750   1.412   7.070   6.302 -0.1473  0.1175  0.3528
 2699SOL    HW119751   1.316   7.055   6.278 -1.2870  1.7693  3.5090
 2699SOL    HW219752   1.435   7.018   6.384  1.2718  0.7222  0.3628
 2700SOL     OW19753   8.187   4.168   2.370 -0.0416  0.4215  0.4847
 2700SOL    HW119754   8.283   4.144   2.381 -0.5837 -1.7994  0.5990
 2700SOL    HW219755   8.180   4.255   2.320  2.0065  0.7972  0.7975
 2701SOL     OW19756   6.159   2.553   0.676 -0.6441  0.1285  0.3214
 2701SOL    HW119757   6.210   2.467   0.671  0.1264  0.6484 -0.9218
 2701SOL    HW219758   6.173   2.596   0.765  0.6645  0.0091  0.1770
 2702SOL     OW19759   5.685   7.644   6.252  0.1729 -0.7819 -0.1429
 2702SOL    HW119760   5.735   7.565   6.217 -1.1093 -1.0023 -1.5581
 2702SOL    HW219761   5.608   7.665   6.191 -0.1781  0.8689  0.8143
 2703SOL     OW19762   5.283   9.880   1.347  0.3481 -0.1110  0.1971
 2703SOL    HW119763   5.331   9.793   1.352 -0.8206 -0.7554  0.2358
 2703SOL    HW219764   5.184   9.865   1.349  0.1366  1.2503  0.7738
 2704SOL     OW19765   1.408   5.621   0.825  0.2494 -0.4942 -1.0892
 2704SOL    HW119766   1.457   5.638   0.910 -0.1526  0.2127 -0.9916
 2704SOL    HW219767   1.322   5.673   0.825 -0.7787 -2.1432 -1.0156
 2705SOL     OW19768   0.619   1.611   6.434 -0.1931 -0.0255 -0.0503
 2705SOL    HW119769   0.576   1.701   6.427 -0.7921 -0.1207  1.9958
 2705SOL    HW219770   0.718   1.621   6.427 -0.4151  0.3935 -3.1290
 2706SOL     OW19771   8.095   2.582   5.798  0.1490  0.5990 -0.6197
 2706SOL    HW119772   8.012   2.617   5.841 -1.2088  1.8125 -4.0286
 2706SOL    HW219773   8.169   2.648   5.810 -0.6058  1.5932 -1.3709
 2707SOL     OW19774   8.630   3.483   5.646  0.1509  0.2589 -0.1378
 2707SOL    HW119775   8.629   3.486   5.546 -0.7858  0.3923 -0.1207
 2707SOL    HW219776   8.719   3.449   5.677 -0.4066 -2.1763 -1.0924
 2708SOL     OW19777   8.613   3.949   6.230  0.5239  0.2313  0.0006
 2708SOL    HW119778   8.603   3.947   6.131  1.4431  1.3419 -0.1153
 2708SOL    HW219779   8.526   3.924   6.273 -0.0005  0.2164 -1.0707
 2709SOL     OW19780   5.307   0.302   6.358  0.4966 -0.1688 -0.2308
 2709SOL    HW119781   5.349   0.320   6.270  1.7665 -1.2080  0.1529
 2709SOL    HW219782   5.213   0.271   6.345  1.0127 -1.3057 -1.2602
 2710SOL     OW19783   5.383   8.679   4.149 -0.5818 -0.4950  0.2040
 2710SOL    HW119784   5.315   8.742   4.111 -1.2079 -1.6872 -0.6877
 2710SOL    HW219785   5.475   8.714   4.130 -0.9303  1.2690  1.6608
 2711SOL     OW19786   8.617   9.840   4.073  0.9233  0.4194 -0.0386
 2711SOL    HW119787   8.546   9.898   4.113  0.7597 -2.0344  3.5512
 2711SOL    HW219788   8.586   9.805   3.985 -0.9334  1.9705 -0.0327
 2712SOL     OW19789   7.615   3.019   5.655 -0.0115 -0.0832 -0.0054
 2712SOL    HW119790   7.704   3.055   5.683 -0.3191  1.0700 -0.4583
 2712SOL    HW219791   7.580   2.958   5.726  0.2388  1.0413  1.1114
 2713SOL     OW19792   2.507   2.510   0.576 -0.6001 -0.0231  0.3823
 2713SOL    HW119793   2.453   2.568   0.638  0.7501  1.8177 -0.1208
 2713SOL    HW219794   2.589   2.559   0.547  0.0827 -1.8353 -0.8584
 2714SOL     OW19795   8.581   4.162   6.755  0.1807  0.0689 -0.5562
 2714SOL    HW119796   8.542   4.080   6.797  2.2798 -0.9857 -0.6176
 2714SOL    HW219797   8.510   4.208   6.701 -1.0428 -1.6556 -0.4612
 2715SOL     OW19798   8.255   2.574   7.351  0.3940 -0.5983 -0.3113
 2715SOL    HW119799   8.246   2.571   7.450 -1.5303 -0.4825 -0.4715
 2715SOL    HW219800   8.339   2.622   7.326  0.3741  0.2472  1.2354
 2716SOL     OW19801   2.200   9.988   2.423 -0.0635 -0.2222 -0.9344
 2716SOL    HW119802   2.112  10.036   2.419  0.7068  1.1258 -1.6710
 2716SOL    HW219803   2.219   9.963   2.518 -0.4035  1.0286 -0.5356
 2717SOL     OW19804   3.590   2.808   0.759  0.0657 -0.2166  0.0276
 2717SOL    HW119805   3.685   2.800   0.728  0.0736  1.6302 -0.5010
 2717SOL    HW219806   3.589   2.838   0.855  0.0239 -0.1384  0.0030
 2718SOL     OW19807   9.070   2.294   2.999 -0.5366 -0.1287  0.0955
 2718SOL    HW119808   9.130   2.281   2.920  0.1057 -0.0032  0.5535
 2718SOL    HW219809   9.021   2.381   2.989  0.3628  0.4249  0.3459
 2719SOL     OW19810   4.019   8.877   5.845  0.2804  0.4349  0.5851
 2719SOL    HW119811   4.013   8.969   5.805 -1.8600  0.9001  1.8721
 2719SOL    HW219812   4.022   8.884   5.944 -0.5256 -0.9126  0.7191
 2720SOL     OW19813   8.100   2.380   5.370 -0.2871 -0.3189 -0.4204
 2720SOL    HW119814   8.196   2.404   5.356 -0.1289 -1.1478 -0.8256
 2720SOL    HW219815   8.058   2.361   5.281 -0.9573  0.4997 -0.2891
 2721SOL     OW19816   9.689   9.188   4.272 -0.9483 -0.2399 -0.6237
 2721SOL    HW119817   9.689   9.167   4.369 -1.8424  1.7261 -0.1775
 2721SOL    HW219818   9.665   9.284   4.258  0.8900 -0.0157 -2.6846
 2722SOL     OW19819   8.538   4.762   4.856  0.1698  0.4639 -0.2863
 2722SOL    HW119820   8.538   4.764   4.756  0.8741 -1.9603 -0.3440
 2722SOL    HW219821   8.632   4.769   4.890 -0.1320  2.2595  0.2695
 2723SOL     OW19822   5.244   1.629   5.135 -0.5681  0.4528 -0.5643
 2723SOL    HW119823   5.171   1.562   5.120  1.1884 -1.0084 -3.0059
 2723SOL    HW219824   5.269   1.629   5.232 -1.5345 -1.4686 -0.2860
 2724SOL     OW19825   7.983   0.177   5.103  0.2059 -0.4152 -0.0458
 2724SOL    HW119826   7.980   0.158   5.004  0.9347  0.5556 -0.2669
 2724SOL    HW219827   8.065   0.231   5.123 -0.1272 -0.3155  1.0412
 2725SOL     OW19828   0.834   1.808   2.093 -0.0139 -0.6301 -0.3420
 2725SOL    HW119829   0.782   1.893   2.089 -0.2785 -0.8385 -1.5465
 2725SOL    HW219830   0.780   1.738   2.140  0.5015  0.0685  1.2965
 2726SOL     OW19831   1.605   3.079   6.610  0.5313 -0.0996 -0.1487
 2726SOL    HW119832   1.630   3.077   6.514 -1.6992 -0.6100 -0.7404
 2726SOL    HW219833   1.597   2.985   6.645 -1.2476  0.0226 -0.1825
 2727SOL     OW19834   4.700   3.351   0.693  0.5423  0.5467  0.1244
 2727SOL    HW119835   4.703   3.429   0.756 -0.0875 -0.0878  0.9425
 2727SOL    HW219836   4.671   3.269   0.742  1.3524 -0.2443 -0.6999
 2728SOL     OW19837   9.611   5.714   7.342 -0.0617  0.3869 -0.3286
 2728SOL    HW119838   9.612   5.687   7.438  0.7115 -0.4901 -0.5725
 2728SOL    HW219839   9.522   5.691   7.302 -0.3312  0.6138  0.1453
 2729SOL     OW19840   0.670   4.738   2.522 -0.1508  0.1198  0.7441
 2729SOL    HW119841   0.685   4.751   2.620 -0.9642  0.8363  0.7849
 2729SOL    HW219842   0.608   4.810   2.488 -0.8069 -0.8121 -0.0606
 2730SOL     OW19843   8.970   2.206   1.754 -0.4536 -0.0379 -0.0089
 2730SOL    HW119844   9.035   2.275   1.724 -1.3579  0.5470 -0.6603
 2730SOL    HW219845   8.949   2.220   1.851 -2.2722  1.9685 -0.6519
 2731SOL     OW19846   2.406   6.831   1.415 -0.0531 -0.0133 -0.0020
 2731SOL    HW119847   2.474   6.822   1.342  0.3072  1.2733  0.1728
 2731SOL    HW219848   2.380   6.927   1.425  0.1950 -0.1296  1.8410
 2732SOL     OW19849   9.881   0.955   1.519 -0.2566 -0.0392 -0.3324
 2732SOL    HW119850   9.911   0.862   1.497  0.9177  0.6466 -1.7118
 2732SOL    HW219851   9.786   0.966   1.491  0.1191 -0.3079 -1.7446
 2733SOL     OW19852   4.079   0.229   5.246 -0.4929 -0.1676 -0.2700
 2733SOL    HW119853   4.012   0.202   5.176  1.2483 -2.2694 -1.1897
 2733SOL    HW219854   4.035   0.228   5.336 -1.3768 -2.9698 -0.6720
 2734SOL     OW19855   7.552   1.267   0.967  0.0648  0.2498  0.4219
 2734SOL    HW119856   7.482   1.319   1.017  1.3753  1.5528  0.9315
 2734SOL    HW219857   7.583   1.190   1.022  0.0301  0.4821  0.7637
 2735SOL     OW19858   1.537   7.044   1.024  0.8579 -0.0467  0.0249
 2735SOL    HW119859   1.498   6.952   1.027  1.5420 -0.4016 -1.8514
 2735SOL    HW219860   1.520   7.089   1.112 -1.2200 -1.2343  0.2638
 2736SOL     OW19861   3.379   8.803   0.718  0.1471  0.1162 -0.3248
 2736SOL    HW119862   3.415   8.840   0.633  0.1849  2.0543  0.4808
 2736SOL    HW219863   3.324   8.722   0.700 -1.2607  1.4792 -2.3977
 2737SOL     OW19864   3.741   8.548   1.721  0.2495  0.1431 -0.4227
 2737SOL    HW119865   3.761   8.625   1.782 -0.2766 -1.0712  1.3397
 2737SOL    HW219866   3.767   8.571   1.628  1.2966  1.9692  0.3015
 2738SOL     OW19867   4.404   3.905   7.634  0.6082  0.0642 -0.1781
 2738SOL    HW119868   4.363   3.816   7.656  2.4458 -0.5776  0.7559
 2738SOL    HW219869   4.375   3.972   7.702  0.6523 -0.2535  0.1581
 2739SOL     OW19870   8.861   8.642   5.248  0.3876 -0.2306  0.1869
 2739SOL    HW119871   8.766   8.672   5.246  0.9862  1.7517  0.8607
 2739SOL    HW219872   8.878   8.590   5.332  0.0035 -0.2622  0.2455
 2740SOL     OW19873   4.364   8.207   3.098  0.3244  0.0779 -0.1668
 2740SOL    HW119874   4.382   8.210   3.000 -3.6430  4.3373 -0.9189
 2740SOL    HW219875   4.297   8.135   3.116 -0.1871  0.3941 -0.7921
 2741SOL     OW19876   3.701   0.965   4.566  0.0262  0.1665  0.3134
 2741SOL    HW119877   3.604   0.962   4.541 -0.1683 -1.5809  1.1668
 2741SOL    HW219878   3.712   1.024   4.647 -0.5207 -0.5915  0.9553
 2742SOL     OW19879   5.159   7.487   5.715  0.0797  0.2133  0.4758
 2742SOL    HW119880   5.069   7.448   5.734  0.7893 -1.0017  1.4078
 2742SOL    HW219881   5.148   7.580   5.679 -1.4888  0.7974  2.3616
 2743SOL     OW19882   6.744   4.613   0.247  0.1596  0.2335 -0.3049
 2743SOL    HW119883   6.755   4.525   0.202 -1.3317 -0.2628  0.2772
 2743SOL    HW219884   6.679   4.669   0.195  0.3273  0.5974 -0.1249
 2744SOL     OW19885   1.541   4.403   5.121 -0.1649 -0.0905  0.1423
 2744SOL    HW119886   1.641   4.405   5.116 -0.1857  1.1314  0.1634
 2744SOL    HW219887   1.504   4.366   5.035  0.2957 -0.6689  0.1854
 2745SOL     OW19888   2.850   3.363   1.982  0.0044 -0.0493  0.6275
 2745SOL    HW119889   2.771   3.362   1.920  1.0631  1.1398 -0.7964
 2745SOL    HW219890   2.891   3.454   1.981  1.7721 -0.8309  0.8597
 2746SOL     OW19891   0.913   1.609   1.831 -0.3253 -0.2788  0.1422
 2746SOL    HW119892   0.946   1.649   1.746 -1.2776 -1.0045 -0.5874
 2746SOL    HW219893   0.864   1.679   1.883 -0.5270 -0.0567 -0.3361
 2747SOL     OW19894   9.406   3.561   6.238  0.0236  0.5312 -0.2116
 2747SOL    HW119895   9.459   3.636   6.278  1.1921  0.2971 -1.2792
 2747SOL    HW219896   9.309   3.585   6.238  0.0630  0.8535  2.0415
 2748SOL     OW19897   9.580   2.137   1.631  0.0189  0.3751  0.1601
 2748SOL    HW119898   9.659   2.079   1.610 -0.1483 -0.1785  1.0548
 2748SOL    HW219899   9.497   2.081   1.630 -0.0945  0.5242  1.4341
 2749SOL     OW19900   8.547   9.416   2.053  0.2200  0.0559  0.0637
 2749SOL    HW119901   8.589   9.333   2.016 -0.1110 -0.1791  0.2053
 2749SOL    HW219902   8.564   9.420   2.152  1.0737  0.6649 -0.0974
 2750SOL     OW19903   7.591   7.208   3.642  0.2332 -0.3732  0.4556
 2750SOL    HW119904   7.572   7.275   3.570 -0.8600 -0.6391  0.4832
 2750SOL    HW219905   7.508   7.191   3.695  0.8041 -0.8533  1.2119
 2751SOL     OW19906   8.661   5.285   2.574  0.3519 -0.4753  0.5421
 2751SOL    HW119907   8.628   5.190   2.573  1.2366 -0.7821 -1.9894
 2751SOL    HW219908   8.594   5.344   2.529 -0.6824  0.3285  3.0119
 2752SOL     OW19909   8.826   6.531   3.499  0.2210  0.0591  0.1886
 2752SOL    HW119910   8.868   6.614   3.463  0.5329  0.1012  0.6387
 2752SOL    HW219911   8.897   6.474   3.542 -0.0232 -0.3388  0.0720
 2753SOL     OW19912   4.383   3.251   1.773  0.4482  0.2712 -0.3255
 2753SOL    HW119913   4.422   3.215   1.689  1.1613 -0.6688  0.3944
 2753SOL    HW219914   4.439   3.327   1.807  2.1185 -1.5376  1.0893
 2754SOL     OW19915   6.336   4.161   1.715  0.2118  0.0447  0.2351
 2754SOL    HW119916   6.349   4.065   1.691 -0.1335 -0.6363  2.6297
 2754SOL    HW219917   6.374   4.178   1.806  0.2926  2.1891 -0.1764
 2755SOL     OW19918   8.124   4.950   2.518  0.0156  0.3334  0.0364
 2755SOL    HW119919   8.197   5.017   2.505  0.0534  0.1429 -0.7747
 2755SOL    HW219920   8.110   4.934   2.616  1.0254  0.4211  0.2020
 2756SOL     OW19921   7.982   3.545   5.950  0.8488  0.0241 -0.2231
 2756SOL    HW119922   8.040   3.521   6.028 -1.2000  0.6576  1.5437
 2756SOL    HW219923   7.918   3.470   5.931 -0.9878  1.2754  0.9485
 2757SOL     OW19924   7.407   2.389   3.882  0.2311  0.3937 -0.3471
 2757SOL    HW119925   7.362   2.476   3.861 -0.7681  0.1151  0.6043
 2757SOL    HW219926   7.375   2.319   3.817  0.5635  0.5871 -0.7210
 2758SOL     OW19927   7.859   1.595   7.266  0.0281  0.0596 -0.1658
 2758SOL    HW119928   7.760   1.591   7.252 -0.2731 -1.1438  1.9745
 2758SOL    HW219929   7.902   1.517   7.221 -0.4172 -1.3041  1.6915
 2759SOL     OW19930   4.421   1.691   0.262 -0.1484 -0.2575 -0.0490
 2759SOL    HW119931   4.387   1.667   0.171 -2.1054  0.6693  0.3949
 2759SOL    HW219932   4.425   1.790   0.271  1.7042 -0.3494  0.2978
 2760SOL     OW19933   0.040   3.729   6.287 -0.4654 -0.0525 -0.2933
 2760SOL    HW119934   0.115   3.688   6.235 -0.6011 -0.8676  0.1476
 2760SOL    HW219935  -0.014   3.657   6.331 -1.6173  0.5131 -0.7451
 2761SOL     OW19936   0.768   6.801   3.156 -0.6762 -0.0074  0.4530
 2761SOL    HW119937   0.672   6.779   3.136 -0.5883  0.5654 -0.5957
 2761SOL    HW219938   0.827   6.754   3.092 -0.2383 -0.4431  1.1689
 2762SOL     OW19939   5.938   9.326   7.291  0.1217 -0.3124 -0.2064
 2762SOL    HW119940   5.972   9.266   7.363 -1.0680  1.1593  1.6168
 2762SOL    HW219941   6.008   9.335   7.220  1.0320 -2.3474  0.3950
 2763SOL     OW19942   6.716   1.747   2.911  0.0623  0.1813 -0.2798
 2763SOL    HW119943   6.719   1.672   2.977 -1.7169 -0.1402 -0.5327
 2763SOL    HW219944   6.750   1.715   2.822 -0.0965 -0.1436 -0.2227
 2764SOL     OW19945   9.152   9.095   4.438 -0.1469 -0.2823 -0.3313
 2764SOL    HW119946   9.106   9.091   4.527 -1.0906 -0.4704 -0.8240
 2764SOL    HW219947   9.248   9.067   4.449  0.4532  2.1449  1.0902
 2765SOL     OW19948   0.710   5.207   6.697 -0.5352 -0.2596  0.4048
 2765SOL    HW119949   0.610   5.206   6.700 -0.5237  0.0747  1.1358
 2765SOL    HW219950   0.743   5.124   6.654 -1.1094 -0.6675  0.7474
 2766SOL     OW19951   3.273   0.979   4.069 -0.6551  0.5870  0.4783
 2766SOL    HW119952   3.194   0.918   4.067  1.1442 -1.8340  1.0336
 2766SOL    HW219953   3.306   0.993   3.976 -0.0200 -0.7615  0.4799
 2767SOL     OW19954   2.551   7.121   6.593 -0.4175  0.4555  0.1633
 2767SOL    HW119955   2.584   7.028   6.579 -1.3844 -0.1774  1.9156
 2767SOL    HW219956   2.501   7.152   6.512 -0.5727 -0.7691 -0.2132
 2768SOL     OW19957   8.308   9.747   7.683  0.0103  0.4095  0.2694
 2768SOL    HW119958   8.320   9.846   7.689  0.6609  0.2952  0.8496
 2768SOL    HW219959   8.277   9.723   7.591  1.0765  1.0232 -0.2542
 2769SOL     OW19960   8.630   5.950   4.234  0.3765 -0.1715 -0.6373
 2769SOL    HW119961   8.603   5.868   4.183  1.6460 -1.4931  0.7612
 2769SOL    HW219962   8.607   5.938   4.331  1.6216  0.6377 -0.2272
 2770SOL     OW19963   2.888   2.316   5.436  0.3146  0.1475 -0.3742
 2770SOL    HW119964   2.931   2.237   5.480 -1.5950 -0.8559 -0.2646
 2770SOL    HW219965   2.845   2.287   5.351  1.1965  1.4506 -1.2798
 2771SOL     OW19966   9.166   9.878   0.595 -0.8968  0.2158 -0.0294
 2771SOL    HW119967   9.108   9.843   0.521 -1.1239  0.8514 -0.1480
 2771SOL    HW219968   9.259   9.894   0.560 -0.4550 -1.4155  0.3116
 2772SOL     OW19969   2.636   5.019   5.538 -0.6774 -0.9170 -0.1195
 2772SOL    HW119970   2.714   4.956   5.538 -0.8383 -1.1168  0.4005
 2772SOL    HW219971   2.643   5.081   5.460  0.3542 -0.5068  0.2951
 2773SOL     OW19972   7.260   1.826   3.616 -0.0476 -0.1029  0.0285
 2773SOL    HW119973   7.260   1.875   3.703 -0.4869  0.3634 -0.2329
 2773SOL    HW219974   7.352   1.827   3.577  0.9290 -3.1398  2.0711
 2774SOL     OW19975   4.995   9.577   5.704 -0.0403 -0.3145  0.0742
 2774SOL    HW119976   4.989   9.676   5.697 -0.1773 -0.3473 -0.2938
 2774SOL    HW219977   4.996   9.550   5.800  0.3439  0.0643  0.1785
 2775SOL     OW19978   1.020   1.677   7.278 -0.1980 -0.0525  0.1074
 2775SOL    HW119979   0.954   1.676   7.203 -0.1915 -0.4323  0.1060
 2775SOL    HW219980   1.042   1.583   7.304  1.2835  0.0592 -0.7100
 2776SOL     OW19981   1.787   6.847   0.704  0.3869 -0.4307  0.3619
 2776SOL    HW119982   1.847   6.897   0.641 -0.1933 -2.0214 -1.5106
 2776SOL    HW219983   1.730   6.784   0.652 -1.0155 -0.8708  2.3966
 2777SOL     OW19984   1.997   1.165   5.695  0.4805  0.2796  0.1041
 2777SOL    HW119985   1.951   1.251   5.719 -1.1932 -0.3604 -0.7439
 2777SOL    HW219986   2.048   1.178   5.610 -2.6520 -0.5065 -1.9524
 2778SOL     OW19987   1.931   6.395   7.054  0.2499  0.3122  0.4278
 2778SOL    HW119988   1.951   6.386   7.152  2.3792 -0.8857 -0.0860
 2778SOL    HW219989   1.927   6.492   7.029  0.8610  0.6104  1.4647
 2779SOL     OW19990   7.506   9.884   5.015 -0.2374  0.3046 -0.0974
 2779SOL    HW119991   7.536   9.792   4.992  0.5438  0.0162  1.9285
 2779SOL    HW219992   7.479   9.932   4.932  0.8108 -1.2185 -1.3584
 2780SOL     OW19993   7.313   7.526   7.645 -0.1501 -0.0775 -0.5722
 2780SOL    HW119994   7.300   7.619   7.611  0.8663 -0.0390 -0.8675
 2780SOL    HW219995   7.246   7.465   7.603 -2.5353  0.9852  1.5878
 2781SOL     OW19996   7.631   4.536   2.534 -0.0210 -0.4335  0.6372
 2781SOL    HW119997   7.599   4.630   2.524 -1.1949 -0.7894  1.0613
 2781SOL    HW219998   7.726   4.531   2.503 -0.2782  0.6677 -0.4015
 2782SOL     OW19999   3.498   7.704   7.922  0.3544  0.1198  0.8031
 2782SOL    HW120000   3.479   7.686   8.018  1.0610  0.5367  1.0231
 2782SOL    HW220001   3.451   7.787   7.893  0.1387 -0.0084  0.7851
 2783SOL     OW20002   0.831   0.975   3.504 -0.3620  0.6079  0.1552
 2783SOL    HW120003   0.850   1.012   3.413  1.4124  0.4312  0.4369
 2783SOL    HW220004   0.905   1.000   3.567  0.4367 -2.5506  0.5902
 2784SOL     OW20005   9.965   0.773   5.228  0.3935 -0.0293 -0.6395
 2784SOL    HW120006   9.909   0.805   5.152 -0.2814  0.3265 -0.0045
 2784SOL    HW220007   9.913   0.708   5.283 -0.7963  3.1107  2.1117
 2785SOL     OW20008   2.739   1.818   4.529  0.6697  0.4635 -0.5139
 2785SOL    HW120009   2.815   1.779   4.477 -0.0128  0.7342 -1.7275
 2785SOL    HW220010   2.658   1.761   4.518  0.2274  1.1123 -0.6126
 2786SOL     OW20011   0.390   8.920   6.096 -0.0121 -0.0437 -0.1885
 2786SOL    HW120012   0.364   8.994   6.157  1.8152 -0.1657  0.7639
 2786SOL    HW220013   0.323   8.846   6.103 -1.5427  1.2336 -0.7303
 2787SOL     OW20014   3.532   3.248   6.235 -0.3749 -0.1859 -0.5962
 2787SOL    HW120015   3.531   3.227   6.332 -0.0245 -0.7752 -0.7127
 2787SOL    HW220016   3.506   3.344   6.220 -1.5736 -0.4146 -0.0167
 2788SOL     OW20017   5.030   2.123   5.818  0.1716 -0.4259 -0.0803
 2788SOL    HW120018   5.111   2.069   5.840 -0.3376 -0.3458  2.1584
 2788SOL    HW220019   4.985   2.085   5.738  2.1074 -0.8061 -1.0187
 2789SOL     OW20020   2.513   4.147   5.565  0.3217  0.1477 -0.7125
 2789SOL    HW120021   2.509   4.142   5.665 -2.3352  0.1905 -0.7679
 2789SOL    HW220022   2.481   4.060   5.526 -0.8819  0.9233 -1.5074
 2790SOL     OW20023   0.500   2.031   1.592 -0.1480 -0.1782  0.2050
 2790SOL    HW120024   0.478   1.960   1.525 -0.3044  0.1096 -0.0519
 2790SOL    HW220025   0.500   2.120   1.546  0.8059 -0.0960  0.3634
 2791SOL     OW20026   8.305   4.456   0.989  0.1056  0.6792  0.0470
 2791SOL    HW120027   8.354   4.370   1.001 -1.8333 -0.5869 -0.7922
 2791SOL    HW220028   8.278   4.493   1.078  0.1834 -0.0441  0.3690
 2792SOL     OW20029   8.200   0.520   0.326 -0.3546 -0.6335 -0.1605
 2792SOL    HW120030   8.288   0.477   0.305 -0.8229 -1.0317 -1.3920
 2792SOL    HW220031   8.139   0.453   0.369 -1.2328 -1.3764 -2.4702
 2793SOL     OW20032   9.170   9.215   1.089  0.0948 -0.4531 -0.2737
 2793SOL    HW120033   9.248   9.274   1.069 -0.0660 -0.7120 -1.6732
 2793SOL    HW220034   9.090   9.247   1.040 -0.3513 -0.9960  0.0903
 2794SOL     OW20035   8.467   6.306   0.391 -1.0465  0.0601 -0.1391
 2794SOL    HW120036   8.540   6.328   0.456 -0.0421  1.3570 -1.6556
 2794SOL    HW220037   8.384   6.283   0.441  0.1035 -0.4449  1.6191
 2795SOL     OW20038   1.899   4.392   7.776  0.3498  0.4048  0.1593
 2795SOL    HW120039   1.983   4.442   7.757  0.8298 -0.5343 -0.2161
 2795SOL    HW220040   1.846   4.440   7.846  1.2660  0.9087  0.5042
 2796SOL     OW20041   3.749   1.116   5.077  0.2221 -0.2289  0.2992
 2796SOL    HW120042   3.810   1.195   5.075  0.2697 -0.2383  1.3571
 2796SOL    HW220043   3.673   1.133   5.139  0.0991 -0.9198  0.3486
 2797SOL     OW20044   1.270   8.692   1.596 -0.3490 -0.1471  0.0551
 2797SOL    HW120045   1.272   8.769   1.533 -1.5906 -0.1403  0.0069
 2797SOL    HW220046   1.330   8.619   1.563  0.0826  0.4167 -0.3944
 2798SOL     OW20047   6.134   1.413   7.770 -0.0918 -0.1788  0.2165
 2798SOL    HW120048   6.066   1.466   7.719 -0.5786 -2.0663 -1.1731
 2798SOL    HW220049   6.222   1.418   7.723  0.0208 -0.0661  0.4408
 2799SOL     OW20050   8.674   9.850   5.491  0.3620  0.0771 -0.0454
 2799SOL    HW120051   8.636   9.845   5.398 -1.0238  0.6178  0.4817
 2799SOL    HW220052   8.620   9.914   5.545  1.3019 -0.0751  1.0844
 2800SOL     OW20053   4.318   5.205   0.393 -0.1917 -0.2758 -0.6743
 2800SOL    HW120054   4.360   5.220   0.482 -1.4035 -1.5308  0.1200
 2800SOL    HW220055   4.349   5.276   0.330  1.2986  0.1646  0.5125
 2801SOL     OW20056   2.118   7.566   7.425  0.0035  0.2906 -0.5171
 2801SOL    HW120057   2.020   7.576   7.440  0.0617  0.6472 -0.3615
 2801SOL    HW220058   2.166   7.571   7.513  0.1432 -0.0692 -0.5741
 2802SOL     OW20059   9.214   2.916   3.883  0.3334  0.4810  0.1403
 2802SOL    HW120060   9.260   2.861   3.953  0.7428  0.1256 -0.4078
 2802SOL    HW220061   9.281   2.946   3.816  0.2023  2.0055  0.6619
 2803SOL     OW20062   8.018   8.898   3.224 -0.5874  0.2846 -0.2352
 2803SOL    HW120063   8.032   8.954   3.143  2.5448 -1.3736 -0.8900
 2803SOL    HW220064   8.095   8.909   3.287 -1.4530 -0.8880  1.0839
 2804SOL     OW20065   8.696   9.550   5.394 -0.1573 -0.0722 -0.7319
 2804SOL    HW120066   8.696   9.450   5.398 -0.5551 -0.0142  1.0340
 2804SOL    HW220067   8.633   9.579   5.322 -0.2433 -1.0860 -1.0833
 2805SOL     OW20068   0.067   2.929   6.432 -0.3101  0.3076  0.0609
 2805SOL    HW120069   0.059   2.885   6.343  0.7771 -0.0489  0.1356
 2805SOL    HW220070   0.075   3.028   6.421 -1.2762  0.3708 -0.1737
 2806SOL     OW20071   3.683   9.476   0.741  0.4740 -0.3549 -0.0586
 2806SOL    HW120072   3.752   9.549   0.740  0.1812 -0.0803 -0.3048
 2806SOL    HW220073   3.725   9.390   0.714  0.3905  0.1005 -1.6441
 2807SOL     OW20074   6.316   8.106   3.163  0.5052  0.5072  0.5131
 2807SOL    HW120075   6.312   8.022   3.109  0.5484  0.0886  1.1691
 2807SOL    HW220076   6.226   8.151   3.161  0.1469 -0.1760  1.1674
 2808SOL     OW20077   0.942   7.430   5.662  0.0669  0.6856 -0.3386
 2808SOL    HW120078   0.852   7.391   5.646 -0.5012  1.8470 -0.0203
 2808SOL    HW220079   0.936   7.530   5.661  1.2927  0.7707 -0.0302
 2809SOL     OW20080   3.306   8.876   6.634  0.2898  0.4223  0.0546
 2809SOL    HW120081   3.354   8.963   6.628  0.9879  0.0021 -0.5584
 2809SOL    HW220082   3.220   8.881   6.583  1.0250  0.3017 -1.2139
 2810SOL     OW20083   1.323   8.872   2.825 -0.2716  0.1233 -0.0061
 2810SOL    HW120084   1.229   8.896   2.849 -0.4260  0.1486 -0.6319
 2810SOL    HW220085   1.383   8.949   2.848 -0.5364  0.4727 -0.4909
 2811SOL     OW20086   9.452   7.643   5.380 -0.4282  0.3534 -0.0505
 2811SOL    HW120087   9.433   7.666   5.475  1.9781  1.9569  0.0795
 2811SOL    HW220088   9.548   7.617   5.370 -0.2647  1.6422 -2.2910
 2812SOL     OW20089   9.496   8.224   3.081  0.6767 -0.2037  0.3231
 2812SOL    HW120090   9.523   8.266   3.168 -0.0359  1.3582 -0.1889
 2812SOL    HW220091   9.429   8.152   3.099 -0.4308  0.9638  0.9890
 2813SOL     OW20092   8.651   2.815   6.260 -0.0276  0.4461 -0.0061
 2813SOL    HW120093   8.640   2.800   6.162 -0.2578 -0.0231  0.0881
 2813SOL    HW220094   8.748   2.827   6.281  0.0436  0.3420 -0.2650
 2814SOL     OW20095   9.485   6.156   3.035 -0.3255  0.7420 -0.1465
 2814SOL    HW120096   9.477   6.072   3.090 -0.4503  1.7336  1.3978
 2814SOL    HW220097   9.393   6.190   3.013 -0.2731  0.2924 -1.0526
 2815SOL     OW20098   7.613   9.646   0.213 -0.6013  0.2123 -0.1808
 2815SOL    HW120099   7.685   9.715   0.213  1.9444 -2.3056  1.2533
 2815SOL    HW220100   7.645   9.566   0.264 -2.7155 -2.7165 -3.2763
 2816SOL     OW20101   3.830   2.780   6.022  0.3439  0.2199 -0.2298
 2816SOL    HW120102   3.755   2.782   6.087 -0.8344 -0.5311 -1.5461
 2816SOL    HW220103   3.825   2.860   5.962  0.6198  0.2049 -0.2730
 2817SOL     OW20104   7.486   7.742   4.062 -0.3372 -0.1747 -0.5872
 2817SOL    HW120105   7.399   7.772   4.101  1.1101  1.7379  1.2575
 2817SOL    HW220106   7.500   7.645   4.080 -0.0223  0.5153  3.1360
 2818SOL     OW20107   9.247   1.651   2.755  0.2759 -0.3963 -0.1888
 2818SOL    HW120108   9.289   1.727   2.804 -0.4849 -0.8915  1.2418
 2818SOL    HW220109   9.242   1.673   2.657  0.2042  1.3124  0.1914
 2819SOL     OW20110   9.929   4.851   6.806 -0.1783 -0.2931 -0.1013
 2819SOL    HW120111   9.958   4.882   6.897 -2.2284 -1.4726  0.9825
 2819SOL    HW220112   9.993   4.782   6.773  0.5316  0.0846  0.4663
 2820SOL     OW20113   6.196   6.251   1.061 -0.2194 -0.5366  0.1483
 2820SOL    HW120114   6.156   6.315   0.996 -1.6612 -0.3385  1.2118
 2820SOL    HW220115   6.232   6.171   1.012  0.0909  0.3203 -1.0186
 2821SOL     OW20116   9.398   6.831   2.473  0.2405  0.2663 -0.0187
 2821SOL    HW120117   9.431   6.745   2.512  1.6557  0.7006 -0.2208
 2821SOL    HW220118   9.355   6.814   2.385  2.2529 -0.0206 -0.9756
 2822SOL     OW20119   4.370   2.330   2.558  0.2027 -0.0713  0.5178
 2822SOL    HW120120   4.426   2.286   2.488 -1.0894  0.7910 -1.1089
 2822SOL    HW220121   4.425   2.396   2.609  1.1546 -0.6947  0.3044
 2823SOL     OW20122   7.678   9.292   6.653  0.3717  0.0516 -0.3821
 2823SOL    HW120123   7.636   9.204   6.679 -0.0482  0.1669 -0.6719
 2823SOL    HW220124   7.775   9.292   6.680  1.2576 -1.7901 -3.3580
 2824SOL     OW20125   9.062   7.385   4.815 -0.4662 -0.5797  0.4528
 2824SOL    HW120126   9.119   7.445   4.870  1.4491 -1.0776 -0.9519
 2824SOL    HW220127   9.004   7.439   4.754  2.3747 -0.1033 -1.9327
 2825SOL     OW20128   3.275   3.406   0.589 -0.2080 -0.1780  0.0665
 2825SOL    HW120129   3.208   3.400   0.515 -1.4799 -0.4498  1.1969
 2825SOL    HW220130   3.341   3.332   0.581 -0.7680 -0.6364 -0.3963
 2826SOL     OW20131   3.497   2.721   1.089 -0.2008  0.0380  0.0561
 2826SOL    HW120132   3.596   2.717   1.084 -0.2773 -0.1452 -1.3606
 2826SOL    HW220133   3.464   2.805   1.046 -0.7378 -0.5424 -0.6877
 2827SOL     OW20134   2.450   7.289   4.320  0.2078 -0.0700  0.0486
 2827SOL    HW120135   2.493   7.354   4.257  1.0210  0.5346  1.2061
 2827SOL    HW220136   2.452   7.326   4.413 -1.7381 -0.5722  0.3182
 2828SOL     OW20137   2.822   4.534   2.624  0.0407 -0.1324 -0.4038
 2828SOL    HW120138   2.812   4.594   2.545  2.3246 -0.5315 -1.0526
 2828SOL    HW220139   2.746   4.548   2.687 -0.2179  2.3800 -1.2287
 2829SOL     OW20140   3.146   4.204   2.354 -0.1426 -0.1333  0.3604
 2829SOL    HW120141   3.233   4.170   2.390 -0.0603  0.2678  0.5502
 2829SOL    HW220142   3.128   4.162   2.265  0.6155  0.3446 -0.0285
 2830SOL     OW20143   8.258   7.692   2.255  0.2136  0.0674  0.7243
 2830SOL    HW120144   8.230   7.690   2.159 -0.5730  1.9051  0.8941
 2830SOL    HW220145   8.339   7.636   2.267  0.5691  0.1512 -1.1124
 2831SOL     OW20146   4.600   2.115   5.332 -0.1326 -0.2170 -0.4419
 2831SOL    HW120147   4.615   2.126   5.233  1.4652  1.5026 -0.0256
 2831SOL    HW220148   4.508   2.148   5.355  0.4454  1.8301 -0.9787
 2832SOL     OW20149   3.525   9.629   7.871 -0.2884  0.6325  0.4332
 2832SOL    HW120150   3.516   9.685   7.789  2.2303 -0.9995 -1.0088
 2832SOL    HW220151   3.585   9.675   7.936  1.3575 -0.0834 -0.5383
 2833SOL     OW20152   4.124   3.322   2.014 -0.5083  0.5887  0.3823
 2833SOL    HW120153   4.041   3.310   2.068 -0.8912  0.0563 -0.3185
 2833SOL    HW220154   4.159   3.232   1.987  0.9470  0.7492  1.6428
 2834SOL     OW20155   3.579   5.710   4.974 -0.5850 -0.5189  0.0887
 2834SOL    HW120156   3.580   5.740   4.878 -0.1783 -1.4865 -0.2208
 2834SOL    HW220157   3.642   5.767   5.027  0.5269 -1.0781 -0.5853
 2835SOL     OW20158   5.352   0.495   2.841  0.0917 -0.0538  0.3368
 2835SOL    HW120159   5.264   0.479   2.797  0.7940 -1.0962 -0.7408
 2835SOL    HW220160   5.343   0.566   2.910 -1.9558 -1.2759  1.3675
 2836SOL     OW20161   1.154   2.060   5.201 -0.5003  0.5434 -0.5044
 2836SOL    HW120162   1.241   2.085   5.157  0.9250 -2.4313  0.4896
 2836SOL    HW220163   1.085   2.045   5.130 -0.1646  2.6940 -1.3297
 2837SOL     OW20164   2.698   4.204   1.890  0.1588  0.1342  0.7521
 2837SOL    HW120165   2.602   4.191   1.869  0.1014  0.3373  0.8883
 2837SOL    HW220166   2.736   4.275   1.830 -0.0397  0.8134  1.4373
 2838SOL     OW20167   4.463   3.945   3.297  0.0364  0.3712 -0.4468
 2838SOL    HW120168   4.463   3.902   3.387  2.6704  1.4985  0.1522
 2838SOL    HW220169   4.414   3.887   3.231 -0.0620 -1.4812  1.2267
 2839SOL     OW20170   8.855   8.904   3.165  0.5703  0.6875  0.2793
 2839SOL    HW120171   8.839   9.001   3.179 -0.6862  0.4073  0.8854
 2839SOL    HW220172   8.769   8.854   3.179  1.4466 -0.6122  1.0881
 2840SOL     OW20173   4.189   9.006   5.506  0.4175 -0.1181 -0.7314
 2840SOL    HW120174   4.239   8.925   5.478  0.4816  0.0458 -1.0887
 2840SOL    HW220175   4.094   8.999   5.476  0.8915  0.8365 -2.5231
 2841SOL     OW20176   2.088   0.914   1.639 -0.2732  0.3825 -0.2053
 2841SOL    HW120177   2.112   0.819   1.620  0.9229  0.5578  0.3710
 2841SOL    HW220178   2.112   0.935   1.734 -2.0477  0.7872  0.1725
 2842SOL     OW20179   1.827   6.165   1.423 -0.0042 -0.0349 -0.5817
 2842SOL    HW120180   1.880   6.236   1.376  0.6533 -0.1768 -0.0629
 2842SOL    HW220181   1.802   6.093   1.358  1.0403 -0.3105 -0.6845
 2843SOL     OW20182   3.850   7.389   1.947 -0.0237 -0.0395  0.8636
 2843SOL    HW120183   3.934   7.407   1.999 -0.9916  0.7354  2.1959
 2843SOL    HW220184   3.822   7.472   1.900  0.4564 -0.5507 -0.3381
 2844SOL     OW20185   1.441   3.609   1.559  0.4269  0.2203 -0.1359
 2844SOL    HW120186   1.443   3.653   1.649 -1.4734  1.0270 -0.4685
 2844SOL    HW220187   1.385   3.526   1.565  1.2655 -0.3557 -0.2978
 2845SOL     OW20188   1.423   1.987   4.846  0.7035 -0.0477 -0.6707
 2845SOL    HW120189   1.351   1.986   4.777  0.1146  0.4857 -0.0583
 2845SOL    HW220190   1.482   1.907   4.833  0.8698  0.2883 -2.0813
 2846SOL     OW20191   9.801   9.344   2.945  0.6480 -0.3588 -0.5727
 2846SOL    HW120192   9.777   9.337   2.848  2.3129 -0.4060 -0.9889
 2846SOL    HW220193   9.887   9.296   2.962 -0.0783 -1.1048  1.1049
 2847SOL     OW20194   8.906   8.954   0.138  0.2260  0.0224  0.2529
 2847SOL    HW120195   8.896   8.858   0.164  1.1898 -0.6411 -1.7563
 2847SOL    HW220196   8.816   8.994   0.122 -0.3177  0.0483  3.0436
 2848SOL     OW20197   2.769   7.321   0.727 -0.1463 -0.7542 -0.4425
 2848SOL    HW120198   2.752   7.224   0.742  3.3494 -1.7723 -2.4692
 2848SOL    HW220199   2.858   7.346   0.766  0.1332  1.0364 -2.1550
 2849SOL     OW20200   4.246   0.813   2.252  0.1349  0.2820  0.1974
 2849SOL    HW120201   4.281   0.893   2.203  0.0312  0.7025  0.8135
 2849SOL    HW220202   4.230   0.739   2.186 -0.1849  0.9056 -0.4332
 2850SOL     OW20203   7.179   9.123   3.727  0.1840  0.1087 -0.1721
 2850SOL    HW120204   7.202   9.193   3.658 -2.0076  1.1951  0.1384
 2850SOL    HW220205   7.181   9.165   3.818  0.6571 -0.7157  0.2007
 2851SOL     OW20206   2.298   8.491   2.398  0.1131 -0.6000 -0.2670
 2851SOL    HW120207   2.256   8.534   2.478 -1.5882 -1.0566 -0.8992
 2851SOL    HW220208   2.230   8.481   2.326  1.9596  1.0650 -2.2949
 2852SOL     OW20209   3.914   3.943   0.362 -0.0975 -0.8770  0.6025
 2852SOL    HW120210   3.951   3.998   0.287  0.1338  0.8695  1.9851
 2852SOL    HW220211   3.861   4.001   0.424 -1.7456 -2.6216  0.8629
 2853SOL     OW20212   7.709   4.839   2.040  0.1439  0.4581 -0.6681
 2853SOL    HW120213   7.697   4.824   2.138  1.1193  2.9585 -0.1474
 2853SOL    HW220214   7.653   4.916   2.011  0.8050  0.5097 -1.8396
 2854SOL     OW20215   8.595   7.282   2.398  0.2101 -0.1340  0.1426
 2854SOL    HW120216   8.642   7.280   2.310  0.0123  0.9120  0.0141
 2854SOL    HW220217   8.512   7.337   2.390 -1.0443 -1.9584  0.3715
 2855SOL     OW20218   7.407   5.610   7.338  0.3536  0.5043  0.3891
 2855SOL    HW120219   7.429   5.513   7.329  0.7068  0.5732  0.4992
 2855SOL    HW220220   7.366   5.643   7.253 -1.5641 -0.2021  1.0142
 2856SOL     OW20221   8.295   9.133   4.685  0.1452 -0.4619 -0.6833
 2856SOL    HW120222   8.287   9.058   4.621 -0.9811 -2.9429  2.2357
 2856SOL    HW220223   8.211   9.187   4.685  0.2271 -0.3356 -1.4028
 2857SOL     OW20224   5.492   9.427   6.085  0.5559 -0.0922  0.8839
 2857SOL    HW120225   5.531   9.410   5.995 -2.6218  1.4478 -0.8696
 2857SOL    HW220226   5.433   9.508   6.081 -0.2354 -0.4403  4.1745
 2858SOL     OW20227   4.255   0.554   6.884 -0.1243 -0.1676 -0.2629
 2858SOL    HW120228   4.175   0.591   6.837 -0.6277 -2.0172 -0.9137
 2858SOL    HW220229   4.226   0.485   6.951  0.8205  0.1558  0.4868
 2859SOL     OW20230   2.842   9.103   4.851  0.3626 -0.2955  0.9503
 2859SOL    HW120231   2.919   9.165   4.837  0.4894 -0.4607  0.9229
 2859SOL    HW220232   2.782   9.106   4.770  0.3787 -0.2239  0.9410
 2860SOL     OW20233   3.325   5.217   7.031  0.0193 -0.0138 -0.0058
 2860SOL    HW120234   3.344   5.307   7.070 -0.8122  0.8360 -1.5304
 2860SOL    HW220235   3.391   5.199   6.958 -0.7636  0.0333 -0.7358
 2861SOL     OW20236   1.749   8.053   1.536  0.4112  0.2221  0.0621
 2861SOL    HW120237   1.816   8.043   1.462  0.0322 -1.6967 -0.0348
 2861SOL    HW220238   1.761   7.979   1.602 -2.3627 -0.8345 -0.5577
 2862SOL     OW20239   0.688   1.405   3.165  0.5398  0.2312 -0.5243
 2862SOL    HW120240   0.603   1.413   3.217  0.1907 -0.0273 -1.0477
 2862SOL    HW220241   0.666   1.394   3.068  1.1569 -0.9504 -0.5278
 2863SOL     OW20242   1.194   1.448   1.525 -0.1697 -0.1293  0.2712
 2863SOL    HW120243   1.104   1.486   1.504  0.7810  2.8385  1.3727
 2863SOL    HW220244   1.227   1.395   1.446 -2.2103 -0.0176 -0.6933
 2864SOL     OW20245   9.121   0.310   5.796 -0.4848  0.2247  0.1862
 2864SOL    HW120246   9.193   0.380   5.794  0.3298 -0.5868  0.4844
 2864SOL    HW220247   9.138   0.248   5.872 -0.8672 -0.6488 -0.4375
 2865SOL     OW20248   4.029   0.758   8.151 -0.1675 -0.0684 -0.9959
 2865SOL    HW120249   4.100   0.796   8.092  1.5991  1.3902  2.0144
 2865SOL    HW220250   4.046   0.783   8.246 -3.3318 -1.8163  0.1205
 2866SOL     OW20251   2.088   3.450   1.235  0.4578  0.0002  0.4347
 2866SOL    HW120252   1.991   3.472   1.247  0.4782 -0.2100  0.9847
 2866SOL    HW220253   2.117   3.387   1.306  0.9375 -0.1373  0.1181
 2867SOL     OW20254   1.992   8.191   0.416 -0.3883 -0.0987 -0.1163
 2867SOL    HW120255   1.990   8.189   0.516  0.6262  0.0518 -0.0851
 2867SOL    HW220256   2.052   8.118   0.383 -1.0620 -0.4245 -0.6341
 2868SOL     OW20257   2.811   5.068   1.626  0.0504  0.1961  0.4177
 2868SOL    HW120258   2.879   5.138   1.645 -0.4845  0.2542  2.1479
 2868SOL    HW220259   2.720   5.102   1.651  0.0357 -1.9009  3.4596
 2869SOL     OW20260   9.786   3.817   4.925 -0.4059  0.0628 -0.1305
 2869SOL    HW120261   9.849   3.840   4.851 -1.9460 -0.0867 -1.5369
 2869SOL    HW220262   9.792   3.886   4.997 -0.5961  1.5629 -1.5068
 2870SOL     OW20263   0.164   1.390   7.693  0.9971  0.2725 -0.0610
 2870SOL    HW120264   0.086   1.413   7.751  1.0159  0.9848 -0.3115
 2870SOL    HW220265   0.209   1.474   7.663  0.9192 -0.0899 -1.2006
 2871SOL     OW20266   5.150   9.029   4.593 -0.2193 -0.2033 -0.1588
 2871SOL    HW120267   5.202   9.114   4.598 -1.1099  0.4354 -1.5533
 2871SOL    HW220268   5.061   9.046   4.549 -1.2815 -1.4294  1.4457
 2872SOL     OW20269   2.239   1.420   6.006  0.5167  0.0382 -0.0861
 2872SOL    HW120270   2.299   1.352   5.964  1.5653  1.6949 -1.3325
 2872SOL    HW220271   2.209   1.485   5.937  0.2922  1.4087  1.2778
 2873SOL     OW20272   4.274   0.527   3.045  0.1991 -0.4860  0.0276
 2873SOL    HW120273   4.253   0.450   2.985 -1.0855 -0.2174  0.1093
 2873SOL    HW220274   4.189   0.564   3.083  0.8320  0.6815  0.3488
 2874SOL     OW20275   3.961   8.381   8.140  0.4978  0.4006 -0.3633
 2874SOL    HW120276   4.012   8.297   8.158 -1.7600 -0.9038  0.1623
 2874SOL    HW220277   3.950   8.432   8.225  0.7848  0.6060 -0.4487
 2875SOL     OW20278   2.656   9.425   6.620  0.4881 -0.8993 -0.6057
 2875SOL    HW120279   2.667   9.408   6.718 -0.8901  0.3864 -0.2141
 2875SOL    HW220280   2.587   9.363   6.583  0.5997 -0.9977 -0.6490
 2876SOL     OW20281   3.028   9.988   7.420  0.1512 -0.1556 -0.1008
 2876SOL    HW120282   3.090   9.915   7.389  0.6306  0.1608  0.1059
 2876SOL    HW220283   2.936   9.950   7.432  0.0666 -0.4044 -1.3943
 2877SOL     OW20284   6.898   8.239   2.856 -0.0965  0.2962 -0.3929
 2877SOL    HW120285   6.853   8.263   2.770  0.2422  2.5590  0.0256
 2877SOL    HW220286   6.989   8.280   2.858  0.4580 -0.9556  0.4408
 2878SOL     OW20287   8.632   9.003   6.377  0.4330  0.1668 -0.4803
 2878SOL    HW120288   8.690   9.080   6.349  0.6006  0.1160 -0.2798
 2878SOL    HW220289   8.689   8.923   6.396  0.5600  0.8104  2.0688
 2879SOL     OW20290   0.014   0.127   5.966  0.4290  0.3721  0.0554
 2879SOL    HW120291   0.013   0.227   5.963  2.4883  0.4257  0.4413
 2879SOL    HW220292   0.046   0.096   6.055  0.1475 -0.6401 -0.1810
 2880SOL     OW20293   1.091   9.345   5.186  0.0477 -0.4667  0.4051
 2880SOL    HW120294   1.066   9.351   5.283 -0.5781  0.9555  0.1682
 2880SOL    HW220295   1.095   9.436   5.147 -1.9927 -1.1334 -1.4928
 2881SOL     OW20296   8.448   9.899   3.465  0.0214  0.2145 -0.0950
 2881SOL    HW120297   8.484   9.805   3.467  0.9085  0.5321 -0.7642
 2881SOL    HW220298   8.372   9.907   3.529 -0.0045 -0.9459  0.0273
 2882SOL     OW20299   1.838   6.333   0.298  0.0873 -0.2288  0.1724
 2882SOL    HW120300   1.751   6.313   0.253 -0.0545  1.1403 -0.2041
 2882SOL    HW220301   1.835   6.304   0.393 -0.4633 -0.9860 -0.0722
 2883SOL     OW20302   4.103   5.171   2.805  0.4129 -0.5404 -0.0653
 2883SOL    HW120303   4.083   5.178   2.903  0.5083 -1.8685  0.0532
 2883SOL    HW220304   4.176   5.104   2.790  0.5380 -0.1961 -1.0271
 2884SOL     OW20305   3.283   0.181   7.739  0.4371 -0.3324 -0.2609
 2884SOL    HW120306   3.383   0.181   7.741  0.4121  0.4730  1.6404
 2884SOL    HW220307   3.251   0.266   7.697  0.5380 -1.4765 -2.7737
 2885SOL     OW20308   3.966   8.111   5.882  0.0773  0.1033 -0.4496
 2885SOL    HW120309   4.030   8.087   5.955 -1.0802  1.6014  1.1218
 2885SOL    HW220310   3.891   8.045   5.880 -0.1524  0.3458  0.0618
 2886SOL     OW20311   8.392   3.310   3.784  0.2338  0.3193  0.1518
 2886SOL    HW120312   8.407   3.396   3.735  0.1526  0.8445  1.0406
 2886SOL    HW220313   8.326   3.325   3.858  0.6824 -0.3666  0.6954
 2887SOL     OW20314   1.547   3.842   5.222  0.1805 -0.3208 -0.1778
 2887SOL    HW120315   1.517   3.808   5.312  0.8448 -2.4493 -0.7359
 2887SOL    HW220316   1.469   3.844   5.159  0.7487 -4.0763 -1.0960
 2888SOL     OW20317   5.885   9.260   6.790 -0.5104 -0.4403 -0.3473
 2888SOL    HW120318   5.923   9.349   6.819 -0.4765  0.2326 -2.4021
 2888SOL    HW220319   5.792   9.274   6.755 -1.4945 -1.6224  1.7302
 2889SOL     OW20320   3.428   1.819   1.662  0.9270  0.1481  0.0828
 2889SOL    HW120321   3.457   1.784   1.573  0.9478  0.1617  0.0841
 2889SOL    HW220322   3.380   1.747   1.712 -1.4828  0.9482 -1.0445
 2890SOL     OW20323   2.742   3.114   7.130 -0.2292 -0.5418 -1.1087
 2890SOL    HW120324   2.742   3.014   7.139  1.2938 -0.4200  0.5471
 2890SOL    HW220325   2.834   3.146   7.111 -0.1550  0.7683  1.2623
 2891SOL     OW20326   2.933   1.051   8.078  0.0886  0.1179  0.5461
 2891SOL    HW120327   2.947   1.142   8.040  0.1691  0.1502  0.6504
 2891SOL    HW220328   3.020   1.001   8.076 -0.6357 -1.1363 -2.5565
 2892SOL     OW20329   0.618   3.146   2.412 -0.5663 -0.3350 -0.0823
 2892SOL    HW120330   0.577   3.072   2.359  1.5562 -0.8376 -1.0568
 2892SOL    HW220331   0.645   3.111   2.502  1.3708 -1.0256 -0.9178
 2893SOL     OW20332   8.861   0.723   2.182  0.7118 -0.4776 -0.2643
 2893SOL    HW120333   8.944   0.723   2.238 -0.4237  1.3962  1.4958
 2893SOL    HW220334   8.864   0.800   2.118  0.6900 -0.8827 -0.7517
 2894SOL     OW20335   3.157   5.723   8.159  0.2900 -0.5483  0.5535
 2894SOL    HW120336   3.175   5.650   8.093 -0.4730 -2.2266  2.1653
 2894SOL    HW220337   3.243   5.769   8.182  0.8512 -1.2442 -0.1376
 2895SOL     OW20338   8.120   6.794   5.556  0.1097 -0.6490  0.3070
 2895SOL    HW120339   8.189   6.722   5.563  1.1651  0.4856  2.1404
 2895SOL    HW220340   8.032   6.755   5.533  1.0077 -2.3331 -0.3317
 2896SOL     OW20341   7.001   6.644   6.901 -0.5401  0.4265 -0.1891
 2896SOL    HW120342   7.082   6.605   6.856 -0.3633  0.7622 -0.1599
 2896SOL    HW220343   7.018   6.740   6.923 -1.3834  0.8058 -1.2023
 2897SOL     OW20344   9.484   2.094   2.387  0.4863 -0.0384 -0.1533
 2897SOL    HW120345   9.521   2.135   2.470  1.6086 -0.4583 -0.4327
 2897SOL    HW220346   9.554   2.095   2.316  0.6134 -2.6252 -0.1032
 2898SOL     OW20347   4.929   9.745   2.959 -0.0554  0.3254  0.5152
 2898SOL    HW120348   4.927   9.645   2.958 -0.0459  0.3239 -1.4994
 2898SOL    HW220349   4.837   9.781   2.950  0.1427  0.4904 -0.8899
 2899SOL     OW20350   9.700   6.402   4.689 -0.4532  0.0879  0.0197
 2899SOL    HW120351   9.671   6.446   4.773 -0.9931  0.8289 -0.5454
 2899SOL    HW220352   9.628   6.340   4.657 -0.2973 -0.1022  0.0308
 2900SOL     OW20353   2.299   3.880   7.879  0.6301 -0.1582  0.0092
 2900SOL    HW120354   2.216   3.933   7.897  0.8639 -0.0475  0.7818
 2900SOL    HW220355   2.336   3.904   7.789 -0.4493 -0.5685 -0.5476
 2901SOL     OW20356   4.322   3.989   4.637 -0.3391  0.1985 -0.1496
 2901SOL    HW120357   4.326   4.059   4.566  1.1203  0.6488  0.3466
 2901SOL    HW220358   4.392   3.919   4.619  1.0265  1.0786  1.6123
 2902SOL     OW20359   1.713   7.570   1.665  0.0029  0.4645  0.2516
 2902SOL    HW120360   1.623   7.579   1.622  0.0486 -1.6877 -0.3604
 2902SOL    HW220361   1.748   7.478   1.649  1.6741  0.8155  1.7543
 2903SOL     OW20362   9.776   8.276   6.679 -0.2925 -0.7355  0.5103
 2903SOL    HW120363   9.743   8.279   6.774 -0.8760 -1.2968  0.3304
 2903SOL    HW220364   9.782   8.369   6.643 -2.0997 -0.6437  0.4115
 2904SOL     OW20365   0.390   2.964   5.929  0.3562 -0.0562 -0.3750
 2904SOL    HW120366   0.333   2.934   5.852 -0.5789  0.9294 -0.0816
 2904SOL    HW220367   0.473   3.006   5.893  0.7467 -1.1700 -0.8112
 2905SOL     OW20368   0.605   4.433   2.967  0.1582  0.9734 -0.2077
 2905SOL    HW120369   0.592   4.342   3.007  1.8492  0.5828 -0.4740
 2905SOL    HW220370   0.599   4.426   2.867 -0.8065  1.3576 -0.1797
 2906SOL     OW20371   3.004   5.843   1.034  0.0154 -0.1547 -0.4195
 2906SOL    HW120372   3.070   5.891   0.977 -0.4841 -1.5838 -2.2527
 2906SOL    HW220373   2.967   5.765   0.984 -1.0849 -0.9461  1.5599
 2907SOL     OW20374   2.498   6.906   2.042 -0.5162 -0.3793 -0.4903
 2907SOL    HW120375   2.502   6.881   1.945  0.7779 -1.8420 -0.0805
 2907SOL    HW220376   2.567   6.976   2.061 -2.0493  1.2817 -1.0064
 2908SOL     OW20377   1.735   9.308   4.294  0.4309 -0.2840 -0.5862
 2908SOL    HW120378   1.717   9.235   4.359  1.6992 -1.9971 -2.0917
 2908SOL    HW220379   1.649   9.349   4.265 -0.0896  1.1838  2.8707
 2909SOL     OW20380   9.356   0.531   0.434 -0.4054  0.3306  0.0128
 2909SOL    HW120381   9.280   0.595   0.425 -0.0852  0.6556 -0.3886
 2909SOL    HW220382   9.367   0.506   0.531 -0.6972  0.6725  0.1365
 2910SOL     OW20383   3.270   1.618   1.786 -0.3561  0.2565  0.4127
 2910SOL    HW120384   3.317   1.532   1.768 -0.6641  0.2332 -0.3067
 2910SOL    HW220385   3.179   1.616   1.745 -0.5485  0.7465  0.7976
 2911SOL     OW20386   8.789   2.227   1.520  0.8056  0.0626  0.1210
 2911SOL    HW120387   8.859   2.249   1.588  0.6679 -0.1411  0.3276
 2911SOL    HW220388   8.699   2.229   1.563  0.4707  2.4634 -0.6207
 2912SOL     OW20389   0.736   2.556   5.749 -0.5318 -0.4906  0.4070
 2912SOL    HW120390   0.670   2.630   5.745  1.9083  1.8356  1.7251
 2912SOL    HW220391   0.758   2.525   5.657 -2.0260 -0.0254 -0.1144
 2913SOL     OW20392   8.531   1.914   1.622 -0.0299  0.0167  0.4221
 2913SOL    HW120393   8.480   1.864   1.552  0.0714  1.5662 -0.7936
 2913SOL    HW220394   8.629   1.907   1.603  0.1140 -1.1094  1.4947
 2914SOL     OW20395   7.840   2.774   1.606  0.0979 -0.1667 -0.0802
 2914SOL    HW120396   7.813   2.866   1.632 -0.8836 -0.4601 -0.0300
 2914SOL    HW220397   7.842   2.716   1.688 -0.5907 -0.5062 -0.3056
 2915SOL     OW20398   3.059   2.002   1.487 -0.5254 -0.1532 -0.3567
 2915SOL    HW120399   3.080   2.099   1.485  0.0861 -0.2520  0.9137
 2915SOL    HW220400   2.961   1.989   1.496 -0.4887  0.3724  0.9683
 2916SOL     OW20401   0.898   1.371   4.457 -0.3688  0.4495 -0.2577
 2916SOL    HW120402   0.830   1.300   4.438 -0.7355  0.2743  1.6077
 2916SOL    HW220403   0.851   1.456   4.483  0.0990  0.8103 -0.5853
 2917SOL     OW20404   1.172   0.691   2.203 -0.2211  0.0502 -0.0743
 2917SOL    HW120405   1.170   0.694   2.303 -0.3891 -2.4084  0.0113
 2917SOL    HW220406   1.104   0.755   2.167 -1.0059  0.0725  1.4023
 2918SOL     OW20407   2.185   4.431   3.540  0.2277  0.5616  0.7660
 2918SOL    HW120408   2.126   4.436   3.620 -0.6068 -1.8434  0.3391
 2918SOL    HW220409   2.129   4.423   3.457  1.1256  0.0128  0.2026
 2919SOL     OW20410   0.064   8.063   1.447  0.1740  0.5180  0.0682
 2919SOL    HW120411   0.027   8.153   1.467  1.2577  0.8731  0.5074
 2919SOL    HW220412   0.089   8.058   1.350  1.8088  1.3291  0.4234
 2920SOL     OW20413   0.940   8.022   5.132 -0.1337  0.4128  0.9302
 2920SOL    HW120414   0.908   8.070   5.050 -0.5236 -3.0192 -1.0765
 2920SOL    HW220415   0.882   8.045   5.210 -1.8296  1.2838 -0.5456
 2921SOL     OW20416   9.214   6.106   5.209 -0.2507  0.6165  0.1921
 2921SOL    HW120417   9.266   6.020   5.211  3.3002  2.6602  0.3963
 2921SOL    HW220418   9.165   6.117   5.295 -1.1782 -1.4544 -0.0469
 2922SOL     OW20419   1.924   2.300   1.457 -0.2347 -0.2628 -0.0082
 2922SOL    HW120420   1.985   2.221   1.465 -2.0103 -1.6233  0.3223
 2922SOL    HW220421   1.978   2.382   1.436  1.6099 -1.5812 -0.4955
 2923SOL     OW20422   0.961   3.950   5.345  0.0074  0.2123 -0.3849
 2923SOL    HW120423   1.055   3.942   5.379  0.6137 -1.4060 -2.3594
 2923SOL    HW220424   0.915   4.024   5.393  1.4827 -0.6202  2.4165
 2924SOL     OW20425   7.419   6.052   1.845 -0.2240  0.1491  0.2425
 2924SOL    HW120426   7.400   6.012   1.935  0.3548 -0.0426  0.2846
 2924SOL    HW220427   7.419   5.980   1.776  0.5512  0.1040  0.2787
 2925SOL     OW20428   3.514   6.391   4.592  0.5925  0.2204  0.3424
 2925SOL    HW120429   3.535   6.306   4.640 -1.3390 -0.1369  0.6021
 2925SOL    HW220430   3.463   6.452   4.654  0.4112  0.8371 -0.4107
 2926SOL     OW20431   7.077   6.603   6.148  0.4873 -0.4460 -0.5510
 2926SOL    HW120432   7.006   6.537   6.123 -0.2987 -0.0332  0.5394
 2926SOL    HW220433   7.130   6.626   6.067 -1.0203 -0.2996 -1.5301
 2927SOL     OW20434   5.273   7.692   5.018 -0.4008 -0.2518 -0.0585
 2927SOL    HW120435   5.266   7.734   5.109 -1.5223 -2.6153  0.9943
 2927SOL    HW220436   5.366   7.656   5.006  0.3128  1.7197 -0.6314
 2928SOL     OW20437   2.083   2.835   1.164 -0.0535 -0.3928 -0.0338
 2928SOL    HW120438   2.012   2.770   1.139  0.7112 -1.1839 -0.1724
 2928SOL    HW220439   2.057   2.927   1.133 -1.5152 -0.4892  0.8965
 2929SOL     OW20440   8.876   7.047   0.504 -0.3486 -0.6000 -0.3538
 2929SOL    HW120441   8.903   6.953   0.524 -1.7024 -0.6714  1.2823
 2929SOL    HW220442   8.815   7.047   0.425  0.1415 -1.0269 -0.7385
 2930SOL     OW20443   4.295   1.213   6.982 -0.0680  0.1578 -0.8807
 2930SOL    HW120444   4.239   1.243   7.059 -0.3568 -1.0277 -0.6242
 2930SOL    HW220445   4.339   1.127   7.005 -1.1458 -0.8435 -2.5177
 2931SOL     OW20446   1.010   9.638   2.207  0.0080 -0.5283  0.4813
 2931SOL    HW120447   0.941   9.580   2.249  0.4330 -1.0765  0.4228
 2931SOL    HW220448   1.097   9.588   2.200  0.1875 -0.1323 -0.2086
 2932SOL     OW20449   7.482   2.261   2.408  0.1615 -0.3750 -0.4423
 2932SOL    HW120450   7.395   2.265   2.457  0.6930 -1.1499  0.5661
 2932SOL    HW220451   7.506   2.166   2.389  0.4939 -0.1332 -1.2719
 2933SOL     OW20452   3.548   0.834   2.062  0.1319  0.9499 -0.1415
 2933SOL    HW120453   3.457   0.877   2.068 -1.1671 -1.7317  0.1899
 2933SOL    HW220454   3.547   0.747   2.111  2.6576  0.4797 -0.8612
 2934SOL     OW20455   4.672   2.833   5.594 -0.2336  0.7933 -0.8222
 2934SOL    HW120456   4.650   2.927   5.619  1.1742  0.6449  1.1571
 2934SOL    HW220457   4.588   2.780   5.584 -1.0829  2.4420 -2.8509
 2935SOL     OW20458   5.824   1.280   5.190 -0.1120  0.0746  0.2067
 2935SOL    HW120459   5.769   1.341   5.131 -0.2476 -1.6227 -1.4598
 2935SOL    HW220460   5.911   1.325   5.211 -0.3175  0.9789 -0.7862
 2936SOL     OW20461   9.203   5.773   1.049 -0.0155 -0.2053  0.2281
 2936SOL    HW120462   9.168   5.844   0.988  0.2755 -0.6338 -0.4348
 2936SOL    HW220463   9.264   5.712   0.999 -1.3301 -1.7503  0.4853
 2937SOL     OW20464   2.607   9.246   3.266  0.0622 -0.0923 -0.6503
 2937SOL    HW120465   2.648   9.280   3.351 -0.1441  0.1244 -0.6391
 2937SOL    HW220466   2.604   9.146   3.269 -0.9908 -0.0544  0.0882
 2938SOL     OW20467   7.786   8.433   7.893 -0.0768  0.5578 -0.0519
 2938SOL    HW120468   7.792   8.400   7.798 -1.4348  2.1457 -0.7140
 2938SOL    HW220469   7.788   8.533   7.893  1.6666  0.5517  1.7481
 2939SOL     OW20470   9.504   8.346   0.694 -0.5544  0.2402  0.0546
 2939SOL    HW120471   9.493   8.332   0.596  0.3295  1.7403 -0.2767
 2939SOL    HW220472   9.452   8.277   0.744  0.9315 -2.0340 -1.4634
 2940SOL     OW20473   9.245   3.669   3.695 -0.0091 -0.3925 -0.9625
 2940SOL    HW120474   9.174   3.604   3.670 -0.0298  0.0348 -2.0315
 2940SOL    HW220475   9.294   3.636   3.776 -0.3360 -1.4986 -1.2129
 2941SOL     OW20476   3.829   5.095   8.077  0.1675  0.3054 -0.2572
 2941SOL    HW120477   3.842   5.156   7.999 -2.0779  1.5790  0.3198
 2941SOL    HW220478   3.739   5.112   8.118  0.2520 -2.1457  1.0308
 2942SOL     OW20479   1.543   4.228   7.260 -0.2185  0.0654 -0.3361
 2942SOL    HW120480   1.546   4.154   7.327  0.5294  0.6139  0.2338
 2942SOL    HW220481   1.626   4.227   7.204  1.3790  2.5185  1.8840
 2943SOL     OW20482   0.825   0.320   5.646  0.0045  0.2379 -0.3872
 2943SOL    HW120483   0.726   0.322   5.635  0.0353 -0.0854 -0.7471
 2943SOL    HW220484   0.848   0.284   5.737 -0.1819 -2.1325 -1.2332
 2944SOL     OW20485   7.731   0.245   7.578  0.6819  0.5929 -0.4523
 2944SOL    HW120486   7.719   0.325   7.520  0.2045  0.3680 -0.6621
 2944SOL    HW220487   7.683   0.167   7.538 -0.0132  0.5415  0.4584
 2945SOL     OW20488   0.457   1.980   8.000  0.0438  0.5938 -0.2405
 2945SOL    HW120489   0.441   1.921   7.921  0.5246 -0.0339  0.1284
 2945SOL    HW220490   0.467   2.075   7.969  0.5826  0.3055 -0.9685
 2946SOL     OW20491   4.206   3.660   7.149  0.3966  0.3795 -0.2931
 2946SOL    HW120492   4.142   3.587   7.124 -0.0117  0.2303  1.1413
 2946SOL    HW220493   4.299   3.631   7.125  0.3309 -0.9802  0.9965
 2947SOL     OW20494   5.997   0.716   6.369  0.2735 -0.0143 -0.1795
 2947SOL    HW120495   6.045   0.643   6.417  1.4580 -0.2146 -1.6179
 2947SOL    HW220496   5.929   0.677   6.307  0.1835  0.1481 -0.1843
 2948SOL     OW20497   0.228   8.942   2.912 -0.1122  0.2199 -0.9343
 2948SOL    HW120498   0.185   8.954   2.823  2.3071  0.0527 -2.1717
 2948SOL    HW220499   0.248   9.031   2.953  1.7128  0.3449 -2.0545
 2949SOL     OW20500   1.630   6.773   6.679  0.5196 -0.0711  0.4280
 2949SOL    HW120501   1.726   6.779   6.652  0.7985 -0.2301  1.3861
 2949SOL    HW220502   1.621   6.791   6.777 -0.4403  0.0424  0.3277
 2950SOL     OW20503   7.810   5.263   5.876 -1.1869  0.1713  0.0097
 2950SOL    HW120504   7.757   5.217   5.947 -0.4682  0.1095  0.5215
 2950SOL    HW220505   7.883   5.317   5.919 -0.0864 -0.7198 -0.7289
 2951SOL     OW20506   8.816   5.410   2.760 -0.0574 -0.3195  0.7160
 2951SOL    HW120507   8.908   5.373   2.744  0.1762  1.1595 -1.4871
 2951SOL    HW220508   8.751   5.368   2.697 -0.3971  0.6300  0.4331
 2952SOL     OW20509   8.312   0.134   6.925  0.5600 -0.5650 -0.5150
 2952SOL    HW120510   8.299   0.055   6.866 -0.2346 -1.3525  0.7069
 2952SOL    HW220511   8.256   0.125   7.008  0.7018  1.1095 -0.2022
 2953SOL     OW20512   8.494   5.892   4.479 -0.4685  0.1445 -0.0256
 2953SOL    HW120513   8.437   5.914   4.558  0.2401 -1.1218  0.8610
 2953SOL    HW220514   8.466   5.804   4.442  1.6366 -1.0593  1.1403
 2954SOL     OW20515   2.667   5.733   1.235  0.4470  0.5533 -0.0456
 2954SOL    HW120516   2.733   5.670   1.277 -0.1088  0.6977  1.0463
 2954SOL    HW220517   2.711   5.821   1.218  1.1948 -0.0808 -1.4663
 2955SOL     OW20518   1.740   9.983   0.408 -0.4729  0.2230 -0.5955
 2955SOL    HW120519   1.787  10.070   0.418  1.0417 -0.5470 -0.9324
 2955SOL    HW220520   1.743   9.953   0.313 -1.6337  0.1510 -0.6206
 2956SOL     OW20521   2.881   0.651   2.585 -0.4268  0.5049  0.2469
 2956SOL    HW120522   2.860   0.749   2.593  1.0130  0.8502 -0.1048
 2956SOL    HW220523   2.961   0.639   2.527 -0.5792 -0.8873  0.3235
 2957SOL     OW20524   3.029   7.088   6.643 -0.3167 -0.1185  0.0674
 2957SOL    HW120525   3.127   7.091   6.621 -0.3230  1.4901  0.2258
 2957SOL    HW220526   2.977   7.125   6.566 -0.5873  1.9453  1.2110
 2958SOL     OW20527   1.212   3.687   0.985 -0.5771 -0.0521 -0.0112
 2958SOL    HW120528   1.172   3.760   1.040 -1.1097 -0.1175 -0.3062
 2958SOL    HW220529   1.312   3.693   0.989 -0.6181  0.6341  0.0409
 2959SOL     OW20530   0.152   8.136   5.101 -0.4900  0.2330 -0.7723
 2959SOL    HW120531   0.173   8.054   5.154 -2.2553 -0.7304 -1.5089
 2959SOL    HW220532   0.133   8.212   5.162 -0.1516 -0.2418 -0.0716
 2960SOL     OW20533   3.008   1.144   1.603  0.2627  0.2334 -0.0561
 2960SOL    HW120534   2.967   1.138   1.512  0.9297  0.3173 -0.3640
 2960SOL    HW220535   2.935   1.146   1.672 -0.2581  0.7878 -0.6157
 2961SOL     OW20536   0.709   0.330   5.046 -0.2830 -0.2604  0.2326
 2961SOL    HW120537   0.688   0.360   5.139 -0.7836 -1.3848  0.4902
 2961SOL    HW220538   0.808   0.313   5.038 -0.1302  0.5604  0.3399
 2962SOL     OW20539   0.018   5.548   0.065 -0.0795  0.3759 -0.0255
 2962SOL    HW120540  -0.019   5.611   0.133 -0.0333 -0.1960  0.5270
 2962SOL    HW220541   0.115   5.532   0.082  0.0416  0.5832 -0.4956
 2963SOL     OW20542   6.931   2.660   0.312 -0.1284 -0.1269 -0.5421
 2963SOL    HW120543   6.872   2.601   0.257  1.1123 -1.3474 -0.6026
 2963SOL    HW220544   6.940   2.622   0.404 -0.0307  0.4405 -0.3157
 2964SOL     OW20545   3.320   2.753   2.628 -0.9817  0.2445  0.6259
 2964SOL    HW120546   3.368   2.827   2.580  2.7938 -0.1145  3.5735
 2964SOL    HW220547   3.239   2.789   2.673  0.4746  2.5418  1.5127
 2965SOL     OW20548   0.658   3.899   8.053  0.0999 -0.3088  0.7406
 2965SOL    HW120549   0.601   3.888   7.971 -1.9063 -0.2152  2.0658
 2965SOL    HW220550   0.649   3.817   8.110  1.0193 -0.1218  1.1601
 2966SOL     OW20551   9.563   5.607   7.006 -0.3913  0.3950 -0.0409
 2966SOL    HW120552   9.578   5.516   6.967 -1.0793  0.0864  0.3985
 2966SOL    HW220553   9.474   5.609   7.052 -1.3412  1.9205 -1.8663
 2967SOL     OW20554   7.803   1.795   0.040 -0.5967 -0.5291 -0.2266
 2967SOL    HW120555   7.726   1.829   0.094  0.3825  1.1687  0.1315
 2967SOL    HW220556   7.863   1.741   0.099 -0.5642 -0.3394 -0.0855
 2968SOL     OW20557   9.028   7.117   5.644 -0.1219 -0.6673  0.0791
 2968SOL    HW120558   8.947   7.102   5.587 -0.6267  1.0278  0.3261
 2968SOL    HW220559   9.054   7.213   5.641  0.4822 -0.7516  1.8901
 2969SOL     OW20560   8.606   4.724   2.378  0.2533 -0.0451 -0.2024
 2969SOL    HW120561   8.548   4.690   2.305 -1.6640  2.5738  0.0063
 2969SOL    HW220562   8.670   4.792   2.341  0.8544 -0.4087  0.1607
 2970SOL     OW20563   7.979   0.638   7.514 -0.5311 -0.0384 -0.6337
 2970SOL    HW120564   8.055   0.580   7.544 -1.6577 -1.0060  0.4321
 2970SOL    HW220565   7.977   0.641   7.414 -0.6347 -2.0972 -0.7129
 2971SOL     OW20566   3.370   2.189   2.440  0.4533 -0.1836 -0.0450
 2971SOL    HW120567   3.340   2.112   2.383  0.2392  0.6820 -1.0999
 2971SOL    HW220568   3.451   2.161   2.492 -1.2982 -2.0769  1.7917
 2972SOL     OW20569   9.702   6.622   6.708  0.4961 -0.0747  0.1807
 2972SOL    HW120570   9.686   6.542   6.651  2.5958  0.2051 -0.8756
 2972SOL    HW220571   9.694   6.597   6.804 -1.3887 -0.9526 -0.1889
 2973SOL     OW20572   3.826   9.996   3.068 -0.2845  0.0750 -0.0358
 2973SOL    HW120573   3.784   9.909   3.096  2.0297 -1.1187 -0.1471
 2973SOL    HW220574   3.768  10.039   2.998 -0.9685 -1.8986 -0.7444
 2974SOL     OW20575   8.980   1.139   1.851  0.1148 -0.4930 -0.1766
 2974SOL    HW120576   8.974   1.235   1.879  0.1791 -0.8647  1.1500
 2974SOL    HW220577   8.913   1.121   1.779 -0.3311  0.4033  0.0083
 2975SOL     OW20578   4.652   7.557   2.876 -0.6937  0.2201  0.2478
 2975SOL    HW120579   4.703   7.526   2.796 -2.2864 -1.1069 -0.2819
 2975SOL    HW220580   4.616   7.649   2.860  1.2597  1.0507  0.5157
 2976SOL     OW20581   4.567   3.405   4.960  0.1273 -0.2280  0.5777
 2976SOL    HW120582   4.601   3.360   5.042 -0.0709 -0.5243  0.4988
 2976SOL    HW220583   4.523   3.491   4.985  1.3122  0.3722  0.6380
 2977SOL     OW20584   1.803   0.752   6.376 -0.1154  0.1552 -0.0550
 2977SOL    HW120585   1.747   0.684   6.423 -1.1724  0.0094 -1.4834
 2977SOL    HW220586   1.787   0.746   6.277  1.1036  1.2995 -0.3436
 2978SOL     OW20587   8.384   0.501   5.544  0.0740 -0.1513 -0.3080
 2978SOL    HW120588   8.344   0.479   5.455 -3.0153  2.3396  0.3750
 2978SOL    HW220589   8.365   0.427   5.609  1.0275 -1.2747 -1.2802
 2979SOL     OW20590   9.302   4.243   7.539  0.0142  0.9811  0.5319
 2979SOL    HW120591   9.368   4.230   7.465  0.1992  0.1272  0.8475
 2979SOL    HW220592   9.212   4.265   7.500  0.3747  1.6880  0.0908
 2980SOL     OW20593   1.361   8.289   3.639 -0.6982  0.3144  0.3162
 2980SOL    HW120594   1.342   8.342   3.557  0.7912  0.7114  0.2174
 2980SOL    HW220595   1.359   8.191   3.617 -1.8794  0.3665  0.1656
 2981SOL     OW20596   9.140   8.031   3.898 -0.4110  0.1968 -0.1142
 2981SOL    HW120597   9.155   8.060   3.992 -0.5749 -0.8211  0.2318
 2981SOL    HW220598   9.217   8.062   3.841  0.6829 -0.8884  0.7431
 2982SOL     OW20599   6.873   3.768   2.080 -0.0583  0.3156  0.3025
 2982SOL    HW120600   6.843   3.700   2.146  0.3526  0.7396  0.9314
 2982SOL    HW220601   6.809   3.845   2.080  0.2830  0.5972  0.6504
 2983SOL     OW20602   9.962   9.357   1.475  0.2258  0.0742  0.0808
 2983SOL    HW120603   9.950   9.456   1.467 -0.3510 -0.0799 -1.0445
 2983SOL    HW220604   9.873   9.313   1.487  0.4041 -0.3649 -0.1765
 2984SOL     OW20605   1.653   1.872   7.202 -0.4559  0.2966  0.1188
 2984SOL    HW120606   1.743   1.914   7.188  0.2285 -1.6493 -1.5711
 2984SOL    HW220607   1.586   1.916   7.143 -0.3204  0.8052  0.3406
 2985SOL     OW20608   3.346   3.674   5.987 -0.4750 -0.0887 -0.1465
 2985SOL    HW120609   3.344   3.753   5.926  1.2752 -0.7026 -1.0197
 2985SOL    HW220610   3.281   3.605   5.955 -2.0079  0.9652  0.6171
 2986SOL     OW20611   8.888   5.635   1.216 -0.5048  0.4700 -0.3050
 2986SOL    HW120612   8.965   5.692   1.245 -0.8078  0.6533  0.1484
 2986SOL    HW220613   8.883   5.634   1.116 -1.0490  1.9973 -0.3153
 2987SOL     OW20614   7.707   4.354   4.219 -0.0034  0.2506 -0.8766
 2987SOL    HW120615   7.769   4.359   4.141  0.0005  1.5020 -0.7911
 2987SOL    HW220616   7.757   4.379   4.303 -0.5293  0.8541 -0.7500
 2988SOL     OW20617   1.454   5.379   1.411 -0.4584 -0.1561  0.3079
 2988SOL    HW120618   1.413   5.329   1.335  0.1968  0.7213 -0.6355
 2988SOL    HW220619   1.542   5.417   1.383 -0.4967  0.7052  1.3047
 2989SOL     OW20620   9.488   9.616   0.984  0.0363  0.4208  0.5221
 2989SOL    HW120621   9.416   9.674   1.023  0.7820  1.7143  0.0261
 2989SOL    HW220622   9.576   9.644   1.020  0.5736  0.6304 -0.9052
 2990SOL     OW20623   0.414   1.412   2.936  0.4326  0.0986  0.2890
 2990SOL    HW120624   0.354   1.466   2.878 -0.0120  1.3386  1.8784
 2990SOL    HW220625   0.371   1.399   3.025  1.2693 -1.4669  0.4821
 2991SOL     OW20626   7.619   1.795   3.589  0.0110  0.3269 -0.3357
 2991SOL    HW120627   7.613   1.887   3.630  1.1463 -0.2570  1.1923
 2991SOL    HW220628   7.679   1.798   3.509  0.7509  0.7482  0.2303
 2992SOL     OW20629   0.943   3.789   2.100  0.0467 -0.4534  0.5931
 2992SOL    HW120630   0.988   3.869   2.061 -2.2694  0.7189  0.2428
 2992SOL    HW220631   1.010   3.716   2.113  2.2615  1.6351  1.2324
 2993SOL     OW20632   6.775   2.333   0.412 -0.7244  0.5040  0.4828
 2993SOL    HW120633   6.822   2.393   0.477 -0.9643  0.1610  0.9748
 2993SOL    HW220634   6.676   2.337   0.429 -0.6132 -1.5166  1.8065
 2994SOL     OW20635   0.683   7.179   1.499 -0.9160  0.3078 -0.0055
 2994SOL    HW120636   0.601   7.165   1.444  1.0657  0.4323 -3.0962
 2994SOL    HW220637   0.667   7.254   1.563 -3.2099  0.3047 -0.5183
 2995SOL     OW20638   9.380   2.809   1.140 -0.4742 -0.2575  0.0597
 2995SOL    HW120639   9.401   2.738   1.073 -0.6643  0.0327 -0.3112
 2995SOL    HW220640   9.378   2.898   1.094  1.0253  0.1448  0.7508
 2996SOL     OW20641   9.756   3.325   4.096  0.5183 -0.3881  0.0120
 2996SOL    HW120642   9.780   3.266   4.019  1.4236 -1.1910  0.8860
 2996SOL    HW220643   9.678   3.382   4.072 -0.4060 -1.9887 -0.8143
 2997SOL     OW20644   8.594   2.939   4.197 -0.7669 -0.1351 -0.1299
 2997SOL    HW120645   8.553   2.988   4.119  1.7204  0.0828 -1.3588
 2997SOL    HW220646   8.572   2.987   4.282  1.3721  3.0817 -1.2754
 2998SOL     OW20647   8.434   0.585   6.857  0.3964 -0.1974  0.6958
 2998SOL    HW120648   8.473   0.610   6.768  0.7056  1.0651  1.1666
 2998SOL    HW220649   8.385   0.498   6.849 -2.8169  1.6761 -1.6789
 2999SOL     OW20650   1.964   5.202   4.237  0.6661 -0.0837  0.1005
 2999SOL    HW120651   2.064   5.210   4.241  0.4978  1.7577  1.4756
 2999SOL    HW220652   1.930   5.253   4.158  0.6591  1.3418  0.9976
 3000SOL     OW20653   1.094   6.999   2.364  0.0917  0.4957 -0.0784
 3000SOL    HW120654   1.194   7.000   2.366  0.1002  0.8600 -0.7340
 3000SOL    HW220655   1.061   6.911   2.399  0.6503  0.2099 -0.2604
 3001SOL     OW20656   9.753   7.039   2.234 -0.4490 -0.0609 -0.1617
 3001SOL    HW120657   9.821   6.989   2.288 -2.6281 -1.5273  1.2903
 3001SOL    HW220658   9.684   7.077   2.295 -1.4435  0.6205 -1.7009
 3002SOL     OW20659   6.271   1.316   1.448  0.5395  0.0861  0.1399
 3002SOL    HW120660   6.355   1.273   1.415 -1.4443 -2.5192 -1.7232
 3002SOL    HW220661   6.240   1.269   1.531  1.0606  1.2568  1.0132
 3003SOL     OW20662   0.322   0.422   6.176 -0.1061  0.5044 -0.6675
 3003SOL    HW120663   0.367   0.506   6.204 -0.9100  1.5182 -2.3485
 3003SOL    HW220664   0.227   0.423   6.206  0.0788 -0.1516 -0.0363
 3004SOL     OW20665   2.785   3.254   3.112  0.0970 -0.3527 -0.2709
 3004SOL    HW120666   2.837   3.234   3.196 -0.9373 -1.4562  0.1259
 3004SOL    HW220667   2.739   3.341   3.122  0.8534  0.0399 -0.1271
 3005SOL     OW20668   2.554   9.704   4.155 -0.3320 -0.0364 -0.9639
 3005SOL    HW120669   2.464   9.667   4.179 -0.8428  1.2476 -0.8888
 3005SOL    HW220670   2.623   9.668   4.218 -1.2127  1.0885  0.6754
 3006SOL     OW20671   8.263   1.515   6.444  1.0989  0.7187  0.4500
 3006SOL    HW120672   8.209   1.432   6.458  3.4976 -1.0934 -0.6103
 3006SOL    HW220673   8.203   1.590   6.419 -0.9019 -1.2553 -0.8284
 3007SOL     OW20674   9.065   5.368   6.287 -0.1141  0.0136  0.4593
 3007SOL    HW120675   8.995   5.380   6.358 -0.4615 -0.7121  0.2542
 3007SOL    HW220676   9.042   5.425   6.208 -1.4435 -1.5099 -0.2967
 3008SOL     OW20677   9.675   6.024   7.846  0.0977  0.3520  0.5091
 3008SOL    HW120678   9.693   5.932   7.811  1.6114  1.0191 -0.5109
 3008SOL    HW220679   9.606   6.068   7.787  2.8177  1.5607 -1.9055
 3009SOL     OW20680   9.569   0.587   4.467 -0.5920  0.9491 -0.6107
 3009SOL    HW120681   9.607   0.557   4.555 -0.3904 -3.8755 -2.2297
 3009SOL    HW220682   9.638   0.639   4.417  1.4552 -1.4583 -0.4101
 3010SOL     OW20683   4.562   9.179   5.667  0.2013  0.2715 -0.2728
 3010SOL    HW120684   4.560   9.079   5.659 -0.3976  0.3299 -0.9161
 3010SOL    HW220685   4.468   9.214   5.665  0.3824  0.8046  0.5283
 3011SOL     OW20686   2.673   8.163   4.332  0.2328  0.1935 -0.1270
 3011SOL    HW120687   2.664   8.225   4.411 -0.7758  0.6789 -0.6116
 3011SOL    HW220688   2.585   8.118   4.315  0.1268  0.9504 -1.6759
 3012SOL     OW20689   6.360   1.394   2.367 -0.6812 -0.0029 -0.0028
 3012SOL    HW120690   6.348   1.362   2.461  0.3310 -0.6136 -0.0694
 3012SOL    HW220691   6.344   1.317   2.304 -1.0506  0.3283 -0.3181
 3013SOL     OW20692   1.635   0.123   4.229 -0.1093 -0.2169 -0.3209
 3013SOL    HW120693   1.580   0.072   4.163 -2.4495  1.0510  0.5921
 3013SOL    HW220694   1.702   0.062   4.272 -1.0842 -1.8883 -1.1350
 3014SOL     OW20695   7.386   4.712   3.081  0.0810 -0.3453  0.6144
 3014SOL    HW120696   7.382   4.657   2.998  0.2350 -0.8669  0.9528
 3014SOL    HW220697   7.303   4.769   3.087 -0.3018 -0.8892  0.5126
 3015SOL     OW20698   0.906   6.874   0.321 -0.0648  0.2728 -0.1651
 3015SOL    HW120699   0.913   6.779   0.289 -3.2867 -0.5790  1.4747
 3015SOL    HW220700   0.978   6.891   0.389  2.1137 -0.1751 -2.2907
 3016SOL     OW20701   5.683   2.447   3.794  0.1035 -0.5288  0.1366
 3016SOL    HW120702   5.622   2.372   3.820  0.5475 -1.0779 -0.4097
 3016SOL    HW220703   5.734   2.422   3.712 -2.5637  1.8939 -2.3903
 3017SOL     OW20704   1.519   0.450   3.574 -0.2633  0.0613 -0.0404
 3017SOL    HW120705   1.425   0.428   3.547 -0.5243  1.1552 -0.0248
 3017SOL    HW220706   1.576   0.458   3.493 -0.0125 -1.3162 -0.0193
 3018SOL     OW20707   3.266   2.595   7.248 -0.1393  0.5576 -0.0871
 3018SOL    HW120708   3.241   2.501   7.271  0.0318  0.6552  0.5218
 3018SOL    HW220709   3.253   2.611   7.150  0.2747 -0.2369 -0.2772
 3019SOL     OW20710   7.558   0.722   4.922 -0.0384 -0.2807 -0.2469
 3019SOL    HW120711   7.459   0.735   4.927  0.0677  0.7745 -0.6555
 3019SOL    HW220712   7.579   0.638   4.873 -0.7307 -0.3635 -0.4017
 3020SOL     OW20713   2.691   2.609   4.348  0.3139  0.0838 -0.2016
 3020SOL    HW120714   2.788   2.610   4.324  0.2520 -1.0227 -0.5311
 3020SOL    HW220715   2.653   2.519   4.328 -0.5088  0.1479  1.0156
 3021SOL     OW20716   6.330   2.214   3.275 -0.2397 -0.6713  0.2909
 3021SOL    HW120717   6.410   2.273   3.278  0.9949 -2.2887 -0.2329
 3021SOL    HW220718   6.264   2.243   3.344 -0.1058  1.9325 -0.6365
 3022SOL     OW20719   1.427   1.994   1.805 -0.1404 -0.3075 -0.2502
 3022SOL    HW120720   1.374   1.922   1.850 -0.9584  1.2237  1.2792
 3022SOL    HW220721   1.396   2.004   1.711 -1.0071 -0.9693 -0.0386
 3023SOL     OW20722   5.755   0.665   6.023  0.2226 -0.3479  0.5762
 3023SOL    HW120723   5.773   0.763   6.016 -1.0043 -0.1641 -0.2802
 3023SOL    HW220724   5.776   0.633   6.115  0.2522  0.8100  0.9727
 3024SOL     OW20725   8.946   9.628   3.939 -0.0167  0.3526  0.3513
 3024SOL    HW120726   8.939   9.727   3.931  0.1027  0.3965  0.7699
 3024SOL    HW220727   8.985   9.590   3.855  1.4459  0.8278  0.7976
 3025SOL     OW20728   4.504   4.950   3.730  0.2680  0.1136 -0.6184
 3025SOL    HW120729   4.436   4.951   3.803  0.2200  0.5229 -0.6713
 3025SOL    HW220730   4.491   5.029   3.670  2.2710  1.5006  0.7199
 3026SOL     OW20731   1.044   5.648   1.930  0.2284 -0.8590 -0.2743
 3026SOL    HW120732   1.045   5.550   1.911 -2.3528 -1.0585  0.4232
 3026SOL    HW220733   0.949   5.681   1.929  1.0283  1.5308 -0.0011
 3027SOL     OW20734   7.612   9.472   6.464  0.0062  0.6708  0.0144
 3027SOL    HW120735   7.617   9.403   6.536  0.2229  0.7271  0.0528
 3027SOL    HW220736   7.519   9.475   6.428 -0.6131  1.9662  1.6163
 3028SOL     OW20737   4.773   0.751   3.460 -0.2706  0.0822 -0.4141
 3028SOL    HW120738   4.685   0.709   3.439  0.0193 -1.5369  1.4252
 3028SOL    HW220739   4.757   0.836   3.512 -0.7628 -0.0227 -0.3867
 3029SOL     OW20740   2.607   9.514   7.608  0.4108 -0.0348  0.7653
 3029SOL    HW120741   2.547   9.438   7.583 -0.4406  0.3083  1.7336
 3029SOL    HW220742   2.589   9.591   7.546  0.5563 -0.2772  0.4227
 3030SOL     OW20743   1.259   0.221   2.028 -0.4740 -0.3422  0.6969
 3030SOL    HW120744   1.236   0.166   2.108  1.8507  0.8667  2.2672
 3030SOL    HW220745   1.182   0.281   2.006 -1.9267 -2.1558  0.7117
 3031SOL     OW20746   9.547   3.748   6.391 -0.2761 -0.2279  0.4473
 3031SOL    HW120747   9.511   3.785   6.477 -2.6659 -3.0969  0.7779
 3031SOL    HW220748   9.569   3.824   6.330  0.3801  1.8468  3.1174
 3032SOL     OW20749   7.366   2.895   2.125 -0.3839  0.2902  0.6276
 3032SOL    HW120750   7.338   2.850   2.209 -0.3832 -0.2861  0.3228
 3032SOL    HW220751   7.347   2.836   2.047 -1.3535  1.2543  0.1256
 3033SOL     OW20752   8.251   8.828   3.686 -0.2330  0.3632  0.2592
 3033SOL    HW120753   8.219   8.745   3.733 -1.0765  1.5716  1.8718
 3033SOL    HW220754   8.340   8.809   3.644 -1.6440 -2.1400 -1.7143
 3034SOL     OW20755   3.288   3.167   6.368 -0.1510 -0.2948 -0.0349
 3034SOL    HW120756   3.216   3.230   6.393  0.1156 -0.1877  0.4616
 3034SOL    HW220757   3.343   3.206   6.294  1.3983  1.0431  1.7762
 3035SOL     OW20758   4.922   1.611   7.919  0.1432 -0.2706 -0.2929
 3035SOL    HW120759   4.973   1.570   7.844  1.7573 -0.3451  0.8236
 3035SOL    HW220760   4.919   1.548   7.997 -3.2257 -1.0073 -0.9658
 3036SOL     OW20761   7.833   3.297   4.828  0.3605 -0.1768 -0.1191
 3036SOL    HW120762   7.878   3.299   4.739  0.9997  0.4072  0.2088
 3036SOL    HW220763   7.807   3.203   4.850 -0.4378 -0.2247 -1.2311
 3037SOL     OW20764   1.551   2.393   6.876 -0.3781  0.2747  0.0482
 3037SOL    HW120765   1.458   2.355   6.882 -0.3466  0.3030  0.7473
 3037SOL    HW220766   1.618   2.319   6.890 -0.3065  0.4158  0.4577
 3038SOL     OW20767   3.409   5.552   7.552  0.8608 -0.3683  0.3773
 3038SOL    HW120768   3.415   5.460   7.591  0.0571  0.5426  2.6913
 3038SOL    HW220769   3.494   5.601   7.569  0.1025  0.4040  1.9549
 3039SOL     OW20770   5.220   1.919   0.868  0.6373 -0.1000 -0.1893
 3039SOL    HW120771   5.267   1.887   0.786 -0.0863  0.1888 -0.7163
 3039SOL    HW220772   5.270   1.995   0.908  2.0191 -1.4434  0.7001
 3040SOL     OW20773   3.610   7.498   3.877 -0.0902  0.0491  0.4608
 3040SOL    HW120774   3.576   7.590   3.856 -0.9801 -0.6779 -1.4621
 3040SOL    HW220775   3.626   7.490   3.975 -1.3707  1.8027  0.8513
 3041SOL     OW20776   1.791   5.037   2.787  0.0712 -0.2137 -0.1612
 3041SOL    HW120777   1.879   5.059   2.745 -0.4181 -0.2437 -1.1968
 3041SOL    HW220778   1.764   5.112   2.848  0.2733  0.3038 -0.7074
 3042SOL     OW20779   2.080   3.672   4.140 -0.1220 -0.2760  0.7405
 3042SOL    HW120780   2.134   3.743   4.185  0.1741 -0.0802  0.0842
 3042SOL    HW220781   1.996   3.657   4.191 -0.1253  0.4532  0.9632
 3043SOL     OW20782   1.003   0.583   3.373  0.2344 -0.6383  0.1962
 3043SOL    HW120783   1.089   0.539   3.348  2.0275  3.5182 -1.2404
 3043SOL    HW220784   0.945   0.592   3.292 -0.1378 -0.3864  0.4884
 3044SOL     OW20785   0.203   4.363   5.674  0.7115 -0.0643 -0.6349
 3044SOL    HW120786   0.128   4.306   5.707  1.5797 -0.6998  0.2731
 3044SOL    HW220787   0.166   4.443   5.628 -0.5281 -1.5724 -2.3346
 3045SOL     OW20788   8.352   1.647   3.046  0.0055  0.5861  0.8942
 3045SOL    HW120789   8.261   1.653   3.087  0.1997  1.1234  1.2538
 3045SOL    HW220790   8.359   1.563   2.993 -0.4356  0.1690  1.5000
 3046SOL     OW20791   5.935   7.622   5.236 -0.1621 -0.0322  0.7970
 3046SOL    HW120792   5.965   7.683   5.164  0.0320  1.9496  2.5073
 3046SOL    HW220793   5.841   7.592   5.218 -0.0390  0.2875 -0.3749
 3047SOL     OW20794   1.844   4.654   4.274 -0.3896  0.5997  0.2243
 3047SOL    HW120795   1.882   4.574   4.321 -2.3660 -1.1050 -0.9908
 3047SOL    HW220796   1.916   4.722   4.259  1.4054 -1.1107  0.9249
 3048SOL     OW20797   8.142   5.241   4.371 -0.1316  0.1399  0.5055
 3048SOL    HW120798   8.148   5.298   4.453  0.5326  0.3666  0.3028
 3048SOL    HW220799   8.140   5.299   4.290  1.3037 -0.1322  0.2585
 3049SOL     OW20800   8.370   6.736   5.882  0.3187  0.0630  0.1942
 3049SOL    HW120801   8.443   6.803   5.870  0.4179  0.2558  1.7179
 3049SOL    HW220802   8.288   6.766   5.833 -0.1956  2.2222  2.2807
 3050SOL     OW20803   7.816   9.267   0.215 -0.0667  0.1817 -0.2372
 3050SOL    HW120804   7.751   9.309   0.279 -0.7457 -1.7360  0.3653
 3050SOL    HW220805   7.792   9.293   0.121 -1.1880  0.1922  0.0434
 3051SOL     OW20806   3.559   0.836   4.848  0.2530  0.5397 -0.6269
 3051SOL    HW120807   3.461   0.852   4.859  0.2066  0.5683 -1.0833
 3051SOL    HW220808   3.606   0.924   4.833  0.4569  0.6186  0.3903
 3052SOL     OW20809   9.807   3.938   5.993 -0.5919  0.4120  0.4358
 3052SOL    HW120810   9.727   3.878   6.008 -0.7255  0.5168  0.1419
 3052SOL    HW220811   9.793   3.991   5.910 -0.2303  0.4601  0.4068
 3053SOL     OW20812   1.074   9.930   6.555 -0.1228  0.0935  0.1019
 3053SOL    HW120813   1.010   9.950   6.481  1.4526  0.0298 -1.2811
 3053SOL    HW220814   1.101  10.015   6.600 -0.0680  0.2532 -0.2354
 3054SOL     OW20815   3.654   7.536   6.423  0.4730  0.4682 -0.1490
 3054SOL    HW120816   3.687   7.474   6.352  0.2435  0.2219 -0.0400
 3054SOL    HW220817   3.568   7.501   6.461 -0.8783  2.0704 -1.6815
 3055SOL     OW20818   8.547   3.887   5.960  0.2656  0.1126  0.2116
 3055SOL    HW120819   8.575   3.923   5.871 -0.4884  0.6635  0.1897
 3055SOL    HW220820   8.555   3.788   5.960 -2.3047 -0.1187 -1.3850
 3056SOL     OW20821   3.145   0.853   2.547  0.2046  0.0391  1.0898
 3056SOL    HW120822   3.109   0.769   2.506  2.1879 -1.5173  2.4129
 3056SOL    HW220823   3.167   0.836   2.643  1.1428  1.9146  1.2263
 3057SOL     OW20824   7.328   7.429   3.247  0.2787 -0.0881 -0.5101
 3057SOL    HW120825   7.339   7.526   3.226  1.8649 -0.1681 -0.0932
 3057SOL    HW220826   7.277   7.420   3.333 -1.8295  0.3135 -1.6828
 3058SOL     OW20827   8.204   0.278   0.849 -0.1476  0.6337 -0.2557
 3058SOL    HW120828   8.130   0.345   0.844 -1.3796 -0.7530 -1.4624
 3058SOL    HW220829   8.206   0.226   0.764 -0.2049 -1.8620  1.2280
 3059SOL     OW20830   2.085   2.738   4.813  0.3773 -0.0800  0.0533
 3059SOL    HW120831   1.993   2.746   4.852 -0.2195 -0.8570 -1.1914
 3059SOL    HW220832   2.084   2.767   4.718  1.3676 -0.3908 -0.0586
 3060SOL     OW20833   7.340   1.643   1.127 -0.2057 -0.0830 -0.6577
 3060SOL    HW120834   7.244   1.669   1.137 -0.5005 -1.1970 -0.4782
 3060SOL    HW220835   7.390   1.674   1.208 -0.5833 -0.2300 -0.3614
 3061SOL     OW20836   8.221   7.919   1.883 -0.0529 -0.4705 -0.2661
 3061SOL    HW120837   8.195   7.991   1.819 -0.2114 -0.7304 -0.4953
 3061SOL    HW220838   8.318   7.898   1.873  0.0902  0.0066  0.0978
 3062SOL     OW20839   6.589   5.069   0.839 -0.1529 -0.7710 -0.9036
 3062SOL    HW120840   6.644   4.994   0.875  0.4041 -0.4176 -1.0178
 3062SOL    HW220841   6.550   5.043   0.751 -1.0132 -1.4055 -0.3365
 3063SOL     OW20842   8.384   8.309   2.239 -0.4553 -0.2674  0.3558
 3063SOL    HW120843   8.373   8.310   2.339 -1.4599 -1.2832  0.2585
 3063SOL    HW220844   8.294   8.316   2.196 -0.0302  0.0146 -0.4903
 3064SOL     OW20845   0.726   5.079   3.611  0.4665  0.1306 -0.3787
 3064SOL    HW120846   0.722   5.176   3.636  0.3077  0.1166 -0.3536
 3064SOL    HW220847   0.650   5.030   3.654  0.5426 -0.0042 -0.3972
 3065SOL     OW20848   5.019   9.678   3.266  0.0467 -0.6273 -0.1301
 3065SOL    HW120849   4.957   9.709   3.194 -0.1214  0.7070  0.5772
 3065SOL    HW220850   5.100   9.737   3.269  1.4306 -2.4417 -1.1343
 3066SOL     OW20851   7.446   9.832   3.095  0.0138 -0.0527 -0.2729
 3066SOL    HW120852   7.532   9.789   3.120  1.2696  1.3727 -1.9719
 3066SOL    HW220853   7.464   9.918   3.047 -2.3415 -0.2621 -1.6438
 3067SOL     OW20854   8.425   0.221   1.580  0.0309  0.2116  0.2950
 3067SOL    HW120855   8.342   0.273   1.557 -0.4969 -1.2887 -1.2028
 3067SOL    HW220856   8.505   0.280   1.568 -0.7404  1.4913  1.1889
 3068SOL     OW20857   2.814   6.355   2.380 -0.2075  0.3326 -0.2611
 3068SOL    HW120858   2.822   6.357   2.281  0.7386 -1.2148 -0.2249
 3068SOL    HW220859   2.815   6.449   2.416 -0.4313  0.8841 -1.6861
 3069SOL     OW20860   9.747   8.928   2.951  0.1213  0.6488  0.2743
 3069SOL    HW120861   9.683   9.003   2.964 -1.6462 -0.7815  0.0741
 3069SOL    HW220862   9.707   8.843   2.987  1.0432 -0.6577 -1.6512
 3070SOL     OW20863   3.412   1.056   6.793  0.1890 -0.8091 -0.2655
 3070SOL    HW120864   3.351   0.993   6.745 -0.2408  0.5575 -1.5259
 3070SOL    HW220865   3.406   1.038   6.891 -0.9246 -1.8454 -0.4984
 3071SOL     OW20866   9.325   1.983   5.912  0.1689  0.0408 -0.0037
 3071SOL    HW120867   9.388   1.920   5.864 -0.0856 -2.2870  2.5889
 3071SOL    HW220868   9.237   1.982   5.865  0.8883  0.3689 -1.4171
 3072SOL     OW20869   1.775   1.515   7.084  0.2006 -0.5946 -0.6713
 3072SOL    HW120870   1.691   1.479   7.124  1.3983 -0.4593  2.1342
 3072SOL    HW220871   1.754   1.592   7.025 -1.7884 -1.6613 -1.3968
 3073SOL     OW20872   7.182   2.786   0.906 -0.3192 -0.3558 -0.3366
 3073SOL    HW120873   7.179   2.726   0.986  0.1628  0.8263  0.5925
 3073SOL    HW220874   7.089   2.801   0.872 -0.6706  0.1578  0.8066
 3074SOL     OW20875   8.358   9.075   7.324  0.0144  0.2136 -0.1887
 3074SOL    HW120876   8.309   9.160   7.345 -1.7081 -1.0397  1.0808
 3074SOL    HW220877   8.449   9.096   7.290 -1.4186  2.6432 -2.6685
 3075SOL     OW20878   6.009   0.742   4.821  0.0953  0.3408  0.4086
 3075SOL    HW120879   5.952   0.677   4.769  2.7073 -1.3449 -0.4473
 3075SOL    HW220880   5.981   0.741   4.917 -1.0624 -0.7316  0.0842
 3076SOL     OW20881   9.685   6.161   5.617  0.1583 -1.0049 -0.3172
 3076SOL    HW120882   9.597   6.139   5.657 -0.5278 -1.3100 -1.9571
 3076SOL    HW220883   9.759   6.133   5.679 -0.8735 -1.2467  0.8084
 3077SOL     OW20884   3.870   9.666   0.696 -0.0585 -0.1174  0.2287
 3077SOL    HW120885   3.890   9.750   0.746  0.1135 -1.3036  2.1799
 3077SOL    HW220886   3.952   9.610   0.690 -0.6548 -1.0457  0.6567
 3078SOL     OW20887   3.726   4.451   3.253  1.2119 -0.4327  0.4824
 3078SOL    HW120888   3.796   4.398   3.302  0.3260 -1.7903  0.3168
 3078SOL    HW220889   3.677   4.390   3.190  0.3249  0.6497  0.1163
 3079SOL     OW20890   1.508   1.453   0.349  0.0868  0.1939 -0.4461
 3079SOL    HW120891   1.582   1.394   0.380  0.2080 -0.3347 -1.7110
 3079SOL    HW220892   1.523   1.478   0.254  0.3006  2.6947  0.2059
 3080SOL     OW20893   0.008   4.963   7.417  0.4134  0.0875  0.1161
 3080SOL    HW120894  -0.001   5.028   7.492  1.2029  1.9984 -1.4054
 3080SOL    HW220895  -0.052   4.885   7.433  0.9488  0.1958  2.9744
 3081SOL     OW20896   3.459   9.166   4.505  0.1746  0.2539 -0.8244
 3081SOL    HW120897   3.402   9.118   4.572  0.5692 -0.6600 -1.1342
 3081SOL    HW220898   3.512   9.237   4.551 -0.1585  0.1638 -0.3006
 3082SOL     OW20899   2.906   4.888   3.685  0.0246  0.1107 -0.4925
 3082SOL    HW120900   2.925   4.790   3.675  1.2815 -0.0869  3.2836
 3082SOL    HW220901   2.987   4.935   3.720 -1.8303  1.7730  1.7459
 3083SOL     OW20902   6.117   0.867   5.968  0.2750 -0.5798 -0.0449
 3083SOL    HW120903   6.198   0.881   5.911 -0.4017 -0.4071 -0.9875
 3083SOL    HW220904   6.142   0.875   6.064  1.1930  0.4551 -0.3549
 3084SOL     OW20905   4.149   4.107   3.174 -0.1326  0.1571 -0.1891
 3084SOL    HW120906   4.092   4.068   3.101 -1.1950 -1.3779  1.4165
 3084SOL    HW220907   4.233   4.144   3.134 -0.8225 -0.3847 -2.2220
 3085SOL     OW20908   2.130   7.735   6.959  0.4427  0.0204  0.2044
 3085SOL    HW120909   2.135   7.701   7.053  1.4306  0.5699  0.3566
 3085SOL    HW220910   2.221   7.760   6.927  0.1861 -0.6753 -1.1067
 3086SOL     OW20911   4.054   4.262   4.614  0.0557  0.4747 -0.1106
 3086SOL    HW120912   3.997   4.217   4.682  0.4980 -0.1646 -0.1551
 3086SOL    HW220913   4.038   4.220   4.524  0.0051  0.8344 -0.2735
 3087SOL     OW20914   0.916   9.299   0.342  0.1546 -0.0662  0.5045
 3087SOL    HW120915   0.904   9.395   0.369  1.5289  0.3499 -0.2949
 3087SOL    HW220916   0.827   9.257   0.327 -0.4157  2.0537 -2.4031
 3088SOL     OW20917   6.342   7.830   3.733  0.2914  0.7870 -0.8505
 3088SOL    HW120918   6.266   7.778   3.695  0.3695 -0.4450  0.6490
 3088SOL    HW220919   6.341   7.824   3.833  2.7064  0.2086 -0.8234
 3089SOL     OW20920   0.083   6.122   7.134 -0.3129  0.8648 -0.0364
 3089SOL    HW120921   0.105   6.032   7.172  2.0054  1.0391 -0.8722
 3089SOL    HW220922   0.017   6.111   7.060 -1.0434 -0.0069  0.7354
 3090SOL     OW20923   8.178   6.393   4.577 -0.1406  0.1203  0.0108
 3090SOL    HW120924   8.202   6.433   4.665 -2.0557  2.4539 -0.4813
 3090SOL    HW220925   8.158   6.296   4.588  2.2317 -0.2216  1.6522
 3091SOL     OW20926   3.460   5.425   1.169  0.6712 -0.3571  0.3428
 3091SOL    HW120927   3.396   5.500   1.156  1.0127 -0.4121 -1.9378
 3091SOL    HW220928   3.496   5.426   1.262  0.9062  2.4761  0.2477
 3092SOL     OW20929   9.645   4.481   3.617 -0.2803  0.1355  0.0592
 3092SOL    HW120930   9.680   4.435   3.535  0.0060 -1.4810  1.0582
 3092SOL    HW220931   9.608   4.570   3.592 -1.8635 -1.0781 -2.1178
 3093SOL     OW20932   2.420   2.246   6.000 -0.3380 -0.0212 -0.5816
 3093SOL    HW120933   2.401   2.342   6.023 -2.6135 -0.9122  1.4390
 3093SOL    HW220934   2.366   2.220   5.920 -1.0810 -0.1079 -0.0568
 3094SOL     OW20935   1.797   5.168   4.921 -0.3607 -0.0677 -0.0678
 3094SOL    HW120936   1.698   5.161   4.911 -0.4655  0.8204  0.3188
 3094SOL    HW220937   1.838   5.077   4.907 -1.0836 -0.1721 -1.6396
 3095SOL     OW20938   1.795   7.038   2.815  0.1192  0.2132  0.6309
 3095SOL    HW120939   1.779   7.115   2.753  0.5179 -1.2059 -1.2908
 3095SOL    HW220940   1.812   7.072   2.907 -3.2623  2.2711  0.6007
 3096SOL     OW20941   0.764   3.857   3.278 -0.3584 -0.2704  0.0079
 3096SOL    HW120942   0.820   3.872   3.359  2.1452 -1.8779 -1.3519
 3096SOL    HW220943   0.771   3.937   3.217 -0.8533  0.2124  0.5851
 3097SOL     OW20944   1.291   5.989   7.694 -0.0809  0.1293  0.0317
 3097SOL    HW120945   1.231   5.954   7.766  0.5963 -0.2263  0.4232
 3097SOL    HW220946   1.303   5.920   7.623 -0.1456  0.2038 -0.0516
 3098SOL     OW20947   1.069   3.762   8.040 -0.7634 -0.4756  0.0750
 3098SOL    HW120948   1.050   3.747   7.943 -0.1950 -1.3970  0.0967
 3098SOL    HW220949   1.047   3.856   8.064  2.0787  0.7124 -1.6929
 3099SOL     OW20950   5.223   1.078   3.884  0.1394 -0.5151  0.3618
 3099SOL    HW120951   5.319   1.103   3.892 -0.6447  2.5696  0.8296
 3099SOL    HW220952   5.200   1.060   3.789  0.7902  0.3952  0.0333
 3100SOL     OW20953   8.798   3.142   6.760  0.1912  0.0080 -0.1819
 3100SOL    HW120954   8.774   3.129   6.856 -0.4797  1.7060 -0.1141
 3100SOL    HW220955   8.757   3.226   6.726 -0.8317 -1.3262 -2.3800
 3101SOL     OW20956   0.993   8.875   3.232  0.3804 -0.5891 -0.0493
 3101SOL    HW120957   0.908   8.826   3.249  0.2793 -0.3385  0.1777
 3101SOL    HW220958   1.055   8.863   3.309  0.1033  0.1660  0.2936
 3102SOL     OW20959   2.250   2.684   1.818 -0.1868  0.1276 -0.0515
 3102SOL    HW120960   2.287   2.672   1.910  0.4549  1.0055 -0.1943
 3102SOL    HW220961   2.172   2.746   1.821  0.0923  0.4816 -0.1643
 3103SOL     OW20962   2.273   9.150   3.056  0.1583 -0.6537  0.4829
 3103SOL    HW120963   2.204   9.212   3.019 -0.5364 -0.2801  2.3453
 3103SOL    HW220964   2.290   9.172   3.152  1.4471 -2.0067  0.5915
 3104SOL     OW20965   0.026   4.940   1.198  0.0504  0.0568 -0.7580
 3104SOL    HW120966  -0.040   4.946   1.273  0.3042  2.3718 -0.6556
 3104SOL    HW220967   0.006   4.861   1.141 -1.7270 -0.2613  0.2769
 3105SOL     OW20968   3.002   8.088   3.378 -0.6233  0.3658  0.2628
 3105SOL    HW120969   3.032   8.050   3.465  0.3114  0.3452 -0.0566
 3105SOL    HW220970   2.984   8.013   3.313  0.2683  0.4202 -0.0612
 3106SOL     OW20971   8.816   1.116   3.595  0.2979  0.2439 -0.3070
 3106SOL    HW120972   8.838   1.213   3.585 -2.7388  0.9758 -0.5442
 3106SOL    HW220973   8.770   1.083   3.513 -0.7289 -0.7910  0.6554
 3107SOL     OW20974   9.000   7.154   6.559  0.3151 -0.1936 -0.1252
 3107SOL    HW120975   9.020   7.091   6.634  1.8907  0.5205  0.0790
 3107SOL    HW220976   8.930   7.114   6.499 -0.9704 -0.7595  1.7209
 3108SOL     OW20977   0.501   7.747   1.214 -0.7632 -0.3813  0.4277
 3108SOL    HW120978   0.504   7.671   1.150 -0.9693  0.3120 -0.4146
 3108SOL    HW220979   0.526   7.832   1.167 -0.0050 -0.0051  1.4735
 3109SOL     OW20980   1.005   1.410   2.118 -0.2071  0.4176  0.5422
 3109SOL    HW120981   0.973   1.316   2.129 -1.2563  1.0027  2.8619
 3109SOL    HW220982   0.976   1.445   2.029  1.0856 -1.7690 -0.7810
 3110SOL     OW20983   3.717   1.564   2.502  0.0686  0.3477 -0.3571
 3110SOL    HW120984   3.802   1.598   2.543  0.3039 -0.1791 -0.4069
 3110SOL    HW220985   3.738   1.505   2.425 -0.3663  0.8280 -0.8454
 3111SOL     OW20986   6.517   9.950   5.126 -0.4774 -0.3955  0.3660
 3111SOL    HW120987   6.584  10.024   5.114 -0.2290 -0.8205 -0.9489
 3111SOL    HW220988   6.426   9.989   5.137 -0.0517  0.1854  1.9998
 3112SOL     OW20989   7.017   1.734   5.290  0.0929 -0.6428 -0.2457
 3112SOL    HW120990   7.101   1.711   5.242 -0.3387 -0.0545 -1.3068
 3112SOL    HW220991   7.035   1.808   5.355  0.1261  0.3891 -1.4140
 3113SOL     OW20992   0.097   4.282   6.733 -0.2291 -0.5075 -0.1394
 3113SOL    HW120993   0.019   4.325   6.688 -0.1779 -1.5724 -1.2842
 3113SOL    HW220994   0.112   4.325   6.822  0.8208  2.8953 -1.8743
 3114SOL     OW20995   2.129   5.217   8.099  0.1781 -0.1206  0.4463
 3114SOL    HW120996   2.183   5.296   8.069 -1.4716  0.5690 -0.8131
 3114SOL    HW220997   2.104   5.229   8.195 -0.5366  1.1943  0.1150
 3115SOL     OW20998   8.690   3.557   2.072 -0.1333 -0.2000  0.7024
 3115SOL    HW120999   8.645   3.488   2.014 -1.1619 -0.2073  1.4923
 3115SOL    HW221000   8.789   3.549   2.062 -0.2596 -1.2926  0.1943
 3116SOL     OW21001   8.550   8.089   4.986 -0.0518  0.1808 -0.1998
 3116SOL    HW121002   8.569   8.175   4.938 -0.7762  0.8145  0.6331
 3116SOL    HW221003   8.586   8.095   5.079  0.1634 -0.5372 -0.2415
 3117SOL     OW21004   0.534   3.378   1.446 -0.4860 -0.0637  0.4146
 3117SOL    HW121005   0.456   3.330   1.405 -0.2768  1.5916 -2.0080
 3117SOL    HW221006   0.593   3.312   1.492 -1.3207 -1.8514 -1.0106
 3118SOL     OW21007   8.183   3.289   7.899  0.3458 -0.0484  0.6725
 3118SOL    HW121008   8.117   3.363   7.914  0.5867  0.4415 -0.6508
 3118SOL    HW221009   8.214   3.254   7.988 -0.1982  1.0465  1.3073
 3119SOL     OW21010   9.776   4.880   4.271 -0.5463 -0.1767 -0.0465
 3119SOL    HW121011   9.703   4.853   4.333 -2.5473 -0.3241 -2.3973
 3119SOL    HW221012   9.786   4.980   4.273  0.8774 -0.3231  2.0664
 3120SOL     OW21013   4.625   0.635   0.106 -0.4583 -0.2145 -0.3760
 3120SOL    HW121014   4.618   0.537   0.086 -1.4859 -0.4160  0.8929
 3120SOL    HW221015   4.575   0.655   0.190  1.4222  1.0644  0.4720
 3121SOL     OW21016   9.627   5.334   6.900  0.3862  0.3718  0.0351
 3121SOL    HW121017   9.718   5.301   6.927  0.0562  0.4857  1.2991
 3121SOL    HW221018   9.585   5.269   6.837  0.0526 -1.2327  1.8970
 3122SOL     OW21019   1.378   2.978   5.843  0.2186 -0.0549  0.0510
 3122SOL    HW121020   1.357   3.069   5.879  2.6105  0.9490 -0.9477
 3122SOL    HW221021   1.355   2.909   5.912 -0.4865  1.3939  1.3070
 3123SOL     OW21022   1.647   7.171   5.403  0.0863 -0.0654  0.2036
 3123SOL    HW121023   1.696   7.110   5.466  0.2142 -0.2303 -0.0579
 3123SOL    HW221024   1.587   7.117   5.344 -2.4171  0.3306  2.2806
 3124SOL     OW21025   0.014   2.478   1.800  0.0338  0.2998  0.2463
 3124SOL    HW121026  -0.062   2.542   1.793  0.3616  0.5109 -1.6248
 3124SOL    HW221027   0.097   2.519   1.762  0.3184 -1.0982 -0.6924
 3125SOL     OW21028   4.654   9.211   3.882 -0.0070  0.2970  0.2300
 3125SOL    HW121029   4.611   9.149   3.816  0.7545  0.9297 -0.8634
 3125SOL    HW221030   4.602   9.209   3.967 -0.6190 -1.0267 -0.1543
 3126SOL     OW21031   1.191   8.085   3.315 -0.5773 -0.0615 -0.1761
 3126SOL    HW121032   1.111   8.130   3.354 -0.7755 -2.5217  2.4541
 3126SOL    HW221033   1.188   7.987   3.336  1.5962 -0.7143 -2.6688
 3127SOL     OW21034   2.218   9.599   0.583  0.1657 -0.4147  0.1296
 3127SOL    HW121035   2.247   9.563   0.672  1.1880 -0.4945 -0.2347
 3127SOL    HW221036   2.219   9.699   0.586  1.2816 -0.4205 -0.1495
 3128SOL     OW21037   4.370   5.986   1.348  0.6467 -0.0810 -0.7522
 3128SOL    HW121038   4.459   6.017   1.380  0.2723  1.2449 -0.9482
 3128SOL    HW221039   4.366   5.993   1.248 -0.4740  2.1692 -0.5973
 3129SOL     OW21040   0.687   4.585   6.159 -0.1140 -0.1885  0.3694
 3129SOL    HW121041   0.668   4.681   6.177  0.0670 -0.2732  1.0203
 3129SOL    HW221042   0.664   4.531   6.240 -1.8717 -0.9142 -0.5811
 3130SOL     OW21043   0.177   2.132   2.229  0.3540  0.0272  0.1579
 3130SOL    HW121044   0.209   2.162   2.319 -2.4435  2.6311  0.3727
 3130SOL    HW221045   0.085   2.094   2.237  0.8719 -1.6278 -1.3415
 3131SOL     OW21046   7.348   2.986   0.349  0.5097  0.1779  0.2837
 3131SOL    HW121047   7.321   3.065   0.406 -1.1604 -0.0335 -0.1893
 3131SOL    HW221048   7.284   2.911   0.365 -0.2641  0.2778 -2.2376
 3132SOL     OW21049   2.793   0.905   6.161  0.5085 -0.5782  0.0101
 3132SOL    HW121050   2.839   0.847   6.228 -0.3679 -0.7367  0.4866
 3132SOL    HW221051   2.856   0.975   6.129  1.3814 -1.4022 -0.0920
 3133SOL     OW21052   8.918   5.222   7.122  1.0460 -0.1022  0.3703
 3133SOL    HW121053   8.839   5.172   7.087  0.2061  1.2859  0.2282
 3133SOL    HW221054   8.993   5.159   7.138  0.6769 -1.1339 -1.7202
 3134SOL     OW21055   9.038   9.104   6.996 -0.3459  1.1241  0.0409
 3134SOL    HW121056   9.041   9.201   7.020  1.3783  1.2933 -0.7687
 3134SOL    HW221057   8.945   9.069   7.008 -1.2198  3.1403 -0.6990
 3135SOL     OW21058   0.653   4.990   6.871 -0.7145 -0.3681 -0.5453
 3135SOL    HW121059   0.575   5.022   6.924 -1.0185  0.6283 -1.5766
 3135SOL    HW221060   0.638   5.010   6.774  1.5989  1.4869 -0.5679
 3136SOL     OW21061   3.779   8.831   6.104  0.0517 -0.4229  0.0052
 3136SOL    HW121062   3.782   8.811   6.202  1.1763  0.3084  0.1384
 3136SOL    HW221063   3.751   8.927   6.091 -2.5453 -1.2097 -0.5002
 3137SOL     OW21064   8.520   7.848   5.429 -0.9646  0.4387 -0.5846
 3137SOL    HW121065   8.428   7.843   5.468 -0.9232  0.8263 -0.4445
 3137SOL    HW221066   8.586   7.808   5.493 -0.8046  1.6970  0.0335
 3138SOL     OW21067   0.223   8.773   2.401 -0.3442  0.1785 -0.3482
 3138SOL    HW121068   0.138   8.804   2.361 -0.5429 -0.0147 -0.0790
 3138SOL    HW221069   0.217   8.777   2.501  0.3222  1.1421 -0.3406
 3139SOL     OW21070   2.863   5.470   7.495  0.4715 -0.1578 -0.4493
 3139SOL    HW121071   2.810   5.523   7.561  0.2523 -0.6854 -0.1925
 3139SOL    HW221072   2.958   5.498   7.498  0.6610 -0.8655  0.8195
 3140SOL     OW21073   6.642   7.331   4.211  0.0355  0.1210  0.2594
 3140SOL    HW121074   6.587   7.285   4.281 -1.3105  0.0570 -0.8191
 3140SOL    HW221075   6.587   7.345   4.130  1.7310 -0.2594 -0.9860
 3141SOL     OW21076   0.072   2.846   6.153 -0.3801  0.1200  0.0049
 3141SOL    HW121077   0.110   2.757   6.128  2.2310  0.9217  0.9649
 3141SOL    HW221078   0.021   2.883   6.075  0.9894 -0.8925 -1.4014
 3142SOL     OW21079   2.260   6.534   5.694  0.1222  0.8418 -0.1074
 3142SOL    HW121080   2.259   6.634   5.689 -0.3798  0.8812  0.7422
 3142SOL    HW221081   2.170   6.499   5.666  0.4196  0.6060 -0.7777
 3143SOL     OW21082   7.948   0.528   3.323 -0.0051 -0.2067 -0.4940
 3143SOL    HW121083   8.017   0.517   3.252 -0.2311 -1.2451 -0.5509
 3143SOL    HW221084   7.986   0.584   3.398  0.7037 -0.3123 -0.7702
 3144SOL     OW21085   4.948   2.145   0.535  0.4895 -0.5818  0.2207
 3144SOL    HW121086   4.917   2.236   0.505  0.2693 -0.2977  1.2917
 3144SOL    HW221087   5.041   2.152   0.571  1.1634 -1.1196 -1.3610
 3145SOL     OW21088   3.137   6.846   1.803  0.1590 -0.2966  0.3540
 3145SOL    HW121089   3.138   6.767   1.743 -0.7620  0.9318 -1.3093
 3145SOL    HW221090   3.067   6.911   1.773 -0.1310  0.4819  2.5765
 3146SOL     OW21091   0.048   6.807   7.862 -0.2043  0.4670  0.1001
 3146SOL    HW121092  -0.008   6.847   7.789 -1.1121 -0.4522  0.2783
 3146SOL    HW221093   0.076   6.715   7.836 -1.3309 -0.2339  1.2884
 3147SOL     OW21094   1.931   8.621   4.184  0.3583 -0.5608 -0.0571
 3147SOL    HW121095   1.899   8.589   4.273  0.4644 -2.5672 -0.7226
 3147SOL    HW221096   1.884   8.571   4.112  3.2228 -1.8708 -1.0834
 3148SOL     OW21097   0.817   4.036   2.235 -0.0071 -0.4011  0.0790
 3148SOL    HW121098   0.863   3.950   2.215  1.4997  0.4166 -0.0859
 3148SOL    HW221099   0.758   4.061   2.158  0.0975 -0.9283 -0.1761
 3149SOL     OW21100   4.671   2.079   0.403  0.2134  0.4168 -0.8731
 3149SOL    HW121101   4.716   2.145   0.343  2.2387 -0.6427 -0.5845
 3149SOL    HW221102   4.738   2.009   0.430 -0.8801  0.4181  1.9248
 3150SOL     OW21103   8.408   4.792   2.734 -0.4444  0.0488 -0.4911
 3150SOL    HW121104   8.489   4.851   2.740 -0.3045  0.1816 -2.8505
 3150SOL    HW221105   8.382   4.782   2.637 -3.3645  0.1700  0.2346
 3151SOL     OW21106   3.734   5.901   7.858  0.5150  0.6057 -0.0638
 3151SOL    HW121107   3.766   5.954   7.779  0.3304 -0.5981 -0.9649
 3151SOL    HW221108   3.675   5.827   7.826 -1.4665  1.5147  1.4018
 3152SOL     OW21109   2.527   1.066   1.350 -0.3436 -0.0455 -0.5550
 3152SOL    HW121110   2.433   1.070   1.383 -1.3468 -3.0363 -2.7883
 3152SOL    HW221111   2.587   1.033   1.424 -0.8594  2.6472  1.1134
 3153SOL     OW21112   9.838   1.774   0.855 -0.9195 -0.2337  0.1740
 3153SOL    HW121113   9.825   1.838   0.779 -2.9247 -0.0789  0.6229
 3153SOL    HW221114   9.815   1.820   0.941 -0.8067 -1.0721  0.6543
 3154SOL     OW21115   1.900   2.671   3.419  0.1372  0.7410  0.1296
 3154SOL    HW121116   1.941   2.594   3.469  0.3988  0.7550 -0.0624
 3154SOL    HW221117   1.972   2.724   3.374 -0.0308  1.1777  0.3695
 3155SOL     OW21118   8.473   9.010   4.138  0.1894 -0.0742  0.1700
 3155SOL    HW121119   8.535   9.050   4.071 -0.1129  0.1290  0.0128
 3155SOL    HW221120   8.513   9.018   4.230  0.5845 -0.3254  0.0184
 3156SOL     OW21121   9.351   2.367   5.958 -0.4453  0.4108 -0.4014
 3156SOL    HW121122   9.332   2.445   6.016 -0.6263  0.0449  0.0332
 3156SOL    HW221123   9.380   2.289   6.014  0.6219  0.4334 -0.9073
 3157SOL     OW21124   5.895   0.766   4.097  0.0805 -0.0065  0.2664
 3157SOL    HW121125   5.946   0.823   4.161 -0.5334  0.2132  0.5676
 3157SOL    HW221126   5.874   0.819   4.015  1.0363 -0.3473 -0.2072
 3158SOL     OW21127   1.871   7.978   0.024  0.0060  0.1141  0.0357
 3158SOL    HW121128   1.804   8.052   0.017 -0.6729 -0.1171  3.1516
 3158SOL    HW221129   1.823   7.890   0.030  0.5869 -0.1231  1.4649
 3159SOL     OW21130   3.822   2.008   4.343  0.0916 -0.6464 -0.4021
 3159SOL    HW121131   3.738   1.956   4.360 -1.0549  1.1122 -0.5581
 3159SOL    HW221132   3.895   1.945   4.317 -1.1312 -2.2261 -0.1211
 3160SOL     OW21133   1.584   1.257   0.116  0.2655  0.5658  0.1918
 3160SOL    HW121134   1.672   1.266   0.068  0.6205  1.5703  1.0088
 3160SOL    HW221135   1.535   1.344   0.112 -1.0786 -0.2292 -0.9672
 3161SOL     OW21136   2.055   2.688   6.804 -0.0180  0.1460 -0.2258
 3161SOL    HW121137   1.980   2.643   6.755 -1.1425  3.5163 -1.7172
 3161SOL    HW221138   2.023   2.716   6.894 -0.1966  0.5632 -0.4195
 3162SOL     OW21139   8.368   8.567   3.871  0.1401 -0.6407  0.1474
 3162SOL    HW121140   8.362   8.469   3.885 -3.4318 -0.5299 -0.0491
 3162SOL    HW221141   8.368   8.614   3.959  1.9229 -0.7869  0.2430
 3163SOL     OW21142   9.367   3.967   7.012 -1.0558  0.1126  0.1457
 3163SOL    HW121143   9.402   3.926   7.097  1.6547  0.1695 -0.8905
 3163SOL    HW221144   9.443   4.007   6.961 -2.9081  1.6168 -1.5020
 3164SOL     OW21145   8.418   8.564   1.655  0.0429  0.5804  0.1009
 3164SOL    HW121146   8.399   8.548   1.752 -4.8459 -0.8630 -0.9562
 3164SOL    HW221147   8.410   8.662   1.635 -2.7350  0.4798  0.5202
 3165SOL     OW21148   6.794   4.740   1.720  0.0148  0.0498 -0.1983
 3165SOL    HW121149   6.764   4.728   1.814 -0.6222  0.6903 -0.3182
 3165SOL    HW221150   6.868   4.676   1.700  0.5775  0.3533  0.9219
 3166SOL     OW21151   8.822   0.230   3.632 -0.0824 -0.5481  0.4579
 3166SOL    HW121152   8.872   0.236   3.718 -0.3047  0.2192  0.5367
 3166SOL    HW221153   8.767   0.146   3.631  0.1880 -0.7310  0.9122
 3167SOL     OW21154   9.384   8.699   2.130  0.2758  0.4140  0.6656
 3167SOL    HW121155   9.408   8.628   2.064 -2.2368  1.5225 -1.5435
 3167SOL    HW221156   9.456   8.768   2.133  1.6084 -0.9724  1.0331
 3168SOL     OW21157   9.629   3.041   3.450 -0.0492  0.5658 -1.2283
 3168SOL    HW121158   9.555   3.059   3.386 -0.7436 -0.5171 -0.7350
 3168SOL    HW221159   9.628   2.944   3.477 -0.4046  1.2096  1.1998
 3169SOL     OW21160   4.544   1.937   7.466 -0.7485 -0.5155 -0.0324
 3169SOL    HW121161   4.472   1.884   7.421  0.6228 -1.6713 -0.8941
 3169SOL    HW221162   4.597   1.986   7.398 -1.0356  0.7716  0.6502
 3170SOL     OW21163   2.460   4.201   3.291 -0.3969  0.4138 -0.0305
 3170SOL    HW121164   2.552   4.164   3.279 -0.5811  0.2008 -0.8147
 3170SOL    HW221165   2.397   4.126   3.312 -0.4640  0.5094  0.1095
 3171SOL     OW21166   3.770   7.162   1.221  0.5129 -0.0776  0.3455
 3171SOL    HW121167   3.834   7.110   1.164 -1.4749 -0.7541 -1.3065
 3171SOL    HW221168   3.724   7.099   1.284  2.3586  0.5963  2.4513
 3172SOL     OW21169   5.667   9.878   3.143 -0.1658 -0.6306 -0.6494
 3172SOL    HW121170   5.760   9.844   3.152 -0.4992 -1.3932 -0.0255
 3172SOL    HW221171   5.610   9.837   3.214 -0.8417  0.2895 -0.6634
 3173SOL     OW21172   5.264   0.390   5.164  0.1680 -0.1188 -0.1277
 3173SOL    HW121173   5.206   0.386   5.083  1.2310  0.9174 -0.9658
 3173SOL    HW221174   5.302   0.300   5.184 -1.1937 -0.6594  0.0440
 3174SOL     OW21175   1.476   1.305   5.524 -0.4410  0.0811 -0.1846
 3174SOL    HW121176   1.444   1.239   5.457  1.0683 -1.3485  0.4680
 3174SOL    HW221177   1.489   1.394   5.480 -0.1329 -0.6607 -1.6214
 3175SOL     OW21178   1.765   5.716   7.223  0.1098  0.3507  0.2284
 3175SOL    HW121179   1.697   5.770   7.172  0.4703  0.8155  0.2369
 3175SOL    HW221180   1.854   5.762   7.218  0.1491  0.3918  1.2666
 3176SOL     OW21181   0.349   3.075   0.121 -0.7678  0.5023  0.4844
 3176SOL    HW121182   0.375   3.146   0.056  0.4698 -0.0267  0.3991
 3176SOL    HW221183   0.326   3.117   0.209  0.3051  0.9846  0.5445
 3177SOL     OW21184   1.679   9.401   7.271 -0.5583  0.1446  0.4184
 3177SOL    HW121185   1.605   9.407   7.204 -0.7972 -1.7138  0.4871
 3177SOL    HW221186   1.741   9.327   7.246  0.5807  0.8538  1.0676
 3178SOL     OW21187   8.550   5.448   7.984  0.8809 -0.1069 -0.2548
 3178SOL    HW121188   8.570   5.369   7.926  0.8485  0.0017 -0.4106
 3178SOL    HW221189   8.454   5.444   8.014  1.0089 -0.3891  0.1356
 3179SOL     OW21190   3.617   7.786   3.165  0.1160  0.3363 -0.0181
 3179SOL    HW121191   3.673   7.864   3.138 -0.2714  0.5295 -0.2565
 3179SOL    HW221192   3.522   7.801   3.139  0.2416 -0.7385 -1.1649
 3180SOL     OW21193   0.280   9.566   7.908  0.8897  0.4036 -0.5578
 3180SOL    HW121194   0.336   9.525   7.981 -2.3025  0.9519  2.3221
 3180SOL    HW221195   0.242   9.494   7.851  1.8531 -0.1405 -0.5277
 3181SOL     OW21196   9.611   7.990   2.009 -0.6980  0.1657 -0.1410
 3181SOL    HW121197   9.642   7.973   2.103 -1.2271  0.1805  0.0386
 3181SOL    HW221198   9.524   7.943   1.994  0.2990 -1.3988 -1.2203
 3182SOL     OW21199   8.435   7.188   4.958 -0.3868  0.0518  0.1751
 3182SOL    HW121200   8.523   7.213   4.918  0.0341  1.2246  1.8117
 3182SOL    HW221201   8.392   7.118   4.901  1.7503 -0.8084 -0.4337
 3183SOL     OW21202   5.278   8.496   5.428  0.3705  0.3207  0.2062
 3183SOL    HW121203   5.318   8.570   5.482 -0.0556  0.5247  0.2529
 3183SOL    HW221204   5.251   8.531   5.338  1.3703 -0.0896 -0.2577
 3184SOL     OW21205   0.070   0.977   0.797  0.4874  0.3460 -0.1099
 3184SOL    HW121206   0.147   0.913   0.803  1.8888  2.0011 -0.2691
 3184SOL    HW221207   0.004   0.955   0.869 -0.1764 -2.7106 -1.5422
 3185SOL     OW21208   5.581   8.117   2.395  0.4958  0.2092 -0.1292
 3185SOL    HW121209   5.496   8.157   2.429 -0.2328 -1.4665  0.0868
 3185SOL    HW221210   5.574   8.017   2.398  2.5747  0.0483  0.1527
 3186SOL     OW21211   1.195   7.266   6.286 -0.1551  0.3186  0.5119
 3186SOL    HW121212   1.264   7.311   6.229  0.1593 -1.4434 -0.5339
 3186SOL    HW221213   1.173   7.325   6.364  1.2611  1.6531 -0.0632
 3187SOL     OW21214   3.677   8.553   6.291  0.2374 -0.1002 -0.0643
 3187SOL    HW121215   3.609   8.506   6.235 -1.4279  0.9288  1.0264
 3187SOL    HW221216   3.749   8.489   6.318  0.3640 -0.9143 -2.2439
 3188SOL     OW21217   8.101   5.786   3.973  0.3004  0.4004 -0.0080
 3188SOL    HW121218   8.165   5.735   4.032  1.1961 -0.5782 -1.7789
 3188SOL    HW221219   8.027   5.824   4.029  0.1889 -1.9594  1.5126
 3189SOL     OW21220   7.751   0.044   2.490 -0.2367  0.0707 -0.3961
 3189SOL    HW121221   7.714  -0.033   2.437 -0.3446  0.2820 -0.6322
 3189SOL    HW221222   7.842   0.068   2.454 -0.3990  0.3482 -0.6211
 3190SOL     OW21223   3.577   5.157   4.780  0.2213 -0.0927 -0.3610
 3190SOL    HW121224   3.601   5.158   4.877  0.3896  1.6428 -0.4113
 3190SOL    HW221225   3.509   5.228   4.761 -0.8253 -1.3084 -1.2699
 3191SOL     OW21226   9.950   4.233   7.065  0.0212 -0.0588 -0.1577
 3191SOL    HW121227   9.932   4.243   6.967 -0.7134  1.6721  0.1219
 3191SOL    HW221228   9.946   4.323   7.108 -1.5739 -1.0106  1.7810
 3192SOL     OW21229   6.914   4.198   2.226 -0.2152 -0.0891 -0.0859
 3192SOL    HW121230   6.904   4.102   2.253 -1.4662  0.1412  0.3144
 3192SOL    HW221231   6.955   4.203   2.135  0.3041 -0.9851  0.0879
 3193SOL     OW21232   8.128   5.882   5.165 -0.0687  0.4753  0.0051
 3193SOL    HW121233   8.083   5.792   5.167 -0.6389  0.7865  1.3031
 3193SOL    HW221234   8.084   5.939   5.096 -0.7753  0.3189  0.3266
 3194SOL     OW21235   3.637   6.915   1.318 -0.5715 -0.2605 -0.4867
 3194SOL    HW121236   3.580   6.842   1.282 -1.7305 -0.0338  0.8510
 3194SOL    HW221237   3.644   6.907   1.418  1.5493 -0.1527 -0.5936
 3195SOL     OW21238   0.911   5.299   3.283 -0.0289  0.3716  0.1956
 3195SOL    HW121239   0.969   5.320   3.362 -1.1895  2.4019  0.5428
 3195SOL    HW221240   0.929   5.364   3.210 -2.3171  1.4635  0.5612
 3196SOL     OW21241   0.341   0.246   2.375  0.4421  0.0755 -0.1851
 3196SOL    HW121242   0.407   0.258   2.449 -0.0702  0.7302  0.1847
 3196SOL    HW221243   0.261   0.198   2.410  0.6608 -0.5795 -0.5901
 3197SOL     OW21244   8.079   4.973   3.587  0.3072 -0.4691 -0.4727
 3197SOL    HW121245   8.090   4.990   3.489  0.1195  2.9302  0.0406
 3197SOL    HW221246   8.168   4.969   3.631  0.3322 -0.2267 -0.5032
 3198SOL     OW21247   9.226   3.624   4.845  0.2209  0.1073  0.3696
 3198SOL    HW121248   9.239   3.666   4.755 -0.2130 -1.9240 -0.6769
 3198SOL    HW221249   9.305   3.643   4.902  0.1523  2.0818 -0.1691
 3199SOL     OW21250   0.189   6.818   5.805 -0.3826  0.3257 -0.1116
 3199SOL    HW121251   0.284   6.821   5.773 -0.3082 -0.3684  0.0346
 3199SOL    HW221252   0.184   6.760   5.886 -1.2687 -1.2338 -1.2688
 3200SOL     OW21253   4.107   6.216   8.091  0.5521 -0.1088  0.2091
 3200SOL    HW121254   4.175   6.286   8.111 -0.8349  0.9503  1.3528
 3200SOL    HW221255   4.136   6.129   8.130  0.0916  0.8910  2.9137
 3201SOL     OW21256   8.696   3.520   5.377 -0.4465 -0.2670  0.3759
 3201SOL    HW121257   8.796   3.512   5.380 -0.4642 -0.2455  1.0956
 3201SOL    HW221258   8.657   3.440   5.332 -0.2548 -1.4756  2.2895
 3202SOL     OW21259   7.493   9.743   5.926  0.1307 -0.0038 -0.1626
 3202SOL    HW121260   7.484   9.833   5.883  2.4719  0.1394 -0.4251
 3202SOL    HW221261   7.469   9.751   6.023 -1.9448  0.3800 -0.6861
 3203SOL     OW21262   3.481   5.248   1.817  0.2857 -0.0776  0.0871
 3203SOL    HW121263   3.507   5.332   1.770  0.7033 -0.2152  0.0693
 3203SOL    HW221264   3.553   5.179   1.805 -0.4516 -0.7377 -0.6554
 3204SOL     OW21265   3.351   6.302   6.287  0.0925 -0.2619 -0.0599
 3204SOL    HW121266   3.334   6.225   6.349  0.1184  0.0227  0.3001
 3204SOL    HW221267   3.266   6.331   6.245 -0.0486  0.0603  0.4487
 3205SOL     OW21268   3.358   6.824   7.843 -0.4014  0.4548  0.0956
 3205SOL    HW121269   3.350   6.804   7.745  0.7935  1.0997 -0.1454
 3205SOL    HW221270   3.401   6.747   7.889  2.1126  1.4688 -0.4576
 3206SOL     OW21271   6.655   1.528   1.754 -0.1027 -0.0127 -0.2383
 3206SOL    HW121272   6.567   1.483   1.767 -0.3514  0.0272 -1.6651
 3206SOL    HW221273   6.726   1.460   1.739 -0.0632 -0.0059 -0.0858
 3207SOL     OW21274   8.609   6.251   3.101  0.0053  0.5754  0.5164
 3207SOL    HW121275   8.517   6.271   3.134 -1.3808 -0.1466 -2.6250
 3207SOL    HW221276   8.614   6.270   3.003  2.4213 -1.8684  0.0893
 3208SOL     OW21277   0.668   2.918   7.603 -0.2030  0.1693  0.1200
 3208SOL    HW121278   0.703   2.893   7.512 -0.3933  0.0506  0.0780
 3208SOL    HW221279   0.736   2.974   7.651  0.5073 -0.9489  0.4525
 3209SOL     OW21280   9.801   2.592   6.710 -0.4932 -0.1037  0.4609
 3209SOL    HW121281   9.713   2.608   6.754 -0.7858  0.0146 -0.1587
 3209SOL    HW221282   9.832   2.677   6.667 -0.9157 -0.5821 -0.8156
 3210SOL     OW21283   7.351   0.489   6.730 -0.2085  0.1632  0.5652
 3210SOL    HW121284   7.275   0.542   6.768 -2.2411 -1.2774 -1.3448
 3210SOL    HW221285   7.415   0.465   6.803 -1.5954  1.3910  2.2261
 3211SOL     OW21286   3.114   5.760   6.786  0.1444 -0.4534 -0.5421
 3211SOL    HW121287   3.083   5.709   6.706  2.5573 -1.1518 -1.0735
 3211SOL    HW221288   3.204   5.727   6.814  0.4509  1.5164  0.9242
 3212SOL     OW21289   8.984   3.735   1.649 -0.4095  0.3981 -0.1033
 3212SOL    HW121290   9.074   3.726   1.606 -0.2995  2.5169 -0.3554
 3212SOL    HW221291   8.934   3.649   1.639  0.2823  0.2641 -2.9365
 3213SOL     OW21292   9.838   5.342   5.506  0.2150  0.3392  0.3507
 3213SOL    HW121293   9.836   5.248   5.470 -0.6918  0.6495 -0.4245
 3213SOL    HW221294   9.754   5.360   5.556  0.2020  0.8751  0.1390
 3214SOL     OW21295   3.596   8.808   6.396  0.3163 -0.1242 -0.6700
 3214SOL    HW121296   3.623   8.715   6.370  0.0396 -0.4869  0.3021
 3214SOL    HW221297   3.547   8.851   6.320  0.1738 -0.8914 -1.0184
 3215SOL     OW21298   9.653   5.774   7.972  0.2527 -0.2038  0.0979
 3215SOL    HW121299   9.600   5.804   8.051  1.1608  1.0806  0.2265
 3215SOL    HW221300   9.627   5.680   7.948 -0.5634 -0.3291  1.4467
 3216SOL     OW21301   3.738   4.513   1.778  0.4713 -0.5866 -0.2624
 3216SOL    HW121302   3.685   4.439   1.736  0.2567 -1.1186  0.9485
 3216SOL    HW221303   3.834   4.504   1.750  0.4852 -1.4405  0.0518
 3217SOL     OW21304   2.713   5.920   2.649 -0.0199 -0.0419 -0.6755
 3217SOL    HW121305   2.674   6.011   2.634  0.9137  0.4099 -0.4385
 3217SOL    HW221306   2.803   5.915   2.604  0.9250 -0.0857  1.1460
 3218SOL     OW21307   9.632   9.463   0.788  0.3355 -0.0377 -0.1422
 3218SOL    HW121308   9.592   9.526   0.855 -0.5917 -2.1054  1.2978
 3218SOL    HW221309   9.611   9.369   0.814  2.2128 -0.9925 -1.9292
 3219SOL     OW21310   8.008   9.241   0.413 -0.5670  0.4018  0.1102
 3219SOL    HW121311   8.058   9.154   0.413  0.7962  1.1375  1.4898
 3219SOL    HW221312   7.930   9.235   0.352  0.0626 -1.4757 -0.5577
 3220SOL     OW21313   4.632   2.478   3.154  0.6414  0.1287  0.0623
 3220SOL    HW121314   4.637   2.518   3.063  0.9259  1.0565  0.4801
 3220SOL    HW221315   4.611   2.380   3.147  0.3159  0.2732 -0.9766
 3221SOL     OW21316   5.243   2.400   1.099  0.2991  0.4957  0.7334
 3221SOL    HW121317   5.153   2.418   1.138 -0.4465  0.1375 -0.7867
 3221SOL    HW221318   5.283   2.485   1.065  0.1793  0.5335  0.6859
 3222SOL     OW21319   6.560   5.130   1.952 -0.6122  0.2232  0.1733
 3222SOL    HW121320   6.583   5.093   2.042 -1.1160 -0.0185  0.2098
 3222SOL    HW221321   6.643   5.142   1.898 -0.3441  0.0086  0.5371
 3223SOL     OW21322   6.421   2.429   4.215 -0.2450  0.0378 -0.1643
 3223SOL    HW121323   6.428   2.341   4.167 -2.4211  0.4158 -1.2675
 3223SOL    HW221324   6.340   2.428   4.273 -0.0915  1.1957  0.0747
 3224SOL     OW21325   2.807   5.199   5.090  0.0182  0.7213 -0.0384
 3224SOL    HW121326   2.757   5.126   5.043  0.7636 -0.3127  0.7481
 3224SOL    HW221327   2.766   5.215   5.179  0.2054  0.8749  0.0208
 3225SOL     OW21328   9.364   9.409   7.044  0.6604  0.3516 -0.7403
 3225SOL    HW121329   9.421   9.474   7.094  1.3032 -0.0583 -0.9337
 3225SOL    HW221330   9.268   9.420   7.071  0.8783  0.8021 -0.1544
 3226SOL     OW21331   1.394   0.471   5.021 -0.1108 -0.6617 -0.3509
 3226SOL    HW121332   1.371   0.509   4.931 -0.4133 -0.0485 -0.0202
 3226SOL    HW221333   1.491   0.483   5.039  0.2670 -2.1889 -1.2528
 3227SOL     OW21334   8.053   7.988   3.856 -0.0383  0.0358  0.0777
 3227SOL    HW121335   8.080   7.894   3.833  2.9881  1.0143 -0.5457
 3227SOL    HW221336   8.014   8.032   3.775 -1.3931 -0.6147  0.3504
 3228SOL     OW21337   0.460   2.834   4.369  0.4500  0.2370 -0.3848
 3228SOL    HW121338   0.523   2.756   4.375  1.6532  1.2416  0.2231
 3228SOL    HW221339   0.418   2.835   4.278 -0.2753 -1.6472 -0.0834
 3229SOL     OW21340   9.171   0.671   6.762  0.2533 -0.1231 -0.0185
 3229SOL    HW121341   9.170   0.622   6.675  0.3131  0.5138 -0.3767
 3229SOL    HW221342   9.094   0.734   6.766 -0.1414 -0.6435  0.6699
 3230SOL     OW21343   1.424   8.217   2.588 -0.2036  0.1175 -0.2183
 3230SOL    HW121344   1.430   8.125   2.549 -1.5786 -0.3722  0.6724
 3230SOL    HW221345   1.371   8.213   2.673 -0.5360  1.7775 -0.3359
 3231SOL     OW21346   9.922   6.709   5.373 -0.1739 -0.2861 -0.5211
 3231SOL    HW121347   9.882   6.706   5.465 -0.2538  2.3939 -0.4237
 3231SOL    HW221348   9.947   6.617   5.345 -2.3619 -1.4629  1.1999
 3232SOL     OW21349   3.330   5.089   6.050  0.2178 -0.3021 -0.1518
 3232SOL    HW121350   3.302   5.181   6.079  0.5293  0.4246 -2.0897
 3232SOL    HW221351   3.249   5.031   6.041 -0.0268 -0.0854  0.6205
 3233SOL     OW21352   0.855   5.358   0.829 -0.2663  0.3284 -0.1571
 3233SOL    HW121353   0.856   5.447   0.782 -1.6340 -0.1353 -1.0685
 3233SOL    HW221354   0.944   5.344   0.874  0.7475  1.1912 -1.8304
 3234SOL     OW21355   9.518   6.426   0.033  0.1310 -0.0308  0.4443
 3234SOL    HW121356   9.590   6.361   0.055 -0.8171 -1.3385 -0.2686
 3234SOL    HW221357   9.557   6.505  -0.014  0.9245 -1.4116 -1.2892
 3235SOL     OW21358   7.945   5.894   6.832 -0.3859  0.5484  0.1710
 3235SOL    HW121359   8.000   5.899   6.915  0.3456 -2.2390 -0.1259
 3235SOL    HW221360   7.851   5.870   6.856 -0.3767  0.5758  0.2367
 3236SOL     OW21361   7.781   6.162   7.530  1.0302 -0.2534 -0.3485
 3236SOL    HW121362   7.846   6.090   7.554  0.8189 -0.5662 -0.7130
 3236SOL    HW221363   7.782   6.233   7.601  0.5159 -1.0992  0.5260
 3237SOL     OW21364   8.323   5.479   7.241  0.1757 -0.0076 -0.8215
 3237SOL    HW121365   8.369   5.425   7.171 -0.4976 -0.9649 -0.5321
 3237SOL    HW221366   8.384   5.492   7.319  0.4643 -0.0446 -1.0405
 3238SOL     OW21367   9.476   1.147   6.774 -0.2086  0.3404 -0.1393
 3238SOL    HW121368   9.483   1.048   6.761 -0.0884  0.1619  1.1906
 3238SOL    HW221369   9.408   1.184   6.711 -1.2687 -0.8108  0.2936
 3239SOL     OW21370   1.200   1.400   6.932 -0.1068  0.5062 -0.6029
 3239SOL    HW121371   1.119   1.395   6.990 -0.3171  1.2850 -0.8129
 3239SOL    HW221372   1.263   1.469   6.968  0.7693 -0.5581 -0.0760
 3240SOL     OW21373   4.839   1.990   4.862 -0.2465 -0.1895  0.0926
 3240SOL    HW121374   4.912   2.058   4.866  1.1595 -1.5879 -1.3309
 3240SOL    HW221375   4.782   2.007   4.781 -0.2633 -0.3573  0.0689
 3241SOL     OW21376   6.207   2.070   5.504  0.3295  0.5546 -0.5917
 3241SOL    HW121377   6.160   2.114   5.581 -1.4934  1.1212 -1.9858
 3241SOL    HW221378   6.273   2.134   5.464 -0.2975  1.0382 -0.8593
 3242SOL     OW21379   9.831   2.659   6.297  0.0318 -0.2476  0.1788
 3242SOL    HW121380   9.781   2.678   6.213 -0.1576 -0.3494  0.2703
 3242SOL    HW221381   9.803   2.725   6.368 -0.1559 -0.4635  0.3049
 3243SOL     OW21382   0.987   2.432   2.279  0.3821  0.2971 -0.4413
 3243SOL    HW121383   1.030   2.374   2.348 -0.7709 -0.6208 -0.4760
 3243SOL    HW221384   0.888   2.423   2.284  0.2773  0.1444 -2.2667
 3244SOL     OW21385   8.235   7.086   6.844 -0.9232  0.1072  0.1047
 3244SOL    HW121386   8.325   7.126   6.859 -0.8987 -0.8772  2.9001
 3244SOL    HW221387   8.172   7.157   6.814  0.1853  1.3382  0.6304
 3245SOL     OW21388   5.279   0.387   2.504 -0.0307 -0.1896 -0.1958
 3245SOL    HW121389   5.220   0.332   2.564 -1.1717  1.3276  0.1098
 3245SOL    HW221390   5.236   0.397   2.415  0.9827 -1.2049 -0.8157
 3246SOL     OW21391   3.401   9.899   5.017  0.2612  0.0533 -0.1471
 3246SOL    HW121392   3.337   9.917   5.092  0.9863  1.2865  0.1822
 3246SOL    HW221393   3.426   9.802   5.018 -1.9625 -0.5605 -0.5869
 3247SOL     OW21394   2.837   3.001   3.652  0.5761  0.5199  0.9199
 3247SOL    HW121395   2.804   3.081   3.603  1.0344 -0.2426 -0.6721
 3247SOL    HW221396   2.760   2.943   3.677  0.2054  1.6258  2.4215
 3248SOL     OW21397   1.674   9.613   1.374 -0.0141 -0.4871 -0.4131
 3248SOL    HW121398   1.734   9.541   1.337  0.8194 -1.0857  2.0266
 3248SOL    HW221399   1.580   9.580   1.375  0.1170 -0.8904 -0.9507
 3249SOL     OW21400   0.670   4.591   6.452  0.5878  0.0913  0.3360
 3249SOL    HW121401   0.636   4.503   6.484 -0.1878  0.1936 -0.2086
 3249SOL    HW221402   0.629   4.665   6.505  1.0794  0.1423  0.6538
 3250SOL     OW21403   1.010   0.128   6.956 -0.3065 -0.0411  0.3246
 3250SOL    HW121404   1.079   0.134   6.884  0.7436 -2.1978  1.0971
 3250SOL    HW221405   0.937   0.066   6.926 -0.2276 -0.3812  0.8416
 3251SOL     OW21406   3.945   3.712   3.501  0.6367 -0.1494 -0.7676
 3251SOL    HW121407   4.013   3.780   3.527 -1.0469  1.3812 -0.2997
 3251SOL    HW221408   3.920   3.724   3.405  2.2413 -1.8130 -1.4385
 3252SOL     OW21409   4.185   2.613   5.301 -0.1315  0.1976  0.0437
 3252SOL    HW121410   4.164   2.639   5.395 -0.6596  1.1455 -0.3228
 3252SOL    HW221411   4.239   2.686   5.258 -0.1714 -0.0857 -0.4845
 3253SOL     OW21412   9.920   2.493   1.078  0.1665  0.6365  0.1115
 3253SOL    HW121413  10.010   2.528   1.104  0.6620 -0.5883  0.1141
 3253SOL    HW221414   9.924   2.456   0.985 -0.5133  1.1762 -0.1409
 3254SOL     OW21415   1.644   6.544   1.191  0.0539  0.2661 -0.1660
 3254SOL    HW121416   1.545   6.531   1.196  0.1925 -1.9604 -2.2558
 3254SOL    HW221417   1.669   6.572   1.098  1.4565 -0.0341  0.1127
 3255SOL     OW21418   2.161   3.782   2.693 -0.2155 -0.2412  0.0985
 3255SOL    HW121419   2.072   3.748   2.663 -0.1034  0.1910 -0.7240
 3255SOL    HW221420   2.225   3.705   2.701 -0.4123 -0.4327 -0.1622
 3256SOL     OW21421   3.350   4.072   2.509 -0.1657 -0.0335  0.1686
 3256SOL    HW121422   3.417   4.126   2.457 -0.6052  0.1833 -0.1712
 3256SOL    HW221423   3.383   4.060   2.602  0.6032 -0.3851 -0.1485
 3257SOL     OW21424   1.954   7.566   6.036 -0.1970  0.2041  0.2611
 3257SOL    HW121425   1.892   7.522   5.971 -0.6867  1.8244 -0.3899
 3257SOL    HW221426   2.028   7.612   5.986  0.9900 -0.8970  0.9853
 3258SOL     OW21427   2.635   6.228   4.837 -0.2494  0.1727 -0.1783
 3258SOL    HW121428   2.649   6.208   4.934 -2.0158  1.4261  0.3690
 3258SOL    HW221429   2.592   6.318   4.828 -0.9505 -0.3259 -2.0809
 3259SOL     OW21430   4.327   3.368   1.119  0.0405  0.0109 -0.1786
 3259SOL    HW121431   4.335   3.436   1.191  1.5172  0.4855 -0.7755
 3259SOL    HW221432   4.417   3.351   1.079 -0.2192 -2.7109  0.3365
 3260SOL     OW21433   8.029   3.375   7.248  0.0656  0.9927 -0.1031
 3260SOL    HW121434   7.987   3.288   7.275 -0.7871  1.0074 -1.3523
 3260SOL    HW221435   8.115   3.387   7.297  0.4885 -0.8327 -0.3748
 3261SOL     OW21436   8.474   3.100   2.063 -0.5514  0.1600 -0.2133
 3261SOL    HW121437   8.543   3.065   2.126 -0.0215  1.0575 -0.2988
 3261SOL    HW221438   8.436   3.186   2.099 -1.6121 -0.3134 -0.1735
 3262SOL     OW21439   2.253   1.534   3.852 -0.1106  0.2791 -0.2095
 3262SOL    HW121440   2.159   1.563   3.872 -0.0613  0.2538  0.0619
 3262SOL    HW221441   2.281   1.463   3.918 -0.0882 -0.0903 -0.6177
 3263SOL     OW21442   0.504   5.663   5.315  0.7384  0.2316  0.2315
 3263SOL    HW121443   0.566   5.727   5.362 -0.2829  0.2436  1.5654
 3263SOL    HW221444   0.471   5.594   5.380  1.1847 -1.1857 -1.0118
 3264SOL     OW21445   8.850   9.632   2.678  0.2911 -0.6087 -0.2064
 3264SOL    HW121446   8.944   9.640   2.643  0.2460 -0.4563 -0.2975
 3264SOL    HW221447   8.850   9.646   2.777  0.2167  0.5463 -0.3554
 3265SOL     OW21448   2.576   8.541   0.321 -0.1462  0.1646 -0.5918
 3265SOL    HW121449   2.586   8.638   0.345  0.2761 -0.0938  0.3310
 3265SOL    HW221450   2.652   8.512   0.264  1.4449 -0.3802  1.7150
 3266SOL     OW21451   3.188   9.527   1.317 -0.0079  0.0331  0.5988
 3266SOL    HW121452   3.184   9.574   1.229 -1.5839 -1.7096 -0.2695
 3266SOL    HW221453   3.109   9.554   1.373 -0.0636 -0.3624  0.7139
 3267SOL     OW21454   1.724   3.468   0.499  0.3953  0.4890  0.5258
 3267SOL    HW121455   1.821   3.448   0.509  0.1158 -0.8007  0.8777
 3267SOL    HW221456   1.690   3.513   0.582  0.3581 -0.5461  1.0893
 3268SOL     OW21457   9.370   2.726   3.618 -0.0102  0.7446 -0.2666
 3268SOL    HW121458   9.387   2.824   3.628 -0.1706  0.7122  0.3681
 3268SOL    HW221459   9.272   2.711   3.604  0.1819  0.7677 -1.6574
 3269SOL     OW21460   9.353   1.870   5.565 -0.3358 -0.0270  0.9353
 3269SOL    HW121461   9.261   1.886   5.601 -1.0890 -1.5198 -0.2677
 3269SOL    HW221462   9.363   1.773   5.542  0.5833  0.6346 -1.5268
 3270SOL     OW21463   3.481   3.266   3.285  0.5016  0.3602 -0.9463
 3270SOL    HW121464   3.439   3.188   3.239  0.3831  0.6023 -1.2489
 3270SOL    HW221465   3.428   3.348   3.267 -1.0978 -0.0056  1.8157
 3271SOL     OW21466   1.745   3.776   1.749 -0.5414  0.1445  0.1872
 3271SOL    HW121467   1.652   3.743   1.766 -0.1990 -1.1691 -0.3794
 3271SOL    HW221468   1.810   3.700   1.759  0.2390  0.5602 -1.4418
 3272SOL     OW21469   9.264   3.746   3.418  0.0375  0.3630 -0.6699
 3272SOL    HW121470   9.273   3.712   3.511 -0.9997  0.4043 -0.5446
 3272SOL    HW221471   9.353   3.773   3.383  0.5712 -0.5959 -0.0469
 3273SOL     OW21472   0.715   2.341   4.686  0.0582 -0.1944  0.1192
 3273SOL    HW121473   0.655   2.376   4.614  0.5753 -0.4661 -0.4532
 3273SOL    HW221474   0.803   2.317   4.646  0.7311  0.7092  1.0505
 3274SOL     OW21475   3.623   8.838   6.661 -0.0600 -0.1655 -0.1167
 3274SOL    HW121476   3.614   8.826   6.562  0.4959  1.7261 -0.4094
 3274SOL    HW221477   3.574   8.764   6.707 -2.3530  0.2429 -1.7851
 3275SOL     OW21478   0.143   2.607   6.036  0.2554  0.4166 -0.3272
 3275SOL    HW121479   0.236   2.614   6.000  0.6146  1.5500  0.7677
 3275SOL    HW221480   0.084   2.561   5.970  1.0685  1.7684 -2.0086
 3276SOL     OW21481   1.285   3.763   7.392  0.5939  0.7791 -0.0241
 3276SOL    HW121482   1.187   3.755   7.373  0.6293 -0.8118  0.4245
 3276SOL    HW221483   1.330   3.808   7.314 -0.6864  2.8358  0.3674
 3277SOL     OW21484   2.068   8.216   2.343  0.7346 -0.3775 -1.0944
 3277SOL    HW121485   1.969   8.220   2.355  0.8898  1.0827 -0.2533
 3277SOL    HW221486   2.095   8.120   2.331 -0.6518 -0.8981 -0.2517
 3278SOL     OW21487   2.144   4.845   5.630  0.1990 -0.0159 -0.1794
 3278SOL    HW121488   2.184   4.919   5.684 -0.9892 -0.2159  1.0047
 3278SOL    HW221489   2.214   4.777   5.609  0.6423 -0.0354  1.2988
 3279SOL     OW21490   0.689   8.719   3.532  0.1304  0.2591  0.1268
 3279SOL    HW121491   0.731   8.704   3.443 -0.3442  0.0187 -0.0613
 3279SOL    HW221492   0.759   8.718   3.603  0.2052 -2.3208  0.0687
 3280SOL     OW21493   3.354   3.864   5.797  0.1764 -0.0625 -0.8795
 3280SOL    HW121494   3.415   3.913   5.734 -0.2902 -0.2844 -1.5145
 3280SOL    HW221495   3.272   3.919   5.813  1.9310  1.6822  2.5047
 3281SOL     OW21496   7.047   7.121   3.710  0.0704  0.0681  0.4224
 3281SOL    HW121497   6.972   7.181   3.739  0.1632  0.1430  0.5072
 3281SOL    HW221498   7.078   7.066   3.787 -0.1290 -0.2119  0.3021
 3282SOL     OW21499   7.795   1.731   5.569  0.1515 -0.2415 -0.1118
 3282SOL    HW121500   7.872   1.687   5.615  0.2796 -0.5077 -0.5858
 3282SOL    HW221501   7.753   1.667   5.504 -1.0815 -0.4335  0.8494
 3283SOL     OW21502   0.584   4.161   0.740  0.1258  0.0048 -0.7425
 3283SOL    HW121503   0.679   4.133   0.730 -0.0262 -0.8991  0.2193
 3283SOL    HW221504   0.527   4.080   0.757 -0.8529  0.5026 -1.5991
 3284SOL     OW21505   2.291   0.551   6.743  0.1508  0.4228  0.1578
 3284SOL    HW121506   2.320   0.636   6.785 -1.4206  1.6913 -1.2489
 3284SOL    HW221507   2.228   0.503   6.804 -2.0188  2.1920 -0.6169
 3285SOL     OW21508   2.417   3.579   3.937  0.1736  0.3034  0.5165
 3285SOL    HW121509   2.447   3.487   3.914  0.3430  0.1234  1.4335
 3285SOL    HW221510   2.431   3.595   4.035 -2.7365  0.1883  1.0176
 3286SOL     OW21511   1.276   6.784   6.635  0.3817  0.3372 -0.7872
 3286SOL    HW121512   1.285   6.825   6.726 -3.8799 -1.6668  0.6264
 3286SOL    HW221513   1.325   6.697   6.633 -2.4156 -1.2996  0.7391
 3287SOL     OW21514   4.659   8.684   2.351 -0.7438 -0.2983 -0.5009
 3287SOL    HW121515   4.605   8.611   2.392  0.6540 -0.7870  0.5010
 3287SOL    HW221516   4.673   8.758   2.417 -0.8918  0.2146 -1.0294
 3288SOL     OW21517   8.922   2.263   5.880 -0.1892  0.4533  0.3754
 3288SOL    HW121518   8.961   2.238   5.791  0.6259  2.2032  0.2323
 3288SOL    HW221519   8.838   2.210   5.895 -0.0427 -0.2620 -1.1851
 3289SOL     OW21520   5.830   1.083   2.483 -0.0564  0.0502  0.1865
 3289SOL    HW121521   5.896   1.041   2.545 -0.4394 -0.3198  0.3519
 3289SOL    HW221522   5.751   1.022   2.473 -0.2587  0.3730 -0.2044
 3290SOL     OW21523   4.875   6.044   0.638  0.0372  0.3130 -0.3797
 3290SOL    HW121524   4.854   6.108   0.564 -1.6688  0.4786  0.2235
 3290SOL    HW221525   4.796   5.986   0.655  0.5476  0.0265  1.0718
 3291SOL     OW21526   0.805   8.879   7.099 -0.6437  0.2913  0.1832
 3291SOL    HW121527   0.746   8.952   7.067 -2.3358  0.4494  3.3685
 3291SOL    HW221528   0.748   8.803   7.132  1.0394 -1.4669 -0.8936
 3292SOL     OW21529   1.926   0.897   5.506 -0.1448  0.7916  0.0330
 3292SOL    HW121530   1.925   0.966   5.434  3.0222  0.3947 -0.4398
 3292SOL    HW221531   1.899   0.939   5.593 -3.9080  1.2903 -1.3023
 3293SOL     OW21532   2.756   3.091   2.571  0.2750  0.2099 -0.4554
 3293SOL    HW121533   2.778   3.038   2.489 -0.3989 -0.2506 -0.3448
 3293SOL    HW221534   2.805   3.053   2.649  1.2127  0.8838 -0.7122
 3294SOL     OW21535   3.376   7.021   0.353  0.0432 -0.2535 -0.0278
 3294SOL    HW121536   3.406   6.976   0.269 -0.6918 -0.3961 -0.2193
 3294SOL    HW221537   3.299   6.969   0.393  2.1773 -1.8110  2.2306
 3295SOL     OW21538   0.810   9.050   1.406 -0.3256  0.9001  0.7511
 3295SOL    HW121539   0.845   9.004   1.324  0.0843  0.7393  1.0128
 3295SOL    HW221540   0.886   9.089   1.458 -0.2909 -1.2258  2.4001
 3296SOL     OW21541   6.996   1.537   7.184  0.0659 -0.1411  0.0099
 3296SOL    HW121542   7.079   1.526   7.129  0.6340  0.4320  0.7580
 3296SOL    HW221543   7.005   1.617   7.243 -1.0554 -0.0247  0.0307
 3297SOL     OW21544   3.424   8.806   5.849 -0.2528 -0.4355 -0.5096
 3297SOL    HW121545   3.460   8.897   5.869 -2.9390  0.1864  1.7738
 3297SOL    HW221546   3.431   8.788   5.751  2.8330  1.0870 -0.6179
 3298SOL     OW21547   7.410   9.331   6.798 -0.1789 -0.1350  0.4922
 3298SOL    HW121548   7.488   9.300   6.853 -0.3626 -0.9014  0.3246
 3298SOL    HW221549   7.437   9.334   6.701 -0.2883 -0.1953  0.4593
 3299SOL     OW21550   9.349   8.837   4.317  0.5411 -0.9784 -0.2672
 3299SOL    HW121551   9.261   8.822   4.272  0.4013 -1.6152  0.2147
 3299SOL    HW221552   9.381   8.930   4.297 -0.1700 -0.7904 -0.5580
 3300SOL     OW21553   5.999   4.646   7.940  0.2331  0.5728 -0.5047
 3300SOL    HW121554   6.001   4.623   8.037 -0.1543 -0.9397 -0.8436
 3300SOL    HW221555   6.013   4.745   7.929  2.0910  0.4999  0.9751
 3301SOL     OW21556   3.183   9.317   0.060  0.5497 -0.6411  0.5132
 3301SOL    HW121557   3.159   9.402   0.108  1.1134  0.3846 -0.9962
 3301SOL    HW221558   3.229   9.339  -0.026 -1.0989 -2.4228 -0.8807
 3302SOL     OW21559   0.509   7.266   6.226  0.5533 -0.1345 -0.2750
 3302SOL    HW121560   0.428   7.267   6.167  1.2307 -2.3157 -1.2941
 3302SOL    HW221561   0.572   7.195   6.194  2.3995  0.8460  1.1385
 3303SOL     OW21562   9.581   9.051   5.179  0.0486 -0.1430  0.0919
 3303SOL    HW121563   9.606   8.959   5.211 -0.6324 -0.2190  0.4153
 3303SOL    HW221564   9.653   9.115   5.205  0.4182 -0.5429  0.0737
 3304SOL     OW21565   1.578   4.103   1.872  0.2183  0.1497  0.4086
 3304SOL    HW121566   1.550   4.199   1.869  0.1642  0.1382  0.5601
 3304SOL    HW221567   1.671   4.095   1.836  0.4972  0.3620  1.0675
 3305SOL     OW21568   9.199   6.035   7.758  0.2136 -0.2263  0.0426
 3305SOL    HW121569   9.260   5.970   7.803  2.3302  1.7540  0.1418
 3305SOL    HW221570   9.250   6.082   7.685 -1.1795  1.5071  0.1648
 3306SOL     OW21571   2.845   5.716   6.117 -0.0220 -0.2071 -0.4535
 3306SOL    HW121572   2.821   5.771   6.037 -0.4714  0.4021  0.0942
 3306SOL    HW221573   2.762   5.672   6.153 -0.0283  0.4774  0.3835
 3307SOL     OW21574   9.604   8.667   6.939  0.3176 -0.4258  0.4707
 3307SOL    HW121575   9.599   8.606   6.860  0.3545  1.9043 -1.3621
 3307SOL    HW221576   9.658   8.623   7.011  1.3381 -2.0792 -1.2589
 3308SOL     OW21577   7.849   6.120   4.245  0.8168  0.3204  0.1049
 3308SOL    HW121578   7.785   6.167   4.184 -0.9270 -2.3003 -0.1816
 3308SOL    HW221579   7.848   6.164   4.335  0.5680  1.8910 -0.6503
 3309SOL     OW21580   3.163   0.120   0.567 -0.0072  0.1685 -0.0399
 3309SOL    HW121581   3.156   0.047   0.499  0.2736 -0.2689  0.3994
 3309SOL    HW221582   3.092   0.188   0.550 -0.1233 -0.0885 -0.5930
 3310SOL     OW21583   7.996   4.785   7.257  0.1070  0.1211  0.3563
 3310SOL    HW121584   8.091   4.815   7.258 -0.2814  1.4221 -1.0052
 3310SOL    HW221585   7.950   4.818   7.340  0.4318  0.8379  0.2563
 3311SOL     OW21586   0.139   5.472   5.143  0.2941  0.1231  0.5953
 3311SOL    HW121587   0.196   5.474   5.061 -1.1660 -1.8689 -0.5457
 3311SOL    HW221588   0.185   5.518   5.218  1.7171  1.9113 -1.3207
 3312SOL     OW21589   2.723   7.563   6.635 -0.0858 -0.0800  0.0447
 3312SOL    HW121590   2.755   7.618   6.558  0.9170  1.2092  1.3773
 3312SOL    HW221591   2.763   7.471   6.629  1.6470  0.6503  0.1586
 3313SOL     OW21592   8.088   9.917   1.761 -0.1304  0.9787 -0.0527
 3313SOL    HW121593   8.031   9.910   1.679  0.6290 -1.2576 -0.4129
 3313SOL    HW221594   8.157   9.844   1.760  1.0926  2.0901  1.6446
 3314SOL     OW21595   0.736   3.148   4.876  0.3829 -0.0083 -0.8401
 3314SOL    HW121596   0.666   3.211   4.908 -0.9240 -1.3609 -0.9972
 3314SOL    HW221597   0.731   3.140   4.777 -0.4909 -1.5208 -0.6961
 3315SOL     OW21598   8.938   6.357   5.179 -0.0938 -0.3582  0.3062
 3315SOL    HW121599   8.985   6.400   5.256  0.1468 -1.8793  1.0222
 3315SOL    HW221600   8.870   6.292   5.213 -0.4112 -0.6057 -0.7732
 3316SOL     OW21601   1.047   2.134   7.297  0.3758 -0.1435 -0.4598
 3316SOL    HW121602   1.071   2.141   7.393 -1.0791 -1.9071  0.0557
 3316SOL    HW221603   1.070   2.043   7.263 -0.6392 -0.0872 -1.3273
 3317SOL     OW21604   2.346   0.682   4.870  0.4659  0.3428 -0.2315
 3317SOL    HW121605   2.333   0.695   4.772 -2.1297 -0.5753 -0.0447
 3317SOL    HW221606   2.371   0.587   4.887  3.0233  0.9821 -0.1420
 3318SOL     OW21607   1.553   8.209   6.852  0.3643  0.1073 -0.1092
 3318SOL    HW121608   1.477   8.163   6.806 -0.4719 -0.0025  1.3535
 3318SOL    HW221609   1.621   8.141   6.880 -0.2335 -0.0978  0.8635
 3319SOL     OW21610   3.400   1.247   3.333  0.0918  0.0757 -0.9500
 3319SOL    HW121611   3.375   1.343   3.326  0.4296  0.1244 -1.4680
 3319SOL    HW221612   3.463   1.234   3.409  2.3692  0.7359 -2.6783
 3320SOL     OW21613   9.811   8.189   3.023 -0.1100 -0.2376  0.1314
 3320SOL    HW121614   9.712   8.197   3.034 -0.3327 -1.9205 -0.5393
 3320SOL    HW221615   9.839   8.234   2.938  0.0782  2.4556  1.5329
 3321SOL     OW21616   8.858   9.616   7.294  0.2303 -0.0837 -0.4170
 3321SOL    HW121617   8.863   9.684   7.220  0.6962 -0.2597 -0.5487
 3321SOL    HW221618   8.882   9.659   7.381  0.9207 -0.1672 -0.5610
 3322SOL     OW21619   3.314   3.970   1.395  0.0074 -0.0470  0.3557
 3322SOL    HW121620   3.318   4.017   1.306  1.9699 -0.1498  0.3701
 3322SOL    HW221621   3.351   4.030   1.466  1.8062 -1.2875  0.4966
 3323SOL     OW21622   4.904   4.676   1.694 -0.1819  0.0844  0.0179
 3323SOL    HW121623   4.975   4.737   1.728 -0.1263  0.1781 -0.2575
 3323SOL    HW221624   4.946   4.600   1.644 -0.2401 -0.3057  0.5634
 3324SOL     OW21625   7.118   8.596   5.265 -0.5651 -0.2726  0.3836
 3324SOL    HW121626   7.137   8.667   5.197 -0.4034  0.9057  1.6191
 3324SOL    HW221627   7.037   8.621   5.318 -0.1019 -0.6543  1.2937
 3325SOL     OW21628   4.135   4.348   6.314  0.0268  0.4251  0.1107
 3325SOL    HW121629   4.202   4.413   6.350 -0.4132  1.1611 -0.3855
 3325SOL    HW221630   4.099   4.381   6.227 -1.1355  0.1470  0.4719
 3326SOL     OW21631   0.997   3.353   2.921 -0.3863 -0.1668 -0.5771
 3326SOL    HW121632   0.962   3.305   3.001  1.0010  0.2805  0.3105
 3326SOL    HW221633   1.009   3.450   2.943  0.4886 -0.1370 -1.1505
 3327SOL     OW21634   2.968   7.087   1.644  0.7832  0.2565  0.0705
 3327SOL    HW121635   2.900   7.150   1.606 -0.7087 -1.0240  0.5620
 3327SOL    HW221636   3.036   7.066   1.575 -0.9229 -0.6733 -1.3712
 3328SOL     OW21637   8.907   9.241   7.872  0.5271 -0.1750 -0.4170
 3328SOL    HW121638   8.898   9.270   7.967 -0.5933 -1.3373 -0.1692
 3328SOL    HW221639   9.001   9.259   7.841  0.6380  1.0758  0.5995
 3329SOL     OW21640   3.211   6.073   5.654  1.0745  0.6236  0.0886
 3329SOL    HW121641   3.191   5.977   5.674  0.1586  0.9313  0.6801
 3329SOL    HW221642   3.136   6.130   5.686  2.3281  1.6870  1.2444
 3330SOL     OW21643   1.753   1.534   3.687 -0.6959 -0.5490 -0.7530
 3330SOL    HW121644   1.726   1.509   3.780 -2.2098 -0.4592 -1.1538
 3330SOL    HW221645   1.822   1.470   3.654 -0.6370 -0.9783  0.1824
 3331SOL     OW21646   1.781   2.500   4.775 -0.3542  0.1252 -0.1149
 3331SOL    HW121647   1.722   2.427   4.741  1.3268 -0.3448 -2.0758
 3331SOL    HW221648   1.876   2.480   4.753  0.4009  1.6900  1.5502
 3332SOL     OW21649   7.372   6.856   4.190 -0.5349  0.6020 -0.4063
 3332SOL    HW121650   7.338   6.913   4.115  0.3107 -0.7729 -1.8606
 3332SOL    HW221651   7.435   6.908   4.247 -1.9629  1.9596 -0.0273
 3333SOL     OW21652   0.116   4.662   3.939  0.0571  0.2240  0.2597
 3333SOL    HW121653   0.179   4.695   4.009  0.0901  1.4582 -0.3391
 3333SOL    HW221654   0.051   4.734   3.917  0.0715 -0.1497 -1.0102
 3334SOL     OW21655   4.021   1.089   8.008 -0.0715 -0.2404 -0.2721
 3334SOL    HW121656   4.023   1.047   8.099 -0.4043 -0.6647 -0.4599
 3334SOL    HW221657   3.995   1.186   8.017  0.2547 -0.1861  0.1160
 3335SOL     OW21658   7.834   9.826   3.158 -0.5985  0.0894  0.0813
 3335SOL    HW121659   7.778   9.841   3.240  0.6451  0.2537  0.9126
 3335SOL    HW221660   7.793   9.754   3.102 -0.9328 -0.7127  1.3427
 3336SOL     OW21661   0.230   0.214   4.141  0.2199  0.2462 -0.6703
 3336SOL    HW121662   0.172   0.293   4.162  1.3357  0.0771  3.5415
 3336SOL    HW221663   0.174   0.138   4.108 -1.4827  1.2491 -0.1244
 3337SOL     OW21664   9.792   1.637   5.712 -0.2233 -0.7302 -0.2201
 3337SOL    HW121665   9.805   1.540   5.691 -0.0906 -0.7255 -0.1661
 3337SOL    HW221666   9.872   1.670   5.764  0.3484 -0.2588 -1.3985
 3338SOL     OW21667   8.407   4.176   3.676 -0.2934 -0.4774 -0.2885
 3338SOL    HW121668   8.400   4.244   3.603 -0.3613 -0.8947 -0.6661
 3338SOL    HW221669   8.484   4.115   3.658 -1.3091 -1.5954 -0.8422
 3339SOL     OW21670   7.344   8.986   6.862 -0.1561 -0.5227  0.3811
 3339SOL    HW121671   7.340   9.058   6.931  0.8624 -1.6291  1.6445
 3339SOL    HW221672   7.288   8.909   6.892 -0.4246 -0.6604 -0.4632
 3340SOL     OW21673   4.949   9.518   5.381  0.8981  0.1175  0.0444
 3340SOL    HW121674   4.907   9.434   5.348 -1.8488  1.5224 -0.2323
 3340SOL    HW221675   4.990   9.502   5.471  0.1283 -1.4480  0.1285
 3341SOL     OW21676   6.578   1.822   3.747  0.7076  0.6012  0.0970
 3341SOL    HW121677   6.527   1.897   3.704 -0.4009 -0.3436 -0.2693
 3341SOL    HW221678   6.676   1.838   3.737  0.4888  2.1946  0.3540
 3342SOL     OW21679   2.165   3.353   4.710  0.4851  0.2874 -0.0593
 3342SOL    HW121680   2.182   3.274   4.769  0.1266  0.0180 -0.3212
 3342SOL    HW221681   2.078   3.342   4.663 -0.2355  1.4795  0.9605
 3343SOL     OW21682   5.587   9.572   5.157  0.3033  0.2471 -0.6058
 3343SOL    HW121683   5.629   9.624   5.232 -0.6072 -1.2596  0.9827
 3343SOL    HW221684   5.656   9.553   5.087  1.8644 -0.7184  1.1517
 3344SOL     OW21685   1.356   3.584   0.166  0.0027 -0.4197  0.4171
 3344SOL    HW121686   1.367   3.639   0.083 -1.1223 -1.6140 -0.5440
 3344SOL    HW221687   1.444   3.578   0.214  0.1568  2.1555  0.5195
 3345SOL     OW21688   2.713   9.122   5.089  0.0831  0.6465 -0.1474
 3345SOL    HW121689   2.754   9.186   5.154  0.3543 -0.2200  0.5479
 3345SOL    HW221690   2.764   9.123   5.003  0.6710  0.6413  0.2012
 3346SOL     OW21691   2.925   3.287   0.657 -0.1198 -0.5143 -0.5566
 3346SOL    HW121692   2.883   3.332   0.578 -1.4071 -1.1827 -0.2613
 3346SOL    HW221693   2.952   3.356   0.724  1.4023  0.1017 -1.7484
 3347SOL     OW21694   9.874   1.977   6.905  0.2087 -0.1929  0.0005
 3347SOL    HW121695   9.910   1.963   6.812  0.0915 -0.1474 -0.0509
 3347SOL    HW221696   9.809   1.904   6.926 -0.3965  0.2686 -0.2667
 3348SOL     OW21697   1.415   7.992   3.608  0.4347 -0.2238 -0.4782
 3348SOL    HW121698   1.374   7.936   3.537 -0.8594 -1.0118  0.8582
 3348SOL    HW221699   1.512   7.969   3.617  0.3896 -0.7687 -1.3520
 3349SOL     OW21700   0.818   3.381   2.506 -0.3080 -0.5833  0.1069
 3349SOL    HW121701   0.765   3.300   2.482 -0.8275 -0.7697  1.8112
 3349SOL    HW221702   0.906   3.353   2.545 -0.3914 -0.3283  0.4787
 3350SOL     OW21703   1.637   0.516   3.343 -0.1751 -0.3201  0.6968
 3350SOL    HW121704   1.711   0.475   3.289 -1.0275 -0.6538 -0.2350
 3350SOL    HW221705   1.562   0.542   3.282 -0.4412  0.8857  1.5199
 3351SOL     OW21706   6.651   6.803   5.494 -0.2808 -0.1946 -0.3869
 3351SOL    HW121707   6.737   6.752   5.500 -0.5762 -0.7667 -0.9705
 3351SOL    HW221708   6.594   6.780   5.573  0.3881  0.7176  0.3658
 3352SOL     OW21709   5.960   9.522   4.048  0.0582  0.5163  0.3436
 3352SOL    HW121710   5.877   9.568   4.079  0.2690  0.8346  0.4418
 3352SOL    HW221711   5.960   9.428   4.080 -0.0631  0.6389  0.7056
 3353SOL     OW21712   9.706   7.712   1.599  0.2413  0.1289 -0.0238
 3353SOL    HW121713   9.774   7.772   1.556  0.5985 -0.1686  0.1223
 3353SOL    HW221714   9.751   7.628   1.631 -0.0696  0.2189  0.6719
 3354SOL     OW21715   0.172   7.104   2.976  0.2404  0.1493 -0.1648
 3354SOL    HW121716   0.170   7.010   2.940  1.0542  0.3251 -0.6881
 3354SOL    HW221717   0.267   7.131   2.992  0.0399  1.1111 -0.5890
 3355SOL     OW21718   1.809   0.241   5.044 -0.4914 -0.0478 -0.4771
 3355SOL    HW121719   1.740   0.311   5.062  0.1559  0.0864  1.6607
 3355SOL    HW221720   1.873   0.238   5.121  1.2914 -0.8557 -1.9690
 3356SOL     OW21721   1.955   3.432   3.254 -0.6200  0.4730  0.4808
 3356SOL    HW121722   1.869   3.436   3.304 -0.5120  2.1220  0.5619
 3356SOL    HW221723   2.031   3.426   3.319 -0.6001  0.2977  0.4425
 3357SOL     OW21724   7.948   8.969   5.600 -0.2710  0.1782 -0.1744
 3357SOL    HW121725   7.868   8.993   5.655 -0.4793  0.5649 -0.6384
 3357SOL    HW221726   7.926   8.979   5.503  0.1348 -0.3616 -0.3250
 3358SOL     OW21727   4.010   8.191   6.810 -0.7129 -0.0582 -0.0712
 3358SOL    HW121728   4.028   8.192   6.711 -2.6471  2.2935 -0.4473
 3358SOL    HW221729   3.919   8.229   6.827  0.3955  1.4258  2.7601
 3359SOL     OW21730   8.036   5.582   0.553  0.1493  0.0312  0.3196
 3359SOL    HW121731   7.956   5.524   0.538  1.3296 -1.2178 -1.3327
 3359SOL    HW221732   8.069   5.569   0.646  0.5157 -2.1362 -0.0833
 3360SOL     OW21733   8.266   6.578   5.604  0.1031 -0.4962  0.4881
 3360SOL    HW121734   8.366   6.574   5.593  0.0267  0.0655 -0.4808
 3360SOL    HW221735   8.241   6.545   5.695  1.1070 -1.5529  0.4011
 3361SOL     OW21736   3.247   3.197   2.966  0.0350 -0.0103  0.0067
 3361SOL    HW121737   3.165   3.234   2.923 -0.2897 -0.6938  0.0281
 3361SOL    HW221738   3.238   3.202   3.066  0.0995  0.1018  0.0058
 3362SOL     OW21739   1.822   3.823   0.259 -0.0752  0.2623  0.4549
 3362SOL    HW121740   1.759   3.807   0.183 -0.2146  2.5203  0.0599
 3362SOL    HW221741   1.913   3.792   0.233 -0.7011 -1.6656  0.4770
 3363SOL     OW21742   8.576   4.400   7.499  0.1652 -0.2059  0.0149
 3363SOL    HW121743   8.514   4.426   7.573 -0.9408  0.6950 -1.1990
 3363SOL    HW221744   8.563   4.304   7.477 -0.4033 -0.1554  0.1309
 3364SOL     OW21745   9.737   7.712   7.103  0.0486  0.2237 -0.3642
 3364SOL    HW121746   9.718   7.699   7.006  1.6219 -0.4619 -0.5887
 3364SOL    HW221747   9.734   7.624   7.150  1.4429  0.2640 -0.1870
 3365SOL     OW21748   3.143   4.467   3.072  0.3569  0.3541  0.1640
 3365SOL    HW121749   3.169   4.414   2.990  1.4325  1.1171  0.0057
 3365SOL    HW221750   3.074   4.416   3.123  2.2474 -1.8099  0.6619
 3366SOL     OW21751   9.974   2.027   2.654 -0.1425  0.2096  0.0656
 3366SOL    HW121752   9.914   1.966   2.704 -1.5026  0.4467 -1.2251
 3366SOL    HW221753   9.978   1.999   2.558 -0.9687  2.2392 -0.5974
 3367SOL     OW21754   0.324   0.160   0.659 -0.9093  0.1891 -0.1172
 3367SOL    HW121755   0.257   0.105   0.609 -0.4668  1.1315 -1.7572
 3367SOL    HW221756   0.399   0.186   0.599 -0.1546  0.9895  1.1358
 3368SOL     OW21757   7.503   0.612   5.882 -0.0020  0.0052  0.2345
 3368SOL    HW121758   7.587   0.656   5.850 -0.2900 -0.9473 -1.9547
 3368SOL    HW221759   7.434   0.682   5.899 -0.0023  0.5408 -1.8069
 3369SOL     OW21760   0.244   7.602   4.624  0.2885  0.4835  0.4295
 3369SOL    HW121761   0.237   7.545   4.705  0.1404  0.8239  0.6577
 3369SOL    HW221762   0.175   7.675   4.628 -1.0826 -0.6840 -0.9468
 3370SOL     OW21763   0.493   5.314   1.725  0.0647  0.3288 -0.2351
 3370SOL    HW121764   0.502   5.350   1.632 -2.6226  0.5173 -0.4557
 3370SOL    HW221765   0.564   5.245   1.741 -1.4065 -2.1358 -3.6256
 3371SOL     OW21766   2.240   7.024   5.314 -0.4260  0.0070 -0.5837
 3371SOL    HW121767   2.327   7.053   5.274  1.8865 -0.5796  3.7713
 3371SOL    HW221768   2.212   6.937   5.274  0.9356  0.1913 -2.0034
 3372SOL     OW21769   1.169   4.733   5.429  1.1043 -0.1447  0.2755
 3372SOL    HW121770   1.240   4.757   5.495 -0.6174  0.9193  1.7981
 3372SOL    HW221771   1.082   4.723   5.477 -0.3888  1.6315 -1.9770
 3373SOL     OW21772   5.560   2.295   8.026  0.1678 -0.5269 -0.6855
 3373SOL    HW121773   5.463   2.275   8.034  0.2660 -1.0553 -0.8299
 3373SOL    HW221774   5.573   2.394   8.025 -0.4412 -0.4446 -1.4784
 3374SOL     OW21775   2.046   3.196   7.848 -0.2833 -0.0024  0.9493
 3374SOL    HW121776   1.976   3.204   7.777  1.9045  1.7664 -1.0678
 3374SOL    HW221777   2.096   3.111   7.836 -0.5181 -0.1422  0.9513
 3375SOL     OW21778   4.362   8.243   6.601 -0.4103  0.3394  0.1437
 3375SOL    HW121779   4.451   8.209   6.571 -0.5856 -0.4327  0.4841
 3375SOL    HW221780   4.306   8.166   6.631 -0.4458  1.0441  1.9081
 3376SOL     OW21781   1.457   3.682   3.928 -0.1147  0.3394 -0.2309
 3376SOL    HW121782   1.431   3.680   3.831 -1.9076  0.2434  0.2297
 3376SOL    HW221783   1.403   3.751   3.976  2.6669  2.2971  0.2204
 3377SOL     OW21784   2.346   7.535   0.218 -0.1864  0.0027  0.2628
 3377SOL    HW121785   2.377   7.446   0.185 -2.2020 -0.6719  0.1515
 3377SOL    HW221786   2.258   7.525   0.264 -0.0593  1.8183  0.9322
 3378SOL     OW21787   8.038   0.937   5.591  0.3503 -0.9458 -0.0941
 3378SOL    HW121788   8.090   0.883   5.525  0.6498  0.0353 -0.6807
 3378SOL    HW221789   7.988   1.009   5.542  0.7307 -0.0820  0.7696
 3379SOL     OW21790   0.430   3.866   5.374  0.3219 -0.3604 -0.0449
 3379SOL    HW121791   0.487   3.784   5.385 -0.3868 -0.9917 -1.0119
 3379SOL    HW221792   0.381   3.883   5.459  0.1271 -1.2093  0.0207
 3380SOL     OW21793   8.126   0.073   1.002  0.7246  0.4294  0.4375
 3380SOL    HW121794   8.206   0.016   1.022  0.7673  0.3928  0.1665
 3380SOL    HW221795   8.153   0.149   0.942  0.4745  0.1726 -0.0072
 3381SOL     OW21796   1.186   4.535   2.624  0.8176  0.3357 -0.3115
 3381SOL    HW121797   1.187   4.562   2.720  0.2380  0.0937 -0.2366
 3381SOL    HW221798   1.227   4.607   2.568  1.5121  0.3072  0.1617
 3382SOL     OW21799   0.435   1.608   0.820 -0.4267  0.4578  0.4545
 3382SOL    HW121800   0.360   1.642   0.764 -0.1220  0.5998  0.1274
 3382SOL    HW221801   0.448   1.510   0.803 -0.1139  0.5717  0.0151
 3383SOL     OW21802   9.499   1.077   5.468  0.1507  0.3561  0.1983
 3383SOL    HW121803   9.489   1.132   5.385 -1.0543 -0.3370 -0.1259
 3383SOL    HW221804   9.410   1.041   5.495  0.3682  1.3589  2.3533
 3384SOL     OW21805   7.267   9.327   3.567  0.5947  0.0049  0.6432
 3384SOL    HW121806   7.271   9.319   3.468  0.6906  0.0680  0.6420
 3384SOL    HW221807   7.258   9.424   3.592  1.7072  0.1041  0.7285
 3385SOL     OW21808   7.903   0.847   0.219 -0.8201  0.0902 -0.0009
 3385SOL    HW121809   7.908   0.880   0.125  0.0891  1.2197  0.4216
 3385SOL    HW221810   7.988   0.800   0.243 -0.4182  1.1579  0.7278
 3386SOL     OW21811   6.768   7.058   7.440  0.2725 -0.4039 -0.4075
 3386SOL    HW121812   6.694   7.039   7.504 -0.2897  1.7234 -0.3909
 3386SOL    HW221813   6.816   6.973   7.418  0.0074 -1.2854  2.2525
 3387SOL     OW21814   1.558   0.558   8.106 -0.4105  0.0585 -0.5334
 3387SOL    HW121815   1.651   0.544   8.139  0.0387  1.7035 -1.0581
 3387SOL    HW221816   1.521   0.471   8.074  0.0636 -1.0628  1.8728
 3388SOL     OW21817   6.027   7.623   6.068  0.1332  1.3514 -0.4739
 3388SOL    HW121818   5.931   7.597   6.057  0.9146 -1.9423 -0.1438
 3388SOL    HW221819   6.050   7.625   6.166  0.6496  1.1483 -0.5890
 3389SOL     OW21820   3.575   3.687   3.812 -0.1945  0.3082  0.0627
 3389SOL    HW121821   3.589   3.589   3.824  1.2239  0.5085  0.1205
 3389SOL    HW221822   3.528   3.724   3.891 -3.2331 -0.7971 -1.1440
 3390SOL     OW21823   7.971   5.846   0.919 -0.0751  0.4890 -0.0794
 3390SOL    HW121824   8.049   5.798   0.959 -0.6799  0.7975  1.5253
 3390SOL    HW221825   7.952   5.810   0.828  1.5168 -0.0501 -0.2124
 3391SOL     OW21826   2.483   3.163   7.212  0.0529  0.6131 -0.3079
 3391SOL    HW121827   2.473   3.260   7.191 -0.3304  0.2832 -1.7128
 3391SOL    HW221828   2.577   3.134   7.195  0.2893  0.8460  0.5894
 3392SOL     OW21829   9.277   6.229   2.863  0.3633  0.2950  0.3451
 3392SOL    HW121830   9.230   6.313   2.837 -0.5879  0.1011  1.3914
 3392SOL    HW221831   9.333   6.197   2.786 -3.0810 -0.7751 -1.8341
 3393SOL     OW21832   8.491   7.187   4.530  0.2234 -0.3509  0.0063
 3393SOL    HW121833   8.398   7.191   4.567  0.3101  2.6323  0.0310
 3393SOL    HW221834   8.557   7.215   4.600  1.1859 -2.5979  0.0380
 3394SOL     OW21835   3.694   7.116   4.291  0.1394  0.2288 -0.6084
 3394SOL    HW121836   3.791   7.094   4.279 -0.2807 -1.4394 -0.9963
 3394SOL    HW221837   3.640   7.067   4.223 -1.0638  0.4701  0.1672
 3395SOL     OW21838   8.793   4.833   7.277 -0.5039  0.1538 -0.5768
 3395SOL    HW121839   8.823   4.746   7.236  1.0962  0.6828 -0.5289
 3395SOL    HW221840   8.864   4.869   7.336 -2.2758  0.0842  1.6684
 3396SOL     OW21841   3.794   1.727   6.514  0.3649 -0.5086 -0.3063
 3396SOL    HW121842   3.866   1.684   6.460  0.8280 -1.0795  0.7493
 3396SOL    HW221843   3.827   1.815   6.549  0.3712 -0.5249 -0.2706
 3397SOL     OW21844   0.061   4.417   6.403  0.0425  0.4975 -0.6929
 3397SOL    HW121845  -0.009   4.349   6.422 -0.3593  0.4940 -2.1067
 3397SOL    HW221846   0.128   4.379   6.339 -0.3252  1.4955 -1.6938
 3398SOL     OW21847   2.265   6.954   6.636  0.1208  0.4212 -0.1179
 3398SOL    HW121848   2.349   7.005   6.655 -0.5325  2.1192 -1.6767
 3398SOL    HW221849   2.286   6.877   6.575  0.9542 -0.7328  1.5627
 3399SOL     OW21850   3.087   0.924   4.415  0.2713  0.4653  0.4487
 3399SOL    HW121851   3.001   0.953   4.458 -0.4255 -1.0233  0.0976
 3399SOL    HW221852   3.076   0.832   4.378  2.0232  0.2720  0.3686
 3400SOL     OW21853   0.678   6.728   5.126 -0.9694 -0.5304  0.0684
 3400SOL    HW121854   0.683   6.650   5.189 -0.6848 -0.8448 -0.3380
 3400SOL    HW221855   0.586   6.736   5.089 -1.2051 -0.1886  0.7194
 3401SOL     OW21856   6.595   9.618   5.715  0.1698  0.2298  0.4203
 3401SOL    HW121857   6.584   9.532   5.664 -0.6405  0.2972  0.4854
 3401SOL    HW221858   6.610   9.597   5.812  0.1185  0.1612  0.4141
 3402SOL     OW21859   8.393   6.084   0.960  0.1297  0.0340 -0.1847
 3402SOL    HW121860   8.384   5.989   0.928 -0.4564  0.2675 -0.7318
 3402SOL    HW221861   8.463   6.089   1.030  1.7576 -0.4092 -1.7540
 3403SOL     OW21862   3.989   3.751   3.179 -0.4089 -0.0293  0.8615
 3403SOL    HW121863   3.895   3.721   3.200 -1.1431  1.6268  0.0052
 3403SOL    HW221864   4.047   3.670   3.167 -1.7822 -1.0831  1.1213
 3404SOL     OW21865   9.485   7.517   4.796  0.1668 -0.0649  0.1695
 3404SOL    HW121866   9.553   7.500   4.725 -1.1629  0.1626 -1.1734
 3404SOL    HW221867   9.411   7.451   4.787 -0.3451  0.4002  0.9305
 3405SOL     OW21868   9.933   8.288   8.082 -0.3076  0.1128 -0.3918
 3405SOL    HW121869   9.975   8.331   8.002 -0.5077 -0.5126 -0.8374
 3405SOL    HW221870   9.835   8.275   8.065  0.1183 -2.4322 -1.1158
 3406SOL     OW21871   7.484   8.150   6.072  0.2085  0.5828  0.6888
 3406SOL    HW121872   7.580   8.138   6.099  0.2480  1.1242  0.7899
 3406SOL    HW221873   7.480   8.176   5.976  0.0729 -1.2615  0.1784
 3407SOL     OW21874   1.790   2.156   4.613  0.0929 -0.6496 -0.1017
 3407SOL    HW121875   1.875   2.189   4.574  0.3895 -0.3130  0.8087
 3407SOL    HW221876   1.719   2.225   4.602  0.2048 -0.5098  0.0555
 3408SOL     OW21877   0.991   9.049   0.048 -0.4445  0.2615 -0.2562
 3408SOL    HW121878   1.068   8.986   0.045 -0.6876 -0.2210  2.4676
 3408SOL    HW221879   0.906   8.997   0.060 -0.9734  0.9454 -0.9217
 3409SOL     OW21880   2.509   0.855   5.024 -0.2534  0.3329  0.0448
 3409SOL    HW121881   2.523   0.808   5.111 -0.1900  0.4430  0.0942
 3409SOL    HW221882   2.451   0.800   4.965  2.3647 -1.2633 -1.1105
 3410SOL     OW21883   5.010   2.432   0.493  0.6371  0.0198  0.0770
 3410SOL    HW121884   5.025   2.433   0.394  0.6323 -1.3915  0.0561
 3410SOL    HW221885   4.982   2.523   0.523 -0.1467  0.2558 -1.3413
 3411SOL     OW21886   5.988   9.704   5.068 -1.0492 -0.1094  0.2799
 3411SOL    HW121887   6.029   9.613   5.061  2.1129  1.4533 -2.6415
 3411SOL    HW221888   5.899   9.703   5.023  0.0236 -1.1931 -1.8909
 3412SOL     OW21889   2.104   1.576   4.227 -0.1188 -0.2420 -0.6059
 3412SOL    HW121890   2.074   1.495   4.176 -0.1739  0.5253 -1.8261
 3412SOL    HW221891   2.087   1.658   4.172 -1.3786  0.7304  1.1832
 3413SOL     OW21892   6.904   1.585   5.527  0.0535  0.1193 -0.5348
 3413SOL    HW121893   6.945   1.618   5.442  0.0519 -0.4609 -0.7576
 3413SOL    HW221894   6.805   1.577   5.515 -0.0929  1.1386 -0.1184
 3414SOL     OW21895   2.477   2.450   7.851  0.2641 -0.0971 -0.0583
 3414SOL    HW121896   2.386   2.479   7.879  1.0381  1.1528  1.2041
 3414SOL    HW221897   2.522   2.524   7.802  0.8102 -0.5248 -0.2094
 3415SOL     OW21898   0.931   8.001   2.312 -0.4245 -0.2925  0.1820
 3415SOL    HW121899   0.904   7.916   2.266  1.2401  0.0718 -1.5131
 3415SOL    HW221900   0.984   7.980   2.394 -0.2415 -0.8989 -0.0912
 3416SOL     OW21901   2.023   0.377   2.507  0.3985  0.1146 -0.2284
 3416SOL    HW121902   2.075   0.394   2.424  1.7897 -2.1103  0.1676
 3416SOL    HW221903   2.059   0.434   2.582  0.8355  0.1741 -0.4860
 3417SOL     OW21904   9.548   0.304   6.627  0.1096  0.0382  0.3120
 3417SOL    HW121905   9.599   0.222   6.601  0.6305  0.0823  1.1662
 3417SOL    HW221906   9.455   0.279   6.653 -0.0505 -0.1497 -0.4394
 3418SOL     OW21907   8.694   9.960   3.636 -0.0731  0.0509  0.8168
 3418SOL    HW121908   8.635   9.987   3.559  0.8286  0.6644  0.3233
 3418SOL    HW221909   8.642   9.904   3.700 -0.8847 -0.3338 -0.1649
 3419SOL     OW21910   1.200   4.228   0.961  0.6349  0.2995 -0.4878
 3419SOL    HW121911   1.177   4.224   1.058  0.3297 -2.3938 -0.6493
 3419SOL    HW221912   1.254   4.148   0.935 -0.5275  0.2146 -2.8517
 3420SOL     OW21913   9.231   6.205   4.167 -0.1720 -0.1046 -0.5667
 3420SOL    HW121914   9.326   6.191   4.192 -0.0522 -0.3992 -1.1666
 3420SOL    HW221915   9.193   6.281   4.219 -0.2920 -1.4672  1.4041
 3421SOL     OW21916   0.397   3.271   4.754  0.0522 -0.9478 -0.1572
 3421SOL    HW121917   0.312   3.322   4.769  0.4779 -0.6210  1.1717
 3421SOL    HW221918   0.437   3.298   4.666 -0.3511  0.1138 -0.0239
 3422SOL     OW21919   1.380   6.521   6.392 -0.6133 -0.0506 -0.1249
 3422SOL    HW121920   1.286   6.552   6.402 -0.0042  1.9812 -0.4928
 3422SOL    HW221921   1.427   6.578   6.325  1.3082 -0.0904  1.1481
 3423SOL     OW21922   9.154   1.396   4.560  0.2215  0.2859 -0.2297
 3423SOL    HW121923   9.196   1.445   4.484  1.0556  0.9727  0.6572
 3423SOL    HW221924   9.202   1.418   4.645 -2.2493  1.5167  0.9142
 3424SOL     OW21925   2.390   7.789   2.496 -0.4297 -0.0861  0.1821
 3424SOL    HW121926   2.386   7.701   2.544 -2.4625  0.5601  1.2381
 3424SOL    HW221927   2.356   7.776   2.402 -0.4930 -0.4727  0.2541
 3425SOL     OW21928   5.484   9.846   5.626 -0.0838  0.3204  0.0108
 3425SOL    HW121929   5.402   9.890   5.589 -0.9219 -1.7964 -0.7466
 3425SOL    HW221930   5.488   9.751   5.593  1.1646 -0.4606  2.3140
 3426SOL     OW21931   3.457   8.753   1.218 -0.2049 -0.0884  0.7947
 3426SOL    HW121932   3.399   8.711   1.288 -0.5198 -0.5082  0.2941
 3426SOL    HW221933   3.420   8.730   1.128  0.0391  0.6714  0.4994
 3427SOL     OW21934   0.691   9.750   6.766 -0.1392 -0.2587  0.5000
 3427SOL    HW121935   0.736   9.663   6.783 -1.2939 -0.6760  1.4822
 3427SOL    HW221936   0.592   9.739   6.774 -0.3681  0.8540 -0.6742
 3428SOL     OW21937   6.041   8.750   5.888 -0.3180 -0.1838 -0.4569
 3428SOL    HW121938   6.052   8.847   5.865 -2.1201 -0.1196 -1.1157
 3428SOL    HW221939   6.125   8.701   5.867  0.3835  1.1220 -0.7365
 3429SOL     OW21940   8.920   2.825   6.304 -0.1912 -0.2828  0.1168
 3429SOL    HW121941   8.994   2.882   6.269 -0.5558 -0.1370 -0.4217
 3429SOL    HW221942   8.946   2.728   6.296  0.5519 -0.1875  1.3133
 3430SOL     OW21943   9.460   3.737   5.010 -0.2425  0.6588 -0.1393
 3430SOL    HW121944   9.469   3.666   5.081 -1.5839  1.1588  0.5501
 3430SOL    HW221945   9.520   3.715   4.933  0.8069 -0.1990  0.9093
 3431SOL     OW21946   8.213   2.477   1.948 -0.5076  0.2283 -0.1035
 3431SOL    HW121947   8.176   2.398   1.899  2.6792 -1.5320  0.1737
 3431SOL    HW221948   8.218   2.556   1.887 -1.4948 -0.4523 -1.0676
 3432SOL     OW21949   7.913   3.821   6.163  0.2269 -0.0107 -0.4845
 3432SOL    HW121950   7.854   3.750   6.201  0.5396 -0.2056 -0.3558
 3432SOL    HW221951   7.946   3.792   6.074  0.0071  0.1648 -0.6235
 3433SOL     OW21952   5.083   1.812   2.489 -0.2300 -0.6181  0.1330
 3433SOL    HW121953   5.064   1.815   2.587 -1.3834 -0.4850 -0.0947
 3433SOL    HW221954   5.177   1.845   2.473 -0.4529  0.5377  1.0759
 3434SOL     OW21955   6.207   1.138   0.113 -0.1606  0.1495 -0.1876
 3434SOL    HW121956   6.254   1.213   0.066  0.0523 -0.9858 -1.8132
 3434SOL    HW221957   6.185   1.066   0.048  1.6925 -2.2619  1.7562
 3435SOL     OW21958   1.227   4.951   4.645  0.0745 -0.1437 -0.3104
 3435SOL    HW121959   1.147   5.009   4.661  0.9115  1.4018 -1.5826
 3435SOL    HW221960   1.197   4.858   4.624 -1.3418  0.1378  0.4195
 3436SOL     OW21961   5.982   3.873   7.987 -0.0443 -0.5818 -0.1981
 3436SOL    HW121962   6.062   3.813   7.979 -0.6594 -1.5418  0.8908
 3436SOL    HW221963   5.918   3.836   8.054 -1.4244  0.1761 -1.0688
 3437SOL     OW21964   0.318   5.209   5.547 -0.2240  0.1865  0.0619
 3437SOL    HW121965   0.270   5.124   5.567 -0.3595  0.0963 -0.6576
 3437SOL    HW221966   0.350   5.209   5.452  0.9696  0.3523  0.4488
 3438SOL     OW21967   4.578   1.481   0.691  0.5118  0.1619  0.1268
 3438SOL    HW121968   4.627   1.399   0.661  0.4746  0.8563 -1.9089
 3438SOL    HW221969   4.643   1.550   0.722  0.5260 -0.7356  2.1239
 3439SOL     OW21970   8.112   4.492   0.693  0.4844  0.8829  0.1371
 3439SOL    HW121971   8.149   4.406   0.728  0.2717  0.1738 -1.3519
 3439SOL    HW221972   8.014   4.496   0.711  0.6161  1.1392  0.8298
 3440SOL     OW21973   4.803   6.355   2.263  0.6577 -0.1245 -0.9933
 3440SOL    HW121974   4.762   6.391   2.347  0.2989  1.1804 -1.7322
 3440SOL    HW221975   4.896   6.322   2.283  1.6530  2.7916 -0.6707
 3441SOL     OW21976   9.986   6.741   3.811 -0.0717  0.0274 -0.1784
 3441SOL    HW121977  10.040   6.679   3.755 -0.1966 -0.3382  0.1007
 3441SOL    HW221978   9.903   6.694   3.841  0.2553  0.0322  0.7602
 3442SOL     OW21979   8.549   3.802   6.470 -0.3425  0.2101 -0.0295
 3442SOL    HW121980   8.630   3.845   6.431 -0.0486 -0.2455  0.0750
 3442SOL    HW221981   8.468   3.855   6.444 -0.0394  0.5365 -0.3284
 3443SOL     OW21982   6.929   7.529   3.895 -0.1591  0.2264  0.4424
 3443SOL    HW121983   6.851   7.586   3.869  0.4766  0.7081 -0.4272
 3443SOL    HW221984   6.915   7.493   3.987 -0.1696  2.4747  1.3368
 3444SOL     OW21985   0.822   3.429   6.097  0.3134 -0.5307 -0.2907
 3444SOL    HW121986   0.760   3.507   6.091 -0.3146 -0.8397  1.5887
 3444SOL    HW221987   0.880   3.439   6.178  0.6757 -1.6778 -0.3973
 3445SOL     OW21988   2.321   8.244   4.965 -0.3848 -0.3015 -0.0116
 3445SOL    HW121989   2.329   8.187   4.884  0.7757 -2.5207  1.6178
 3445SOL    HW221990   2.368   8.331   4.949 -0.7414 -0.4464 -1.9216
 3446SOL     OW21991   6.466   9.136   2.286 -0.0521  0.3022  0.0141
 3446SOL    HW121992   6.513   9.135   2.374 -1.1148  1.1893  0.6057
 3446SOL    HW221993   6.499   9.213   2.231  0.9494 -0.5247 -0.5724
 3447SOL     OW21994   8.021   4.309   4.879  0.9320  0.3774  0.4988
 3447SOL    HW121995   8.039   4.260   4.794  0.5361  1.2393 -0.0914
 3447SOL    HW221996   8.070   4.396   4.878  0.1908  0.8048  0.7426
 3448SOL     OW21997   0.398   8.362   7.934 -0.1634  0.3375  0.5636
 3448SOL    HW121998   0.318   8.309   7.962  1.0728 -1.7117  0.2991
 3448SOL    HW221999   0.481   8.319   7.970  0.7310  3.4321  2.3580
 3449SOL     OW22000   9.297   4.944   2.510  0.0458 -0.1720 -0.2481
 3449SOL    HW122001   9.306   4.845   2.525  0.0348 -0.2141 -0.5216
 3449SOL    HW222002   9.296   4.991   2.599 -1.3073 -0.5294 -0.0731
 3450SOL     OW22003   3.041   7.961   2.633 -0.0102  0.3182 -0.3154
 3450SOL    HW122004   3.083   8.031   2.690  0.4821 -2.2412  2.6049
 3450SOL    HW222005   2.965   7.919   2.682 -2.5820  1.1650 -3.4095
 3451SOL     OW22006   6.553   0.895   1.507  0.6720  0.4640  0.7901
 3451SOL    HW122007   6.460   0.928   1.521  0.3517 -0.5620  1.1589
 3451SOL    HW222008   6.569   0.816   1.566  1.0441 -0.6986 -0.8209
 3452SOL     OW22009   9.354   1.229   4.775 -0.0750 -0.0665  0.3710
 3452SOL    HW122010   9.293   1.262   4.848 -0.9079 -0.8294  0.0206
 3452SOL    HW222011   9.301   1.180   4.707  0.3095  2.7747 -2.0771
 3453SOL     OW22012   2.540   4.914   2.410 -0.3438  0.2706  0.1511
 3453SOL    HW122013   2.491   4.879   2.330 -0.3576 -2.8458  1.4518
 3453SOL    HW222014   2.474   4.943   2.479 -0.3250  1.8897 -0.4863
 3454SOL     OW22015   5.835   8.088   5.609  0.2844 -0.1053 -0.1306
 3454SOL    HW122016   5.811   7.994   5.585  0.1778 -0.1625  0.1930
 3454SOL    HW222017   5.850   8.142   5.526 -0.4719 -0.2004 -0.3312
 3455SOL     OW22018   5.461   0.311   6.128  0.0518  0.2247  0.1275
 3455SOL    HW122019   5.409   0.379   6.077  1.0633  1.3070  0.4983
 3455SOL    HW222020   5.550   0.350   6.154  1.4092 -1.8641 -1.2494
 3456SOL     OW22021   3.233   5.428   1.966 -0.1461 -0.0755 -0.5958
 3456SOL    HW122022   3.153   5.389   2.010  0.0063  0.1935 -0.0714
 3456SOL    HW222023   3.307   5.361   1.964 -0.4927 -0.4277 -1.3678
 3457SOL     OW22024   0.310   2.427   1.683  0.2361 -0.7774  0.2305
 3457SOL    HW122025   0.358   2.419   1.771  0.1146 -0.1773  0.3575
 3457SOL    HW222026   0.375   2.410   1.609  0.7455  0.4112  0.3925
 3458SOL     OW22027   4.657   4.816   0.480 -0.6339 -0.4775  0.3301
 3458SOL    HW122028   4.662   4.751   0.404 -0.1106 -0.0883  0.0274
 3458SOL    HW222029   4.597   4.780   0.551 -2.8451  0.0989 -1.1883
 3459SOL     OW22030   0.083   5.850   0.459 -0.0982  0.3303  0.2971
 3459SOL    HW122031   0.052   5.855   0.364  0.5532 -0.2734  0.0549
 3459SOL    HW222032   0.119   5.759   0.479 -0.7281  0.2839  1.2821
 3460SOL     OW22033   6.881   5.892   7.981  0.2798 -0.1362  0.2425
 3460SOL    HW122034   6.945   5.969   7.985 -1.2458  1.2685 -1.5445
 3460SOL    HW222035   6.809   5.912   7.914  0.1404 -3.3529 -0.6278
 3461SOL     OW22036   2.868   4.931   5.334 -0.0179  0.5214  0.3846
 3461SOL    HW122037   2.964   4.908   5.317 -0.0512 -0.2348  1.1984
 3461SOL    HW222038   2.853   5.028   5.314  0.7393  0.4712 -0.4810
 3462SOL     OW22039   9.251   7.039   5.477 -0.0955  0.3282 -0.7288
 3462SOL    HW122040   9.190   7.054   5.555  0.5876 -1.4187  0.1684
 3462SOL    HW222041   9.206   6.978   5.412 -0.0293  0.5053 -0.9387
 3463SOL     OW22042   9.793   3.153   6.482  0.3903 -0.4009  0.2321
 3463SOL    HW122043   9.770   3.206   6.564 -1.1569 -0.2107 -0.3269
 3463SOL    HW222044   9.873   3.193   6.438 -1.6986  2.4636 -1.0682
 3464SOL     OW22045   9.522   4.619   0.653  0.3961  0.1250  0.2184
 3464SOL    HW122046   9.487   4.569   0.732  0.6743  0.9741  0.8869
 3464SOL    HW222047   9.467   4.596   0.572 -2.2295  2.0075  1.4027
 3465SOL     OW22048   8.199   3.094   1.987 -0.5856  0.6986  0.1678
 3465SOL    HW122049   8.295   3.089   2.012 -0.7666 -0.3980  0.6749
 3465SOL    HW222050   8.151   3.157   2.048 -0.5532 -0.1481  1.0659
 3466SOL     OW22051   1.556   2.668   7.743  0.0346 -0.0909 -0.0169
 3466SOL    HW122052   1.596   2.613   7.816  0.4546  0.9076  0.5228
 3466SOL    HW222053   1.625   2.687   7.673 -0.0691 -0.1487 -0.1339
 3467SOL     OW22054   4.817   4.167   7.287 -0.0972  0.2311  0.0163
 3467SOL    HW122055   4.893   4.103   7.298 -1.4381 -1.6935 -1.6887
 3467SOL    HW222056   4.730   4.117   7.288 -1.2622  2.2019  0.1347
 3468SOL     OW22057   9.122   0.385   4.481  0.3910 -0.5597  0.4605
 3468SOL    HW122058   9.163   0.462   4.531 -0.7855  0.1326  0.3843
 3468SOL    HW222059   9.085   0.319   4.547 -0.2048 -0.1687  0.5250
 3469SOL     OW22060   3.840   3.238   0.509 -0.2764  0.5730 -0.2237
 3469SOL    HW122061   3.775   3.309   0.483 -0.9939  1.0062  2.5811
 3469SOL    HW222062   3.842   3.167   0.439 -3.0634  1.0162 -0.8172
 3470SOL     OW22063   9.250   1.189   1.227 -0.4107 -0.4663  0.0845
 3470SOL    HW122064   9.255   1.098   1.269  0.9993 -0.1839  0.5484
 3470SOL    HW222065   9.203   1.182   1.139 -0.2828 -1.6501  0.0988
 3471SOL     OW22066   8.660   7.713   6.020 -0.3516  0.1007 -0.5114
 3471SOL    HW122067   8.729   7.649   5.986  0.1562  0.5580 -0.3561
 3471SOL    HW222068   8.593   7.731   5.948 -1.0057 -1.2919 -0.2605
 3472SOL     OW22069   1.423   2.426   0.605  0.1693  0.2974  0.3711
 3472SOL    HW122070   1.411   2.432   0.506  0.6789 -1.0753  0.2182
 3472SOL    HW222071   1.344   2.378   0.644 -0.6435  1.9437  0.7871
 3473SOL     OW22072   9.526   3.111   6.482  0.6220 -0.1991 -0.0661
 3473SOL    HW122073   9.508   3.145   6.574  1.1332 -1.6119  0.5790
 3473SOL    HW222074   9.614   3.144   6.450  0.1481  0.8309 -0.3161
 3474SOL     OW22075   0.290   4.097   5.276 -0.0250 -0.1680 -0.1415
 3474SOL    HW122076   0.342   4.017   5.307  1.2843  0.0899 -1.6067
 3474SOL    HW222077   0.306   4.173   5.339  0.1278 -0.5474  0.2806
 3475SOL     OW22078   9.803   1.254   2.476 -0.1241 -0.0315 -0.0420
 3475SOL    HW122079   9.818   1.156   2.485  1.8551  0.2616 -0.0106
 3475SOL    HW222080   9.807   1.297   2.566  0.3937  0.2720 -0.2134
 3476SOL     OW22081   0.444   0.022   7.348  0.2056  0.3436 -0.3484
 3476SOL    HW122082   0.442   0.009   7.447  0.5041 -0.6275 -0.4747
 3476SOL    HW222083   0.442   0.120   7.328  0.2376  0.5469  0.6170
 3477SOL     OW22084   9.349   9.817   3.312 -0.6208 -0.2139 -0.4469
 3477SOL    HW122085   9.281   9.772   3.370  0.3628 -0.4165  0.5725
 3477SOL    HW222086   9.357   9.768   3.225 -1.7280 -0.2268 -0.5383
 3478SOL     OW22087   2.251   0.462   3.027 -0.6257 -0.3665  0.0656
 3478SOL    HW122088   2.297   0.388   2.977  0.3257  0.1320  0.1972
 3478SOL    HW222089   2.164   0.483   2.983 -1.6338 -2.5971  0.8864
 3479SOL     OW22090   0.540   0.210   3.201 -0.2120  0.3016 -0.3127
 3479SOL    HW122091   0.573   0.165   3.117  2.9924  0.7961  0.5914
 3479SOL    HW222092   0.562   0.152   3.279 -1.2351  0.8447  0.3816
 3480SOL     OW22093   8.618   7.621   5.539 -0.3907  0.2147 -0.8341
 3480SOL    HW122094   8.580   7.540   5.495 -0.3817  0.0065 -0.4573
 3480SOL    HW222095   8.716   7.610   5.552 -0.9252 -1.1389  2.2869
 3481SOL     OW22096   7.519   5.266   7.660 -0.1910  0.0687  0.6694
 3481SOL    HW122097   7.564   5.350   7.689  0.8530 -0.2881  0.1176
 3481SOL    HW222098   7.452   5.287   7.589 -0.4347  0.5220  1.0324
 3482SOL     OW22099   2.478   7.748   1.269 -0.7528 -0.4170 -0.2368
 3482SOL    HW122100   2.545   7.694   1.321  1.1057 -0.0988 -2.2519
 3482SOL    HW222101   2.448   7.825   1.325  1.0972 -0.1590  0.4528
 3483SOL     OW22102   2.371   7.773   4.457 -0.1932 -0.2631  0.1341
 3483SOL    HW122103   2.292   7.713   4.474  0.2044 -0.7462  0.2905
 3483SOL    HW222104   2.339   7.858   4.415 -0.9084 -0.0462  1.0909
 3484SOL     OW22105   1.087   2.545   5.676  0.1045  0.5551 -0.7657
 3484SOL    HW122106   1.035   2.623   5.641 -2.2581  0.4475  2.2889
 3484SOL    HW222107   1.036   2.461   5.661  1.6749 -0.1885 -2.1219
 3485SOL     OW22108   2.976   7.135   7.611  0.5061  0.1435  0.0635
 3485SOL    HW122109   2.951   7.201   7.540 -1.4529 -1.6424 -0.9738
 3485SOL    HW222110   3.074   7.116   7.606  0.8701  2.0769 -0.3894
 3486SOL     OW22111   3.394   7.360   5.950 -0.4799  0.3694 -0.0534
 3486SOL    HW122112   3.376   7.392   5.856  0.4268 -0.0102 -0.3624
 3486SOL    HW222113   3.491   7.336   5.958 -1.1552 -2.3499  0.1658
 3487SOL     OW22114   6.834   8.146   4.836  0.0951  0.4006  0.2853
 3487SOL    HW122115   6.742   8.107   4.845  0.6503 -0.4624  2.6153
 3487SOL    HW222116   6.893   8.111   4.910  2.5208  0.3091 -1.6261
 3488SOL     OW22117   1.494   7.774   5.304  0.4599 -0.2560 -0.8211
 3488SOL    HW122118   1.415   7.736   5.353 -0.0253 -1.0755 -2.2327
 3488SOL    HW222119   1.537   7.844   5.362 -1.7356  0.7468 -0.3116
 3489SOL     OW22120   4.298   8.630   7.125 -0.5411  0.4455 -0.7216
 3489SOL    HW122121   4.285   8.723   7.160 -0.0683  0.6360 -1.0510
 3489SOL    HW222122   4.210   8.592   7.099 -1.0395 -0.0858  1.6699
 3490SOL     OW22123   0.331   8.334   5.635  0.1971 -0.3711 -0.0518
 3490SOL    HW122124   0.254   8.304   5.691 -0.6968 -0.0638 -1.1004
 3490SOL    HW222125   0.329   8.434   5.627  1.8751 -0.1828  1.5791
 3491SOL     OW22126   1.159   5.355   0.970  0.1573  0.1496 -0.0907
 3491SOL    HW122127   1.229   5.369   0.899  0.2166  0.9300  0.1115
 3491SOL    HW222128   1.169   5.426   1.040 -1.5601  0.9542 -0.6470
 3492SOL     OW22129   0.764   6.836   5.611  0.4950  0.0879  0.0845
 3492SOL    HW122130   0.841   6.887   5.573  0.8655 -0.2349  0.3989
 3492SOL    HW222131   0.796   6.748   5.645  0.0345  0.0631  0.4579
 3493SOL     OW22132   7.518   0.861   5.313 -0.3475  0.4979  0.6633
 3493SOL    HW122133   7.419   0.879   5.317 -0.8310 -2.0220  0.9927
 3493SOL    HW222134   7.560   0.892   5.398 -1.4875 -1.6764  2.0817
 3494SOL     OW22135   6.965   8.312   6.312  0.7543  0.2600  0.5872
 3494SOL    HW122136   6.969   8.260   6.397 -0.3142 -1.4016 -0.3652
 3494SOL    HW222137   6.877   8.358   6.305 -0.5870 -2.4883 -1.2597
 3495SOL     OW22138   8.542   9.085   3.273  0.1077 -0.3592  0.1582
 3495SOL    HW122139   8.614   9.117   3.211 -0.3196 -1.2887 -0.8216
 3495SOL    HW222140   8.466   9.150   3.271  0.1488 -0.3189 -0.1840
 3496SOL     OW22141   0.601   6.756   4.227 -0.0840 -0.1720  0.3446
 3496SOL    HW122142   0.531   6.710   4.282 -0.7082 -1.0743 -1.1924
 3496SOL    HW222143   0.620   6.702   4.145  3.2813 -0.5640  1.2962
 3497SOL     OW22144   2.549   1.882   0.562 -0.6435 -0.2697 -0.1905
 3497SOL    HW122145   2.450   1.869   0.561 -0.7578  0.5673  0.0991
 3497SOL    HW222146   2.583   1.891   0.468 -0.8187 -0.7217 -0.2966
 3498SOL     OW22147   1.007   8.740   6.309 -0.2703  0.2056 -0.2214
 3498SOL    HW122148   1.032   8.832   6.341 -0.0600  0.5399 -1.3396
 3498SOL    HW222149   0.987   8.743   6.211  0.0816 -1.0157 -0.3312
 3499SOL     OW22150   5.850   9.100   2.016  0.8307 -0.2004 -0.2311
 3499SOL    HW122151   5.860   9.105   1.917  0.5683 -0.1779 -0.2560
 3499SOL    HW222152   5.846   9.193   2.053 -0.0222 -0.2077 -0.2949
 3500SOL     OW22153   1.720   3.255   5.598 -0.3751 -0.3540  0.0551
 3500SOL    HW122154   1.776   3.196   5.539 -0.7448 -1.0694  0.4191
 3500SOL    HW222155   1.702   3.209   5.685 -0.3698  0.4401  0.4839
 3501SOL     OW22156   8.379   1.451   1.951 -0.5332  0.6810 -0.0531
 3501SOL    HW122157   8.346   1.545   1.944  1.6203  1.5263  0.6968
 3501SOL    HW222158   8.429   1.439   2.037  2.0899 -0.1909 -1.6459
 3502SOL     OW22159   1.403   4.401   5.565  0.0982 -0.1778 -0.5825
 3502SOL    HW122160   1.446   4.441   5.484 -1.0845 -0.8335 -1.5541
 3502SOL    HW222161   1.375   4.474   5.628  0.5490  0.3623 -1.0098
 3503SOL     OW22162   6.439   1.290   1.209 -0.2376 -0.0688 -0.0974
 3503SOL    HW122163   6.432   1.202   1.164 -0.5232  1.4184 -3.0557
 3503SOL    HW222164   6.432   1.363   1.142  3.7112  2.2012  1.7909
 3504SOL     OW22165   9.084   7.218   0.501 -1.0741  0.3926  0.4527
 3504SOL    HW122166   9.134   7.214   0.587 -0.8329  2.0623  0.3940
 3504SOL    HW222167   8.995   7.172   0.512 -0.1368 -1.3288  0.9443
 3505SOL     OW22168   9.157   0.534   6.990 -0.0982  0.2988 -0.5323
 3505SOL    HW122169   9.168   0.582   6.903  2.1730  1.4873  0.3808
 3505SOL    HW222170   9.236   0.551   7.048 -1.5091 -0.6029  1.7274
 3506SOL     OW22171   5.856   2.458   8.171  0.6444 -0.4563 -0.4067
 3506SOL    HW122172   5.852   2.490   8.076 -1.2605 -2.1050 -0.9308
 3506SOL    HW222173   5.807   2.371   8.178  0.2840 -0.0673  2.2201
 3507SOL     OW22174   3.101   5.615   1.755  0.0244 -0.7211 -0.1687
 3507SOL    HW122175   3.148   5.578   1.835  0.8612 -1.2407 -0.8983
 3507SOL    HW222176   3.002   5.607   1.768  0.1676 -1.3398  0.5578
 3508SOL     OW22177   1.265   7.247   7.099 -0.0513  0.0391 -0.6710
 3508SOL    HW122178   1.184   7.207   7.142 -0.5436  0.6636 -0.9944
 3508SOL    HW222179   1.347   7.207   7.138 -0.5186 -0.5139 -0.2481
 3509SOL     OW22180   0.987   1.882   4.730 -0.0426 -0.3007  0.7927
 3509SOL    HW122181   1.017   1.916   4.819  0.1523  2.0965 -0.1473
 3509SOL    HW222182   1.061   1.831   4.687  0.9966  1.3710  0.5905
 3510SOL     OW22183   7.913   8.345   6.790  0.2350  0.4588  0.1073
 3510SOL    HW122184   7.978   8.310   6.723 -0.6996 -1.4119  0.1396
 3510SOL    HW222185   7.832   8.381   6.743  0.6573  1.4685  0.1347
 3511SOL     OW22186   1.356   8.834   1.967  0.2630 -0.2291 -0.0996
 3511SOL    HW122187   1.294   8.913   1.973  1.5492  0.7255  1.2613
 3511SOL    HW222188   1.346   8.778   2.050  0.1622 -0.8790 -0.5494
 3512SOL     OW22189   8.345   2.141   7.997 -0.0798 -0.2296 -0.3370
 3512SOL    HW122190   8.440   2.163   8.021 -0.7869  0.9891  1.3830
 3512SOL    HW222191   8.345   2.070   7.927  2.0987 -2.2176  1.5675
 3513SOL     OW22192   3.226   2.736   1.661  0.3858  0.0130 -0.2818
 3513SOL    HW122193   3.165   2.776   1.729  0.0926  0.2958 -0.7084
 3513SOL    HW222194   3.260   2.648   1.694 -1.1385 -0.6817 -0.5117
 3514SOL     OW22195   3.675   3.409   5.568 -0.2467  0.6424  0.3502
 3514SOL    HW122196   3.644   3.436   5.659  4.1170 -1.3232  2.5503
 3514SOL    HW222197   3.722   3.486   5.524 -0.3439  0.9095  0.7168
 3515SOL     OW22198   3.974   2.550   6.717  0.0666  0.3277 -0.2335
 3515SOL    HW122199   3.877   2.543   6.691 -0.4567  1.9500  1.2276
 3515SOL    HW222200   4.004   2.644   6.707  1.6535 -0.2591 -1.1220
 3516SOL     OW22201   7.938   6.112   4.856 -0.2317  0.4871 -0.0682
 3516SOL    HW122202   7.937   6.140   4.760  1.5499 -0.2065 -0.3051
 3516SOL    HW222203   7.963   6.190   4.913 -0.8738  0.7887 -0.1859
 3517SOL     OW22204   7.811   8.315   5.270  0.1864 -0.0769 -0.0509
 3517SOL    HW122205   7.832   8.270   5.357 -1.0132  1.5755  1.1198
 3517SOL    HW222206   7.735   8.267   5.226 -1.1078  0.7667  1.2054
 3518SOL     OW22207   7.494   9.020   5.543 -0.4599  0.4588 -0.8453
 3518SOL    HW122208   7.557   8.947   5.516 -1.6900 -0.7950 -0.3877
 3518SOL    HW222209   7.468   9.074   5.463  0.9884  0.8392 -1.0737
 3519SOL     OW22210   6.275   1.627   3.107  0.5396  0.3388 -0.2961
 3519SOL    HW122211   6.367   1.664   3.112  0.4969  0.3765  0.1669
 3519SOL    HW222212   6.230   1.636   3.195 -0.1381  0.9105 -0.6918
 3520SOL     OW22213   3.296   3.159   4.001 -0.3519 -0.6705 -0.0810
 3520SOL    HW122214   3.370   3.094   4.020 -0.6965 -1.0826 -0.1469
 3520SOL    HW222215   3.223   3.112   3.951  0.8531  0.5367 -3.0840
 3521SOL     OW22216   9.293   6.650   4.098 -0.0080 -0.0019 -0.4386
 3521SOL    HW122217   9.231   6.723   4.068  1.4253  1.3528 -0.1347
 3521SOL    HW222218   9.335   6.675   4.185 -0.3536 -1.7111  0.2522
 3522SOL     OW22219   0.422   4.055   7.816  0.2807  0.5418 -0.9268
 3522SOL    HW122220   0.322   4.053   7.825  0.3632  2.2218  0.4353
 3522SOL    HW222221   0.458   3.962   7.828 -0.9895  0.1579  0.0148
 3523SOL     OW22222   5.011   4.153   0.138 -0.2914 -0.4857 -0.7349
 3523SOL    HW122223   5.074   4.188   0.070 -0.2582 -1.2050 -1.0761
 3523SOL    HW222224   4.959   4.229   0.178 -0.6310 -0.1140 -1.8764
 3524SOL     OW22225   7.839   3.153   2.511  0.3659 -0.4932 -0.4022
 3524SOL    HW122226   7.858   3.069   2.561  0.7621 -0.3605 -0.3285
 3524SOL    HW222227   7.745   3.182   2.528  0.0176 -1.2890 -0.9687
 3525SOL     OW22228   4.171   8.307   7.205  0.4031  0.2716 -0.0552
 3525SOL    HW122229   4.187   8.239   7.133  0.0706  1.7988 -1.6073
 3525SOL    HW222230   4.258   8.331   7.248  0.4800 -1.3993  0.7867
 3526SOL     OW22231   8.816   7.225   6.903 -0.4761 -0.2409  0.7794
 3526SOL    HW122232   8.781   7.270   6.986 -0.1014  0.8957  0.3363
 3526SOL    HW222233   8.762   7.255   6.824  1.5184  1.6368  0.0712
 3527SOL     OW22234   1.889   0.722   2.599 -0.5466  0.5734 -0.1684
 3527SOL    HW122235   1.940   0.728   2.513  1.0922  0.8769  0.7819
 3527SOL    HW222236   1.799   0.763   2.588 -0.4464  0.3639 -1.8101
 3528SOL     OW22237   3.602   1.075   3.797 -0.2783 -0.0370  0.3550
 3528SOL    HW122238   3.635   0.986   3.826 -1.0146 -0.8333 -1.1805
 3528SOL    HW222239   3.669   1.145   3.821  1.1723 -1.2472 -0.1159
 3529SOL     OW22240   0.234   3.372   4.404 -0.2687  0.0285  1.0273
 3529SOL    HW122241   0.271   3.426   4.480  1.3435 -0.8353  0.8563
 3529SOL    HW222242   0.213   3.280   4.435 -1.0987  0.1331  0.8028
 3530SOL     OW22243   1.488   7.829   1.992 -0.7876  0.0676  0.1172
 3530SOL    HW122244   1.567   7.774   1.964 -1.2640 -0.2547 -0.6338
 3530SOL    HW222245   1.485   7.913   1.938  0.0466  0.9289  1.3990
 3531SOL     OW22246   3.599   2.678   4.806  0.0513 -0.3751  0.1003
 3531SOL    HW122247   3.661   2.747   4.843 -0.5011  0.3968 -0.4037
 3531SOL    HW222248   3.651   2.599   4.775  0.8448  0.4786 -0.7892
 3532SOL     OW22249   2.807   9.440   2.624  1.1189 -0.1643 -0.2062
 3532SOL    HW122250   2.781   9.481   2.536  2.6249  1.2179 -0.0384
 3532SOL    HW222251   2.861   9.358   2.608 -0.3957 -1.1182 -0.5509
 3533SOL     OW22252   2.023   2.641   2.678  0.9095 -0.5487 -0.4350
 3533SOL    HW122253   2.078   2.708   2.728 -1.2980  0.9948  0.0001
 3533SOL    HW222254   2.028   2.660   2.580 -0.4189  0.8240 -0.2468
 3534SOL     OW22255   0.173   9.211   4.262  0.5613  0.3015  0.4983
 3534SOL    HW122256   0.176   9.260   4.349  0.8474  0.8195  0.1991
 3534SOL    HW222257   0.078   9.187   4.241  0.3398  1.2684  0.3497
 3535SOL     OW22258   8.873   7.234   8.042 -0.1506 -0.5178  0.1836
 3535SOL    HW122259   8.865   7.267   8.136  1.0763  2.0203 -0.5414
 3535SOL    HW222260   8.803   7.279   7.986  0.5413 -0.3336 -0.5334
 3536SOL     OW22261   1.384   6.556   2.539  0.0088 -0.2392 -0.0413
 3536SOL    HW122262   1.337   6.615   2.604  0.6756  0.6304 -0.3349
 3536SOL    HW222263   1.395   6.464   2.578  1.0139  0.4572  1.3462
 3537SOL     OW22264   8.869   2.335   1.146  0.0444  0.3902 -0.1607
 3537SOL    HW122265   8.949   2.380   1.107  0.1813  0.1124 -0.1978
 3537SOL    HW222266   8.837   2.387   1.226  0.4636  0.3158  0.0591
 3538SOL     OW22267   9.667   3.049   1.746  0.2285  0.3043  0.7989
 3538SOL    HW122268   9.715   3.103   1.677 -0.4642  1.0064  0.8711
 3538SOL    HW222269   9.596   2.994   1.702 -0.7816  1.3981  1.0690
 3539SOL     OW22270   2.727   7.851   3.876 -0.0101  0.4560  0.5277
 3539SOL    HW122271   2.799   7.920   3.886 -0.0768  0.7251 -0.7258
 3539SOL    HW222272   2.637   7.895   3.885 -0.0567  0.5850 -0.4894
 3540SOL     OW22273   1.078   3.228   0.080 -0.0942 -0.9646  0.1327
 3540SOL    HW122274   1.071   3.135   0.046  0.2357 -0.8878 -0.1497
 3540SOL    HW222275   1.026   3.290   0.020 -1.2133 -1.1122  0.9233
 3541SOL     OW22276   3.949   6.250   3.865  0.0487  0.0135 -0.1933
 3541SOL    HW122277   3.944   6.338   3.817  1.4264 -0.8561 -1.9908
 3541SOL    HW222278   3.980   6.179   3.802  0.0837 -1.5474  1.5267
 3542SOL     OW22279   7.365   2.951   0.796 -0.6285 -0.1711  0.4173
 3542SOL    HW122280   7.290   2.902   0.840  0.0783 -1.1699  0.5162
 3542SOL    HW222281   7.402   2.896   0.721 -0.2573  0.4899  0.1096
 3543SOL     OW22282   1.745   8.086   2.904  0.3293  0.0269  0.1810
 3543SOL    HW122283   1.653   8.119   2.921 -0.0020 -1.2567  0.9459
 3543SOL    HW222284   1.785   8.051   2.989  1.2555 -0.0604 -0.2798
 3544SOL     OW22285   0.508   2.310   7.466 -1.1978 -0.5641  0.1133
 3544SOL    HW122286   0.540   2.267   7.550 -0.5579  1.4680  0.9169
 3544SOL    HW222287   0.474   2.402   7.485 -1.2404 -0.1534 -1.8100
 3545SOL     OW22288   1.290   8.528   2.939  0.3287 -0.2057  0.5115
 3545SOL    HW122289   1.217   8.513   2.872 -0.1588 -0.3599  1.0825
 3545SOL    HW222290   1.379   8.519   2.893 -0.0090  0.9634 -0.3882
 3546SOL     OW22291   8.061   0.120   4.619  0.0233 -0.0901  0.8212
 3546SOL    HW122292   8.023   0.091   4.706 -0.6318 -1.5444  0.0749
 3546SOL    HW222293   8.066   0.042   4.557  1.2275  0.7575 -0.1817
 3547SOL     OW22294   1.344   5.708   4.884  0.0295  0.1486 -0.4544
 3547SOL    HW122295   1.358   5.797   4.841  1.8661  0.0259 -0.1822
 3547SOL    HW222296   1.413   5.644   4.849 -1.7845 -1.4001 -1.2826
 3548SOL     OW22297   1.633   6.443   5.401  0.0260  0.1807  0.2019
 3548SOL    HW122298   1.613   6.361   5.348  0.8057 -0.7851  1.3798
 3548SOL    HW222299   1.552   6.501   5.405 -0.6985 -0.7995 -0.1643
 3549SOL     OW22300   3.278   6.757   2.392 -0.0575 -0.2054 -0.0124
 3549SOL    HW122301   3.344   6.735   2.320  0.4429 -1.3721  0.8037
 3549SOL    HW222302   3.185   6.740   2.357  0.1232  0.3423 -0.7725
 3550SOL     OW22303   0.489   8.619   6.358 -0.1109  0.2983 -0.2191
 3550SOL    HW122304   0.510   8.527   6.389 -0.3992  0.3007 -0.0129
 3550SOL    HW222305   0.475   8.618   6.259 -2.9822 -0.4409  0.1456
 3551SOL     OW22306   9.379   0.421   0.956  0.5836 -0.1898  0.6075
 3551SOL    HW122307   9.427   0.350   1.009  1.7519 -0.8621 -1.3032
 3551SOL    HW222308   9.338   0.380   0.875 -1.0046  0.8751  0.8645
 3552SOL     OW22309   7.726   3.671   6.704  0.0610  0.2969  0.2182
 3552SOL    HW122310   7.773   3.720   6.778 -0.6548  2.3871 -0.6623
 3552SOL    HW222311   7.790   3.608   6.661  1.0894  0.5956  1.2680
 3553SOL     OW22312   0.299   0.171   6.568  0.3754  0.2589  0.4045
 3553SOL    HW122313   0.358   0.184   6.647  0.2541 -1.0695  0.7262
 3553SOL    HW222314   0.340   0.216   6.488  0.5804  1.4443  1.1678
 3554SOL     OW22315   0.276   4.495   6.546  1.0540  0.3180  0.2703
 3554SOL    HW122316   0.187   4.463   6.514  1.0241  1.0816 -0.4261
 3554SOL    HW222317   0.343   4.421   6.537  0.4526 -0.3255  0.9945
 3555SOL     OW22318   4.758   7.399   5.512  0.4272  0.2661  0.4079
 3555SOL    HW122319   4.710   7.325   5.559 -0.1436  0.8379  0.7400
 3555SOL    HW222320   4.823   7.442   5.574  0.9015 -0.0845  0.1560
 3556SOL     OW22321   8.697   1.959   5.540  0.2030 -0.3243 -0.2591
 3556SOL    HW122322   8.659   1.875   5.577 -1.1616 -0.3969 -1.7537
 3556SOL    HW222323   8.783   1.939   5.493  0.1608 -0.8069 -0.1303
 3557SOL     OW22324   4.556   2.705   0.474 -0.0372 -0.1502  0.1123
 3557SOL    HW122325   4.546   2.605   0.470  0.2380 -0.2432  1.4434
 3557SOL    HW222326   4.611   2.729   0.554 -1.1442  1.1386  0.4961
 3558SOL     OW22327   5.054   2.019   5.242  0.1758  0.0316 -0.3045
 3558SOL    HW122328   5.015   2.074   5.316 -0.1442 -0.6033  0.0078
 3558SOL    HW222329   5.005   1.932   5.237  1.2991 -0.6211 -0.1559
 3559SOL     OW22330   4.118   0.786   0.433  0.1128  0.4943 -0.5113
 3559SOL    HW122331   4.161   0.731   0.362  0.3241  0.0994 -0.0814
 3559SOL    HW222332   4.033   0.827   0.398  0.1683  0.2261 -0.9546
 3560SOL     OW22333   4.455   6.392   0.823 -0.4833 -0.5644 -0.0859
 3560SOL    HW122334   4.538   6.401   0.767  0.2846  0.1070  1.1365
 3560SOL    HW222335   4.466   6.315   0.886 -0.8127 -0.4999  0.0488
 3561SOL     OW22336   6.882   0.543   7.246 -0.3675  0.5549  0.0675
 3561SOL    HW122337   6.861   0.612   7.177 -0.6209 -0.8073 -1.2545
 3561SOL    HW222338   6.972   0.560   7.286  0.0540  0.9810 -1.0681
 3562SOL     OW22339   2.735   2.295   7.105 -0.0114 -0.5066  0.3387
 3562SOL    HW122340   2.749   2.343   7.018 -0.5086 -0.2318  0.4100
 3562SOL    HW222341   2.692   2.206   7.088  2.9768 -1.9446 -0.0103
 3563SOL     OW22342   2.726   1.543   7.184  0.3297  0.1443 -0.5858
 3563SOL    HW122343   2.774   1.558   7.270 -1.9873  1.4174  0.5117
 3563SOL    HW222344   2.660   1.469   7.194  1.1276 -0.7457 -1.7256
 3564SOL     OW22345   1.658   8.894   5.756 -0.1486 -0.0091  0.2677
 3564SOL    HW122346   1.622   8.930   5.843 -0.0412  0.1639  0.2412
 3564SOL    HW222347   1.642   8.961   5.684 -2.4316 -1.1602 -0.3496
 3565SOL     OW22348   2.338   8.779   1.498  0.1220 -0.2736  0.0484
 3565SOL    HW122349   2.372   8.686   1.507 -0.1098 -0.2712  0.9580
 3565SOL    HW222350   2.261   8.793   1.560  1.0548  0.9439  0.9537
 3566SOL     OW22351   7.609   1.741   5.786 -0.6824  0.0121  0.3524
 3566SOL    HW122352   7.677   1.749   5.714 -1.2203 -2.0011 -0.3813
 3566SOL    HW222353   7.520   1.717   5.747 -2.1099  3.5623  1.1817
 3567SOL     OW22354   3.654   2.028   5.758  0.4731 -0.2657 -0.4703
 3567SOL    HW122355   3.641   2.127   5.758  0.5840 -0.2318  1.1996
 3567SOL    HW222356   3.566   1.982   5.744 -0.1390  0.0622  1.9993
 3568SOL     OW22357   2.669   7.444   1.681  0.1936 -0.2802 -0.0933
 3568SOL    HW122358   2.647   7.541   1.673  0.2297 -0.3240 -0.7879
 3568SOL    HW222359   2.585   7.390   1.677  0.4094 -0.4684 -3.0959
 3569SOL     OW22360   1.733   6.730   6.012 -0.1365  0.4070  0.1661
 3569SOL    HW122361   1.742   6.749   6.110 -0.7091  0.8371  0.1419
 3569SOL    HW222362   1.818   6.755   5.966  0.4132 -0.5253  0.6580
 3570SOL     OW22363   6.265   0.187   1.439  0.0248  0.0077  0.4165
 3570SOL    HW122364   6.222   0.141   1.361  1.3249 -0.6195  0.0627
 3570SOL    HW222365   6.304   0.119   1.501 -0.5869  0.5241  1.3805
 3571SOL     OW22366   9.184   4.572   3.154 -0.7264 -0.1415 -0.3318
 3571SOL    HW122367   9.171   4.493   3.213 -0.9426  0.4904  0.4754
 3571SOL    HW222368   9.108   4.577   3.089 -0.6398 -0.6701 -0.4786
 3572SOL     OW22369   0.328   8.491   4.331  0.4436 -0.4904  0.8287
 3572SOL    HW122370   0.420   8.528   4.328  0.3298 -0.2766 -0.2033
 3572SOL    HW222371   0.327   8.399   4.291  0.2226 -0.5140  0.8848
 3573SOL     OW22372   7.447   1.957   7.615 -0.0199 -0.5796 -0.4286
 3573SOL    HW122373   7.470   2.021   7.541 -1.2138  0.0870 -0.2272
 3573SOL    HW222374   7.507   1.973   7.693 -1.1812  1.2203  0.1316
 3574SOL     OW22375   2.937   2.295   7.570  0.0541 -0.2119  0.0870
 3574SOL    HW122376   3.032   2.318   7.590  0.6560 -1.1832 -1.5451
 3574SOL    HW222377   2.885   2.379   7.553  0.5066  0.3459  1.3413
 3575SOL     OW22378   1.612   7.612   4.774 -0.1161 -0.1178  0.2479
 3575SOL    HW122379   1.662   7.562   4.704 -1.5181  1.3836 -1.9245
 3575SOL    HW222380   1.649   7.705   4.783 -1.4441  0.4897 -0.2694
 3576SOL     OW22381   2.935   2.341   2.338 -0.0437  0.0057  0.7585
 3576SOL    HW122382   3.034   2.336   2.355  0.1335  0.3884 -0.1037
 3576SOL    HW222383   2.888   2.375   2.419  0.3391 -1.8544  1.7848
 3577SOL     OW22384   2.669   5.434   6.103 -0.0999  0.3589 -0.1740
 3577SOL    HW122385   2.673   5.444   6.203  2.3410 -1.8103  0.0201
 3577SOL    HW222386   2.598   5.493   6.066 -1.6806  0.5134  2.9494
 3578SOL     OW22387   9.267   3.516   0.663 -0.2130  0.0956  0.3804
 3578SOL    HW122388   9.325   3.597   0.678 -1.3060  1.1456 -0.9448
 3578SOL    HW222389   9.322   3.445   0.618  0.3988  0.6044  0.3048
 3579SOL     OW22390   9.948   3.574   0.996  0.8680 -0.2848  0.2121
 3579SOL    HW122391   9.900   3.505   1.050  3.9173 -1.4619  1.5445
 3579SOL    HW222392  10.042   3.543   0.978  0.9107  1.5254 -3.0632
 3580SOL     OW22393   6.114   2.347   5.511  0.6769 -0.3550  0.0310
 3580SOL    HW122394   6.019   2.337   5.483  1.1256  1.9999 -2.5862
 3580SOL    HW222395   6.174   2.315   5.437  1.8818  2.4118 -0.2514
 3581SOL     OW22396   6.923   8.882   5.189  0.3482 -0.4046  0.0098
 3581SOL    HW122397   7.012   8.928   5.181 -0.0558  0.5098  0.7319
 3581SOL    HW222398   6.874   8.918   5.268 -1.2374  0.0838 -1.1812
 3582SOL     OW22399   4.611   4.820   1.527 -0.7052 -0.2666  0.0673
 3582SOL    HW122400   4.543   4.893   1.524  1.2757  1.5954 -1.0473
 3582SOL    HW222401   4.596   4.765   1.609 -3.3204  0.2932  0.0281
 3583SOL     OW22402   7.875   7.164   6.836 -0.2970  0.2594 -0.2699
 3583SOL    HW122403   7.907   7.241   6.780 -0.3793  0.3719 -0.1626
 3583SOL    HW222404   7.845   7.198   6.925  1.7300 -0.1633  0.6037
 3584SOL     OW22405   0.297   7.633   2.838 -0.0623 -0.7605  0.0568
 3584SOL    HW122406   0.274   7.550   2.786 -0.5593 -1.0952  0.8085
 3584SOL    HW222407   0.244   7.635   2.922  0.7614 -0.2272  0.5681
 3585SOL     OW22408   7.814   8.126   5.546 -0.0395 -0.4862 -0.1088
 3585SOL    HW122409   7.742   8.081   5.599  0.1144 -0.7703 -0.1345
 3585SOL    HW222410   7.882   8.058   5.520  0.4968 -0.1308  0.3483
 3586SOL     OW22411   8.424   3.389   4.538  0.4218  0.4715 -0.0982
 3586SOL    HW122412   8.362   3.311   4.545  1.5464 -0.3452  1.1403
 3586SOL    HW222413   8.372   3.472   4.522 -0.9472 -0.2773  0.4000
 3587SOL     OW22414   4.848   1.401   3.049  0.0821 -0.0523 -0.3522
 3587SOL    HW122415   4.847   1.320   3.108  1.0092 -0.1208 -0.4221
 3587SOL    HW222416   4.937   1.409   3.004 -0.2447  0.6141 -0.8940
 3588SOL     OW22417   2.714   8.959   4.078  0.2289 -0.3766 -0.3418
 3588SOL    HW122418   2.731   8.865   4.046  0.1043 -1.1444  1.7407
 3588SOL    HW222419   2.723   8.962   4.178 -0.7459  1.6353 -0.2908
 3589SOL     OW22420   9.752   7.849   7.755 -0.6046  0.1474  0.1786
 3589SOL    HW122421   9.676   7.856   7.690 -1.1775  0.3369  0.8689
 3589SOL    HW222422   9.836   7.826   7.705 -1.0821  0.0695 -0.6036
 3590SOL     OW22423   1.878   3.832   6.336 -0.0181 -0.0159 -0.0821
 3590SOL    HW122424   1.898   3.766   6.408  2.3504  1.6853  0.8785
 3590SOL    HW222425   1.927   3.807   6.252 -0.2051 -0.1966 -0.1394
 3591SOL     OW22426   9.381   6.128   2.644 -0.6631  0.0672 -0.0566
 3591SOL    HW122427   9.425   6.135   2.555  1.2651  1.0363  0.9336
 3591SOL    HW222428   9.386   6.033   2.676 -3.2897 -0.7309 -1.9003
 3592SOL     OW22429   3.331   3.588   0.801 -0.0289  0.2228  0.2399
 3592SOL    HW122430   3.311   3.522   0.728  2.1211  1.0742 -1.1995
 3592SOL    HW222431   3.264   3.579   0.874 -0.8015 -2.3639 -0.7175
 3593SOL     OW22432   7.945   0.615   1.557 -0.4547  0.0137  0.0270
 3593SOL    HW122433   8.022   0.675   1.536 -0.6346  0.7284  1.3104
 3593SOL    HW222434   7.947   0.535   1.498  0.2108  0.9343 -1.2237
 3594SOL     OW22435   6.157   4.139   0.753 -0.1378  0.2997  0.2649
 3594SOL    HW122436   6.124   4.091   0.672 -0.7226  0.4632  0.4079
 3594SOL    HW222437   6.095   4.214   0.776  0.0731  0.3156  0.8072
 3595SOL     OW22438   7.914   8.683   3.519 -0.3190  0.4999 -0.1720
 3595SOL    HW122439   7.964   8.641   3.595 -0.2744  0.6042 -0.1433
 3595SOL    HW222440   7.947   8.646   3.433 -0.6293  0.1066 -0.1222
 3596SOL     OW22441   1.410   5.996   5.177 -0.3861 -0.1579  0.0936
 3596SOL    HW122442   1.358   5.911   5.182 -0.5585 -0.1581 -1.4727
 3596SOL    HW222443   1.407   6.032   5.083 -0.8229  1.9017  0.8740
 3597SOL     OW22444   9.207   3.384   5.419 -0.2273  0.2758  0.3419
 3597SOL    HW122445   9.183   3.323   5.495 -1.1966  0.9570  0.5942
 3597SOL    HW222446   9.286   3.346   5.370 -0.8809 -1.2343  0.4194
 3598SOL     OW22447   9.790   4.079   6.640 -0.0786 -0.1366 -0.1613
 3598SOL    HW122448   9.806   4.143   6.715 -2.1078  1.1177 -0.7780
 3598SOL    HW222449   9.754   3.993   6.677  1.7778 -0.6278  0.5712
 3599SOL     OW22450   9.079   4.610   5.297 -0.0877  0.2810  0.3801
 3599SOL    HW122451   9.162   4.616   5.242 -0.4952 -0.8073 -0.3786
 3599SOL    HW222452   9.087   4.669   5.377  0.9665  1.0206 -0.2695
 3600SOL     OW22453   8.851   9.038   5.722 -0.0848 -0.0882 -0.2904
 3600SOL    HW122454   8.925   9.082   5.673  1.6150 -0.6042  1.7373
 3600SOL    HW222455   8.802   9.105   5.778  0.3980 -0.1657  0.2306
 3601SOL     OW22456   4.012   1.403   3.269  0.0834 -0.4713 -0.0813
 3601SOL    HW122457   4.081   1.360   3.211  0.7785  0.7901 -0.2083
 3601SOL    HW222458   3.925   1.408   3.220 -0.1375 -2.1387  0.1092
 3602SOL     OW22459   9.238   3.981   2.206 -0.1590  0.2680 -0.6629
 3602SOL    HW122460   9.139   3.986   2.189 -0.0761 -1.7745 -1.9119
 3602SOL    HW222461   9.254   3.946   2.298 -0.6025  1.3960 -0.1535
 3603SOL     OW22462   3.409   7.894   3.410  0.5125  0.3888 -0.7366
 3603SOL    HW122463   3.494   7.894   3.463  0.1060 -1.9477 -0.0230
 3603SOL    HW222464   3.404   7.978   3.356  0.8851  2.8755  2.9454
 3604SOL     OW22465   0.938   7.156   3.048 -0.2156  0.3345 -0.3869
 3604SOL    HW122466   1.031   7.121   3.037 -0.6674 -0.3872 -2.1092
 3604SOL    HW222467   0.923   7.232   2.985 -0.2438  1.5958  1.1303
 3605SOL     OW22468   3.426   1.745   4.821  0.2438 -0.0370 -0.5318
 3605SOL    HW122469   3.327   1.755   4.831 -0.0652 -1.9859 -1.4042
 3605SOL    HW222470   3.463   1.694   4.898  0.6121  0.8909 -0.0889
 3606SOL     OW22471   6.282   3.276   0.735 -0.1247 -0.3028  0.3115
 3606SOL    HW122472   6.298   3.273   0.637 -0.9255 -0.7861  0.1932
 3606SOL    HW222473   6.302   3.368   0.770  1.8113 -0.5890 -0.0071
 3607SOL     OW22474   1.666   8.630   7.247  0.5919  0.7184 -0.5663
 3607SOL    HW122475   1.749   8.576   7.266  0.8029  1.3272  0.2669
 3607SOL    HW222476   1.613   8.585   7.175  1.6801  0.3536 -1.1555
 3608SOL     OW22477   7.210   2.806   7.902  0.4947 -0.2466  0.2574
 3608SOL    HW122478   7.140   2.834   7.969  0.1654  0.3578 -0.3373
 3608SOL    HW222479   7.252   2.720   7.932 -1.8828 -1.6768 -0.3826
 3609SOL     OW22480   7.839   9.387   4.604 -0.1416 -0.5201  0.0734
 3609SOL    HW122481   7.872   9.419   4.516 -1.0000  0.2056  0.0117
 3609SOL    HW222482   7.758   9.330   4.590 -1.6601  1.4778  0.5404
 3610SOL     OW22483   2.843   9.419   1.568 -0.2337 -0.1008  0.2109
 3610SOL    HW122484   2.744   9.423   1.586 -0.1896 -1.8418  0.9130
 3610SOL    HW222485   2.871   9.324   1.557  0.8513  0.5539 -3.0360
 3611SOL     OW22486   1.531   4.041   5.010  0.3484 -0.6241 -0.5024
 3611SOL    HW122487   1.451   3.981   5.008 -0.0707 -0.0621 -0.7779
 3611SOL    HW222488   1.502   4.134   5.032  0.8175 -0.2468 -1.4780
 3612SOL     OW22489   1.839   5.967   7.572 -0.0643 -0.4943  0.2515
 3612SOL    HW122490   1.916   5.940   7.630  0.4934  3.2381  1.3230
 3612SOL    HW222491   1.753   5.949   7.620  0.2222 -1.8195  0.2859
 3613SOL     OW22492   1.889   6.639   3.275 -0.0706 -0.3141  0.2852
 3613SOL    HW122493   1.916   6.647   3.179  1.4983  0.5512  0.7716
 3613SOL    HW222494   1.925   6.717   3.326 -0.1826 -1.1925  1.7414
 3614SOL     OW22495   0.035   6.136   2.894  0.2067 -0.4358  0.0007
 3614SOL    HW122496   0.068   6.047   2.860  1.0826  0.0243 -0.3627
 3614SOL    HW222497  -0.024   6.178   2.825 -1.6058 -1.5002  0.8675
 3615SOL     OW22498   1.835   9.633   2.271  0.3852  0.0253 -0.0713
 3615SOL    HW122499   1.914   9.661   2.327  0.7833  0.0405 -0.6303
 3615SOL    HW222500   1.752   9.674   2.308  0.7335  0.5537  0.1428
 3616SOL     OW22501   1.544   7.814   7.602 -0.1095 -0.0373  0.0294
 3616SOL    HW122502   1.467   7.876   7.614 -0.1966 -0.1132 -0.1433
 3616SOL    HW222503   1.576   7.818   7.507 -0.6281 -0.8641 -0.1818
 3617SOL     OW22504   2.445   9.232   6.160  0.1328 -0.5715 -0.0003
 3617SOL    HW122505   2.422   9.148   6.111  0.0727 -1.1546  1.0017
 3617SOL    HW222506   2.543   9.237   6.175  0.2505  0.0462 -0.9557
 3618SOL     OW22507   1.828   2.350   3.019 -0.3678  0.6129  0.3913
 3618SOL    HW122508   1.793   2.421   3.081 -0.4318  1.5685 -0.7027
 3618SOL    HW222509   1.908   2.306   3.059  0.0808  1.7850  0.8004
 3619SOL     OW22510   0.963   2.228   0.247  0.0221  0.0023  0.2981
 3619SOL    HW122511   0.911   2.290   0.306 -1.2690  1.6757 -2.5316
 3619SOL    HW222512   0.900   2.162   0.205  0.9266 -1.1589  0.7572
 3620SOL     OW22513   7.486   5.003   6.906 -0.5186  0.2555 -0.6082
 3620SOL    HW122514   7.450   4.911   6.893 -3.3239  1.4328 -1.5389
 3620SOL    HW222515   7.575   5.010   6.860 -0.3558 -1.9183 -0.6760
 3621SOL     OW22516   2.385   4.429   0.211  0.1932  0.3169  0.1438
 3621SOL    HW122517   2.440   4.357   0.170  0.3996  0.6596 -0.1891
 3621SOL    HW222518   2.366   4.407   0.307 -0.4076 -0.5490 -0.1768
 3622SOL     OW22519   4.140   6.731   3.572 -0.7643  0.2647  0.6385
 3622SOL    HW122520   4.090   6.652   3.536  0.1245  0.9816 -2.2991
 3622SOL    HW222521   4.083   6.812   3.563  0.1580  0.7633 -0.9977
 3623SOL     OW22522   7.022   5.150   0.261  0.6154  0.0256 -0.5218
 3623SOL    HW122523   7.044   5.098   0.178  2.2184 -0.0416 -0.0655
 3623SOL    HW222524   7.033   5.091   0.341 -0.2673  0.2843 -0.2080
 3624SOL     OW22525   9.996   9.284   6.821  0.0562  0.2984 -0.4429
 3624SOL    HW122526  10.018   9.242   6.733  2.0928  1.1840 -0.3961
 3624SOL    HW222527   9.932   9.226   6.871 -0.2337 -0.7748 -2.0191
 3625SOL     OW22528   7.481   2.540   2.353  0.1615 -0.2096 -0.3985
 3625SOL    HW122529   7.477   2.441   2.365  1.5476  0.1290  3.5370
 3625SOL    HW222530   7.571   2.566   2.317  0.1546 -0.3006 -0.4818
 3626SOL     OW22531   4.378   1.685   7.868 -0.1682  0.3441  0.3071
 3626SOL    HW122532   4.432   1.749   7.814 -1.1775  1.6234  0.8029
 3626SOL    HW222533   4.412   1.683   7.962  2.0353 -2.3986 -0.4632
 3627SOL     OW22534   6.407   3.108   0.499  0.6472 -0.0629 -0.0903
 3627SOL    HW122535   6.411   3.036   0.569 -0.1120  0.7287  0.7760
 3627SOL    HW222536   6.490   3.164   0.505  1.1727 -0.7573 -0.6721
 3628SOL     OW22537   6.466   4.115   0.205 -0.6606 -0.3388 -0.2540
 3628SOL    HW122538   6.413   4.156   0.131  0.8475  0.4225 -0.9102
 3628SOL    HW222539   6.457   4.172   0.287  1.2874  1.2528 -1.1155
 3629SOL     OW22540   5.342   5.277   0.935 -0.3548  0.2971 -0.4126
 3629SOL    HW122541   5.269   5.212   0.954 -1.8917  1.7244 -1.3720
 3629SOL    HW222542   5.363   5.329   1.018 -1.0160  0.4711 -0.3528
 3630SOL     OW22543   1.466   6.945   6.543  0.5430  0.0395 -0.4994
 3630SOL    HW122544   1.386   6.892   6.572  0.8162 -1.1584 -1.9330
 3630SOL    HW222545   1.549   6.895   6.566  0.7876 -0.4828 -2.4407
 3631SOL     OW22546   7.080   4.473   0.485 -0.5421 -0.1489 -0.2316
 3631SOL    HW122547   7.038   4.400   0.540  0.7143 -0.6323  0.1110
 3631SOL    HW222548   7.179   4.473   0.500 -0.0434 -0.8902 -3.1836
 3632SOL     OW22549   2.458   5.511   5.132  0.1665  0.2452 -0.0019
 3632SOL    HW122550   2.377   5.472   5.087 -0.1812  1.5568 -0.5497
 3632SOL    HW222551   2.539   5.492   5.077 -0.0188  0.4040 -0.3356
 3633SOL     OW22552   7.105   2.642   2.115 -0.1598  0.3917  0.2601
 3633SOL    HW122553   7.159   2.659   2.032 -1.9681 -0.1448 -1.0422
 3633SOL    HW222554   7.070   2.549   2.114 -0.0703  0.3249  1.7233
 3634SOL     OW22555   1.276   4.703   1.533 -0.3948  0.7365 -0.0664
 3634SOL    HW122556   1.343   4.678   1.463 -0.5941  3.6205 -1.3205
 3634SOL    HW222557   1.186   4.671   1.505 -0.1164 -0.1433  0.0037
 3635SOL     OW22558   1.923   4.621   3.707 -0.1899 -0.0933  0.0073
 3635SOL    HW122559   1.996   4.587   3.766  0.8295 -0.3247 -1.3617
 3635SOL    HW222560   1.885   4.546   3.653  0.6435  0.5275 -1.4903
 3636SOL     OW22561   0.351   0.284   7.302 -0.0338  0.1180 -0.3182
 3636SOL    HW122562   0.302   0.328   7.377  2.4658 -0.4163  1.7032
 3636SOL    HW222563   0.390   0.353   7.242 -0.2847  0.5950  0.0692
 3637SOL     OW22564   6.526   0.330   5.822 -0.4390 -0.1652 -0.3315
 3637SOL    HW122565   6.461   0.257   5.843  0.5058 -0.2042  2.8781
 3637SOL    HW222566   6.482   0.418   5.836  0.1065 -0.1914  1.8044
 3638SOL     OW22567   2.849   5.310   1.459 -0.0672  0.4414 -0.1294
 3638SOL    HW122568   2.806   5.229   1.418  0.0271 -1.0541  2.5655
 3638SOL    HW222569   2.778   5.372   1.492 -0.1551  2.0971 -3.2643
 3639SOL     OW22570   2.831   4.917   7.406 -0.1039 -0.4266 -0.5975
 3639SOL    HW122571   2.841   5.012   7.435  0.7054 -0.0137 -2.1987
 3639SOL    HW222572   2.735   4.888   7.417 -0.5071  0.8087 -0.8510
 3640SOL     OW22573   5.903   8.013   6.764  0.0522 -0.3536  0.2503
 3640SOL    HW122574   5.837   7.982   6.696  0.1945 -0.9966  0.4035
 3640SOL    HW222575   5.885   8.109   6.787  0.0486 -0.1207 -0.7329
 3641SOL     OW22576   6.973   8.945   6.371  0.0937  0.0880  0.5983
 3641SOL    HW122577   7.024   8.986   6.296 -1.3517 -0.0941 -0.5157
 3641SOL    HW222578   6.963   8.847   6.355 -1.9592  0.3755 -0.0219
 3642SOL     OW22579   9.607   2.145   5.080  0.2620 -0.9211 -0.3582
 3642SOL    HW122580   9.639   2.132   5.174 -0.3522 -0.1266 -0.0358
 3642SOL    HW222581   9.598   2.056   5.036 -0.5876 -1.3871  0.7216
 3643SOL     OW22582   0.271   5.887   4.955  0.1214 -0.7842 -0.3732
 3643SOL    HW122583   0.261   5.987   4.956  0.1017 -0.7736 -1.3159
 3643SOL    HW222584   0.286   5.854   5.048  0.8877  0.1743 -0.1592
 3644SOL     OW22585   7.134   2.855   3.272 -0.1595 -0.5867  0.0365
 3644SOL    HW122586   7.049   2.838   3.222 -0.1981  0.6786 -0.3347
 3644SOL    HW222587   7.199   2.901   3.212 -0.3288  1.2723  1.2299
 3645SOL     OW22588   8.134   6.288   7.461 -0.6911 -0.2934 -0.4958
 3645SOL    HW122589   8.109   6.310   7.556 -2.4441 -1.2701 -0.7088
 3645SOL    HW222590   8.090   6.353   7.399 -0.9871 -0.7143 -0.7358
 3646SOL     OW22591   1.912   8.509   7.270  0.0788 -0.2413 -0.4793
 3646SOL    HW122592   1.923   8.459   7.356 -2.5068  0.7216  0.4553
 3646SOL    HW222593   1.959   8.460   7.197  0.7263 -2.0632  1.1076
 3647SOL     OW22594   3.124   2.242   5.111  0.2328  0.2679  0.2249
 3647SOL    HW122595   3.115   2.325   5.165  0.0179 -0.3975  1.2244
 3647SOL    HW222596   3.041   2.228   5.057  0.5591  1.0797 -0.4850
 3648SOL     OW22597   5.425   8.664   6.627 -0.1395  0.2144 -0.2692
 3648SOL    HW122598   5.516   8.682   6.590 -0.4037  0.2375 -0.8971
 3648SOL    HW222599   5.424   8.573   6.670 -0.1823 -0.3252 -1.4072
 3649SOL     OW22600   0.735   1.580   4.166 -0.1447  0.7485  0.3381
 3649SOL    HW122601   0.831   1.576   4.193  0.1547 -0.9979 -0.8719
 3649SOL    HW222602   0.680   1.529   4.233 -0.1772  1.4102  0.8156
 3650SOL     OW22603   1.604   1.009   2.178  0.2051  0.0198  0.5605
 3650SOL    HW122604   1.527   0.963   2.134  1.2183  1.1204 -2.5125
 3650SOL    HW222605   1.574   1.096   2.216 -0.3427 -0.1250  0.4618
 3651SOL     OW22606   5.360   1.164   6.495 -0.0387 -0.2033 -0.2548
 3651SOL    HW122607   5.344   1.239   6.432 -0.7494 -0.4334 -0.3513
 3651SOL    HW222608   5.457   1.138   6.493  0.0461  0.1661 -0.8186
 3652SOL     OW22609   2.957   9.925   3.405 -0.3494  0.7934 -0.0946
 3652SOL    HW122610   2.907  10.007   3.434 -1.8600 -1.0043  2.6818
 3652SOL    HW222611   3.046   9.923   3.451  0.1453  1.3801 -1.0037
 3653SOL     OW22612   2.043   1.958   4.392 -0.0463 -0.1451 -0.1184
 3653SOL    HW122613   2.079   2.037   4.441  1.4772  0.0806 -1.5851
 3653SOL    HW222614   2.058   1.875   4.446 -1.2886  0.4796  1.2383
 3654SOL     OW22615   3.986   8.595   6.240 -0.6874  0.1990 -0.2138
 3654SOL    HW122616   3.912   8.575   6.175  0.6756 -0.7964 -1.5034
 3654SOL    HW222617   4.033   8.679   6.213 -1.2619  0.7735  0.5452
 3655SOL     OW22618   2.321   7.869   7.333  0.1892  0.6194  0.6718
 3655SOL    HW122619   2.299   7.788   7.280 -1.1548  0.3324  1.6675
 3655SOL    HW222620   2.393   7.848   7.399  1.0802  0.6999 -0.2534
 3656SOL     OW22621   8.093   8.867   5.265 -0.0759  0.1195 -0.0967
 3656SOL    HW122622   8.067   8.770   5.265  1.6177 -0.3487 -0.2879
 3656SOL    HW222623   8.064   8.909   5.179 -0.3710 -0.3380 -0.2232
 3657SOL     OW22624   2.408   3.687   5.597  0.4799  0.4468  0.4557
 3657SOL    HW122625   2.337   3.755   5.615  0.0065  0.6400 -2.0513
 3657SOL    HW222626   2.370   3.595   5.609  0.1227  0.5641  0.2064
 3658SOL     OW22627   3.691   1.078   1.040 -0.2436  0.0313  0.0957
 3658SOL    HW122628   3.642   1.053   0.957  0.3192 -1.0373  0.0811
 3658SOL    HW222629   3.788   1.092   1.019  0.0712 -1.1420  0.7384
 3659SOL     OW22630   9.818   5.257   1.920  0.1931 -0.5763 -0.1307
 3659SOL    HW122631   9.781   5.341   1.882 -0.0658 -1.1201 -1.1039
 3659SOL    HW222632   9.751   5.217   1.983 -1.3809 -2.0913 -2.6571
 3660SOL     OW22633   4.577   1.927   5.535  0.6130  0.1784 -0.2416
 3660SOL    HW122634   4.600   2.004   5.475  1.8327 -0.4969 -0.6625
 3660SOL    HW222635   4.496   1.950   5.589 -0.2386  0.9522 -1.8373
 3661SOL     OW22636   6.302   0.738   4.240 -0.3142  1.4420 -0.3365
 3661SOL    HW122637   6.270   0.820   4.288  1.5021  1.6626  0.5506
 3661SOL    HW222638   6.316   0.664   4.306 -1.3548  0.5920 -1.0477
 3662SOL     OW22639   0.980   3.291   7.585 -0.1563  0.2041 -0.0373
 3662SOL    HW122640   1.049   3.250   7.644 -2.3437 -1.3217  1.5138
 3662SOL    HW222641   0.971   3.236   7.502  1.3705  1.1352 -0.8509
 3663SOL     OW22642   0.864   4.077   2.686  0.2355  0.3536 -0.2084
 3663SOL    HW122643   0.813   3.992   2.687  0.8268 -0.0212 -1.1916
 3663SOL    HW222644   0.870   4.111   2.592  1.4514  0.5901 -0.0549
 3664SOL     OW22645   2.981   2.095   7.860 -0.0853 -0.1168  0.1157
 3664SOL    HW122646   3.023   2.185   7.855  0.7135 -0.5131 -0.3474
 3664SOL    HW222647   2.937   2.084   7.949  0.3010  0.5082  0.3890
 3665SOL     OW22648   3.901   2.287   6.318  0.5188 -0.1373  0.3879
 3665SOL    HW122649   3.839   2.360   6.343 -0.2699 -0.6547 -0.0485
 3665SOL    HW222650   3.964   2.268   6.394 -0.2453 -0.0240  1.0502
 3666SOL     OW22651   6.225   4.450   8.050  0.1902 -0.2767  0.1073
 3666SOL    HW122652   6.225   4.540   8.095  0.2008 -0.9197  1.4136
 3666SOL    HW222653   6.132   4.414   8.047  0.0250  0.2656 -1.4185
 3667SOL     OW22654   2.730   4.610   4.045  0.0644 -0.5096  0.2161
 3667SOL    HW122655   2.672   4.690   4.035  0.9816  0.1793  0.3610
 3667SOL    HW222656   2.726   4.578   4.140 -0.3693 -0.6963  0.1377
 3668SOL     OW22657   2.033   4.498   6.261 -0.1447 -0.2857 -0.6467
 3668SOL    HW122658   2.022   4.476   6.358 -2.8370  0.3113 -0.7934
 3668SOL    HW222659   2.055   4.415   6.210 -0.8753 -0.9774  0.1585
 3669SOL     OW22660   0.647   7.753   1.448 -0.1893 -0.0281  0.0905
 3669SOL    HW122661   0.632   7.759   1.350 -0.6005 -2.1170  0.0002
 3669SOL    HW222662   0.564   7.782   1.496 -0.6398 -0.7814 -0.2220
 3670SOL     OW22663   4.327   9.725   6.427 -0.3802  0.4386  0.5325
 3670SOL    HW122664   4.404   9.760   6.373  1.0082 -0.6602  1.7466
 3670SOL    HW222665   4.279   9.801   6.470 -1.7237  1.3590 -2.4898
 3671SOL     OW22666   5.599   2.004   5.143  0.5674 -0.4845  0.2233
 3671SOL    HW122667   5.564   1.912   5.125 -0.9370 -0.0614  0.8888
 3671SOL    HW222668   5.579   2.063   5.065  1.7879 -0.7926 -0.3223
 3672SOL     OW22669   0.314   8.288   0.980 -0.3592  0.1199 -0.2761
 3672SOL    HW122670   0.389   8.343   0.943  0.2584  0.2060  1.1006
 3672SOL    HW222671   0.345   8.238   1.061 -2.3369  1.7971  1.5810
 3673SOL     OW22672   9.050   0.975   6.937  0.2029 -0.4915 -0.1974
 3673SOL    HW122673   9.044   1.069   6.902  0.3923 -0.5854 -0.4888
 3673SOL    HW222674   8.969   0.955   6.991  0.8945  0.3688  1.1902
 3674SOL     OW22675   1.893   0.289   6.728 -0.5891  0.0918 -0.0768
 3674SOL    HW122676   1.888   0.191   6.747  1.5191  0.2140  1.2536
 3674SOL    HW222677   1.956   0.306   6.652 -2.9878  0.2397 -2.0897
 3675SOL     OW22678   3.874   5.196   7.829 -0.0256  0.3095  0.0379
 3675SOL    HW122679   3.926   5.142   7.763 -0.5704  1.1278 -1.0721
 3675SOL    HW222680   3.935   5.262   7.873 -0.0133  0.9347 -0.9060
 3676SOL     OW22681   1.053   0.274   3.588 -1.3454  0.2393 -0.4823
 3676SOL    HW122682   1.035   0.311   3.679  0.1543 -1.2249  0.4384
 3676SOL    HW222683   1.129   0.323   3.546 -0.8445 -0.2890 -0.1947
 3677SOL     OW22684   7.750   6.348   7.754 -0.1090 -0.5882  0.3056
 3677SOL    HW122685   7.780   6.443   7.757 -1.0905 -0.3044  2.3823
 3677SOL    HW222686   7.651   6.344   7.772 -0.0580 -1.9928  0.2975
 3678SOL     OW22687   3.620   4.823   0.744 -0.2641 -0.8390 -0.0795
 3678SOL    HW122688   3.565   4.907   0.748  1.6327  0.4515 -0.3564
 3678SOL    HW222689   3.669   4.820   0.657 -1.3004 -2.8957 -0.6151
 3679SOL     OW22690   8.577   6.873   2.750  0.1774  0.4927  0.2690
 3679SOL    HW122691   8.607   6.945   2.687 -1.2260 -0.7112 -1.8476
 3679SOL    HW222692   8.514   6.912   2.818 -1.0680  1.1578 -1.2409
 3680SOL     OW22693   1.655   9.497   0.623  0.1954 -0.3206 -0.1438
 3680SOL    HW122694   1.753   9.514   0.620 -0.3261  2.7528 -3.3735
 3680SOL    HW222695   1.632   9.426   0.556  0.0386  0.1377 -0.5800
 3681SOL     OW22696   4.688   5.313   2.314 -0.7013  0.2266 -0.2775
 3681SOL    HW122697   4.635   5.279   2.237 -0.2657  2.3093 -1.5448
 3681SOL    HW222698   4.631   5.371   2.371 -0.1190  1.5586 -1.0220
 3682SOL     OW22699   1.110   2.720   2.743 -0.3207  0.4891  0.1741
 3682SOL    HW122700   1.073   2.631   2.770 -0.3159  0.9817  1.8383
 3682SOL    HW222701   1.206   2.709   2.719 -0.5559 -0.1188 -0.5023
 3683SOL     OW22702   9.149   3.952   5.413  0.0276  0.0818  0.0893
 3683SOL    HW122703   9.106   3.886   5.474  0.6945 -1.2397 -0.8278
 3683SOL    HW222704   9.094   4.035   5.408 -1.5404 -0.9375  0.2170
 3684SOL     OW22705   3.161   9.544   0.192 -0.1106 -0.0122  0.3448
 3684SOL    HW122706   3.086   9.568   0.253  0.0028 -1.8798  1.2343
 3684SOL    HW222707   3.155   9.601   0.109 -1.8557  0.6133  0.8657
 3685SOL     OW22708   4.393   8.607   4.527  0.1143 -0.0302  0.1381
 3685SOL    HW122709   4.384   8.682   4.462  1.2701  1.2502  1.4224
 3685SOL    HW222710   4.431   8.527   4.481 -0.5078  0.3582 -1.0864
 3686SOL     OW22711   9.734   5.474   7.883 -0.1257  0.3687  0.6536
 3686SOL    HW122712   9.682   5.412   7.824  1.1680  0.7864 -0.9684
 3686SOL    HW222713   9.747   5.432   7.973 -2.9240  0.1127  0.9689
 3687SOL     OW22714   4.855   6.424   0.992 -0.0083 -0.5972 -0.1978
 3687SOL    HW122715   4.767   6.445   1.034  0.5802 -0.0364  0.7566
 3687SOL    HW222716   4.919   6.499   1.008  0.5917 -0.9190 -1.0438
 3688SOL     OW22717   7.301   0.617   1.998  0.3636  0.3175 -0.2635
 3688SOL    HW122718   7.245   0.675   1.938 -1.0177 -1.0900 -0.3594
 3688SOL    HW222719   7.242   0.561   2.055  1.6816 -1.0183 -0.1816
 3689SOL     OW22720   4.672   1.139   7.969 -0.1476  0.0563 -0.4862
 3689SOL    HW122721   4.617   1.115   8.050 -0.2000 -1.8185 -1.0670
 3689SOL    HW222722   4.611   1.154   7.891  0.0667 -0.6430 -0.7896
 3690SOL     OW22723   4.266   5.459   4.058  0.5115 -0.5259 -0.7143
 3690SOL    HW122724   4.192   5.404   4.018 -0.9987  0.7512  0.2517
 3690SOL    HW222725   4.275   5.544   4.006 -1.5197  1.1872  1.6326
 3691SOL     OW22726   4.460   4.569   7.640  0.2445  0.3876  0.2449
 3691SOL    HW122727   4.557   4.585   7.660  0.5848 -1.9994  0.6305
 3691SOL    HW222728   4.413   4.539   7.723 -0.3039 -0.7697 -0.4677
 3692SOL     OW22729   0.032   9.212   3.507  0.0183 -0.4955  0.0468
 3692SOL    HW122730   0.076   9.124   3.489 -1.5582 -1.6490  1.6495
 3692SOL    HW222731   0.008   9.218   3.604 -0.8129  1.2809 -0.2500
 3693SOL     OW22732   2.908   2.865   7.719 -0.1680 -0.3538  0.8636
 3693SOL    HW122733   2.903   2.937   7.649 -0.1566  1.3773  2.6191
 3693SOL    HW222734   2.986   2.806   7.699  0.5053  0.7850  0.0255
 3694SOL     OW22735   0.253   5.423   6.603 -0.4421  0.5118  0.8114
 3694SOL    HW122736   0.157   5.428   6.631 -0.3121 -0.6230  1.5103
 3694SOL    HW222737   0.259   5.371   6.518 -0.6301  2.2175 -0.2645
 3695SOL     OW22738   7.945   3.620   3.482  0.0008  0.2340 -0.7725
 3695SOL    HW122739   8.030   3.568   3.490 -1.9767 -2.6972  2.4933
 3695SOL    HW222740   7.882   3.572   3.421  0.1521  1.6434 -2.0464
 3696SOL     OW22741   7.854   6.706   5.790  0.1592  0.1443  0.2175
 3696SOL    HW122742   7.874   6.696   5.693 -1.5793 -0.9570 -0.0450
 3696SOL    HW222743   7.822   6.799   5.809  1.1053  0.5466 -0.1422
 3697SOL     OW22744   7.733   4.242   0.742  0.4798 -0.4393 -0.2772
 3697SOL    HW122745   7.694   4.328   0.709  0.1776 -1.2862 -2.1762
 3697SOL    HW222746   7.674   4.202   0.812  0.8112  1.0610  0.8941
 3698SOL     OW22747   7.014   1.817   8.009 -0.0213  0.1461 -0.0563
 3698SOL    HW122748   6.938   1.871   8.045  0.3760  1.0512 -0.5328
 3698SOL    HW222749   6.990   1.720   8.009 -1.5570  0.5008 -1.0916
 3699SOL     OW22750   3.879   5.499   5.683 -0.4670  0.2310 -1.1758
 3699SOL    HW122751   3.852   5.543   5.769  0.3702 -2.0881  0.3206
 3699SOL    HW222752   3.978   5.493   5.678 -0.5476 -0.8761 -1.6599
 3700SOL     OW22753   4.148   0.667   7.448  0.2412 -0.6502 -0.1010
 3700SOL    HW122754   4.142   0.574   7.411 -2.8458 -0.3454 -0.5057
 3700SOL    HW222755   4.189   0.664   7.539  1.1159 -2.2804 -0.5190
 3701SOL     OW22756   0.911   0.519   0.761  0.7692  0.2316 -0.9100
 3701SOL    HW122757   0.841   0.496   0.693 -0.3302  0.4923  0.1016
 3701SOL    HW222758   0.996   0.544   0.715  1.8843 -5.1796 -2.0910
 3702SOL     OW22759   7.356   0.061   2.500  0.4119 -0.0642 -0.3380
 3702SOL    HW122760   7.400  -0.029   2.493 -2.0692 -1.3435 -0.1089
 3702SOL    HW222761   7.376   0.101   2.589 -0.6359 -1.6269  0.6340
 3703SOL     OW22762   1.412   7.261   7.954 -0.0713  0.2857 -0.3193
 3703SOL    HW122763   1.315   7.236   7.957 -0.1726  0.7261  0.0368
 3703SOL    HW222764   1.453   7.249   8.044  0.4801 -0.9766 -0.7267
 3704SOL     OW22765   1.832   6.594   1.893  0.0793  0.5399 -0.1685
 3704SOL    HW122766   1.879   6.656   1.956  1.1852 -0.9722  0.5114
 3704SOL    HW222767   1.867   6.608   1.800 -1.4613  2.6785 -0.4535
 3705SOL     OW22768   1.389   6.823   3.858 -0.3691  0.0277 -0.2070
 3705SOL    HW122769   1.421   6.746   3.913 -0.4591 -1.2612 -1.9069
 3705SOL    HW222770   1.450   6.835   3.779 -1.0281  0.9760 -0.5797
 3706SOL     OW22771   2.922   4.776   7.741  0.0392  0.5552  0.3990
 3706SOL    HW122772   2.831   4.765   7.701  0.2208  0.3786  0.0356
 3706SOL    HW222773   2.924   4.861   7.794 -0.3842  0.4811  0.5388
 3707SOL     OW22774   8.088   3.384   3.824  0.3965 -0.3330 -0.2510
 3707SOL    HW122775   8.013   3.449   3.810  0.6698 -0.4171 -2.2725
 3707SOL    HW222776   8.108   3.376   3.922 -1.2394  0.8024  0.1928
 3708SOL     OW22777   0.231   5.563   2.180 -0.3249  0.2435  0.3155
 3708SOL    HW122778   0.266   5.623   2.108  1.6498  0.3714  1.3381
 3708SOL    HW222779   0.165   5.499   2.141  0.3605  0.6275 -1.5257
 3709SOL     OW22780   1.227   0.445   1.044 -0.3116  1.1771 -0.3094
 3709SOL    HW122781   1.298   0.418   1.109 -0.0263 -1.3151 -1.5971
 3709SOL    HW222782   1.260   0.522   0.989  1.3535  0.1202 -0.8070
 3710SOL     OW22783   3.744   3.592   1.032  0.2922 -0.3569 -0.2977
 3710SOL    HW122784   3.800   3.632   0.960 -0.6147 -0.3027 -0.9814
 3710SOL    HW222785   3.706   3.665   1.089  0.3784 -0.3563 -0.2410
 3711SOL     OW22786   1.501   0.132   0.344  0.0194 -0.2250  0.0163
 3711SOL    HW122787   1.564   0.058   0.369 -0.4809 -0.6553  0.0149
 3711SOL    HW222788   1.444   0.103   0.267 -0.6278 -0.0856  0.4379
 3712SOL     OW22789   4.284   3.893   2.561 -0.5703  0.3379  0.3292
 3712SOL    HW122790   4.244   3.901   2.653 -0.1089  0.7629  0.4929
 3712SOL    HW222791   4.376   3.931   2.561 -0.0731 -0.8436  0.0005
 3713SOL     OW22792   7.457   1.932   6.189  0.1942 -0.4516  0.0255
 3713SOL    HW122793   7.425   1.969   6.101 -1.2135 -1.5278  0.0709
 3713SOL    HW222794   7.486   1.837   6.177  1.9294  0.0236  0.3197
 3714SOL     OW22795   8.830   7.980   5.898 -0.1966  0.0955  0.2944
 3714SOL    HW122796   8.827   7.989   5.998 -1.8426 -0.6577  0.3350
 3714SOL    HW222797   8.741   7.946   5.866  0.3850  0.1838 -1.4103
 3715SOL     OW22798   2.423   6.853   0.586 -0.0751 -0.4292  0.1436
 3715SOL    HW122799   2.352   6.791   0.619 -1.7596  1.3414 -0.0789
 3715SOL    HW222800   2.392   6.948   0.595  0.7002  0.2595 -3.4314
 3716SOL     OW22801   0.697   4.500   4.128 -0.1972 -0.3015 -0.6201
 3716SOL    HW122802   0.683   4.597   4.149  0.1693 -0.2535 -0.5915
 3716SOL    HW222803   0.647   4.476   4.045  0.0556  0.0153 -0.8687
 3717SOL     OW22804   1.805   6.046   3.709  0.2598 -0.5930  0.5617
 3717SOL    HW122805   1.804   6.004   3.800 -2.4270 -1.3931  0.2319
 3717SOL    HW222806   1.826   5.976   3.641 -1.4384 -0.8275  0.2592
 3718SOL     OW22807   0.632   5.956   6.953 -0.0539 -0.5436  0.2962
 3718SOL    HW122808   0.550   5.898   6.956 -0.1240 -0.4162  1.0301
 3718SOL    HW222809   0.701   5.920   7.015  0.0594 -0.0791  0.4482
 3719SOL     OW22810   3.419   1.973   2.701  0.2812 -0.1194 -0.0006
 3719SOL    HW122811   3.486   1.911   2.660 -1.2450 -0.1907 -2.4647
 3719SOL    HW222812   3.454   2.067   2.699  1.5575 -0.5396  1.5092
 3720SOL     OW22813   1.903   6.971   3.398 -0.0949  0.0634  0.3517
 3720SOL    HW122814   1.887   6.936   3.491 -0.2401 -1.5524 -0.2804
 3720SOL    HW222815   1.818   6.963   3.345  0.2153  0.2497 -0.1691
 3721SOL     OW22816   0.202   1.626   2.261 -0.1808  0.3298 -0.8495
 3721SOL    HW122817   0.295   1.651   2.237 -0.4010  0.7902 -1.2415
 3721SOL    HW222818   0.201   1.536   2.305  0.6619  1.1092  0.8427
 3722SOL     OW22819   5.512   4.464   1.819 -0.0844 -0.4331  0.6491
 3722SOL    HW122820   5.506   4.564   1.817 -0.4671 -0.4490  0.8142
 3722SOL    HW222821   5.594   4.436   1.868 -0.5451 -0.2048  1.5611
 3723SOL     OW22822   4.857   7.355   4.993  0.2600 -0.2311 -0.4178
 3723SOL    HW122823   4.952   7.331   4.971  0.4514  0.5869 -0.5290
 3723SOL    HW222824   4.812   7.391   4.911  0.3730  0.9659  0.0250
 3724SOL     OW22825   0.851   9.184   6.649 -0.2808  0.0677  0.0187
 3724SOL    HW122826   0.761   9.154   6.677  0.4198 -0.6739  1.5027
 3724SOL    HW222827   0.853   9.194   6.549 -1.5705 -1.3160 -0.1662
 3725SOL     OW22828   2.402   9.567   2.285 -0.0334 -0.0725  0.3669
 3725SOL    HW122829   2.477   9.633   2.286 -0.5150  0.4758  2.4963
 3725SOL    HW222830   2.435   9.479   2.252  1.5134  0.2067  1.1186
 3726SOL     OW22831   0.172   1.285   2.522  0.1195 -0.1000  0.5177
 3726SOL    HW122832   0.226   1.348   2.466  1.5267 -0.0990  1.8564
 3726SOL    HW222833   0.181   1.192   2.487 -0.3320  0.1428 -0.2465
 3727SOL     OW22834   7.908   8.342   4.641  0.6717 -0.1198 -0.4580
 3727SOL    HW122835   7.984   8.380   4.694 -0.0331  1.2511 -0.4173
 3727SOL    HW222836   7.938   8.259   4.595  2.3580  0.7214 -0.8959
 3728SOL     OW22837   8.554   7.100   3.855 -0.4217 -0.5321  0.4893
 3728SOL    HW122838   8.486   7.036   3.818 -1.0096  0.2834  0.1528
 3728SOL    HW222839   8.645   7.060   3.846 -0.9273 -2.0243  1.7709
 3729SOL     OW22840   8.299   9.436   6.769 -0.3691 -0.1190 -0.0664
 3729SOL    HW122841   8.331   9.472   6.857 -0.9949 -1.3348  0.6656
 3729SOL    HW222842   8.354   9.357   6.744  0.0454  0.4452 -0.9553
 3730SOL     OW22843   4.222   4.235   2.706  0.2549  0.0797  0.3172
 3730SOL    HW122844   4.248   4.146   2.744  0.1078  0.0040  0.2399
 3730SOL    HW222845   4.303   4.279   2.668  0.7075  0.8437  2.1189
 3731SOL     OW22846   0.157   1.850   1.032  0.6318  0.5150  0.5384
 3731SOL    HW122847   0.217   1.909   1.085  3.1669 -2.3013  0.9256
 3731SOL    HW222848   0.154   1.759   1.074 -2.4079  0.0600 -0.5689
 3732SOL     OW22849   9.172   3.942   2.568 -0.1072 -0.5069 -0.6416
 3732SOL    HW122850   9.157   4.018   2.630 -1.0886 -0.4184 -0.9795
 3732SOL    HW222851   9.267   3.943   2.536  0.1004  0.0925 -0.0142
 3733SOL     OW22852   8.985   8.660   4.985  0.0130 -0.3731  0.3751
 3733SOL    HW122853   9.034   8.710   5.057  2.6430  1.1608 -2.3882
 3733SOL    HW222854   8.887   8.682   4.991  0.6734  2.7007  1.2096
 3734SOL     OW22855   9.636   1.627   6.629  0.5701  0.0280  0.2634
 3734SOL    HW122856   9.570   1.702   6.616 -1.4603 -1.8274 -0.4855
 3734SOL    HW222857   9.713   1.640   6.567  0.6229  1.8792  0.6693
 3735SOL     OW22858   8.176   9.943   0.370  0.4851  0.1431  0.5551
 3735SOL    HW122859   8.117  10.013   0.330  1.8041  0.7763 -0.2888
 3735SOL    HW222860   8.191   9.963   0.467 -1.5274 -0.6030  1.0591
 3736SOL     OW22861   7.424   9.243   7.292 -0.3267 -0.2681  0.1719
 3736SOL    HW122862   7.331   9.214   7.314  0.2176 -1.4956  0.9370
 3736SOL    HW222863   7.433   9.342   7.308 -1.6349 -0.0511 -0.4285
 3737SOL     OW22864   8.295   5.567   2.966 -0.2158 -0.3495  0.6615
 3737SOL    HW122865   8.363   5.495   2.956 -0.9822 -1.1893  1.3953
 3737SOL    HW222866   8.300   5.605   3.059  1.5673  1.9741 -0.3349
 3738SOL     OW22867   4.453   8.258   2.151  0.0978  0.1350 -0.0720
 3738SOL    HW122868   4.357   8.255   2.179  0.1143 -1.0455 -0.1123
 3738SOL    HW222869   4.469   8.340   2.097 -0.5296  1.1216  1.2177
 3739SOL     OW22870   8.174   9.941   6.744 -0.0703  0.1700 -0.1103
 3739SOL    HW122871   8.081   9.944   6.709 -0.6568  0.1856  1.4244
 3739SOL    HW222872   8.200   9.847   6.764 -0.8055  0.4348  2.1869
 3740SOL     OW22873   8.199   0.725   3.074  0.6883 -0.7329 -0.4659
 3740SOL    HW122874   8.185   0.630   3.045  1.5830 -1.5151  1.6216
 3740SOL    HW222875   8.296   0.741   3.092  0.2981  0.0405  1.0246
 3741SOL     OW22876   1.688   1.315   4.689  0.3788 -0.4101 -0.1254
 3741SOL    HW122877   1.675   1.383   4.761  1.6725 -0.2985  0.0138
 3741SOL    HW222878   1.601   1.271   4.669  0.0483 -0.6121  1.6662
 3742SOL     OW22879   2.962   7.469   5.054 -0.2695 -0.6474 -0.2828
 3742SOL    HW122880   2.962   7.370   5.071 -0.6903 -0.7549 -0.9126
 3742SOL    HW222881   3.049   7.495   5.012 -0.1433 -0.7418 -0.0836
 3743SOL     OW22882   0.894   7.515   0.988  0.7174  0.4977  0.0615
 3743SOL    HW122883   0.875   7.448   0.917 -0.9071 -0.6691  1.5390
 3743SOL    HW222884   0.987   7.501   1.023  0.4231 -0.9324  0.2968
 3744SOL     OW22885   1.934   7.109   0.116  0.3751 -0.2539  0.2108
 3744SOL    HW122886   1.980   7.182   0.166 -0.1339 -0.3179  0.7684
 3744SOL    HW222887   1.938   7.024   0.169  0.7062 -0.5670 -0.3037
 3745SOL     OW22888   9.708   1.469   3.694 -0.0695 -0.1405 -0.0003
 3745SOL    HW122889   9.662   1.424   3.618  0.5345 -1.0125  0.1419
 3745SOL    HW222890   9.698   1.568   3.685  0.2280 -0.2247 -1.3593
 3746SOL     OW22891   9.243   8.518   0.193 -0.3319 -0.3937  0.3619
 3746SOL    HW122892   9.209   8.600   0.147 -1.7767 -2.0807 -1.6757
 3746SOL    HW222893   9.327   8.487   0.149 -0.7114 -0.9608  0.0209
 3747SOL     OW22894   3.382   9.904   4.660 -0.2700 -0.4985  0.9445
 3747SOL    HW122895   3.337   9.955   4.586  1.3233 -0.0376  0.2694
 3747SOL    HW222896   3.417   9.969   4.728  1.4443 -0.6751  0.2647
 3748SOL     OW22897   0.409   7.911   0.541  0.4521 -0.5322 -0.2268
 3748SOL    HW122898   0.347   7.943   0.470  0.1511 -0.9332 -0.1476
 3748SOL    HW222899   0.407   7.974   0.618  0.6952 -0.1557 -0.5220
 3749SOL     OW22900   4.175   4.426   3.313  0.1109  0.0866 -0.0363
 3749SOL    HW122901   4.195   4.456   3.220 -0.2026  0.2977 -0.0334
 3749SOL    HW222902   4.082   4.391   3.318 -0.2754  1.1862  0.4777
 3750SOL     OW22903   1.690   5.425   6.769 -0.1921 -0.2611 -0.3670
 3750SOL    HW122904   1.716   5.515   6.734 -0.5835 -0.2774 -0.7104
 3750SOL    HW222905   1.594   5.427   6.800  0.2684 -0.1383  1.0907
 3751SOL     OW22906   2.379   0.165   4.515  0.2285 -0.2916  0.5119
 3751SOL    HW122907   2.420   0.239   4.463 -0.2833 -1.5830 -1.7757
 3751SOL    HW222908   2.296   0.198   4.561  0.6907  0.8442  0.5533
 3752SOL     OW22909   4.191   6.641   2.547  0.2921 -0.0615  0.3743
 3752SOL    HW122910   4.193   6.741   2.538  2.3889 -0.1257 -0.0578
 3752SOL    HW222911   4.197   6.600   2.456 -1.1963 -0.5816  0.5103
 3753SOL     OW22912   3.135   9.533   6.752 -0.0077  0.4824  0.3634
 3753SOL    HW122913   3.178   9.615   6.789 -2.2342  0.3929  3.3914
 3753SOL    HW222914   3.160   9.454   6.808  0.2037 -0.4958 -1.0891
 3754SOL     OW22915   5.140   8.772   5.528 -0.2522 -0.0386  0.7974
 3754SOL    HW122916   5.044   8.770   5.501 -0.3960  1.5039  1.1607
 3754SOL    HW222917   5.197   8.784   5.446 -0.3687 -0.8667  0.5920
 3755SOL     OW22918   7.159   2.801   4.723  0.0706  0.2959 -0.2633
 3755SOL    HW122919   7.151   2.900   4.712 -1.7139  0.1676 -0.2961
 3755SOL    HW222920   7.244   2.769   4.682  1.3668  2.0069  1.0520
 3756SOL     OW22921   2.037   7.626   5.090 -0.4896 -0.2653  0.8376
 3756SOL    HW122922   2.064   7.698   5.026 -0.0794 -1.1188  0.0393
 3756SOL    HW222923   1.993   7.667   5.170 -0.6916  0.8304  0.1676
 3757SOL     OW22924   5.960   1.784   2.439  0.4351 -0.3663  0.2743
 3757SOL    HW122925   5.903   1.714   2.397  0.8892 -1.1622  0.9776
 3757SOL    HW222926   5.986   1.852   2.370 -1.2128 -0.0831 -0.0919
 3758SOL     OW22927   1.453   0.412   2.392  0.1140 -0.1645 -0.0013
 3758SOL    HW122928   1.435   0.505   2.424 -0.1974 -0.0766 -0.4230
 3758SOL    HW222929   1.369   0.374   2.353  0.3939 -0.4030 -0.3750
 3759SOL     OW22930   3.197   7.506   0.614 -0.1981 -0.2429  0.1937
 3759SOL    HW122931   3.181   7.407   0.618  1.5418 -0.5442  0.2168
 3759SOL    HW222932   3.203   7.534   0.518 -1.8256  0.0568  0.1600
 3760SOL     OW22933   0.965   7.133   6.365  0.0690 -0.7013  0.2704
 3760SOL    HW122934   1.040   7.178   6.316  0.1538  0.4491  1.4439
 3760SOL    HW222935   0.893   7.109   6.300  1.0870 -1.0913 -0.7447
 3761SOL     OW22936   6.819   9.245   3.648  0.5986 -0.0775  0.7058
 3761SOL    HW122937   6.799   9.290   3.561  1.8757  0.2001  0.5462
 3761SOL    HW222938   6.881   9.168   3.633  2.1866  0.9936  1.5560
 3762SOL     OW22939   8.172   2.398   3.915  0.0574 -0.0484 -0.4954
 3762SOL    HW122940   8.237   2.322   3.911 -0.1104 -0.1622 -1.0583
 3762SOL    HW222941   8.103   2.380   3.984 -1.4403 -1.5669 -2.3313
 3763SOL     OW22942   6.962   9.843   4.402  0.1378 -0.3706  0.0051
 3763SOL    HW122943   6.865   9.839   4.378  0.2045  0.3178 -0.3860
 3763SOL    HW222944   6.983   9.933   4.441  0.2854 -1.0571  1.5565
 3764SOL     OW22945   1.494   8.166   0.223 -0.2482 -1.0168  0.3926
 3764SOL    HW122946   1.409   8.215   0.204  0.4123  0.0094  0.0657
 3764SOL    HW222947   1.536   8.203   0.306 -0.0195 -1.3852  0.4404
 3765SOL     OW22948   4.548   0.118   1.819  0.3487  0.4685  0.2028
 3765SOL    HW122949   4.503   0.030   1.836  0.7083  0.5748  1.8005
 3765SOL    HW222950   4.491   0.192   1.856 -0.4943  1.0193 -2.1308
 3766SOL     OW22951   9.989   3.510   6.924 -0.4660  0.0867  0.3565
 3766SOL    HW122952   9.960   3.425   6.881 -1.3560  1.3955 -1.6673
 3766SOL    HW222953  10.029   3.571   6.856 -1.0331  1.8279  1.5377
 3767SOL     OW22954   4.924   0.821   6.607  0.2174  0.1497  0.0625
 3767SOL    HW122955   4.997   0.757   6.632 -0.7651 -1.2050 -0.4598
 3767SOL    HW222956   4.839   0.793   6.651 -0.9069 -0.6511 -2.5018
 3768SOL     OW22957   0.185   8.105   7.309  0.0989  0.3008  0.2635
 3768SOL    HW122958   0.215   8.171   7.240 -1.5868  1.3840  0.5470
 3768SOL    HW222959   0.248   8.027   7.310  0.9756  0.9640 -1.4678
 3769SOL     OW22960   9.822   4.035   5.097 -0.1968  0.4444  0.8001
 3769SOL    HW122961   9.775   4.119   5.125 -1.8783 -0.6117  1.2134
 3769SOL    HW222962   9.917   4.057   5.073 -0.4643  2.3776  1.3729
 3770SOL     OW22963   3.438   1.497   6.763 -0.3628  0.0735 -0.7401
 3770SOL    HW122964   3.402   1.577   6.717 -1.7101 -0.8055 -1.2453
 3770SOL    HW222965   3.538   1.495   6.753 -0.4504  0.9234 -1.9452
 3771SOL     OW22966   1.897   3.577   4.341  0.5773  0.2982 -0.2505
 3771SOL    HW122967   1.869   3.482   4.330  1.5295 -0.0017 -0.0631
 3771SOL    HW222968   1.954   3.586   4.422 -0.1889  1.1810  0.2032
 3772SOL     OW22969   1.998   1.837   5.297 -0.5244  0.3223  0.4710
 3772SOL    HW122970   2.035   1.903   5.363  0.5054  0.2108  0.0295
 3772SOL    HW222971   1.924   1.880   5.246 -0.7987  0.6722  1.1499
 3773SOL     OW22972   6.554   7.936   7.362  0.7464  0.6548 -0.0502
 3773SOL    HW122973   6.532   7.956   7.457 -1.7248  0.6345 -0.5743
 3773SOL    HW222974   6.602   7.849   7.356  1.6445  1.0488  1.2334
 3774SOL     OW22975   0.162   7.702   0.701 -0.1106  0.0649 -0.1184
 3774SOL    HW122976   0.110   7.768   0.647 -1.4568 -1.1031 -0.2622
 3774SOL    HW222977   0.195   7.628   0.642  0.0993 -0.1786  0.2984
 3775SOL     OW22978   6.905   2.503   3.413 -0.4025  0.7634 -0.2119
 3775SOL    HW122979   7.002   2.510   3.392 -0.1454 -0.2859  0.5691
 3775SOL    HW222980   6.882   2.565   3.489 -0.2869  0.8139 -0.2184
 3776SOL     OW22981   2.216   9.516   0.213  0.2358  0.3565 -0.1790
 3776SOL    HW122982   2.268   9.555   0.137 -0.5263  0.2063 -0.7767
 3776SOL    HW222983   2.270   9.444   0.257  1.5940  1.9516  0.8361
 3777SOL     OW22984   3.358   3.749   3.282 -0.0090 -0.4511 -0.0355
 3777SOL    HW122985   3.392   3.805   3.206  0.6671  1.3708  1.5553
 3777SOL    HW222986   3.394   3.785   3.368 -0.9859 -2.3089  1.1823
 3778SOL     OW22987   7.234   3.150   4.196  0.0801  0.3344  0.1568
 3778SOL    HW122988   7.140   3.115   4.206  0.2283 -0.4374 -1.0947
 3778SOL    HW222989   7.283   3.137   4.283 -1.0647  1.0680  0.9348
 3779SOL     OW22990   2.269   9.886   8.038 -0.5896 -0.4965 -0.0786
 3779SOL    HW122991   2.333   9.918   7.968 -0.4643 -0.0255  0.2513
 3779SOL    HW222992   2.195   9.835   7.994 -0.8363  0.3163 -0.6093
 3780SOL     OW22993   0.023   7.461   4.476 -0.3557 -0.4870  0.0145
 3780SOL    HW122994  -0.031   7.505   4.405 -0.4018 -0.5816 -0.0069
 3780SOL    HW222995   0.041   7.526   4.550 -1.9968 -0.9512  0.8485
 3781SOL     OW22996   0.892   4.847   7.105  0.1238  0.1326  0.4736
 3781SOL    HW122997   0.991   4.845   7.094  0.1299 -1.0538  0.7370
 3781SOL    HW222998   0.869   4.897   7.188  0.4730  0.7823  0.1885
 3782SOL     OW22999   3.187   4.036   0.470 -0.2419 -0.0556 -0.4655
 3782SOL    HW123000   3.185   3.977   0.551  0.7739  0.8862  0.2687
 3782SOL    HW223001   3.281   4.043   0.437 -0.2207  1.7722 -0.0557
 3783SOL     OW23002   2.682   7.592   1.401  0.4217 -0.1010 -0.0299
 3783SOL    HW123003   2.695   7.628   1.494  1.9556 -0.3421 -0.1418
 3783SOL    HW223004   2.761   7.615   1.345 -1.4317  1.8777 -1.8939
 3784SOL     OW23005   7.448   3.027   5.426 -0.3380  0.0149 -0.2669
 3784SOL    HW123006   7.519   3.006   5.493  0.6922  1.1810 -0.9637
 3784SOL    HW223007   7.484   3.093   5.359 -1.6944 -0.2887 -1.3212
 3785SOL     OW23008   3.117   4.769   2.272  0.5261  0.4865  0.0982
 3785SOL    HW123009   3.104   4.766   2.371 -1.0128 -0.6192 -0.1177
 3785SOL    HW223010   3.086   4.858   2.237  1.5524  1.0754  0.6561
 3786SOL     OW23011   0.039   5.822   4.218  0.0168  0.1687  0.0093
 3786SOL    HW123012   0.002   5.879   4.145 -1.3723  0.8150  1.1973
 3786SOL    HW223013   0.003   5.852   4.306  1.5399 -0.6973  0.9670
 3787SOL     OW23014   7.776   2.015   4.736 -0.2381  0.5159 -0.6589
 3787SOL    HW123015   7.848   2.085   4.730  0.0574  0.2431 -0.3137
 3787SOL    HW223016   7.780   1.956   4.656  1.1712 -0.6935  0.2758
 3788SOL     OW23017   3.609   8.001   7.526 -0.6748  0.0204 -0.0271
 3788SOL    HW123018   3.625   7.907   7.555 -1.3344  0.0380  0.3968
 3788SOL    HW223019   3.521   8.033   7.561  0.1013  1.2182  0.8868
 3789SOL     OW23020   4.727   9.633   7.829  0.3634 -0.0591  0.5258
 3789SOL    HW123021   4.659   9.559   7.826  2.7330 -2.2990  0.5996
 3789SOL    HW223022   4.726   9.675   7.920  1.8369 -2.7777  1.8326
 3790SOL     OW23023   8.070   1.037   2.215  0.1166  0.2241 -0.1902
 3790SOL    HW123024   8.071   0.992   2.126  1.5524  0.4505 -0.2928
 3790SOL    HW223025   8.050   1.135   2.203 -0.4213  0.1174 -0.1904
 3791SOL     OW23026   3.901   0.194   6.179 -0.5552 -0.0259  0.4353
 3791SOL    HW123027   3.915   0.115   6.239 -0.1076  0.0870  0.4771
 3791SOL    HW223028   3.925   0.278   6.229 -3.2046  0.3332  1.1772
 3792SOL     OW23029   1.179   4.090   2.458 -0.0394  0.0352 -0.3100
 3792SOL    HW123030   1.236   4.171   2.472 -0.6318  0.0203  2.5579
 3792SOL    HW223031   1.083   4.119   2.446 -0.5231 -0.2512  2.4589
 3793SOL     OW23032   3.630   1.536   0.054 -0.0035 -0.1486 -0.4607
 3793SOL    HW123033   3.666   1.539  -0.039  0.1855  0.6628 -0.3686
 3793SOL    HW223034   3.530   1.545   0.051 -0.1594 -1.7946 -0.6779
 3794SOL     OW23035   0.798   0.343   6.838 -0.0128  0.4976  0.2308
 3794SOL    HW123036   0.840   0.273   6.896  1.4185 -0.2569 -1.6463
 3794SOL    HW223037   0.836   0.432   6.861  1.1284  0.0961 -0.0217
 3795SOL     OW23038   4.508   4.143   0.766  0.1204  0.1603 -0.1779
 3795SOL    HW123039   4.518   4.131   0.865 -1.5458  1.1316  0.1292
 3795SOL    HW223040   4.441   4.077   0.731  2.2194 -1.5966 -1.0367
 3796SOL     OW23041   6.589   0.958   4.080 -0.1363 -0.3146  0.5734
 3796SOL    HW123042   6.507   0.931   4.030  0.9131 -0.3389 -1.1791
 3796SOL    HW223043   6.652   0.881   4.084  0.7567  0.3728 -0.0862
 3797SOL     OW23044   7.646   0.138   6.070  0.1129  0.0484 -0.1167
 3797SOL    HW123045   7.587   0.213   6.099 -0.3102 -0.9955  1.7942
 3797SOL    HW223046   7.647   0.067   6.140  2.2689 -0.7449 -0.9055
 3798SOL     OW23047   1.531   6.256   8.117 -0.2550 -0.4183 -0.1137
 3798SOL    HW123048   1.621   6.254   8.161 -0.3420  1.6074  0.2464
 3798SOL    HW223049   1.460   6.251   8.187 -0.4197 -1.7561 -0.3778
 3799SOL     OW23050   6.043   4.501   1.528  0.3955  0.1272 -0.2237
 3799SOL    HW123051   5.989   4.418   1.525  0.0485  0.3313  0.3585
 3799SOL    HW223052   5.996   4.574   1.478  0.8895 -0.1334 -1.0772
 3800SOL     OW23053   7.331   1.055   0.472 -0.2630 -0.1194 -0.1169
 3800SOL    HW123054   7.263   1.120   0.506 -0.0995 -1.2568  2.5132
 3800SOL    HW223055   7.376   1.094   0.391 -0.5737  2.8084  1.0331
 3801SOL     OW23056   8.720   9.363   7.590  0.7114  0.1871  0.2207
 3801SOL    HW123057   8.709   9.287   7.654  0.8238  1.4255  1.7388
 3801SOL    HW223058   8.748   9.445   7.640  1.3482  1.0423 -1.4996
 3802SOL     OW23059   8.995   3.475   2.637  0.2674  0.1368 -0.5484
 3802SOL    HW123060   9.009   3.448   2.541  1.1087  2.6633 -1.1756
 3802SOL    HW223061   9.034   3.566   2.652 -0.9041  0.2732  1.9216
 3803SOL     OW23062   2.627   2.794   3.630 -0.0584  0.7931  0.1051
 3803SOL    HW123063   2.716   2.771   3.590 -1.4054 -1.2815 -1.8288
 3803SOL    HW223064   2.613   2.741   3.713  0.5023  1.1265  0.4153
 3804SOL     OW23065   1.876   4.683   0.203  0.1402  0.0173  0.6663
 3804SOL    HW123066   1.930   4.600   0.213 -1.7007 -1.1214  1.4089
 3804SOL    HW223067   1.877   4.734   0.290  0.5831  0.3527  0.4664
 3805SOL     OW23068   3.415   6.843   3.823  0.1886 -0.3253  0.0737
 3805SOL    HW123069   3.432   6.744   3.826  1.8783 -0.0656 -0.3822
 3805SOL    HW223070   3.494   6.891   3.861  0.1736  0.9105 -1.4280
 3806SOL     OW23071   9.407   3.693   7.718 -0.1026  0.2024 -1.0900
 3806SOL    HW123072   9.448   3.751   7.648 -1.1613 -1.2473 -2.9477
 3806SOL    HW223073   9.317   3.662   7.687 -1.3046  0.8293  1.5979
 3807SOL     OW23074   7.931   4.364   8.137 -1.2393  0.4859 -0.1755
 3807SOL    HW123075   7.937   4.317   8.225 -2.7231 -0.1298 -0.3845
 3807SOL    HW223076   7.928   4.463   8.152 -2.2541  0.3592  0.5222
 3808SOL     OW23077   5.162   5.328   0.370 -0.2679  0.6783  0.4560
 3808SOL    HW123078   5.103   5.257   0.330  2.0832 -0.3975 -1.1793
 3808SOL    HW223079   5.144   5.415   0.325 -0.7670  0.4188  0.1441
 3809SOL     OW23080   1.758   4.596   1.253  0.5842 -0.4798  0.3755
 3809SOL    HW123081   1.790   4.579   1.347 -2.0499  0.7489  1.5455
 3809SOL    HW223082   1.768   4.512   1.200  0.2733 -1.8043  2.3231
 3810SOL     OW23083   5.377   1.600   7.243  0.0932  0.2244 -0.5759
 3810SOL    HW123084   5.398   1.510   7.282 -0.3930  0.6162  0.5996
 3810SOL    HW223085   5.463   1.649   7.227  0.3544 -0.3932 -1.0928
 3811SOL     OW23086   8.619   5.396   6.753 -0.1036 -0.3283 -0.0653
 3811SOL    HW123087   8.666   5.481   6.777  2.1858 -1.2640 -1.0173
 3811SOL    HW223088   8.538   5.417   6.698 -0.4936  1.3151  1.1173
 3812SOL     OW23089   6.050   9.735   2.642 -0.1266  0.2598  0.9838
 3812SOL    HW123090   6.083   9.816   2.593 -0.8808  0.2304  0.4349
 3812SOL    HW223091   5.952   9.726   2.630  0.0783 -1.2234  0.3312
 3813SOL     OW23092   8.687   5.281   4.323  0.5118 -1.0343  0.5881
 3813SOL    HW123093   8.753   5.248   4.255  0.8592 -0.4149  0.6214
 3813SOL    HW223094   8.638   5.203   4.362  0.9033 -1.4639  0.2337
 3814SOL     OW23095   4.766   8.181   6.978  0.3509 -0.0631  0.2739
 3814SOL    HW123096   4.841   8.129   7.019  0.1727  0.1966  0.9285
 3814SOL    HW223097   4.679   8.135   6.998  0.3597 -0.5766 -0.8159
 3815SOL     OW23098   1.767   9.290   4.592 -0.4590 -0.1584  0.4703
 3815SOL    HW123099   1.855   9.305   4.547 -1.1561 -0.3402 -0.9682
 3815SOL    HW223100   1.740   9.374   4.640  0.0264  0.2133  0.0982
 3816SOL     OW23101   6.358   1.334   0.019 -0.5308 -0.5590 -0.4503
 3816SOL    HW123102   6.408   1.416   0.046 -1.3255 -0.7309  1.6428
 3816SOL    HW223103   6.408   1.286  -0.053  0.6357  1.0043 -0.7040
 3817SOL     OW23104   2.810   2.130   8.094  0.0438  0.1613  0.1814
 3817SOL    HW123105   2.736   2.187   8.058 -1.1780 -0.6291  1.4104
 3817SOL    HW223106   2.773   2.042   8.123  1.6596 -0.6671 -0.2082
 3818SOL     OW23107   8.152   0.737   8.031  0.5073  0.2256  0.0784
 3818SOL    HW123108   8.175   0.671   8.102  1.2268 -0.1552 -0.5032
 3818SOL    HW223109   8.210   0.818   8.039 -0.7525  1.0556  1.1404
 3819SOL     OW23110   4.618   6.840   2.174 -0.1286 -0.3703 -0.5150
 3819SOL    HW123111   4.537   6.790   2.143 -0.1530 -0.2416 -0.6576
 3819SOL    HW223112   4.602   6.938   2.165  0.2425 -0.3588 -1.0328
 3820SOL     OW23113   5.412   0.645   5.663 -0.0406 -0.3359 -0.1717
 3820SOL    HW123114   5.440   0.710   5.592  0.7585  0.3341  0.7553
 3820SOL    HW223115   5.492   0.610   5.711 -0.6365  0.0163  1.1101
 3821SOL     OW23116   5.828   3.247   0.439  0.2357  0.1857 -0.2120
 3821SOL    HW123117   5.845   3.214   0.347 -0.4219 -0.1902 -0.2030
 3821SOL    HW223118   5.872   3.186   0.505 -2.8054 -1.9833 -0.0913
 3822SOL     OW23119   8.805   5.464   6.977 -0.0902  0.6827 -0.0226
 3822SOL    HW123120   8.860   5.385   7.003  0.7686  1.2481 -0.0947
 3822SOL    HW223121   8.830   5.542   7.035 -1.2773  0.7683  0.3857
 3823SOL     OW23122   7.691   1.071   0.322  0.1196  0.2323 -0.5131
 3823SOL    HW123123   7.742   1.152   0.292 -0.0267  0.5233  0.0153
 3823SOL    HW223124   7.609   1.099   0.370 -0.8667 -0.2429 -1.8814
 3824SOL     OW23125   8.317   1.982   7.145 -0.0375  0.5630 -0.2198
 3824SOL    HW123126   8.302   1.932   7.230  0.4039  0.4659 -0.1984
 3824SOL    HW223127   8.379   2.059   7.162  1.0895 -0.2304 -0.7305
 3825SOL     OW23128   6.016   8.488   4.597  0.2940 -0.0646 -0.1630
 3825SOL    HW123129   6.020   8.391   4.572  1.4527 -0.4142  1.3345
 3825SOL    HW223130   6.104   8.516   4.635 -0.8043  0.9784  1.6395
 3826SOL     OW23131   3.756   2.895   0.963  0.1493 -0.3608  0.4036
 3826SOL    HW123132   3.786   2.863   0.873  1.1200 -0.4247  0.7527
 3826SOL    HW223133   3.779   2.991   0.974  0.0333 -0.3537  0.5916
 3827SOL     OW23134   7.066   1.496   1.645  0.3442 -0.4132 -0.5091
 3827SOL    HW123135   6.981   1.445   1.634 -0.4231  0.7830 -0.2651
 3827SOL    HW223136   7.060   1.554   1.726  0.8470  0.7249 -1.2619
 3828SOL     OW23137   7.391   0.774   4.672 -0.0550  0.0524  0.4080
 3828SOL    HW123138   7.458   0.700   4.679 -2.1589 -1.9557  0.0503
 3828SOL    HW223139   7.334   0.775   4.754 -0.1568  1.1692  0.3262
 3829SOL     OW23140   7.350   6.895   6.643  0.4336  0.2990 -0.1057
 3829SOL    HW123141   7.445   6.870   6.625  0.4676 -0.1031  0.6255
 3829SOL    HW223142   7.328   6.878   6.739 -0.7706 -0.9092 -0.5748
 3830SOL     OW23143   8.540   0.448   1.741 -0.2129  0.7898  0.0734
 3830SOL    HW123144   8.469   0.377   1.743 -1.0641  1.5451 -1.8381
 3830SOL    HW223145   8.516   0.521   1.805 -0.1389  0.1095  0.8843
 3831SOL     OW23146   6.051   5.150   1.512  0.1184 -0.0055  0.0360
 3831SOL    HW123147   6.001   5.149   1.425 -0.6219 -0.3397  0.4653
 3831SOL    HW223148   6.143   5.185   1.496  0.3269 -1.0052 -1.0728
 3832SOL     OW23149   2.556   1.693   7.028 -0.5934  0.0653  0.2820
 3832SOL    HW123150   2.481   1.736   7.078 -1.9069 -1.9686  0.1201
 3832SOL    HW223151   2.614   1.642   7.092 -1.5441 -1.4873 -0.0710
 3833SOL     OW23152   2.657   7.607   3.000 -0.1201  0.2961 -0.3350
 3833SOL    HW123153   2.635   7.588   3.096 -0.9935  0.7780 -0.4319
 3833SOL    HW223154   2.749   7.574   2.980 -0.2925 -0.6684  0.4134
 3834SOL     OW23155   2.559   8.939   1.453  0.3587  0.8232  0.6487
 3834SOL    HW123156   2.639   8.955   1.510  1.2219 -1.1040  0.0205
 3834SOL    HW223157   2.495   8.879   1.502  1.3473 -1.2747 -0.5994
 3835SOL     OW23158   0.541   0.473   4.874  0.3862  0.2183  0.0536
 3835SOL    HW123159   0.597   0.436   4.948 -0.8895  0.2692  1.0780
 3835SOL    HW223160   0.549   0.415   4.793 -0.6538 -1.6562  1.2584
 3836SOL     OW23161   9.826   0.816   3.300 -0.3340 -0.3195  0.5820
 3836SOL    HW123162   9.747   0.873   3.277  0.5601  0.5722 -0.3607
 3836SOL    HW223163   9.898   0.874   3.337  0.7586 -0.7567 -0.8244
 3837SOL     OW23164   9.414   1.284   2.055 -0.5283 -0.0017  0.0663
 3837SOL    HW123165   9.366   1.261   2.139  0.3347  0.3396  0.6525
 3837SOL    HW223166   9.484   1.215   2.037 -2.2098 -1.3493 -1.5948
 3838SOL     OW23167   2.414   2.889   7.126 -0.1306  0.2286 -0.2884
 3838SOL    HW123168   2.387   2.941   7.207 -1.7185  0.3768 -0.8919
 3838SOL    HW223169   2.452   2.952   7.057 -1.3286  0.4966 -0.7164
 3839SOL     OW23170   8.396   2.330   7.458 -0.2307 -0.3438  0.3632
 3839SOL    HW123171   8.341   2.365   7.533 -0.5743 -2.7808  1.2820
 3839SOL    HW223172   8.455   2.403   7.423 -1.3967  1.3045  1.7567
 3840SOL     OW23173   5.261   0.159   4.827  0.3022 -0.3108 -0.3266
 3840SOL    HW123174   5.226   0.229   4.889 -3.2585 -1.0655 -1.3821
 3840SOL    HW223175   5.252   0.069   4.869 -0.6747 -0.6793 -1.3093
 3841SOL     OW23176   2.157   1.829   1.771 -0.1066 -0.0142 -0.0844
 3841SOL    HW123177   2.167   1.847   1.673  1.8414  0.9171  0.2461
 3841SOL    HW223178   2.147   1.916   1.820 -1.4647 -0.4987  0.5049
 3842SOL     OW23179   8.134   1.473   2.651  0.3435  0.1951 -0.2584
 3842SOL    HW123180   8.172   1.404   2.590  0.0753  0.5742 -0.8491
 3842SOL    HW223181   8.034   1.467   2.652  0.3002  0.8265 -0.6031
 3843SOL     OW23182   8.392   4.004   2.031 -0.3424  0.2172  0.1571
 3843SOL    HW123183   8.375   3.969   1.939 -1.4344  0.1162  0.3999
 3843SOL    HW223184   8.484   4.043   2.034  0.7775 -2.2388 -0.2569
 3844SOL     OW23185   5.117   1.628   2.121 -0.1080 -0.1433 -0.2425
 3844SOL    HW123186   5.114   1.619   2.022 -0.7597  0.4382 -0.2773
 3844SOL    HW223187   5.089   1.720   2.148 -0.9247 -0.6044  0.5369
 3845SOL     OW23188   5.009   7.330   2.423 -0.3602 -0.7261  0.1993
 3845SOL    HW123189   5.030   7.239   2.388  1.1031 -0.3797  0.1442
 3845SOL    HW223190   4.978   7.389   2.347 -0.2523 -0.8702  0.0432
 3846SOL     OW23191   3.758   1.683   0.517  0.4597 -0.2687 -0.2687
 3846SOL    HW123192   3.786   1.621   0.444  0.0666 -1.1141  0.2933
 3846SOL    HW223193   3.749   1.632   0.603 -0.7721  0.3755  0.0014
 3847SOL     OW23194   1.117   9.799   3.761 -0.1383 -0.1921 -0.8239
 3847SOL    HW123195   1.022   9.829   3.770 -0.3336 -0.4841 -1.8039
 3847SOL    HW223196   1.127   9.708   3.800 -0.1351  0.0653 -0.2214
 3848SOL     OW23197   9.365   9.619   0.305 -0.1717  0.2632 -0.4924
 3848SOL    HW123198   9.449   9.581   0.265  0.7766  0.2704  1.4385
 3848SOL    HW223199   9.342   9.569   0.388 -1.5009  0.9538 -0.4386
 3849SOL     OW23200   1.964   8.665   6.913  0.1314  0.0557 -0.0508
 3849SOL    HW123201   1.898   8.716   6.969  0.8682  1.3842 -0.3611
 3849SOL    HW223202   2.044   8.723   6.896 -0.4414 -0.0226 -3.2009
 3850SOL     OW23203   9.968   6.194   2.189 -0.1433 -0.7449  0.3009
 3850SOL    HW123204   9.936   6.114   2.239  2.0229 -1.2525  0.8866
 3850SOL    HW223205   9.949   6.183   2.091  1.6207 -2.7227  0.1535
 3851SOL     OW23206   8.113   1.261   3.801 -0.0255 -0.1645 -0.0345
 3851SOL    HW123207   8.066   1.316   3.869  1.1280  0.8145 -0.0138
 3851SOL    HW223208   8.201   1.230   3.838  0.4639  0.1044 -0.9625
 3852SOL     OW23209   0.010   1.313   7.452 -0.1306  0.8692  0.3571
 3852SOL    HW123210   0.029   1.352   7.542 -1.1374  1.2169  0.4278
 3852SOL    HW223211   0.033   1.380   7.381  1.2145  0.3830  0.3146
 3853SOL     OW23212   6.847   1.502   0.218  0.2481  0.3075 -0.1426
 3853SOL    HW123213   6.842   1.523   0.316 -1.6266  0.7482 -0.3180
 3853SOL    HW223214   6.941   1.476   0.195  0.6659 -0.0425  1.8149
 3854SOL     OW23215   5.214   4.472   0.563 -0.6081  0.1610  0.4958
 3854SOL    HW123216   5.298   4.518   0.537  1.1800 -1.5877  3.0118
 3854SOL    HW223217   5.230   4.374   0.571 -3.3938 -0.4662 -0.9286
 3855SOL     OW23218   9.580   0.924   3.220  0.0177  0.2006 -0.0062
 3855SOL    HW123219   9.514   0.908   3.147  2.4425  0.5972 -2.3614
 3855SOL    HW223220   9.581   1.021   3.243  1.0901  0.5140 -1.3054
 3856SOL     OW23221   4.732   9.364   5.583  0.1229  0.1828 -0.7196
 3856SOL    HW123222   4.740   9.353   5.484 -0.9619  1.4895 -0.9821
 3856SOL    HW223223   4.661   9.303   5.618  2.3033 -2.2054 -0.3146
 3857SOL     OW23224   0.398   7.606   4.222  0.2638 -0.3374 -0.3676
 3857SOL    HW123225   0.313   7.556   4.212  0.5913 -0.5829 -2.0290
 3857SOL    HW223226   0.409   7.634   4.317 -0.8139 -1.8073  0.2058
 3858SOL     OW23227   1.780   8.905   4.143  0.2028 -0.4186 -0.4775
 3858SOL    HW123228   1.771   8.814   4.103  1.0615 -0.3893 -0.7420
 3858SOL    HW223229   1.841   8.961   4.087  0.3694  0.0431  0.1525
 3859SOL     OW23230   8.632   0.748   4.101 -0.0731 -0.1431  0.5671
 3859SOL    HW123231   8.712   0.767   4.044 -0.6193  0.4618 -0.0163
 3859SOL    HW223232   8.554   0.802   4.068 -0.5042 -0.0902  1.6433
 3860SOL     OW23233   1.906   2.103   6.428  0.2237  0.2743  0.5110
 3860SOL    HW123234   1.920   2.157   6.345  0.5777 -0.7840 -0.1331
 3860SOL    HW223235   1.995   2.074   6.464 -0.0058 -1.2287 -0.0733
 3861SOL     OW23236   0.848   9.878   5.703  0.0954 -0.8390 -0.0611
 3861SOL    HW123237   0.866   9.928   5.788  0.3933 -0.8225 -0.1346
 3861SOL    HW223238   0.753   9.893   5.675  0.4172  0.3523 -0.5291
 3862SOL     OW23239   2.500   8.189   3.403  0.4834 -0.2528 -0.2224
 3862SOL    HW123240   2.426   8.143   3.353 -0.7909  0.0380  1.3779
 3862SOL    HW223241   2.585   8.182   3.350 -0.2214 -2.3507 -1.1281
 3863SOL     OW23242   1.290   4.181   4.218  0.5886  0.0570 -0.0234
 3863SOL    HW123243   1.374   4.128   4.231  0.6724 -0.4279 -2.3152
 3863SOL    HW223244   1.242   4.148   4.136  0.0088  2.6811 -0.7906
 3864SOL     OW23245   0.551   9.402   3.497  0.8678 -0.3937  0.0898
 3864SOL    HW123246   0.586   9.488   3.458 -1.2577  0.9718  1.1010
 3864SOL    HW223247   0.492   9.357   3.430  0.2067  0.0583  0.3699
 3865SOL     OW23248   0.345   6.639   2.115  0.1549  0.3466 -0.0657
 3865SOL    HW123249   0.410   6.575   2.155 -1.7086 -1.1267  0.6912
 3865SOL    HW223250   0.309   6.601   2.029 -1.8462 -0.2353  0.9869
 3866SOL     OW23251   0.208   6.107   4.406  0.3765  0.0043 -0.6335
 3866SOL    HW123252   0.129   6.101   4.346  1.6596 -0.3792 -2.3451
 3866SOL    HW223253   0.277   6.041   4.376  1.9988  1.4674 -0.1826
 3867SOL     OW23254   9.111   5.326   2.721 -0.3680  0.2719 -0.5260
 3867SOL    HW123255   9.151   5.395   2.660 -1.3287  1.5879  0.3215
 3867SOL    HW223256   9.061   5.258   2.667  1.2263 -0.2200 -1.4272
 3868SOL     OW23257   8.725   5.498   0.935 -0.2916 -0.6773  0.2127
 3868SOL    HW123258   8.805   5.444   0.962  0.1097  0.0953  0.5638
 3868SOL    HW223259   8.645   5.437   0.929 -0.3702 -0.9120  3.0026
 3869SOL     OW23260   9.086   8.596   5.982 -0.1425 -0.7630  0.0885
 3869SOL    HW123261   9.156   8.533   6.016  0.2873  0.0228  0.6578
 3869SOL    HW223262   9.114   8.690   5.999 -1.7541 -0.4467  1.1479
 3870SOL     OW23263   2.222   7.883   6.157 -0.3993  0.2008 -0.2189
 3870SOL    HW123264   2.311   7.899   6.200  0.3901  0.7236 -1.9992
 3870SOL    HW223265   2.205   7.784   6.153  0.3924  0.0609 -0.4052
 3871SOL     OW23266   8.994   5.122   4.511 -0.7323 -0.2960  0.5598
 3871SOL    HW123267   9.058   5.196   4.533 -2.2865  0.8831  1.1983
 3871SOL    HW223268   9.022   5.077   4.426 -0.1948  1.5061 -0.2207
 3872SOL     OW23269   3.634   8.304   3.379 -0.1195 -0.2892 -0.6669
 3872SOL    HW123270   3.661   8.236   3.446  2.8309 -0.7355 -2.2420
 3872SOL    HW223271   3.659   8.395   3.411  1.6614 -0.5361 -1.2853
 3873SOL     OW23272   7.959   9.916   5.935 -0.0394  0.1403 -0.1424
 3873SOL    HW123273   7.880   9.855   5.933 -0.3555  0.5331  0.2739
 3873SOL    HW223274   8.016   9.900   5.854 -0.8196  0.2120 -0.7153
 3874SOL     OW23275   8.781   5.649   3.188  0.0315  0.0016 -0.6864
 3874SOL    HW123276   8.836   5.579   3.234 -0.6087 -0.4144 -0.5495
 3874SOL    HW223277   8.699   5.668   3.242 -0.7673 -0.5467 -1.6753
 3875SOL     OW23278   8.323   1.011   5.652 -0.2698 -0.0706 -0.3525
 3875SOL    HW123279   8.335   0.964   5.564  1.2590  2.4342 -1.5428
 3875SOL    HW223280   8.231   0.992   5.687 -0.5587 -1.8987 -2.0072
 3876SOL     OW23281   2.052   6.728   7.795 -0.5822 -0.2179  0.1034
 3876SOL    HW123282   2.032   6.729   7.697 -0.8350  1.4470  0.1588
 3876SOL    HW223283   2.057   6.634   7.827 -2.0037 -0.7508 -1.2082
 3877SOL     OW23284   4.732   9.620   6.541 -0.1509 -0.4143 -0.1097
 3877SOL    HW123285   4.657   9.571   6.587 -0.8787  0.4438 -0.3628
 3877SOL    HW223286   4.723   9.607   6.442 -0.2940  0.1516 -0.1709
 3878SOL     OW23287   9.504   8.771   5.045 -0.3208  0.1496 -0.2248
 3878SOL    HW123288   9.445   8.850   5.030 -0.0294  0.4374  0.1432
 3878SOL    HW223289   9.594   8.788   5.003  0.4997  0.9608  1.8166
 3879SOL     OW23290   1.939   9.011   0.214  0.1447 -0.0070 -0.4367
 3879SOL    HW123291   2.013   9.074   0.238  2.1759 -1.4387 -2.6555
 3879SOL    HW223292   1.943   8.931   0.273  1.5063 -0.8866 -1.6914
 3880SOL     OW23293   0.207   0.465   5.538  0.8186  0.3032 -0.0137
 3880SOL    HW123294   0.247   0.421   5.617 -0.8863  1.3443  1.4639
 3880SOL    HW223295   0.211   0.564   5.549  0.7129  0.4699 -1.3122
 3881SOL     OW23296   2.599   1.683   0.725 -0.2665 -0.2535 -0.1504
 3881SOL    HW123297   2.596   1.772   0.680  0.3395  0.2452  0.7634
 3881SOL    HW223298   2.684   1.676   0.778 -1.3500 -0.4359  1.6265
 3882SOL     OW23299   2.670   8.833   6.239 -0.4605 -0.2653  0.1752
 3882SOL    HW123300   2.628   8.908   6.290  0.0301  1.5604 -2.0634
 3882SOL    HW223301   2.652   8.747   6.287  1.5928  1.5409  4.4329
 3883SOL     OW23302   4.325   0.544   4.080  0.3140  0.8911  0.0132
 3883SOL    HW123303   4.295   0.629   4.038 -0.0684  0.5708 -0.3682
 3883SOL    HW223304   4.296   0.466   4.023 -0.2168  0.4559  0.8666
 3884SOL     OW23305   7.275   8.294   5.743  0.3546  0.4759  0.5752
 3884SOL    HW123306   7.371   8.313   5.762 -0.1753  2.2109  1.5507
 3884SOL    HW223307   7.217   8.356   5.796 -1.2932 -0.1543 -0.4580
 3885SOL     OW23308   2.402   5.148   5.119 -0.6954 -0.1462  0.7449
 3885SOL    HW123309   2.356   5.235   5.136 -2.1968 -0.9038  0.6507
 3885SOL    HW223310   2.428   5.107   5.207 -0.6332  0.0502  0.8192
 3886SOL     OW23311   7.279   9.749   1.739  0.3219 -0.1984 -0.5937
 3886SOL    HW123312   7.217   9.826   1.722 -0.4318 -0.5481  0.5440
 3886SOL    HW223313   7.273   9.684   1.663 -1.1161 -0.4881 -0.2518
 3887SOL     OW23314   4.965   1.406   6.952  0.5218  0.1917  0.4468
 3887SOL    HW123315   4.912   1.444   7.028  1.2992  1.0354  0.5637
 3887SOL    HW223316   4.906   1.398   6.871 -0.7598 -2.2482  1.5837
 3888SOL     OW23317   1.781   6.256   2.813  0.5843  0.0776  0.4199
 3888SOL    HW123318   1.694   6.286   2.851  0.2620 -0.4816  0.1384
 3888SOL    HW223319   1.772   6.161   2.780  1.5071 -0.2417  1.0775
 3889SOL     OW23320   8.354   2.192   3.891 -0.7078  0.3964 -0.3994
 3889SOL    HW123321   8.362   2.198   3.990  0.8007 -0.8449 -0.4296
 3889SOL    HW223322   8.420   2.126   3.856  0.9305  3.0638 -2.5246
 3890SOL     OW23323   5.631   1.249   5.369 -0.0190 -0.5565  0.4070
 3890SOL    HW123324   5.718   1.265   5.321 -0.5526 -1.6549 -0.9749
 3890SOL    HW223325   5.556   1.249   5.302 -0.9296 -0.9110  1.4144
 3891SOL     OW23326   5.220   9.176   3.372 -0.1933 -0.1631 -0.4942
 3891SOL    HW123327   5.276   9.178   3.289  1.4805 -2.8470  0.5230
 3891SOL    HW223328   5.255   9.242   3.438  0.4003 -0.2582 -0.7143
 3892SOL     OW23329   4.024   3.352   8.120  0.1847 -0.1969  0.5075
 3892SOL    HW123330   4.090   3.412   8.075  1.0257 -1.6723 -0.2664
 3892SOL    HW223331   4.031   3.364   8.219  0.7916  0.5045  0.3914
 3893SOL     OW23332   8.624   7.976   4.338  0.3692 -0.6442 -0.2676
 3893SOL    HW123333   8.687   7.946   4.409 -1.0897 -0.3438  1.1609
 3893SOL    HW223334   8.675   7.990   4.253  2.1559 -0.7852  0.7512
 3894SOL     OW23335   2.170   7.708   7.697 -0.0851 -0.3565 -0.0823
 3894SOL    HW123336   2.147   7.783   7.635 -0.3115 -0.2131  0.1713
 3894SOL    HW223337   2.269   7.704   7.709  0.0069 -0.8398 -1.0144
 3895SOL     OW23338   9.950   9.904   0.245 -0.3061  0.0501  0.3175
 3895SOL    HW123339   9.886   9.835   0.212  0.5233 -1.0991  1.0933
 3895SOL    HW223340  10.034   9.900   0.191  0.6984 -1.2175  1.9250
 3896SOL     OW23341   2.556   2.619   2.383  0.4209  0.0192  0.8132
 3896SOL    HW123342   2.470   2.662   2.412  0.1628 -0.5065  0.8444
 3896SOL    HW223343   2.535   2.545   2.319  0.9967  1.2527 -0.8201
 3897SOL     OW23344   4.324   8.271   6.177 -0.6958  0.0679  0.0114
 3897SOL    HW123345   4.333   8.363   6.138  0.3421 -0.4500 -0.9971
 3897SOL    HW223346   4.227   8.249   6.188 -0.9871  0.6795 -1.2012
 3898SOL     OW23347   3.451   8.554   7.136 -0.2184  0.6190 -0.0188
 3898SOL    HW123348   3.494   8.616   7.071 -1.1436  0.5672 -0.6977
 3898SOL    HW223349   3.353   8.576   7.144 -0.3524 -0.1187  0.4681
 3899SOL     OW23350   0.657   1.165   3.630 -0.3400  0.5829  0.0579
 3899SOL    HW123351   0.691   1.259   3.622  0.7970  0.0400 -1.6573
 3899SOL    HW223352   0.733   1.101   3.618 -0.9229 -0.5582  2.2803
 3900SOL     OW23353   1.337   7.261   1.646  0.4994  0.0068  0.4253
 3900SOL    HW123354   1.357   7.218   1.558 -1.3660 -0.3639  0.1540
 3900SOL    HW223355   1.379   7.209   1.720 -1.7707 -2.3970  0.1042
 3901SOL     OW23356   2.621   2.973   4.964 -0.8328  0.0005 -0.4350
 3901SOL    HW123357   2.536   3.026   4.958  0.5854  2.2447 -1.5651
 3901SOL    HW223358   2.626   2.928   5.053 -2.4115  1.2630  0.3188
 3902SOL     OW23359   0.789   2.124   6.742 -0.0231  0.1650  0.2785
 3902SOL    HW123360   0.887   2.123   6.721 -0.3249  0.8127 -1.2337
 3902SOL    HW223361   0.753   2.215   6.723 -0.6026  0.3908  2.3848
 3903SOL     OW23362   8.973   7.923   0.793 -0.3577  0.1446  1.1188
 3903SOL    HW123363   9.048   7.988   0.786 -0.1412  0.0887  2.7800
 3903SOL    HW223364   8.999   7.847   0.854 -1.0540 -0.8616  0.1940
 3904SOL     OW23365   1.247   3.456   2.388 -0.3544 -0.0058  0.5563
 3904SOL    HW123366   1.329   3.469   2.444  0.3085 -0.2741 -0.3247
 3904SOL    HW223367   1.178   3.523   2.413  1.1413  1.9942 -0.4888
 3905SOL     OW23368   8.074   7.043   2.652  0.0544 -1.4120 -0.5866
 3905SOL    HW123369   7.979   7.070   2.665 -0.2545 -1.4669 -2.4886
 3905SOL    HW223370   8.134   7.116   2.684 -0.6407 -1.0270 -0.1389
 3906SOL     OW23371   9.536   4.965   0.190  0.1050 -0.3119  0.0334
 3906SOL    HW123372   9.469   4.903   0.232 -0.4630 -0.1540 -0.6287
 3906SOL    HW223373   9.571   5.028   0.259 -3.0305  1.9098 -0.3052
 3907SOL     OW23374   9.479   3.873   6.622  1.3545 -0.7279 -0.3410
 3907SOL    HW123375   9.393   3.907   6.660  0.9288 -1.9707 -0.1946
 3907SOL    HW223376   9.551   3.880   6.692  1.5514  0.9895 -0.6968
 3908SOL     OW23377   0.261   7.977   0.318 -0.2788  0.3758  0.1800
 3908SOL    HW123378   0.203   7.924   0.256  0.2485  0.4943 -0.4060
 3908SOL    HW223379   0.208   8.002   0.399 -1.2222  0.9891 -0.6219
 3909SOL     OW23380   9.296   7.014   0.462 -0.0077  0.4967 -0.0709
 3909SOL    HW123381   9.347   7.036   0.545  2.3293 -0.3534 -1.2234
 3909SOL    HW223382   9.254   7.097   0.425 -0.2108  1.0527  1.3904
 3910SOL     OW23383   2.805   9.695   6.715 -0.0394 -0.0987  0.1033
 3910SOL    HW123384   2.880   9.649   6.668 -0.0117  0.6361 -0.5844
 3910SOL    HW223385   2.720   9.644   6.702 -0.1692  0.4837 -1.3551
 3911SOL     OW23386   2.860   1.049   4.508 -0.1928  0.2783 -0.4494
 3911SOL    HW123387   2.785   1.100   4.465  0.1477  1.4474  0.3179
 3911SOL    HW223388   2.890   1.097   4.590  2.5552  0.7306 -1.6786
 3912SOL     OW23389   7.181   5.358   1.877  0.0575 -0.2010  0.0029
 3912SOL    HW123390   7.098   5.412   1.861  0.0050 -0.3522 -0.2478
 3912SOL    HW223391   7.258   5.399   1.828 -0.1573 -0.8047 -0.8536
 3913SOL     OW23392   9.408   1.873   4.478  0.2751  0.2822  0.0709
 3913SOL    HW123393   9.503   1.845   4.471  1.1610  3.3749 -1.3768
 3913SOL    HW223394   9.385   1.891   4.573  1.2652 -0.1438  0.3918
 3914SOL     OW23395   7.853   2.414   3.760 -0.2138  0.0794 -0.5048
 3914SOL    HW123396   7.921   2.487   3.772 -1.4735  1.1503  0.3299
 3914SOL    HW223397   7.871   2.365   3.676  0.6350  1.4186 -1.1181
 3915SOL     OW23398   8.008   4.096   5.164 -0.3006 -0.2658  0.4385
 3915SOL    HW123399   8.074   4.039   5.213 -1.4788 -1.6006  0.5118
 3915SOL    HW223400   8.037   4.191   5.168  0.1857 -0.4666  2.8855
 3916SOL     OW23401   7.688   9.157   6.365 -0.1203  0.0992 -0.1606
 3916SOL    HW123402   7.625   9.183   6.291 -0.3833 -2.5101 -0.9163
 3916SOL    HW223403   7.691   9.229   6.434 -0.4301  2.2754 -2.3583
 3917SOL     OW23404   6.557   9.821   6.826 -0.1589  0.1990 -0.0809
 3917SOL    HW123405   6.605   9.907   6.813  1.5316 -0.8308 -0.8809
 3917SOL    HW223406   6.591   9.774   6.907 -0.2702 -0.2334 -0.2779
 3918SOL     OW23407   0.962   7.372   1.291 -1.0223  0.2681  0.2285
 3918SOL    HW123408   1.008   7.301   1.238  0.2619  0.1665  1.4704
 3918SOL    HW223409   0.863   7.359   1.284 -0.8249 -0.8809 -0.5782
 3919SOL     OW23410   2.568   1.155   0.655  0.5838  0.1093 -0.1271
 3919SOL    HW123411   2.471   1.148   0.679  0.4488  1.2571 -0.2970
 3919SOL    HW223412   2.577   1.172   0.557  0.9585 -0.0824 -0.1264
 3920SOL     OW23413   5.507   2.601   4.043  0.1659 -0.1740  0.7564
 3920SOL    HW123414   5.560   2.609   3.959  0.8745 -2.6530  0.9145
 3920SOL    HW223415   5.409   2.602   4.021  0.3541 -1.3372 -0.1817
 3921SOL     OW23416   0.800   2.755   2.198 -0.3224  0.5374 -0.1853
 3921SOL    HW123417   0.712   2.719   2.228 -0.2576  1.5228  1.2398
 3921SOL    HW223418   0.798   2.771   2.099 -1.8935  0.9881 -0.0887
 3922SOL     OW23419   4.614   8.307   5.666  0.5216  0.1221  0.2716
 3922SOL    HW123420   4.616   8.309   5.766  0.6702  1.9329  0.2507
 3922SOL    HW223421   4.685   8.367   5.630 -0.8830  1.0978 -0.9085
 3923SOL     OW23422   5.336   4.969   0.330 -0.0681  0.3540  0.1255
 3923SOL    HW123423   5.237   4.986   0.326 -0.4688 -2.1351 -1.2467
 3923SOL    HW223424   5.383   5.035   0.271 -1.2350 -0.5697 -1.8953
 3924SOL     OW23425   9.207   2.768   4.962 -0.2054 -0.8527  0.0032
 3924SOL    HW123426   9.160   2.758   4.874  0.9428  0.3069 -0.7648
 3924SOL    HW223427   9.297   2.725   4.956  0.5215  0.6464  0.0774
 3925SOL     OW23428   2.699   0.195   3.064 -0.0726 -0.2996  0.1882
 3925SOL    HW123429   2.687   0.246   2.978  1.5229  0.7969  0.5939
 3925SOL    HW223430   2.690   0.258   3.141 -1.5470 -1.2963  0.8330
 3926SOL     OW23431   0.548   9.065   3.171  0.2489  0.2237  0.5487
 3926SOL    HW123432   0.628   9.118   3.198 -0.5688  1.1392  1.2053
 3926SOL    HW223433   0.572   9.006   3.094  1.0464  1.8839 -0.5059
 3927SOL     OW23434   4.419   1.117   5.326  0.0891 -0.1115 -0.0556
 3927SOL    HW123435   4.326   1.151   5.310  0.1886 -0.3240 -1.1428
 3927SOL    HW223436   4.418   1.017   5.324  0.4523 -0.1060 -0.7878
 3928SOL     OW23437   8.466   5.842   1.651  0.1425 -0.2044  0.3313
 3928SOL    HW123438   8.379   5.851   1.603 -0.3477 -0.1577  1.2302
 3928SOL    HW223439   8.515   5.762   1.617  0.0277  0.1213 -0.6099
 3929SOL     OW23440   5.611   8.464   3.963  0.3128 -0.1666 -0.1951
 3929SOL    HW123441   5.709   8.456   3.982 -0.0021  0.7791  1.8961
 3929SOL    HW223442   5.578   8.378   3.923  1.7880 -0.8379 -0.0176
 3930SOL     OW23443   1.924   2.398   2.344 -0.1601  0.2189  0.6225
 3930SOL    HW123444   1.864   2.421   2.268  0.4052 -0.8044 -0.1413
 3930SOL    HW223445   1.873   2.408   2.430 -1.8453 -1.8970 -0.0758
 3931SOL     OW23446   7.613   6.234   1.880  0.3456  0.0794  0.1413
 3931SOL    HW123447   7.531   6.178   1.865  0.1301  0.2782  0.5833
 3931SOL    HW223448   7.594   6.304   1.949  0.4078  1.1409 -0.8960
 3932SOL     OW23449   2.443   3.511   3.585 -0.3178 -0.2097  0.9698
 3932SOL    HW123450   2.441   3.465   3.497 -0.1864 -0.0268  0.8698
 3932SOL    HW223451   2.466   3.446   3.657  0.6597 -0.1395  0.7252
 3933SOL     OW23452   2.874   7.742   1.254  0.4864  0.6127 -0.2890
 3933SOL    HW123453   2.968   7.759   1.223  0.5579  1.1212  0.1986
 3933SOL    HW223454   2.810   7.773   1.184  0.6823  0.1817 -0.6626
 3934SOL     OW23455   9.991   4.049   2.000 -0.1506 -0.1170 -0.0761
 3934SOL    HW123456   9.901   4.004   2.002  0.0060 -0.4739 -0.6794
 3934SOL    HW223457  10.059   3.984   1.965  0.5146 -0.1351  1.2363
 3935SOL     OW23458   5.181   0.675   2.139 -0.3385 -0.1670 -0.1846
 3935SOL    HW123459   5.135   0.739   2.200 -1.3998 -0.0609 -1.0760
 3935SOL    HW223460   5.113   0.630   2.081  0.5214 -1.2150 -0.3992
 3936SOL     OW23461   4.997   1.294   0.584  0.4878 -0.4080  0.3305
 3936SOL    HW123462   4.951   1.372   0.540  0.4846 -1.9056 -2.4510
 3936SOL    HW223463   5.096   1.310   0.584  0.8244 -1.8920 -3.5459
 3937SOL     OW23464   8.588   3.356   1.910  0.1172  0.0739  0.5383
 3937SOL    HW123465   8.550   3.366   1.818  0.4279  1.8800  0.5923
 3937SOL    HW223466   8.547   3.277   1.955 -1.8503  0.6219 -0.2510
 3938SOL     OW23467   0.738   7.828   2.684  0.1630  0.2330  0.9283
 3938SOL    HW123468   0.837   7.822   2.673 -0.2835 -2.7156 -2.5084
 3938SOL    HW223469   0.702   7.897   2.622 -0.0592  0.4957  1.3481
 3939SOL     OW23470   2.454   4.097   7.998  0.1167  0.0267 -0.2380
 3939SOL    HW123471   2.420   4.008   7.967  3.0903 -1.7263  1.3125
 3939SOL    HW223472   2.536   4.121   7.945  0.0713  1.2101  0.2289
 3940SOL     OW23473   7.989   9.507   1.574 -0.3373  0.2123  0.4915
 3940SOL    HW123474   7.900   9.542   1.605 -1.4319 -0.6473 -1.6074
 3940SOL    HW223475   7.994   9.511   1.474  0.5257 -3.1308  0.3340
 3941SOL     OW23476   3.343   1.714   2.499 -0.4080  0.7485  0.3629
 3941SOL    HW123477   3.388   1.779   2.560  0.6855 -0.9127  1.3677
 3941SOL    HW223478   3.267   1.670   2.547 -0.0813  0.0614  0.2619
 3942SOL     OW23479   3.140   5.082   8.157 -0.0426  0.2353 -0.3734
 3942SOL    HW123480   3.044   5.071   8.132  0.3269 -0.5128 -1.5197
 3942SOL    HW223481   3.151   5.069   8.256 -1.3428  1.9092  0.0050
 3943SOL     OW23482   1.884   2.142   6.695 -0.2525  0.0630  0.0950
 3943SOL    HW123483   1.966   2.193   6.723 -0.4643  0.6450 -0.3531
 3943SOL    HW223484   1.884   2.130   6.596 -0.6978  0.0305  0.1004
 3944SOL     OW23485   4.749   0.958   0.446 -0.0809  0.2036  0.5290
 3944SOL    HW123486   4.650   0.943   0.449 -0.0106 -0.0974  1.4917
 3944SOL    HW223487   4.777   0.979   0.353 -1.3347  2.1201  0.5454
 3945SOL     OW23488   3.308   8.671   3.911 -0.0989  0.0739  0.2681
 3945SOL    HW123489   3.332   8.581   3.946 -1.3546  0.0093  0.9719
 3945SOL    HW223490   3.239   8.663   3.840  0.8607  0.3801 -0.7225
 3946SOL     OW23491   1.938   0.542   1.596  0.8568  0.3392  0.3630
 3946SOL    HW123492   1.901   0.603   1.527 -0.7168 -0.2600  0.6658
 3946SOL    HW223493   1.887   0.551   1.681 -0.2441 -2.2938  0.0266
 3947SOL     OW23494   7.240   0.312   1.173 -0.4238 -0.8266 -0.0463
 3947SOL    HW123495   7.203   0.403   1.159 -3.1209 -1.7371  0.7411
 3947SOL    HW223496   7.286   0.307   1.262  0.6807  0.0179 -0.5549
 3948SOL     OW23497   9.333   7.807   6.348 -0.2940  0.0514  0.1908
 3948SOL    HW123498   9.380   7.801   6.260  1.4011  1.2549  0.9816
 3948SOL    HW223499   9.257   7.742   6.350  0.9751 -1.5417 -1.3543
 3949SOL     OW23500   4.387   2.238   0.128  0.0892  0.2125  0.0220
 3949SOL    HW123501   4.398   2.250   0.226  0.0101 -0.2488  0.0895
 3949SOL    HW223502   4.424   2.317   0.080 -0.4971  0.7479  0.4549
 3950SOL     OW23503   2.878   5.711   5.635  0.0497  0.1237  0.4992
 3950SOL    HW123504   2.815   5.786   5.617  0.2877  0.2494  0.1876
 3950SOL    HW223505   2.828   5.632   5.670 -0.0156  0.9520  2.3456
 3951SOL     OW23506   7.329   5.228   0.329  0.2252  0.1642  0.6544
 3951SOL    HW123507   7.241   5.181   0.330  0.6051 -0.5625  0.7967
 3951SOL    HW223508   7.345   5.269   0.419 -0.0853  0.5228  0.5466
 3952SOL     OW23509   3.193   4.888   1.751 -0.3440 -0.1327  0.2193
 3952SOL    HW123510   3.212   4.985   1.759  0.2977 -0.1430 -1.0864
 3952SOL    HW223511   3.251   4.838   1.816  0.5314  0.2367 -0.2593
 3953SOL     OW23512   6.672   2.911   1.763  0.1961  0.7811  0.8907
 3953SOL    HW123513   6.703   3.004   1.740  0.6226  0.3636 -0.2861
 3953SOL    HW223514   6.686   2.894   1.860  0.3798  1.8578  1.0570
 3954SOL     OW23515   1.928   0.739   6.641  0.7236  0.5282  0.0247
 3954SOL    HW123516   1.909   0.837   6.651 -0.0798  0.4243 -0.4318
 3954SOL    HW223517   1.888   0.706   6.556  1.9888  0.0454 -0.3974
 3955SOL     OW23518   3.302   8.849   1.947  0.1550 -0.3602 -0.4725
 3955SOL    HW123519   3.336   8.756   1.943 -0.8284 -0.8820  2.1773
 3955SOL    HW223520   3.202   8.848   1.951  0.0846  0.8631 -1.4406
 3956SOL     OW23521   3.361   4.936   6.327  0.0552  0.2451 -0.1940
 3956SOL    HW123522   3.300   5.016   6.325 -1.1004 -0.6325 -0.3157
 3956SOL    HW223523   3.308   4.854   6.350  1.3509 -0.3926  0.5564
 3957SOL     OW23524   8.297   9.576   8.066  0.0282 -0.6514  0.2401
 3957SOL    HW123525   8.235   9.556   7.990  0.0470 -0.7806  0.2587
 3957SOL    HW223526   8.385   9.532   8.049  0.6433  0.8564 -0.5713
 3958SOL     OW23527   9.566   5.345   1.177 -0.1895  0.2321  0.0790
 3958SOL    HW123528   9.531   5.271   1.120  0.3081 -0.5345  0.7491
 3958SOL    HW223529   9.499   5.368   1.247 -0.6447  0.9141 -0.5727
 3959SOL     OW23530   7.282   2.277   4.833 -0.4123 -0.1445 -0.0862
 3959SOL    HW123531   7.374   2.258   4.801 -0.4437  0.2596 -0.4177
 3959SOL    HW223532   7.281   2.363   4.885 -1.0935  1.2548 -2.3600
 3960SOL     OW23533   1.673   2.766   1.255 -0.1260 -0.0779 -0.4542
 3960SOL    HW123534   1.611   2.689   1.238 -1.3298  0.1356  2.7002
 3960SOL    HW223535   1.753   2.735   1.306  0.1169  0.5093 -0.4704
 3961SOL     OW23536   3.114   7.050   2.901  0.1781 -0.1923  0.3461
 3961SOL    HW123537   3.184   7.037   2.831  0.4219  0.9937  0.3621
 3961SOL    HW223538   3.045   6.978   2.893  1.2959 -1.2677  0.2172
 3962SOL     OW23539   6.355   9.253   7.204 -0.6461 -0.3469  0.1081
 3962SOL    HW123540   6.372   9.157   7.183 -2.3889 -0.5720 -0.3125
 3962SOL    HW223541   6.278   9.286   7.149 -1.0104  0.8788  1.3352
 3963SOL     OW23542   1.888   2.092   1.805  0.2231  0.1515  0.2043
 3963SOL    HW123543   1.929   2.029   1.739  0.7973  0.2637  0.4506
 3963SOL    HW223544   1.944   2.095   1.887  0.1886  0.9626  0.2063
 3964SOL     OW23545   6.747   1.755   1.879 -0.3534 -0.0904 -0.2104
 3964SOL    HW123546   6.688   1.778   1.956 -0.2778 -0.1448 -0.1357
 3964SOL    HW223547   6.696   1.697   1.815 -0.4113 -0.0591 -0.1930
 3965SOL     OW23548   3.644   8.613   6.831 -0.0782 -0.1485 -0.1238
 3965SOL    HW123549   3.722   8.557   6.860 -0.1226 -0.7259 -1.0974
 3965SOL    HW223550   3.624   8.682   6.901  0.8218 -0.4912  0.4749
 3966SOL     OW23551   3.140   1.314   0.764  0.1222 -0.0376 -0.2226
 3966SOL    HW123552   3.148   1.343   0.859  0.5738  1.3609 -0.6806
 3966SOL    HW223553   3.083   1.232   0.759 -1.0090  0.6543  1.1069
 3967SOL     OW23554   0.768   2.667   6.003  0.2444  0.1464  0.6630
 3967SOL    HW123555   0.677   2.689   6.038  0.3037  1.2102  0.1809
 3967SOL    HW223556   0.760   2.625   5.913  0.1248 -2.0040  1.6376
 3968SOL     OW23557   7.325   3.029   3.156 -0.3329  0.0385 -0.1293
 3968SOL    HW123558   7.404   2.993   3.106 -1.3629 -1.2847 -0.8360
 3968SOL    HW223559   7.354   3.064   3.244  1.0770 -0.2896 -0.4570
 3969SOL     OW23560   2.979   0.783   5.823  0.1334  0.4744  0.3753
 3969SOL    HW123561   3.000   0.880   5.830  0.8185  0.5471 -2.1859
 3969SOL    HW223562   3.051   0.730   5.868  1.2688  1.0650 -0.7161
 3970SOL     OW23563   0.165   4.235   4.812 -0.0361  0.5642  0.5110
 3970SOL    HW123564   0.119   4.172   4.749 -0.8656 -0.0225  1.6874
 3970SOL    HW223565   0.224   4.183   4.874 -1.1951  0.8677  1.8888
 3971SOL     OW23566   7.426   4.091   0.610  0.2307 -0.3546  0.5010
 3971SOL    HW123567   7.441   4.088   0.709  0.4200  3.1838  0.6261
 3971SOL    HW223568   7.341   4.043   0.588  0.0336 -0.9215  2.4052
 3972SOL     OW23569   9.095   7.996   6.899  0.4600  0.0730  0.2893
 3972SOL    HW123570   9.070   8.069   6.962  3.2496  1.1530  0.2022
 3972SOL    HW223571   9.154   7.930   6.946 -1.3452 -1.7307  0.1332
 3973SOL     OW23572   8.931   2.726   4.034 -0.0031  0.1558 -0.3158
 3973SOL    HW123573   8.865   2.652   4.019  1.1180 -0.8604 -0.2864
 3973SOL    HW223574   8.933   2.785   3.953 -2.6572  1.5652  0.6013
 3974SOL     OW23575   8.391   2.670   0.608 -0.0151  0.1930  0.2280
 3974SOL    HW123576   8.351   2.607   0.541  0.9575 -0.6812  0.4524
 3974SOL    HW223577   8.321   2.732   0.642 -1.2680 -1.5145  0.8369
 3975SOL     OW23578   1.798   8.150   2.383  0.7282 -0.3483 -0.1884
 3975SOL    HW123579   1.768   8.064   2.341 -1.2460  0.0351  0.4213
 3975SOL    HW223580   1.767   8.153   2.478 -0.4030  1.6363 -0.6007
 3976SOL     OW23581   3.071   3.914   1.819  1.2570 -0.0786 -0.3229
 3976SOL    HW123582   3.087   3.878   1.728  3.3305  0.8960 -0.3674
 3976SOL    HW223583   3.154   3.908   1.874  0.6486  1.2906  0.8130
 3977SOL     OW23584   7.271   9.870   1.991  0.0326  0.0628  0.1783
 3977SOL    HW123585   7.253   9.806   1.917 -1.0217  0.3237  0.2075
 3977SOL    HW223586   7.259   9.963   1.958  0.1035  0.1984  0.5324
 3978SOL     OW23587   3.950   2.785   5.199  0.0308  0.0292 -0.0179
 3978SOL    HW123588   3.931   2.693   5.234 -1.8480  0.6811  0.7304
 3978SOL    HW223589   3.973   2.845   5.276  1.6739  0.0838 -0.5547
 3979SOL     OW23590   1.014   2.540   4.101 -0.1113 -0.1900 -0.4673
 3979SOL    HW123591   1.099   2.523   4.051  1.1068  2.4958  0.6129
 3979SOL    HW223592   0.970   2.622   4.066 -1.4464 -0.6634  0.0563
 3980SOL     OW23593   8.251   7.912   0.752 -0.2804  0.2067 -0.7481
 3980SOL    HW123594   8.335   7.964   0.771 -0.6107  0.3456  0.3417
 3980SOL    HW223595   8.172   7.963   0.784 -0.6219 -0.9088  0.2398
 3981SOL     OW23596   8.336   9.332   7.544 -0.2371 -0.5001  0.1062
 3981SOL    HW123597   8.313   9.340   7.641 -1.1117  0.0607 -0.1392
 3981SOL    HW223598   8.302   9.412   7.495 -0.3790 -1.0874 -0.7730
 3982SOL     OW23599   0.923   7.382   5.048  0.0762 -0.0398  0.4850
 3982SOL    HW123600   0.855   7.414   5.114  0.3223  1.2463  0.1267
 3982SOL    HW223601   1.010   7.364   5.096 -0.0090  0.0056  0.6557
 3983SOL     OW23602   6.635   7.998   4.589 -0.4829  0.4802 -0.0328
 3983SOL    HW123603   6.705   8.063   4.560 -0.2614  0.0476 -0.4746
 3983SOL    HW223604   6.666   7.905   4.571 -1.3256  0.2998 -0.5880
 3984SOL     OW23605   1.592   8.771   0.433  0.4191  0.0846  0.0426
 3984SOL    HW123606   1.519   8.804   0.373 -0.7754  1.6001  2.2519
 3984SOL    HW223607   1.570   8.679   0.466  0.5208 -0.2831 -0.8996
 3985SOL     OW23608   2.742   9.179   1.332  0.1105 -0.0559  0.0980
 3985SOL    HW123609   2.834   9.196   1.297 -0.1352  0.9611 -0.0678
 3985SOL    HW223610   2.744   9.104   1.397  1.1664  0.3776  0.5618
 3986SOL     OW23611   4.365   6.830   0.790 -0.1965 -0.3512 -0.1409
 3986SOL    HW123612   4.377   6.793   0.698 -0.4245  0.0193 -0.3143
 3986SOL    HW223613   4.422   6.777   0.854 -0.1507 -0.6972 -0.4683
 3987SOL     OW23614   2.021   2.409   4.670  0.0594 -0.8413 -0.1821
 3987SOL    HW123615   2.112   2.449   4.674  1.0951 -3.1158 -0.4356
 3987SOL    HW223616   1.989   2.409   4.575 -0.5674  0.6913  0.0122
 3988SOL     OW23617   3.066   7.231   3.383 -0.5058  0.7607  0.2875
 3988SOL    HW123618   3.122   7.150   3.392 -1.3184  0.0907 -0.5972
 3988SOL    HW223619   2.990   7.213   3.320 -0.5698  2.2662 -0.0928
 3989SOL     OW23620   3.495   3.558   4.565  0.2917 -0.1366  0.7042
 3989SOL    HW123621   3.414   3.518   4.608  0.5603 -0.9667  0.4632
 3989SOL    HW223622   3.523   3.500   4.488  0.9660  0.2810  0.6340
 3990SOL     OW23623   9.605   9.587   7.549 -0.1793 -0.1052  0.0791
 3990SOL    HW123624   9.633   9.525   7.476  0.0488 -0.8304  0.7681
 3990SOL    HW223625   9.580   9.676   7.510  0.9870 -0.1368 -0.7725
 3991SOL     OW23626   3.161   6.175   1.652 -0.1439  0.4366  0.0511
 3991SOL    HW123627   3.063   6.198   1.656  0.1766  1.5653  1.6588
 3991SOL    HW223628   3.213   6.239   1.709  1.3325 -1.2341  0.6214
 3992SOL     OW23629   7.391   2.251   0.189 -0.2554 -0.1585 -0.4398
 3992SOL    HW123630   7.446   2.231   0.270 -0.5562 -0.1724 -0.2344
 3992SOL    HW223631   7.315   2.186   0.184 -0.1151 -0.2921 -0.8531
 3993SOL     OW23632   0.546   0.815   2.083  0.1351 -0.5174 -0.3161
 3993SOL    HW123633   0.525   0.782   1.991 -0.1808 -3.0006  0.6239
 3993SOL    HW223634   0.465   0.863   2.119  0.7101  1.6925 -1.7989
 3994SOL     OW23635   7.891   7.024   5.696  0.7708 -0.6534  0.4575
 3994SOL    HW123636   7.986   7.053   5.710  0.7327 -1.1540  1.8312
 3994SOL    HW223637   7.834   7.105   5.680  1.4335 -0.3606 -0.4795
 3995SOL     OW23638   3.127   9.394   6.132 -0.2732 -0.2297  0.5750
 3995SOL    HW123639   3.202   9.335   6.103  0.1800 -0.4590  2.1782
 3995SOL    HW223640   3.140   9.485   6.094 -0.3772 -0.8436 -0.9858
 3996SOL     OW23641   6.789   3.989   0.629  0.0447  0.3595 -0.1413
 3996SOL    HW123642   6.764   4.064   0.568 -1.2775  0.9364  1.0682
 3996SOL    HW223643   6.723   3.984   0.704  1.9461  0.0387  1.5600
 3997SOL     OW23644   4.899   3.882   4.485 -0.3480 -0.0744 -0.5871
 3997SOL    HW123645   4.993   3.911   4.505 -0.5551 -0.6144  1.1908
 3997SOL    HW223646   4.840   3.963   4.480 -0.0520  0.1584 -0.3512
 3998SOL     OW23647   9.327   5.470   2.547  0.0941 -0.1102 -0.0140
 3998SOL    HW123648   9.385   5.469   2.465 -1.3117 -0.3143 -1.0332
 3998SOL    HW223649   9.282   5.559   2.554 -1.8284 -0.9773 -0.9560
 3999SOL     OW23650   6.749   0.798   5.780  0.0164 -0.0428  0.1408
 3999SOL    HW123651   6.717   0.879   5.730  1.2232  0.6429  0.4719
 3999SOL    HW223652   6.672   0.757   5.830 -0.2992  1.7463  1.1495
 4000SOL     OW23653   9.860   5.068   2.761  0.1526 -0.4110  0.4707
 4000SOL    HW123654   9.941   5.045   2.707  0.3797  1.5297 -0.0689
 4000SOL    HW223655   9.792   5.113   2.702  0.0119  0.8613  1.5770
 4001SOL     OW23656   7.903   1.983   5.463  0.4389 -0.1517 -0.2464
 4001SOL    HW123657   7.978   2.011   5.521  1.1163 -1.2571 -0.5678
 4001SOL    HW223658   7.846   1.916   5.511 -0.6327  1.0394  0.1765
 4002SOL     OW23659   6.491   2.290   0.472 -0.1539 -0.0038  0.1063
 4002SOL    HW123660   6.494   2.195   0.440 -0.8043 -0.8571  2.4679
 4002SOL    HW223661   6.404   2.331   0.444 -0.3122 -0.4277 -0.0318
 4003SOL     OW23662   8.527   1.988   3.818  0.3053 -0.2164  0.3509
 4003SOL    HW123663   8.592   1.944   3.881 -0.9185 -0.9268  1.1354
 4003SOL    HW223664   8.483   1.919   3.762  0.1754  0.2633 -0.1452
 4004SOL     OW23665   7.950   8.811   4.654  0.4637  0.0145 -0.3236
 4004SOL    HW123666   8.017   8.758   4.603  1.3386  0.4357  0.3712
 4004SOL    HW223667   7.863   8.761   4.657  0.6486 -0.3898 -1.4901
 4005SOL     OW23668   0.767   1.987   3.919 -0.0795  0.4456 -0.1930
 4005SOL    HW123669   0.814   1.899   3.935 -0.7886  0.2210  0.6852
 4005SOL    HW223670   0.796   2.024   3.831 -1.0189 -1.4826 -1.3622
 4006SOL     OW23671   9.865   3.479   1.602 -0.6462  0.4029 -0.0999
 4006SOL    HW123672   9.820   3.514   1.683  0.3392  0.6131  0.3645
 4006SOL    HW223673   9.955   3.522   1.592 -0.1942 -0.6022 -0.5495
 4007SOL     OW23674   1.789   4.451   5.069 -0.1668 -0.1745  0.3477
 4007SOL    HW123675   1.855   4.491   5.132 -1.9028  3.5725 -0.1094
 4007SOL    HW223676   1.821   4.461   4.975 -0.4424 -0.2252  0.2464
 4008SOL     OW23677   9.006   4.826   2.862 -0.5982  0.4858 -0.0589
 4008SOL    HW123678   9.055   4.905   2.897  1.7562 -0.9539  0.0084
 4008SOL    HW223679   8.948   4.788   2.935 -0.6612  1.3139  0.3236
 4009SOL     OW23680   4.103   2.794   2.116  0.0311  0.3334 -0.1055
 4009SOL    HW123681   4.058   2.880   2.092 -1.0919 -0.1300  0.2808
 4009SOL    HW223682   4.094   2.729   2.041 -1.5374 -0.3628  0.6509
 4010SOL     OW23683   4.305   1.051   2.109  0.0170 -0.1769 -0.1464
 4010SOL    HW123684   4.400   1.020   2.108  0.3111  0.7035 -0.5478
 4010SOL    HW223685   4.277   1.077   2.017 -0.7355 -0.7714 -0.0919
 4011SOL     OW23686   1.053   0.991   3.652  0.0572  0.3528 -0.0994
 4011SOL    HW123687   1.131   1.006   3.712  0.2936 -1.4893  0.1059
 4011SOL    HW223688   1.068   0.908   3.598  0.0507  2.2352 -3.0908
 4012SOL     OW23689   1.387   7.550   4.588  0.1208  0.4810  0.9952
 4012SOL    HW123690   1.462   7.561   4.654  0.7035 -0.8943  0.5669
 4012SOL    HW223691   1.422   7.564   4.495 -0.5482  1.6686  0.9092
 4013SOL     OW23692   4.043   5.130   0.239 -0.0763  0.3739 -0.1187
 4013SOL    HW123693   4.075   5.067   0.168  0.1787  0.2764  0.0830
 4013SOL    HW223694   3.981   5.083   0.301  0.3147  0.2583  0.1809
 4014SOL     OW23695   5.087   2.385   3.101  0.3471  0.3745  0.0616
 4014SOL    HW123696   4.994   2.424   3.097  0.4236  0.3966 -1.4787
 4014SOL    HW223697   5.145   2.446   3.155 -0.4684  0.4879  0.8297
 4015SOL     OW23698   7.782   6.227   6.263  0.1602 -0.0056 -0.2308
 4015SOL    HW123699   7.866   6.198   6.218 -0.4434 -0.0461 -1.3584
 4015SOL    HW223700   7.801   6.250   6.358  0.9917 -2.3879  0.2148
 4016SOL     OW23701   5.007   0.585   6.974  0.1132  0.1403  0.4246
 4016SOL    HW123702   5.052   0.614   6.890  1.1699  0.8062  1.1969
 4016SOL    HW223703   4.996   0.665   7.034 -0.6692 -0.3167  0.8847
 4017SOL     OW23704   8.396   7.687   1.542 -0.5847  0.4345  0.7592
 4017SOL    HW123705   8.387   7.664   1.445  0.7039  1.0890  0.4579
 4017SOL    HW223706   8.419   7.784   1.550  1.2122 -0.0398  1.6134
 4018SOL     OW23707   9.400   3.596   6.803 -0.1338 -0.4895  0.1334
 4018SOL    HW123708   9.354   3.683   6.821  0.8085 -0.1318  0.8309
 4018SOL    HW223709   9.367   3.527   6.869  1.2333  0.0895  1.4428
 4019SOL     OW23710   0.484   2.867   3.932 -0.2242  0.1602  0.3534
 4019SOL    HW123711   0.397   2.842   3.977 -0.0696  2.0580  1.7844
 4019SOL    HW223712   0.505   2.962   3.952  1.0805  0.3584 -1.8716
 4020SOL     OW23713   6.818   0.070   2.066 -0.0990  0.3272  0.1920
 4020SOL    HW123714   6.886  -0.003   2.073 -0.0260  0.4752  0.9945
 4020SOL    HW223715   6.864   0.155   2.040 -0.0441  0.3280  0.2931
 4021SOL     OW23716   1.311   4.116   5.199 -0.2589 -0.2427 -0.1034
 4021SOL    HW123717   1.262   4.029   5.186 -2.0966  0.2136  3.2378
 4021SOL    HW223718   1.391   4.101   5.257  0.3815  0.0139 -0.9152
 4022SOL     OW23719   9.669   4.576   5.939 -0.1975  0.1630  0.7160
 4022SOL    HW123720   9.583   4.627   5.947 -1.6877 -2.1531  0.0294
 4022SOL    HW223721   9.650   4.478   5.942  2.0110 -0.4820 -2.8364
 4023SOL     OW23722   4.143   8.281   4.126  0.1249  0.0979  0.0264
 4023SOL    HW123723   4.125   8.344   4.201 -2.1651  0.7164 -1.0076
 4023SOL    HW223724   4.216   8.319   4.068 -0.8320  1.5481 -0.2665
 4024SOL     OW23725   4.014   6.980   3.556  0.2403  0.2854 -0.3262
 4024SOL    HW123726   4.003   6.947   3.463  0.4095 -0.2808 -0.1464
 4024SOL    HW223727   3.930   7.025   3.586 -0.1602 -0.4206 -0.3946
 4025SOL     OW23728   2.166   0.083   2.868  0.1200 -0.1562 -0.2233
 4025SOL    HW123729   2.173  -0.007   2.910 -0.1505 -0.2929 -0.4659
 4025SOL    HW223730   2.187   0.154   2.936 -1.7475 -0.3056  0.5485
 4026SOL     OW23731   5.516   9.392   5.765  0.3853 -0.5660  0.3083
 4026SOL    HW123732   5.449   9.330   5.725  1.5675 -2.1996  0.8331
 4026SOL    HW223733   5.503   9.484   5.727  0.5557 -1.7586 -2.7499
 4027SOL     OW23734   8.138   2.316   5.845  0.0021  0.2440  0.3386
 4027SOL    HW123735   8.126   2.415   5.842 -1.6650  0.0118 -1.6173
 4027SOL    HW223736   8.203   2.288   5.775  0.3213 -0.0642  0.7565
 4028SOL     OW23737   8.090   9.705   1.180  0.3741  0.4398 -0.4919
 4028SOL    HW123738   8.037   9.789   1.165 -0.4422 -0.4235 -2.5864
 4028SOL    HW223739   8.134   9.709   1.270 -1.6490  2.0330  0.4576
 4029SOL     OW23740   4.436   0.146   4.681 -0.0339 -0.0589 -0.1991
 4029SOL    HW123741   4.526   0.173   4.714 -0.2586 -0.1362  0.4903
 4029SOL    HW223742   4.391   0.223   4.637  0.0628  0.1887  0.1377
 4030SOL     OW23743   3.420   9.087   2.660 -0.7726  0.5056 -0.4521
 4030SOL    HW123744   3.338   9.102   2.604 -1.4520 -0.4651  0.2533
 4030SOL    HW223745   3.414   8.997   2.703 -0.4607  1.3913  1.4966
 4031SOL     OW23746   3.774   3.780   7.052 -0.1716 -0.5733  0.0285
 4031SOL    HW123747   3.743   3.701   6.999 -0.5020 -0.6742  0.3734
 4031SOL    HW223748   3.843   3.830   6.999 -0.7860 -0.4506 -0.6595
 4032SOL     OW23749   3.804   5.456   3.492 -0.1903 -0.0416 -0.1104
 4032SOL    HW123750   3.728   5.405   3.533 -0.3781 -0.4010 -0.8867
 4032SOL    HW223751   3.873   5.476   3.562  0.2541 -2.0621  0.0698
 4033SOL     OW23752   8.121   7.144   0.317 -0.2042 -0.0070 -0.3991
 4033SOL    HW123753   8.059   7.065   0.315  0.5342 -0.6829  1.8254
 4033SOL    HW223754   8.071   7.227   0.291 -1.2892 -1.0027 -1.5526
 4034SOL     OW23755   1.716   1.368   3.193  0.0199  0.2859 -0.0479
 4034SOL    HW123756   1.740   1.362   3.097  2.1385 -2.0171  0.5759
 4034SOL    HW223757   1.754   1.453   3.232  1.5381 -0.1077 -0.6246
 4035SOL     OW23758   4.283   5.495   7.765  0.1708 -0.2619  0.0683
 4035SOL    HW123759   4.312   5.405   7.797  0.1683 -0.1904  0.2722
 4035SOL    HW223760   4.326   5.515   7.677  1.4815  0.2496  0.8245
 4036SOL     OW23761   0.136   7.948   1.690 -0.0209  0.7389 -0.0167
 4036SOL    HW123762   0.096   8.004   1.618 -0.3882  0.2481 -0.2022
 4036SOL    HW223763   0.186   8.006   1.754 -0.7912  1.3396  0.0593
 4037SOL     OW23764   8.342   2.676   3.020 -0.6179  0.2633  0.4797
 4037SOL    HW123765   8.303   2.765   2.999 -0.1548 -0.2566 -2.8956
 4037SOL    HW223766   8.295   2.606   2.965  0.8040 -1.1921  1.0971
 4038SOL     OW23767   9.047   8.892   1.243 -0.3787  0.0054 -0.3303
 4038SOL    HW123768   9.067   8.933   1.154 -2.5639 -1.2220 -1.4507
 4038SOL    HW223769   8.979   8.948   1.291 -0.0010  0.1021  0.0865
 4039SOL     OW23770   3.715   3.580   5.215 -0.8437 -0.3344  0.4060
 4039SOL    HW123771   3.620   3.570   5.244 -0.2993 -2.1027  1.6911
 4039SOL    HW223772   3.775   3.579   5.296  0.2314  1.4022 -0.3334
 4040SOL     OW23773   9.478   5.545   2.327 -0.0920  0.3947 -0.9383
 4040SOL    HW123774   9.560   5.575   2.376 -0.7654  0.7158  0.0227
 4040SOL    HW223775   9.417   5.624   2.315  0.0483  0.3115 -2.2787
 4041SOL     OW23776   7.431   0.790   1.201  0.5479  0.0676 -0.0816
 4041SOL    HW123777   7.500   0.738   1.151 -1.7185 -2.0806 -1.0997
 4041SOL    HW223778   7.359   0.818   1.138 -0.7553  0.0970  1.4025
 4042SOL     OW23779   3.834   6.904   4.415  0.3578  0.8189  0.2315
 4042SOL    HW123780   3.915   6.962   4.428  0.5876  0.7484 -0.8397
 4042SOL    HW223781   3.852   6.838   4.342 -1.5020  2.3842 -1.7047
 4043SOL     OW23782   5.221   7.782   2.210  0.0823  0.2144 -0.1457
 4043SOL    HW123783   5.227   7.724   2.291 -0.3106  1.0664  0.5033
 4043SOL    HW223784   5.195   7.727   2.131  0.9393 -0.7103  0.2089
 4044SOL     OW23785   2.461   4.206   1.253  0.1612 -0.2680 -0.0669
 4044SOL    HW123786   2.509   4.119   1.265 -0.0061 -0.4180 -0.4523
 4044SOL    HW223787   2.521   4.271   1.207 -0.4810 -0.9258 -1.8980
 4045SOL     OW23788   4.474   1.063   5.880 -0.3464 -0.1172  0.5234
 4045SOL    HW123789   4.552   1.108   5.923  0.0093 -0.9676  0.7800
 4045SOL    HW223790   4.506   1.005   5.805 -0.7712 -0.1948  0.3987
 4046SOL     OW23791   6.955   9.392   6.217 -0.2803  0.3166 -0.1773
 4046SOL    HW123792   6.920   9.384   6.311  1.2514  1.4262  0.5100
 4046SOL    HW223793   6.883   9.425   6.157 -0.4387  2.5952  1.2048
 4047SOL     OW23794   3.930   0.209   6.601 -0.2248  0.2832 -0.7497
 4047SOL    HW123795   3.933   0.137   6.670 -1.1746 -0.3451 -1.3576
 4047SOL    HW223796   3.840   0.253   6.604 -0.1713  0.4357 -1.4043
 4048SOL     OW23797   7.051   1.504   5.990 -0.4280  0.7945  0.7128
 4048SOL    HW123798   7.141   1.506   6.034  0.5450 -0.5849 -1.1506
 4048SOL    HW223799   7.050   1.570   5.914 -0.1633 -0.8285 -0.7467
 4049SOL     OW23800   3.069   8.022   5.958  0.6569  0.8922 -0.3870
 4049SOL    HW123801   3.004   8.061   6.024 -1.0948 -0.9438 -0.9762
 4049SOL    HW223802   3.109   7.939   5.997  1.2473  0.9872 -0.7866
 4050SOL     OW23803   8.208   3.453   6.156  0.9107 -0.0500 -0.3341
 4050SOL    HW123804   8.152   3.374   6.131  1.0750 -0.2396 -0.1006
 4050SOL    HW223805   8.284   3.463   6.092  0.0661  0.7798 -1.2347
 4051SOL     OW23806   3.400   5.915   6.672 -0.0355  0.6423 -0.7474
 4051SOL    HW123807   3.435   5.975   6.744  0.0253 -0.1977 -0.0760
 4051SOL    HW223808   3.397   5.821   6.706  2.4176 -0.1799 -2.6715
 4052SOL     OW23809   2.145   5.428   5.773 -0.1441  0.5509 -0.4713
 4052SOL    HW123810   2.148   5.370   5.692 -3.1158 -1.0988  0.5352
 4052SOL    HW223811   2.162   5.374   5.855 -1.8014  1.2888  0.3904
 4053SOL     OW23812   2.092   0.451   6.888  0.6513  0.1623 -0.0830
 4053SOL    HW123813   2.010   0.437   6.832 -0.8228  1.7114  1.5829
 4053SOL    HW223814   2.101   0.376   6.954  0.1497  0.3361  0.1919
 4054SOL     OW23815   2.262   4.249   7.087  0.0026 -0.8119  0.0439
 4054SOL    HW123816   2.336   4.308   7.055 -1.1226  0.2386 -0.6527
 4054SOL    HW223817   2.263   4.164   7.035 -0.3850 -0.0593 -1.2227
 4055SOL     OW23818   7.994   9.731   6.421  0.6658  0.8677  0.0377
 4055SOL    HW123819   8.007   9.635   6.396  1.5131  1.3165 -1.3262
 4055SOL    HW223820   7.925   9.738   6.493 -1.8522 -0.4875 -2.1579
 4056SOL     OW23821   4.389   3.104   0.685 -0.2267 -0.1735 -0.3384
 4056SOL    HW123822   4.484   3.098   0.714 -0.2354  0.3662 -0.1902
 4056SOL    HW223823   4.340   3.168   0.744 -0.4393  0.3044 -1.0247
 4057SOL     OW23824   1.227   6.162   6.051  0.0284 -0.0427  0.5642
 4057SOL    HW123825   1.202   6.092   6.117  0.5240 -0.3348  0.4486
 4057SOL    HW223826   1.323   6.188   6.065  0.4825 -0.9418 -0.7717
 4058SOL     OW23827   0.855   9.074   4.555  0.3715 -0.6451  0.0435
 4058SOL    HW123828   0.933   9.133   4.577  0.6163 -1.2544  0.8536
 4058SOL    HW223829   0.821   9.096   4.464 -0.6095  1.9213  0.9636
 4059SOL     OW23830   4.298   4.863   0.270 -0.1455  0.0262 -0.0975
 4059SOL    HW123831   4.341   4.950   0.291 -0.9599 -0.3671  3.5565
 4059SOL    HW223832   4.358   4.788   0.299 -1.6850 -0.5521  1.6509
 4060SOL     OW23833   5.062   0.906   7.535 -0.0216  0.3706 -0.7242
 4060SOL    HW123834   5.127   0.970   7.577  0.7755 -0.9282  0.0568
 4060SOL    HW223835   4.971   0.921   7.574  0.5115 -0.1346  0.7544
 4061SOL     OW23836   9.388   7.386   1.445  0.4741 -0.0232 -0.1839
 4061SOL    HW123837   9.349   7.472   1.411  0.4817  0.3512  0.7519
 4061SOL    HW223838   9.362   7.374   1.541 -2.1122 -2.5577 -1.1294
 4062SOL     OW23839   2.764   9.337   2.350  0.3836 -0.8188  0.4104
 4062SOL    HW123840   2.821   9.268   2.395  2.6752  0.4735 -0.3874
 4062SOL    HW223841   2.820   9.388   2.284 -1.1342  2.0263  1.2149
 4063SOL     OW23842   2.325   2.684   1.160 -0.4514  0.3295  0.2714
 4063SOL    HW123843   2.325   2.608   1.095  0.2912  0.3716  0.2223
 4063SOL    HW223844   2.245   2.742   1.143 -1.1640 -0.5739  0.4747
 4064SOL     OW23845   8.489   9.598   5.177  0.8622  0.4713 -0.6130
 4064SOL    HW123846   8.486   9.500   5.156  0.7044  0.3057  0.1518
 4064SOL    HW223847   8.421   9.646   5.121 -0.1615 -0.0880  0.1135
 4065SOL     OW23848   2.312   6.882   0.344 -0.2862  0.3417 -0.4248
 4065SOL    HW123849   2.370   6.885   0.425  0.2117  0.0668 -0.7675
 4065SOL    HW223850   2.216   6.875   0.371 -0.1012 -0.0162  0.1328
 4066SOL     OW23851   6.601   1.415   6.174 -0.1653 -0.6409  0.2152
 4066SOL    HW123852   6.601   1.474   6.255 -0.0703 -1.9849  1.2181
 4066SOL    HW223853   6.601   1.471   6.092  0.9996  0.7621  1.1400
 4067SOL     OW23854   0.106   9.098   6.611 -0.3389 -1.1185  0.1151
 4067SOL    HW123855   0.080   9.044   6.691 -0.6854 -1.4096 -0.1896
 4067SOL    HW223856   0.091   9.043   6.529  1.2388 -1.2943 -0.0670
 4068SOL     OW23857   3.575   6.279   5.300 -0.3376 -0.4193 -0.2774
 4068SOL    HW123858   3.573   6.262   5.398  0.4848 -0.9243 -0.3430
 4068SOL    HW223859   3.523   6.362   5.279  1.0333  0.7313  0.7985
 4069SOL     OW23860   8.349   2.692   4.734  0.5236 -0.4145  0.2781
 4069SOL    HW123861   8.309   2.779   4.706 -0.6896 -1.3245 -0.9050
 4069SOL    HW223862   8.346   2.628   4.658  3.2128 -0.8916  0.5490
 4070SOL     OW23863   8.879   1.261   2.238 -0.7015 -0.4615  0.8202
 4070SOL    HW123864   8.890   1.354   2.275 -1.1887  0.0300 -0.2501
 4070SOL    HW223865   8.782   1.240   2.228 -0.5717 -0.3789 -0.6801
 4071SOL     OW23866   3.325   1.278   6.647  0.6050 -0.3584 -0.2572
 4071SOL    HW123867   3.359   1.201   6.701  0.6037 -0.0059  0.2480
 4071SOL    HW223868   3.353   1.364   6.690 -1.0993 -0.0593  0.2681
 4072SOL     OW23869   9.464   8.902   2.689 -0.0073  0.1273  0.5423
 4072SOL    HW123870   9.373   8.888   2.649 -0.0507  0.9722  0.3442
 4072SOL    HW223871   9.485   8.999   2.691  1.2943 -0.1248 -0.2976
 4073SOL     OW23872   1.414   3.351   0.512  0.3923  0.4021  0.1137
 4073SOL    HW123873   1.399   3.450   0.514  0.7352  0.4432  1.0489
 4073SOL    HW223874   1.500   3.331   0.464  0.0111  0.5171 -0.6155
 4074SOL     OW23875   1.699   4.922   2.030  0.3903 -0.6171 -0.2392
 4074SOL    HW123876   1.669   4.972   2.111  2.3363 -0.8095  0.6261
 4074SOL    HW223877   1.742   4.836   2.058  1.6426 -0.3917 -1.4259
 4075SOL     OW23878   0.331   4.396   0.415 -0.3551  0.1451  0.0982
 4075SOL    HW123879   0.377   4.312   0.443  0.4075  0.1910 -0.9874
 4075SOL    HW223880   0.347   4.412   0.317 -2.1357  0.5050 -0.1625
 4076SOL     OW23881   9.433   9.129   4.456  0.7426  0.1950 -0.9380
 4076SOL    HW123882   9.467   9.055   4.514 -1.3041 -0.7305 -0.9094
 4076SOL    HW223883   9.485   9.130   4.370  0.1812 -1.8459 -1.3157
 4077SOL     OW23884   7.735   5.959   2.017 -0.6066  0.0310 -0.2435
 4077SOL    HW123885   7.741   6.040   1.959  0.5930  0.4146  0.4092
 4077SOL    HW223886   7.825   5.916   2.025 -1.1789 -1.2057 -0.3491
 4078SOL     OW23887   9.970   8.804   2.829  0.4998  0.0922  0.0758
 4078SOL    HW123888  10.005   8.751   2.907 -2.0909 -2.0454 -0.1321
 4078SOL    HW223889   9.918   8.882   2.863  1.0673  0.3055  0.4620
 4079SOL     OW23890   3.665   4.155   0.190  0.0077  0.0928  0.0178
 4079SOL    HW123891   3.754   4.114   0.170 -1.7483 -3.2314 -1.3180
 4079SOL    HW223892   3.625   4.189   0.105  0.2900  2.2938  0.7325
 4080SOL     OW23893   5.332   0.421   6.695 -0.0062  0.3827  0.1375
 4080SOL    HW123894   5.361   0.410   6.600 -0.2658 -0.7017  0.1716
 4080SOL    HW223895   5.308   0.331   6.732 -0.6778  0.9066  0.9768
 4081SOL     OW23896   2.794   5.605   3.040 -0.0627 -0.2043 -0.0911
 4081SOL    HW123897   2.715   5.658   3.012  0.6572 -0.1138 -2.0091
 4081SOL    HW223898   2.859   5.664   3.088 -0.3833  0.0975 -0.0321
 4082SOL     OW23899   1.323   6.823   8.156 -0.3339 -0.7349  0.7702
 4082SOL    HW123900   1.242   6.849   8.209  0.7186  1.8225  1.2061
 4082SOL    HW223901   1.295   6.797   8.064 -1.6551  0.2930  0.8618
 4083SOL     OW23902   7.122   4.001   0.288  0.0955 -0.3183 -0.0177
 4083SOL    HW123903   7.026   4.012   0.260  0.1216 -1.9933 -0.8161
 4083SOL    HW223904   7.179   4.066   0.239 -0.4182 -0.4268 -0.7600
 4084SOL     OW23905   6.182   2.187   1.000 -0.3948 -0.1206 -0.0548
 4084SOL    HW123906   6.101   2.243   0.982 -1.2714 -1.8199 -1.6839
 4084SOL    HW223907   6.168   2.135   1.085  0.1410  1.5958  1.0976
 4085SOL     OW23908   8.408   9.371   6.390 -0.4389 -0.1446 -0.4107
 4085SOL    HW123909   8.379   9.462   6.361 -0.5212 -0.3823 -1.0743
 4085SOL    HW223910   8.327   9.311   6.397 -0.1391 -0.7838 -2.1647
 4086SOL     OW23911   7.974   1.387   3.981 -0.5557  0.0372  0.3244
 4086SOL    HW123912   7.899   1.414   3.921 -0.0577 -0.3226 -0.4576
 4086SOL    HW223913   7.937   1.344   4.063 -1.1476 -1.5444 -0.7620
 4087SOL     OW23914   4.060   9.384   4.009 -0.1278 -0.0326  0.4401
 4087SOL    HW123915   4.071   9.323   4.088  1.4817  0.2052  0.4162
 4087SOL    HW223916   4.079   9.478   4.036 -0.2002  0.1392 -0.0902
 4088SOL     OW23917   7.578   3.855   1.228  0.1838 -0.1100 -0.0555
 4088SOL    HW123918   7.593   3.756   1.229 -0.2889 -0.2013 -1.3969
 4088SOL    HW223919   7.616   3.894   1.145 -0.9529  0.6200 -0.2476
 4089SOL     OW23920   7.386   4.542   2.843 -0.4253 -0.5163 -0.4265
 4089SOL    HW123921   7.297   4.506   2.814 -0.2719  0.2599 -1.8952
 4089SOL    HW223922   7.458   4.477   2.819 -0.3429 -0.0582 -1.4352
 4090SOL     OW23923   1.359   2.522   4.642 -0.5754  0.2279  0.0112
 4090SOL    HW123924   1.288   2.481   4.584  0.3911  0.4219 -1.3338
 4090SOL    HW223925   1.366   2.619   4.623  1.6552 -0.2077 -1.6119
 4091SOL     OW23926   2.195   8.935   6.160 -0.1689  0.3695 -0.2260
 4091SOL    HW123927   2.143   8.974   6.084 -1.1013 -1.4227 -0.5263
 4091SOL    HW223928   2.264   8.871   6.125  0.2206  0.4517  0.3700
 4092SOL     OW23929   1.373   3.002   2.307  0.0925 -0.3022  0.3127
 4092SOL    HW123930   1.413   3.025   2.218  1.4549 -2.5275  0.3047
 4092SOL    HW223931   1.273   2.999   2.299 -0.0514  3.5755 -0.1009
 4093SOL     OW23932   7.764   9.260   5.497 -0.2493  0.3377  0.1522
 4093SOL    HW123933   7.826   9.256   5.576 -1.1999  0.0231  0.8909
 4093SOL    HW223934   7.815   9.238   5.414  0.4226 -0.9115  0.8801
 4094SOL     OW23935   7.281   4.908   1.031 -0.0560 -0.2976 -0.1947
 4094SOL    HW123936   7.264   4.811   1.047  0.1613 -0.1559  1.0009
 4094SOL    HW223937   7.240   4.962   1.105 -1.3390  0.6229 -1.5522
 4095SOL     OW23938   8.411   6.434   2.120 -0.1553  0.1024  0.3137
 4095SOL    HW123939   8.353   6.435   2.202 -0.4427 -0.5463  0.1232
 4095SOL    HW223940   8.441   6.341   2.102 -0.9611  0.0708 -0.9170
 4096SOL     OW23941   0.760   1.002   0.694 -0.2649  0.2488 -0.5609
 4096SOL    HW123942   0.748   1.084   0.639 -1.2130 -0.2439 -1.1039
 4096SOL    HW223943   0.671   0.961   0.713  0.2045 -0.7262 -0.4132
 4097SOL     OW23944   8.646   9.588   6.331 -0.8581 -0.0694 -0.2973
 4097SOL    HW123945   8.708   9.604   6.408 -1.9617 -0.6604  0.7405
 4097SOL    HW223946   8.653   9.493   6.302 -1.9087 -0.3706  0.4067
 4098SOL     OW23947   9.611   0.850   1.249 -0.0683  0.2155  0.8201
 4098SOL    HW123948   9.599   0.767   1.195  0.9941 -0.1270  1.1086
 4098SOL    HW223949   9.600   0.829   1.346  2.0002  0.0413  1.0376
 4099SOL     OW23950   5.917   7.635   4.864  0.3410 -0.1366  0.1727
 4099SOL    HW123951   5.882   7.554   4.817 -1.9110  0.6189  0.5083
 4099SOL    HW223952   5.948   7.702   4.795 -0.4686 -0.1076 -0.1623
 4100SOL     OW23953   3.531   9.522   0.952 -0.0510  0.0016  0.0596
 4100SOL    HW123954   3.586   9.517   0.868  0.2736  1.4697  0.1679
 4100SOL    HW223955   3.572   9.464   1.022  1.5644  1.2738  0.2208
 4101SOL     OW23956   0.192   6.476   5.613  0.0565  0.0281 -0.0535
 4101SOL    HW123957   0.219   6.546   5.547  0.3919  0.1715  0.2294
 4101SOL    HW223958   0.246   6.488   5.697  0.7484 -1.1190 -0.3278
 4102SOL     OW23959   8.180   9.554   5.802  0.5037 -0.1550 -0.4741
 4102SOL    HW123960   8.260   9.613   5.806  0.9026 -0.7715  1.0307
 4102SOL    HW223961   8.209   9.459   5.791 -0.1046 -0.1789 -2.0550
 4103SOL     OW23962   8.685   8.606   0.567 -0.0366 -0.3222 -0.5441
 4103SOL    HW123963   8.641   8.566   0.487  1.6119 -0.7329 -1.2572
 4103SOL    HW223964   8.641   8.694   0.588 -0.9239 -0.5320 -1.4810
 4104SOL     OW23965   8.960   6.591   6.783 -0.0718 -0.3841  0.0064
 4104SOL    HW123966   8.864   6.584   6.758  0.0481  1.8400 -1.2264
 4104SOL    HW223967   8.971   6.569   6.880 -1.4071 -3.2263 -0.4408
 4105SOL     OW23968   4.832   2.326   4.763  0.1845 -0.7895  0.5821
 4105SOL    HW123969   4.759   2.268   4.727 -1.1407  1.0772  0.1714
 4105SOL    HW223970   4.804   2.422   4.756  2.6507 -0.0481  0.5083
 4106SOL     OW23971   1.721   9.454   4.923 -0.1324 -0.4278 -0.0295
 4106SOL    HW123972   1.768   9.443   5.010  1.2123 -2.1804 -0.9598
 4106SOL    HW223973   1.782   9.498   4.857 -0.4763 -0.9027 -0.6672
 4107SOL     OW23974   2.430   4.146   1.843  0.0661 -0.5213  0.1991
 4107SOL    HW123975   2.400   4.237   1.873 -0.8383 -0.6223 -0.3754
 4107SOL    HW223976   2.350   4.092   1.815  0.9029 -0.3198 -2.7085
 4108SOL     OW23977   7.076   4.608   2.052  0.7524  0.2526 -0.2227
 4108SOL    HW123978   7.088   4.705   2.074  1.5274 -0.2410  1.6058
 4108SOL    HW223979   6.979   4.586   2.047  0.5236  0.2925  3.2573
 4109SOL     OW23980   9.037   5.123   0.849 -0.2275  0.4843 -0.0905
 4109SOL    HW123981   9.084   5.117   0.937  0.9501  2.9010 -0.5101
 4109SOL    HW223982   8.940   5.105   0.862  0.0178  0.2999  1.6025
 4110SOL     OW23983   8.231   3.843   3.380 -0.1576  0.1026 -0.3622
 4110SOL    HW123984   8.331   3.838   3.380  0.0118  2.7758  0.2590
 4110SOL    HW223985   8.198   3.870   3.290 -0.4150 -1.7384 -0.8465
 4111SOL     OW23986   5.780   7.865   6.373 -0.3789 -0.2677 -0.2245
 4111SOL    HW123987   5.868   7.879   6.328 -0.4171  1.0822  0.1121
 4111SOL    HW223988   5.732   7.789   6.328  0.7795 -0.7610 -0.6568
 4112SOL     OW23989   6.180   8.401   6.934  0.6689  0.0758  0.1529
 4112SOL    HW123990   6.264   8.405   6.880 -0.1308 -0.3993 -1.1466
 4112SOL    HW223991   6.159   8.305   6.955  0.3161  0.1853  0.2901
 4113SOL     OW23992   9.808   1.357   5.637 -0.1451 -0.4355  0.0677
 4113SOL    HW123993   9.787   1.313   5.550 -2.4864  1.7461 -0.5258
 4113SOL    HW223994   9.816   1.288   5.709 -2.0081 -1.9586 -1.1538
 4114SOL     OW23995   9.398   4.279   0.700 -0.3762  0.4748  0.2873
 4114SOL    HW123996   9.430   4.322   0.784 -0.4741 -1.7477  1.4768
 4114SOL    HW223997   9.302   4.253   0.709 -0.1433 -0.5743 -0.1867
 4115SOL     OW23998   3.708   9.419   6.446 -0.2324 -0.3296 -0.1616
 4115SOL    HW123999   3.797   9.454   6.417  0.1883  0.6352  2.1765
 4115SOL    HW224000   3.668   9.363   6.373  1.8934 -0.0632 -1.5548
 4116SOL     OW24001   8.192   0.755   2.438  0.2221 -0.5085  0.7384
 4116SOL    HW124002   8.106   0.706   2.419  0.6989 -1.4839  1.0870
 4116SOL    HW224003   8.267   0.690   2.442  1.1112  0.4341 -0.3252
 4117SOL     OW24004   7.692   4.219   2.367  0.5498 -0.2473  0.0135
 4117SOL    HW124005   7.735   4.135   2.332 -1.9442 -1.1269 -1.0369
 4117SOL    HW224006   7.594   4.217   2.348  0.5571  3.2650 -0.6582
 4118SOL     OW24007   1.821   3.380   4.548  0.1155  0.6871  0.2906
 4118SOL    HW124008   1.857   3.288   4.564 -2.0402 -0.2798 -0.1549
 4118SOL    HW224009   1.832   3.435   4.630  0.0045 -0.4871  1.1049
 4119SOL     OW24010   4.098   2.239   1.513 -0.1873 -0.6282  0.0512
 4119SOL    HW124011   4.021   2.177   1.497  0.7573 -1.9298  0.4118
 4119SOL    HW224012   4.184   2.191   1.492  0.4586  1.3168 -1.9122
 4120SOL     OW24013   7.055   3.122   8.123 -0.2689 -0.2631 -0.9263
 4120SOL    HW124014   7.013   3.203   8.083  0.4595 -0.7737 -2.7704
 4120SOL    HW224015   7.137   3.097   8.071 -0.5567 -2.2716 -0.4890
 4121SOL     OW24016   2.051   7.150   3.568  0.3134  0.0679 -0.0706
 4121SOL    HW124017   1.974   7.212   3.579  0.2445 -0.5771  4.1993
 4121SOL    HW224018   2.021   7.067   3.521 -1.3387  0.2812  0.5672
 4122SOL     OW24019   6.757   4.418   8.008 -0.1530  0.0718  0.1359
 4122SOL    HW124020   6.721   4.417   8.102 -0.6331  1.5225 -0.0202
 4122SOL    HW224021   6.755   4.325   7.971  2.0790 -0.8997  2.3116
 4123SOL     OW24022   2.473   4.404   7.026 -0.0284  0.2223  0.0700
 4123SOL    HW124023   2.472   4.365   6.934  1.6647 -0.1048  0.1611
 4123SOL    HW224024   2.513   4.496   7.022  1.0406 -0.2021  0.6002
 4124SOL     OW24025   3.387   9.012   1.389 -0.6134 -0.1291  0.0138
 4124SOL    HW124026   3.374   9.044   1.295 -2.3786 -0.2476  0.2161
 4124SOL    HW224027   3.434   8.924   1.387 -0.1636  0.1167 -0.7316
 4125SOL     OW24028   9.722   6.992   5.070  0.0309  0.3927 -0.2982
 4125SOL    HW124029   9.693   7.049   4.993  1.7813  0.9569 -0.5711
 4125SOL    HW224030   9.767   6.910   5.035  1.5477  1.0274  0.0835
 4126SOL     OW24031   8.355   1.298   4.176  0.0748 -0.4250 -0.1089
 4126SOL    HW124032   8.279   1.233   4.179 -0.0790 -0.2197  0.7386
 4126SOL    HW224033   8.411   1.287   4.258  2.1835 -2.0040 -1.6817
 4127SOL     OW24034   0.941   3.949   3.488 -0.3138 -0.4071  0.5466
 4127SOL    HW124035   0.962   3.887   3.564 -0.4414 -0.9316  0.1556
 4127SOL    HW224036   0.995   3.923   3.408  0.8335  0.9850  0.8546
 4128SOL     OW24037   5.026   4.000   5.201  0.1399 -0.5606  0.0055
 4128SOL    HW124038   4.990   3.939   5.131 -1.2573 -0.4068  0.5671
 4128SOL    HW224039   4.997   3.967   5.291 -1.2108  1.3012  0.2793
 4129SOL     OW24040   7.169   6.765   3.459 -0.4986  0.2500 -0.4512
 4129SOL    HW124041   7.269   6.760   3.463 -0.6488 -2.1071  1.0077
 4129SOL    HW224042   7.140   6.788   3.366  1.3107 -1.6112 -1.4998
 4130SOL     OW24043   8.467   5.432   5.654  0.2943 -0.4361 -0.4119
 4130SOL    HW124044   8.447   5.480   5.568  0.5919  0.4078 -0.0089
 4130SOL    HW224045   8.566   5.427   5.667  0.2204  0.6814  0.5876
 4131SOL     OW24046   8.619   0.695   6.191  0.3787  0.7435 -0.0526
 4131SOL    HW124047   8.658   0.677   6.101  0.1714 -2.1009  0.3940
 4131SOL    HW224048   8.668   0.643   6.261 -1.2709  0.6827  1.1118
 4132SOL     OW24049   5.238   0.338   1.875  0.9831 -0.3662  0.0278
 4132SOL    HW124050   5.319   0.363   1.821  1.7090 -0.4954  1.0443
 4132SOL    HW224051   5.207   0.416   1.928  0.2092 -0.2123 -0.6474
 4133SOL     OW24052   4.763   6.494   1.415 -0.1065  0.2693 -0.4640
 4133SOL    HW124053   4.847   6.521   1.460  0.2761 -0.3447 -0.8058
 4133SOL    HW224054   4.698   6.458   1.483  0.2104 -0.0159 -0.3136
 4134SOL     OW24055   3.242   4.337   0.257 -0.2160 -0.1034 -0.4895
 4134SOL    HW124056   3.240   4.241   0.287  0.4417 -0.2135 -0.7713
 4134SOL    HW224057   3.150   4.367   0.234 -0.5130 -0.4839  0.1899
 4135SOL     OW24058   0.951   4.702   6.656 -0.1617 -0.3273  0.6293
 4135SOL    HW124059   1.023   4.712   6.587 -0.6689  0.4651  0.1972
 4135SOL    HW224060   0.875   4.651   6.616  0.0105 -0.8352  0.9608
 4136SOL     OW24061   2.907   9.103   7.194 -0.3357  0.4354  0.5278
 4136SOL    HW124062   2.877   9.016   7.232  1.5293 -0.4689 -0.0059
 4136SOL    HW224063   2.870   9.114   7.102 -0.5798  0.2049  0.5998
 4137SOL     OW24064   9.416   7.221   7.364  0.4388  0.4923 -0.0609
 4137SOL    HW124065   9.389   7.219   7.268  0.3945  1.0010 -0.0596
 4137SOL    HW224066   9.449   7.131   7.391  2.0395  0.7803 -1.0067
 4138SOL     OW24067   0.990   8.345   4.995  0.2072  0.0047 -0.2152
 4138SOL    HW124068   0.978   8.362   4.898  0.6598 -0.9227 -0.4403
 4138SOL    HW224069   0.923   8.399   5.047 -0.8727 -0.4528 -1.1028
 4139SOL     OW24070   4.342   7.915   2.702 -0.1931  0.6019 -0.3003
 4139SOL    HW124071   4.382   7.964   2.624 -1.6339 -0.0471 -1.4782
 4139SOL    HW224072   4.299   7.830   2.670  0.4583 -0.4014  1.4220
 4140SOL     OW24073   1.324   9.367   7.307 -0.1292  0.0532 -0.8616
 4140SOL    HW124074   1.357   9.440   7.367 -1.6475 -0.1720  0.2837
 4140SOL    HW224075   1.375   9.369   7.221  0.8075  1.5644 -0.2937
 4141SOL     OW24076   0.196   2.260   7.460 -0.5303  0.0647 -0.1495
 4141SOL    HW124077   0.250   2.238   7.379  0.7069  0.3410  0.5795
 4141SOL    HW224078   0.193   2.179   7.520 -1.8581 -0.2950 -0.6962
 4142SOL     OW24079   1.936   9.502   0.553  0.1569  0.3311  0.1329
 4142SOL    HW124080   2.028   9.535   0.574  0.2269 -0.9975  2.0703
 4142SOL    HW224081   1.940   9.441   0.474  1.3592 -1.6146  1.6471
 4143SOL     OW24082   8.298   6.285   6.878 -0.6765 -0.3022 -0.5374
 4143SOL    HW124083   8.290   6.377   6.839  0.7731  0.2480  0.4155
 4143SOL    HW224084   8.385   6.244   6.849  0.5055  0.1888  2.2030
 4144SOL     OW24085   2.522   0.503   7.265  0.0401 -0.0915  0.4357
 4144SOL    HW124086   2.509   0.503   7.166  1.4711  0.3863  0.2312
 4144SOL    HW224087   2.482   0.420   7.304  0.4001 -0.7910 -0.6670
 4145SOL     OW24088   4.127   4.709   2.779  0.0712  0.2131  0.2210
 4145SOL    HW124089   4.049   4.745   2.728  0.4283 -0.2431 -0.6567
 4145SOL    HW224090   4.094   4.654   2.856 -0.4697  1.3587  0.8178
 4146SOL     OW24091   4.454   1.397   4.401 -0.1725  0.3579 -0.1798
 4146SOL    HW124092   4.389   1.381   4.475 -0.2519  0.6167 -0.1916
 4146SOL    HW224093   4.434   1.485   4.358 -0.2370  0.1335 -0.6197
 4147SOL     OW24094   0.345   6.264   2.749  0.2415  0.2070  0.1715
 4147SOL    HW124095   0.284   6.239   2.674  1.1345 -1.1619 -0.1313
 4147SOL    HW224096   0.299   6.249   2.837 -0.5143  1.0149 -0.0874
 4148SOL     OW24097   7.065   4.876   0.160 -0.3335 -0.1824 -0.1139
 4148SOL    HW124098   7.159   4.876   0.127 -0.0110  0.5055  0.7889
 4148SOL    HW224099   7.049   4.795   0.216 -0.6754 -0.9886 -1.3693
 4149SOL     OW24100   9.009   1.181   7.999 -0.4357  0.0115  0.0000
 4149SOL    HW124101   8.942   1.193   8.072 -0.7096  1.7879 -0.5392
 4149SOL    HW224102   9.091   1.234   8.019  0.6587 -1.7567  0.4065
 4150SOL     OW24103   5.466   0.479   3.783 -0.3767  0.1587 -0.5036
 4150SOL    HW124104   5.560   0.512   3.775 -0.5812  0.7230 -0.5429
 4150SOL    HW224105   5.406   0.554   3.808 -0.7683 -0.2692 -0.1464
 4151SOL     OW24106   1.915   6.171   7.800 -0.4150  0.6182  0.3670
 4151SOL    HW124107   1.958   6.125   7.878 -1.6322 -1.5685 -0.2125
 4151SOL    HW224108   1.932   6.119   7.717 -1.1966  1.6200 -0.4352
 4152SOL     OW24109   1.312   4.032   5.912 -0.4645 -0.0454 -0.5021
 4152SOL    HW124110   1.295   4.059   6.007  0.2478  0.5883 -0.5542
 4152SOL    HW224111   1.243   4.074   5.853 -0.9858 -0.5425 -0.2556
 4153SOL     OW24112   3.927   9.770   4.368  0.4631 -0.5481  0.5358
 4153SOL    HW124113   3.884   9.798   4.454 -0.6725 -0.3861 -0.0730
 4153SOL    HW224114   3.903   9.835   4.296  0.9625 -0.9769 -0.0251
 4154SOL     OW24115   0.326   2.262   6.457 -0.3537  0.0680 -0.9525
 4154SOL    HW124116   0.248   2.214   6.416 -0.2599  0.4414 -1.5747
 4154SOL    HW224117   0.343   2.225   6.549 -0.0672 -1.3158 -1.5446
 4155SOL     OW24118   0.664   8.227   1.599 -0.0546 -0.0123  0.2888
 4155SOL    HW124119   0.593   8.169   1.560 -0.1390  0.0779  0.3067
 4155SOL    HW224120   0.647   8.322   1.574 -0.6568  0.1722  1.3511
 4156SOL     OW24121   0.544   0.758   1.830 -0.2412 -0.5204  0.1093
 4156SOL    HW124122   0.623   0.790   1.776 -2.3405  1.8248 -1.6931
 4156SOL    HW224123   0.539   0.658   1.825  0.7336 -0.4944 -2.5499
 4157SOL     OW24124   9.217   4.735   1.091 -0.2514 -0.0965  0.7375
 4157SOL    HW124125   9.177   4.647   1.064  0.6407 -0.2221 -0.2402
 4157SOL    HW224126   9.278   4.767   1.018 -0.0832  1.0282  1.3615
 4158SOL     OW24127   8.334   2.471   2.194 -0.4928  0.0224 -0.2539
 4158SOL    HW124128   8.276   2.447   2.116  0.1401 -0.0750 -0.6969
 4158SOL    HW224129   8.416   2.517   2.161  0.2074 -0.8273  0.2910
 4159SOL     OW24130   8.776   8.193   0.500 -0.2914 -0.0172 -0.0915
 4159SOL    HW124131   8.778   8.246   0.415 -0.9044  1.2529  0.6787
 4159SOL    HW224132   8.859   8.211   0.552 -0.4728  0.1298  0.1458
 4160SOL     OW24133   8.520   5.294   4.643  0.1194  0.1653  0.5252
 4160SOL    HW124134   8.504   5.326   4.737  0.2619 -1.9129  1.2814
 4160SOL    HW224135   8.616   5.268   4.632 -0.4735 -2.1432  0.6177
 4161SOL     OW24136   5.822   8.522   6.575 -0.2540  0.3060  0.1120
 4161SOL    HW124137   5.826   8.619   6.553  0.2414  0.5782  1.3231
 4161SOL    HW224138   5.796   8.510   6.671  1.1653 -0.6876  0.4071
 4162SOL     OW24139   4.300   3.376   3.024 -0.3829  0.4100 -0.0318
 4162SOL    HW124140   4.366   3.316   3.069  0.2473  0.6974 -0.5868
 4162SOL    HW224141   4.325   3.389   2.928 -0.4572  1.6467  0.1061
 4163SOL     OW24142   9.900   9.099   1.769  0.1927  0.3579  0.3347
 4163SOL    HW124143   9.887   9.188   1.813  0.3686 -0.0044  1.1178
 4163SOL    HW224144   9.997   9.078   1.764  0.2521  0.9551 -1.3522
 4164SOL     OW24145   9.687   6.655   0.233  0.1644  0.0412  0.0311
 4164SOL    HW124146   9.696   6.582   0.165  1.1572 -0.0395  0.2440
 4164SOL    HW224147   9.778   6.682   0.265 -0.0273  3.2708 -2.0247
 4165SOL     OW24148   8.427   0.054   7.448 -0.3230 -0.4661 -1.2064
 4165SOL    HW124149   8.476  -0.032   7.436 -0.2325 -0.4194 -1.1797
 4165SOL    HW224150   8.481   0.129   7.409 -0.1866 -0.3612 -0.8190
 4166SOL     OW24151   5.002   0.169   3.434 -0.3291  0.0573  0.3251
 4166SOL    HW124152   5.046   0.258   3.436 -1.2483  0.5350 -0.2692
 4166SOL    HW224153   5.072   0.097   3.438  0.5035  0.7960 -0.5415
 4167SOL     OW24154   5.291   5.860   2.119 -0.2429 -0.4937 -0.1835
 4167SOL    HW124155   5.390   5.863   2.113 -0.2556  0.4842 -0.0146
 4167SOL    HW224156   5.264   5.835   2.212 -0.1545  0.5164  0.1230
 4168SOL     OW24157   1.731   6.772   6.285  0.4638 -0.3460 -0.3295
 4168SOL    HW124158   1.773   6.860   6.309 -1.3272  0.2830  0.5617
 4168SOL    HW224159   1.750   6.705   6.357  0.6406 -0.3080 -0.3399
 4169SOL     OW24160   6.226   0.836   6.242  0.3878  0.0183  0.4132
 4169SOL    HW124161   6.296   0.773   6.209 -0.7744 -1.0302 -0.0910
 4169SOL    HW224162   6.145   0.785   6.270  0.2814  1.1278  2.1809
 4170SOL     OW24163   9.296   3.054   4.723 -0.4076  0.3201  0.2448
 4170SOL    HW124164   9.319   2.985   4.655  0.7660  1.4412 -0.5203
 4170SOL    HW224165   9.197   3.059   4.733 -0.5042 -1.8415  0.7250
 4171SOL     OW24166   5.969   4.349   8.156 -0.2922  0.2554  0.0031
 4171SOL    HW124167   5.901   4.279   8.177 -0.8807  0.9197  0.3380
 4171SOL    HW224168   5.937   4.438   8.188 -0.1382  0.9047 -1.5844
 4172SOL     OW24169   4.027   7.539   5.034  0.1892  0.0756  0.2803
 4172SOL    HW124170   4.112   7.577   5.068 -0.5193 -0.1327  2.3632
 4172SOL    HW224171   3.957   7.610   5.030 -0.4693 -0.4489  1.8796
 4173SOL     OW24172   7.610   7.566   2.591  0.0203 -0.2681 -0.3035
 4173SOL    HW124173   7.512   7.578   2.611  0.1505 -1.2541  0.9461
 4173SOL    HW224174   7.657   7.534   2.673  1.4243  0.3252 -0.8721
 4174SOL     OW24175   1.926   8.783   3.355  0.5715  0.5031  0.0862
 4174SOL    HW124176   1.998   8.714   3.369  0.8419  0.8199  0.2577
 4174SOL    HW224177   1.968   8.873   3.344  0.0930  1.0313  2.4022
 4175SOL     OW24178   1.121   0.899   0.488  0.3688 -0.4463 -0.4406
 4175SOL    HW124179   1.135   0.800   0.491  0.1453 -0.4786 -0.4417
 4175SOL    HW224180   1.068   0.922   0.406 -0.0052 -0.3784 -0.1791
 4176SOL     OW24181   2.722   8.555   7.468  0.4622  0.5575 -0.4553
 4176SOL    HW124182   2.701   8.481   7.404  1.5498 -0.9536  0.8970
 4176SOL    HW224183   2.821   8.569   7.471  0.2469  2.2022 -0.8314
 4177SOL     OW24184   8.928   7.858   5.172  0.4548  0.2866 -0.4222
 4177SOL    HW124185   8.839   7.818   5.191 -0.4460  2.0769 -0.7697
 4177SOL    HW224186   8.971   7.887   5.258 -1.1615  3.2349 -0.5309
 4178SOL     OW24187   0.679   5.012   2.709  0.6630  0.7337  0.2275
 4178SOL    HW124188   0.623   5.028   2.627  1.8733  2.5445 -0.2803
 4178SOL    HW224189   0.633   5.053   2.787  0.3057  0.4540  0.1668
 4179SOL     OW24190   0.367   4.018   7.378 -0.1158 -0.1548  0.3490
 4179SOL    HW124191   0.392   4.082   7.451  0.9086 -0.5596  0.3603
 4179SOL    HW224192   0.450   3.977   7.339 -0.7349 -1.1003 -0.0024
 4180SOL     OW24193   9.373   8.019   5.882  0.0938 -0.9006  0.0896
 4180SOL    HW124194   9.332   8.093   5.829 -0.8904 -1.3449  0.2175
 4180SOL    HW224195   9.427   7.961   5.821  0.8998 -0.0576 -0.0006
 4181SOL     OW24196   9.492   0.821   5.734  0.5144 -0.2328 -0.3741
 4181SOL    HW124197   9.545   0.761   5.674  1.2791  0.8019 -0.7506
 4181SOL    HW224198   9.539   0.909   5.743 -1.4000  0.9237 -1.1904
 4182SOL     OW24199   0.113   2.655   6.794 -0.0691  0.0002 -0.0709
 4182SOL    HW124200   0.085   2.750   6.780  1.3401  0.2311 -1.3605
 4182SOL    HW224201   0.129   2.612   6.705  3.6889 -0.1246  0.5954
 4183SOL     OW24202   0.029   8.013   6.013  0.1630  0.4008  0.0260
 4183SOL    HW124203   0.085   8.096   6.012  0.3651  0.2920  1.4808
 4183SOL    HW224204   0.084   7.936   6.047 -0.1038 -0.2875 -1.0424
 4184SOL     OW24205   4.918   4.128   4.808 -0.7065  0.8543 -0.3324
 4184SOL    HW124206   4.931   4.185   4.889 -0.8777  0.6781 -0.1804
 4184SOL    HW224207   4.821   4.125   4.784 -0.4801  2.1374 -1.4437
 4185SOL     OW24208   4.263   9.235   6.381 -0.5083 -0.2320 -0.4594
 4185SOL    HW124209   4.254   9.171   6.457 -2.4540 -0.2349 -0.6572
 4185SOL    HW224210   4.252   9.328   6.415 -0.0529 -0.1457 -0.5433
 4186SOL     OW24211   9.632   7.847   7.305 -0.2965 -0.8728 -0.2421
 4186SOL    HW124212   9.601   7.927   7.255 -0.3514 -0.9318 -0.3021
 4186SOL    HW224213   9.675   7.782   7.241 -1.2086 -1.3644 -0.3773
 4187SOL     OW24214   8.846   9.095   0.916 -0.2073  0.0298  0.0473
 4187SOL    HW124215   8.777   9.099   0.843  0.5146  0.4070 -0.6248
 4187SOL    HW224216   8.919   9.032   0.888  1.0404  1.6674 -0.4048
 4188SOL     OW24217   1.979   6.691   2.477 -0.6103  0.0007 -0.1034
 4188SOL    HW124218   2.045   6.656   2.411 -0.1249  1.6284 -0.5151
 4188SOL    HW224219   1.932   6.615   2.522  0.7053 -1.1472 -0.6528
 4189SOL     OW24220   0.851   2.382   4.273  0.2699  0.1211 -0.2578
 4189SOL    HW124221   0.769   2.389   4.216 -0.3267  1.0694  0.7131
 4189SOL    HW224222   0.921   2.443   4.238 -0.4721  1.5146  0.6355
 4190SOL     OW24223   6.113   6.015   1.246 -0.0153 -0.0311  0.2543
 4190SOL    HW124224   6.073   6.097   1.286 -0.4851 -0.4376  0.6156
 4190SOL    HW224225   6.208   6.033   1.221 -0.2863  0.7895 -0.1813
 4191SOL     OW24226   5.631   9.933   2.747 -0.0796 -0.6272  0.2229
 4191SOL    HW124227   5.707   9.970   2.801  0.5086 -0.2551 -0.8462
 4191SOL    HW224228   5.601   9.847   2.787  2.9683 -2.3899 -1.0881
 4192SOL     OW24229   0.376   8.373   4.865 -0.1670 -0.3419  0.4229
 4192SOL    HW124230   0.356   8.421   4.779  0.3927 -2.3899 -0.8845
 4192SOL    HW224231   0.307   8.397   4.933  0.2189  2.4791 -0.0995
 4193SOL     OW24232   3.474   0.771   0.084  0.4716 -0.1148  0.2321
 4193SOL    HW124233   3.435   0.796  -0.004 -1.8094 -2.0722  0.6398
 4193SOL    HW224234   3.445   0.838   0.153  1.1721  0.6769 -0.2292
 4194SOL     OW24235   8.411   8.694   7.903 -0.3143  0.5451  0.0710
 4194SOL    HW124236   8.476   8.625   7.872  0.0572  0.0892  1.8218
 4194SOL    HW224237   8.415   8.774   7.843  0.4648 -0.2712 -0.9676
 4195SOL     OW24238   9.155   5.381   6.616 -0.8800 -0.5595 -0.4697
 4195SOL    HW124239   9.233   5.382   6.554  0.5567  0.2376  1.3176
 4195SOL    HW224240   9.075   5.422   6.570 -0.2615 -1.3148 -2.2727
 4196SOL     OW24241   1.940   2.561   5.780  0.1956  0.8671 -0.2723
 4196SOL    HW124242   1.992   2.476   5.780  1.3568  1.5615 -0.0356
 4196SOL    HW224243   1.997   2.635   5.742  0.2697  2.1704  2.2635
 4197SOL     OW24244   9.780   8.493   3.154  0.0913  0.1952  0.3531
 4197SOL    HW124245   9.727   8.413   3.185 -1.0453  1.0399  0.6475
 4197SOL    HW224246   9.843   8.521   3.227 -0.7322  0.5950  0.9310
 4198SOL     OW24247   7.666   7.858   6.040  0.4781 -0.2567  0.0069
 4198SOL    HW124248   7.641   7.863   6.137  0.7138 -1.4049  0.1367
 4198SOL    HW224249   7.596   7.805   5.991  0.4931  0.1032 -0.4095
 4199SOL     OW24250   9.854   5.343   0.579  0.6765 -0.1544 -0.0356
 4199SOL    HW124251   9.755   5.348   0.593  0.7801  0.4628  0.5660
 4199SOL    HW224252   9.885   5.248   0.589  0.1626 -0.3302 -0.1130
 4200SOL     OW24253   7.347   7.649   4.381 -0.0301  0.2551  0.1665
 4200SOL    HW124254   7.322   7.727   4.438  1.2892  1.2951 -0.6435
 4200SOL    HW224255   7.269   7.623   4.324 -0.3847  1.1523  0.2396
 4201SOL     OW24256   7.071   5.971   5.389  0.0760 -0.4087 -0.2223
 4201SOL    HW124257   7.126   6.052   5.406 -1.0767  0.4605 -0.5829
 4201SOL    HW224258   6.984   5.978   5.438  0.2427 -1.7454  0.3077
 4202SOL     OW24259   0.112   6.996   0.749 -0.1823 -0.3234  0.4294
 4202SOL    HW124260   0.131   7.034   0.659 -0.2305  0.6198  0.8106
 4202SOL    HW224261   0.120   6.897   0.746 -0.2654 -0.2992 -0.6306
 4203SOL     OW24262   6.445   9.944   2.354  0.5264 -0.0136  0.0140
 4203SOL    HW124263   6.392   9.966   2.273 -0.3482 -1.7926  0.0800
 4203SOL    HW224264   6.404   9.987   2.434 -0.1365 -0.4134 -0.1099
 4204SOL     OW24265   8.143   8.300   6.114 -0.1072 -0.5042 -0.1446
 4204SOL    HW124266   8.169   8.311   6.211  3.3390 -1.8610 -0.8240
 4204SOL    HW224267   8.172   8.380   6.063 -0.6521 -0.4061 -0.3025
 4205SOL     OW24268   1.272   7.093   3.093  0.4422 -0.9624  0.5647
 4205SOL    HW124269   1.244   7.134   3.006 -0.9795 -1.5670  0.7220
 4205SOL    HW224270   1.364   7.124   3.116  0.5248 -0.1649 -0.7565
 4206SOL     OW24271   7.735   2.320   2.518 -0.6532 -0.1162 -0.1537
 4206SOL    HW124272   7.646   2.335   2.475 -1.9102  1.3982  2.8070
 4206SOL    HW224273   7.793   2.400   2.504 -0.5226 -0.2360 -0.2995
 4207SOL     OW24274   4.183   2.698   4.589 -0.3769 -0.3038  0.3656
 4207SOL    HW124275   4.107   2.697   4.523 -0.5132  0.4258  0.5096
 4207SOL    HW224276   4.202   2.792   4.617 -0.1558 -0.5890  1.1869
 4208SOL     OW24277   6.671   1.940   1.444  0.2182  0.2572 -0.1281
 4208SOL    HW124278   6.667   1.844   1.472 -1.0818  0.4795  0.4511
 4208SOL    HW224279   6.656   1.946   1.345  1.1081 -0.1932 -0.3028
 4209SOL     OW24280   2.068   1.818   2.900  0.2857 -0.3298  0.0328
 4209SOL    HW124281   2.153   1.779   2.936  0.3812  0.5207  0.7443
 4209SOL    HW224282   2.075   1.827   2.801  1.2667  0.3223  0.1599
 4210SOL     OW24283   5.265   1.393   7.579  0.0511 -0.3065 -0.5059
 4210SOL    HW124284   5.343   1.455   7.591  0.3905 -0.6986 -0.6830
 4210SOL    HW224285   5.201   1.433   7.514  0.0557  0.0633 -0.2881
 4211SOL     OW24286   7.725   0.333   3.361 -0.3818  0.2226 -0.0084
 4211SOL    HW124287   7.787   0.398   3.317 -0.0441 -0.3302 -0.3609
 4211SOL    HW224288   7.745   0.330   3.459  0.0308  0.1787 -0.0910
 4212SOL     OW24289   4.029   3.056   7.469  0.1075 -0.7302 -0.2980
 4212SOL    HW124290   4.082   2.971   7.478 -0.8373 -1.3945 -0.9741
 4212SOL    HW224291   3.947   3.051   7.526  0.0996 -0.2234 -0.2589
 4213SOL     OW24292   8.273   9.608   4.191  0.0709  0.1260 -0.0350
 4213SOL    HW124293   8.211   9.680   4.161 -0.4903  0.0704  0.9645
 4213SOL    HW224294   8.302   9.626   4.285  0.2366 -0.7426  0.0839
 4214SOL     OW24295   8.475   5.730   1.939  0.0357  0.1451 -0.4108
 4214SOL    HW124296   8.568   5.724   1.902 -0.2329  0.2920 -1.1184
 4214SOL    HW224297   8.410   5.739   1.863 -0.5707 -0.1759  0.0721
 4215SOL     OW24298   8.976   6.275   5.566  0.3115  0.3989  0.4101
 4215SOL    HW124299   9.047   6.209   5.539 -0.1116  0.2012 -0.2092
 4215SOL    HW224300   8.984   6.293   5.664  1.7563  1.0150  0.1874
 4216SOL     OW24301   3.656   9.643   1.418 -0.5688 -0.5757 -0.3256
 4216SOL    HW124302   3.576   9.584   1.429 -1.3514  0.6896  0.9755
 4216SOL    HW224303   3.660   9.676   1.324 -2.8265  1.0440  0.0911
 4217SOL     OW24304   1.467   0.015   2.987 -1.0923 -0.6934 -0.1949
 4217SOL    HW124305   1.498   0.085   2.923  0.0607 -2.0378 -1.1223
 4217SOL    HW224306   1.453  -0.071   2.939 -3.3364 -0.9178  0.7845
 4218SOL     OW24307   5.294   7.285   3.620 -0.8063 -0.2386 -0.5154
 4218SOL    HW124308   5.284   7.323   3.712  1.4153 -1.2969  0.1950
 4218SOL    HW224309   5.231   7.332   3.558 -1.3434  1.4461  1.2477
 4219SOL     OW24310   1.219   8.572   4.320 -0.1318 -0.2871  0.3657
 4219SOL    HW124311   1.208   8.475   4.300 -0.7882 -0.1845  0.2201
 4219SOL    HW224312   1.134   8.608   4.359  0.0335  0.2796  0.2117
 4220SOL     OW24313   1.662   0.511   1.036 -0.3601 -0.5351  0.3494
 4220SOL    HW124314   1.604   0.523   1.116 -0.3494  1.6485  0.0554
 4220SOL    HW224315   1.757   0.528   1.061 -0.3962  0.4788 -0.1982
 4221SOL     OW24316   9.269   9.218   3.314 -0.2530 -0.6763  0.2167
 4221SOL    HW124317   9.276   9.129   3.358  0.1110 -1.4818 -1.4350
 4221SOL    HW224318   9.220   9.209   3.228 -0.0192  0.6839 -0.0746
 4222SOL     OW24319   8.229   7.843   5.495  0.4660 -0.3026 -0.4935
 4222SOL    HW124320   8.163   7.819   5.425  0.7748 -0.7127 -0.6438
 4222SOL    HW224321   8.222   7.941   5.516 -1.0089 -0.5698  0.3477
 4223SOL     OW24322   8.309   1.254   0.863  0.1413 -0.6847 -0.1138
 4223SOL    HW124323   8.341   1.304   0.783 -0.9965 -1.8825 -1.3546
 4223SOL    HW224324   8.218   1.215   0.844 -0.7222  0.0788  2.2011
 4224SOL     OW24325   0.899   1.088   3.267 -0.7111  0.4313  0.5265
 4224SOL    HW124326   0.901   1.173   3.214 -2.3009  0.0615 -0.1595
 4224SOL    HW224327   0.848   1.019   3.216 -1.4245 -0.2379  2.1235
 4225SOL     OW24328   6.859   1.725   2.663 -0.1545  0.1551 -0.1756
 4225SOL    HW124329   6.944   1.767   2.634 -0.1642  2.2410  2.5145
 4225SOL    HW224330   6.877   1.635   2.702  0.6774  0.1378 -0.6030
 4226SOL     OW24331   7.810   5.752   7.745  0.1166  0.3871  0.4991
 4226SOL    HW124332   7.832   5.746   7.647 -1.0975 -1.4070  0.3242
 4226SOL    HW224333   7.711   5.758   7.756  0.2318  0.1734  1.6514
 4227SOL     OW24334   7.770   5.287   5.279 -0.0382  0.2131  0.0336
 4227SOL    HW124335   7.746   5.368   5.225  0.3162  0.1523 -0.2185
 4227SOL    HW224336   7.835   5.231   5.227  0.9071  0.5407  0.8423
 4228SOL     OW24337   6.342   2.668   3.921  0.1965 -0.5780  0.1696
 4228SOL    HW124338   6.242   2.660   3.918  0.0401  1.3405 -0.4088
 4228SOL    HW224339   6.369   2.722   4.000  0.5855  1.1832 -1.1217
 4229SOL     OW24340   2.032   6.140   5.495 -0.1063  0.3727  0.2945
 4229SOL    HW124341   2.105   6.101   5.440 -1.1990 -0.1124 -0.8288
 4229SOL    HW224342   2.036   6.102   5.588 -0.8502 -2.0639 -0.6361
 4230SOL     OW24343   9.523   6.644   0.684 -0.4599  0.0899 -0.1419
 4230SOL    HW124344   9.579   6.707   0.630 -0.8917 -0.0303 -0.7467
 4230SOL    HW224345   9.579   6.567   0.714 -0.2084  0.1601 -0.4272
 4231SOL     OW24346   1.504   3.382   6.391  0.0021  0.1391  0.8572
 4231SOL    HW124347   1.464   3.394   6.482  0.2001 -0.0072  0.9645
 4231SOL    HW224348   1.598   3.349   6.401  0.4210  1.2436  0.6264
 4232SOL     OW24349   3.973   4.364   7.326  0.1278 -0.2726 -0.6523
 4232SOL    HW124350   3.979   4.311   7.410  0.3857  1.1573  0.2541
 4232SOL    HW224351   3.878   4.371   7.297  0.3490 -3.6691 -2.4036
 4233SOL     OW24352   8.595   1.992   5.227  0.1211 -0.1197  0.7252
 4233SOL    HW124353   8.579   2.087   5.201  3.1411  0.2594  0.0378
 4233SOL    HW224354   8.672   1.987   5.290  1.6897 -2.2964 -1.2572
 4234SOL     OW24355   9.920   8.789   6.702 -0.6465 -0.6569 -0.1965
 4234SOL    HW124356   9.891   8.785   6.797  0.6713 -0.2930  0.2330
 4234SOL    HW224357  10.018   8.770   6.696 -0.8534 -1.3679 -1.5567
 4235SOL     OW24358   7.857   9.564   4.822 -0.4380  0.5020  0.0792
 4235SOL    HW124359   7.844   9.542   4.726  0.1896  0.5605 -0.0183
 4235SOL    HW224360   7.846   9.481   4.877 -0.7146  0.4549 -0.0476
 4236SOL     OW24361   9.995   7.408   5.095  0.2663  0.3534  0.1381
 4236SOL    HW124362  10.050   7.375   5.172  1.1925 -0.1186 -0.7174
 4236SOL    HW224363  10.018   7.356   5.013 -3.0932 -1.4386  0.2270
 4237SOL     OW24364   6.773   3.997   1.808  0.3262 -0.2758 -0.1921
 4237SOL    HW124365   6.803   3.906   1.779  0.9754  0.0157 -0.4438
 4237SOL    HW224366   6.785   4.061   1.733 -0.7143 -0.1017 -0.2195
 4238SOL     OW24367   2.252   2.946   0.833 -0.2861 -0.2642 -0.1320
 4238SOL    HW124368   2.157   2.917   0.822 -0.3165 -0.3395  0.2927
 4238SOL    HW224369   2.257   3.045   0.840 -0.3996 -0.2954  0.4387
 4239SOL     OW24370   0.813   4.178   5.464 -0.6609 -0.2513 -0.0855
 4239SOL    HW124371   0.739   4.110   5.456 -0.4221 -0.4501 -0.6156
 4239SOL    HW224372   0.777   4.268   5.443 -1.0961 -0.1319  1.0962
 4240SOL     OW24373   8.104   1.998   7.485 -0.2683 -0.7588 -0.0619
 4240SOL    HW124374   8.059   1.994   7.575  2.5002 -2.5997  1.3045
 4240SOL    HW224375   8.078   1.918   7.431 -0.7719 -0.3989 -0.3640
 4241SOL     OW24376   3.732   7.788   6.464  0.2194 -0.6012 -0.5838
 4241SOL    HW124377   3.707   7.692   6.449 -0.3232 -0.4190 -0.8642
 4241SOL    HW224378   3.716   7.812   6.559 -0.7764 -0.4619 -0.7798
 4242SOL     OW24379   6.219   0.079   3.681  0.0867 -0.1681 -0.6125
 4242SOL    HW124380   6.194   0.008   3.746 -0.6320  0.4152 -0.2429
 4242SOL    HW224381   6.241   0.163   3.730 -2.0369  0.7465 -1.1961
 4243SOL     OW24382   8.132   3.728   2.449 -0.7120 -0.4567 -0.6802
 4243SOL    HW124383   8.199   3.690   2.514 -0.4424 -0.7070 -1.0971
 4243SOL    HW224384   8.044   3.740   2.494 -0.8172 -1.6404 -0.5483
 4244SOL     OW24385   0.672   7.128   1.889  0.0447 -0.1895 -0.4873
 4244SOL    HW124386   0.682   7.227   1.878  0.6375 -0.0907  0.9294
 4244SOL    HW224387   0.610   7.109   1.965 -0.5549 -0.9153 -1.1409
 4245SOL     OW24388   7.184   1.319   7.093  0.5307  0.2680 -0.2534
 4245SOL    HW124389   7.139   1.248   7.148  1.6422 -0.9809 -0.9297
 4245SOL    HW224390   7.122   1.350   7.021  0.8309 -1.6422 -1.3593
 4246SOL     OW24391   2.029   9.725   0.281  0.1618 -0.3152  0.4424
 4246SOL    HW124392   2.106   9.673   0.242  1.0262  0.9353  0.4520
 4246SOL    HW224393   1.998   9.680   0.365  1.1480 -0.6165  0.6562
 4247SOL     OW24394   7.990   7.593   7.605  0.1174  0.8944 -0.3025
 4247SOL    HW124395   8.051   7.664   7.639  0.2432  0.8240 -0.3793
 4247SOL    HW224396   7.895   7.622   7.615  0.1371  0.6754  0.5593
 4248SOL     OW24397   9.184   2.931   0.089  0.3167  0.2108  1.0337
 4248SOL    HW124398   9.202   2.920  -0.009  0.2331  2.5669  0.7216
 4248SOL    HW224399   9.088   2.955   0.102  0.6708  1.3116  1.5863
 4249SOL     OW24400   6.620   1.222   4.790 -0.0092  0.6820  0.3096
 4249SOL    HW124401   6.706   1.262   4.759  0.3072  0.4357  0.8631
 4249SOL    HW224402   6.549   1.292   4.790 -0.0110  0.6991 -0.9329
 4250SOL     OW24403   6.614   2.147   1.970 -0.0457 -0.2759 -0.1224
 4250SOL    HW124404   6.645   2.232   1.927 -0.2981 -0.1978 -0.1548
 4250SOL    HW224405   6.598   2.077   1.900  2.3115 -1.0680  0.0880
 4251SOL     OW24406   0.553   9.398   4.231  0.2231  0.0213  0.1130
 4251SOL    HW124407   0.476   9.404   4.168 -0.4115  0.2108  0.9023
 4251SOL    HW224408   0.536   9.325   4.298  1.9995 -1.8678 -1.4136
 4252SOL     OW24409   6.653   2.688   5.848  0.2496  0.6664 -0.1613
 4252SOL    HW124410   6.662   2.762   5.915 -1.3038  0.8725 -0.1575
 4252SOL    HW224411   6.575   2.707   5.788  1.7986  0.6476 -2.2569
 4253SOL     OW24412   9.879   4.308   7.848 -0.0541  0.0978 -0.3407
 4253SOL    HW124413   9.833   4.344   7.929  0.9660  4.2731 -1.5243
 4253SOL    HW224414   9.811   4.280   7.781 -0.8833 -1.7277  1.1970
 4254SOL     OW24415   2.732   8.422   0.660 -0.1733 -0.4260 -0.6685
 4254SOL    HW124416   2.667   8.496   0.646 -0.1939 -0.3283 -0.0692
 4254SOL    HW224417   2.751   8.377   0.572  0.8677  1.1557 -1.2714
 4255SOL     OW24418   3.832   1.318   8.150 -0.2684  0.0989  0.0790
 4255SOL    HW124419   3.911   1.377   8.135  0.3619 -1.0099 -1.1400
 4255SOL    HW224420   3.749   1.373   8.155  0.2217  1.0515 -1.7003
 4256SOL     OW24421   8.505   0.755   5.789  0.1783 -0.2017  0.0192
 4256SOL    HW124422   8.433   0.688   5.773 -0.2351 -0.1530  1.6195
 4256SOL    HW224423   8.466   0.847   5.795  0.2525 -0.2757  1.7881
 4257SOL     OW24424   0.170   2.030   3.032 -0.8620  0.4245  0.2891
 4257SOL    HW124425   0.153   2.004   3.127 -0.7785 -0.9440 -0.0649
 4257SOL    HW224426   0.171   1.949   2.974 -0.3848  1.1946 -0.8142
 4258SOL     OW24427   2.077   2.457   1.738  0.2491  0.0781 -1.2477
 4258SOL    HW124428   2.130   2.536   1.770  0.8321 -0.7526 -0.1367
 4258SOL    HW224429   2.111   2.427   1.649  0.4097  0.7128 -1.3999
 4259SOL     OW24430   7.680   0.990   0.692 -0.2026 -0.2494 -0.0332
 4259SOL    HW124431   7.632   0.931   0.756  0.1669  0.6834  1.1231
 4259SOL    HW224432   7.768   1.018   0.731  0.0376  0.3038 -0.9494
 4260SOL     OW24433   3.853   3.221   4.915  0.1782 -0.4099 -0.0598
 4260SOL    HW124434   3.870   3.196   4.820  2.0417  1.3619 -0.2326
 4260SOL    HW224435   3.759   3.253   4.925  0.0029 -0.5165 -1.3387
 4261SOL     OW24436   7.746   2.189   7.353 -0.1750  0.0324  0.1458
 4261SOL    HW124437   7.805   2.240   7.415 -0.1511 -0.3983  0.4795
 4261SOL    HW224438   7.742   2.093   7.382  0.9502 -0.4776 -1.3464
 4262SOL     OW24439   1.952   2.657   7.781 -0.2527  0.7912  0.7200
 4262SOL    HW124440   1.904   2.668   7.868  0.1845  0.6526  0.9762
 4262SOL    HW224441   2.012   2.736   7.765  0.4649  0.3106  1.0431
 4263SOL     OW24442   5.487   9.310   6.333 -0.0181  0.3308 -0.4798
 4263SOL    HW124443   5.479   9.333   6.236 -0.1942  0.6132 -0.3997
 4263SOL    HW224444   5.396   9.309   6.375 -0.0487 -0.9710 -0.5808
 4264SOL     OW24445   0.043   7.903   5.656  0.2411  0.1254 -0.4433
 4264SOL    HW124446   0.020   7.993   5.618  1.8163  0.8755  0.3384
 4264SOL    HW224447   0.018   7.832   5.590 -0.0436  1.2046 -1.5228
 4265SOL     OW24448   0.254   7.976   2.964 -0.1595 -0.3446 -0.0074
 4265SOL    HW124449   0.205   7.986   2.878 -2.2855 -1.8893  0.9593
 4265SOL    HW224450   0.352   7.979   2.948 -0.5529  0.8639 -2.2691
 4266SOL     OW24451   7.821   3.026   4.884  0.1085 -0.3168 -0.3158
 4266SOL    HW124452   7.794   2.959   4.815 -1.0933 -0.0488 -0.1070
 4266SOL    HW224453   7.915   3.006   4.914  0.3646 -0.8936 -1.4596
 4267SOL     OW24454   9.366   8.914   7.653 -0.0084  0.3529  1.0443
 4267SOL    HW124455   9.366   9.011   7.631 -0.1172  0.4121  1.3064
 4267SOL    HW224456   9.400   8.862   7.574 -1.3085  0.4839  0.3910
 4268SOL     OW24457   3.874   3.348   1.082 -0.1133 -0.6037 -0.3803
 4268SOL    HW124458   3.801   3.416   1.090 -0.4266 -1.0769  1.0288
 4268SOL    HW224459   3.955   3.380   1.132  0.4547 -0.3416 -1.4509
 4269SOL     OW24460   0.756   8.200   3.345  0.0143 -0.2555 -0.1142
 4269SOL    HW124461   0.757   8.284   3.291  2.1377 -1.1681 -1.5827
 4269SOL    HW224462   0.662   8.171   3.361 -0.6783  0.5787 -2.5114
 4270SOL     OW24463   0.813   6.943   5.220 -0.0929 -0.5834  0.0446
 4270SOL    HW124464   0.768   6.861   5.186  0.6937 -1.1098  0.2753
 4270SOL    HW224465   0.875   6.978   5.151  0.2414 -0.6924  0.2898
 4271SOL     OW24466   6.814   9.241   4.363  0.0678  0.0311 -0.4814
 4271SOL    HW124467   6.856   9.275   4.279  2.9181 -1.8912  0.0733
 4271SOL    HW224468   6.824   9.309   4.436  0.7501  0.2646 -0.7933
 4272SOL     OW24469   4.519   0.219   1.263 -0.3911  0.1601 -0.2905
 4272SOL    HW124470   4.617   0.225   1.243 -0.4346 -0.9450 -0.8783
 4272SOL    HW224471   4.507   0.183   1.356 -0.2404 -0.5181 -0.5293
 4273SOL     OW24472   5.937   9.415   5.632 -0.4997  0.0289 -0.2152
 4273SOL    HW124473   6.022   9.466   5.644 -0.2947  0.5934 -3.4922
 4273SOL    HW224474   5.860   9.478   5.624 -0.8467 -0.3589  0.0318
 4274SOL     OW24475   2.780   0.322   4.761  0.5018  0.7247 -0.2329
 4274SOL    HW124476   2.729   0.380   4.825 -2.1879  0.7385 -2.3480
 4274SOL    HW224477   2.783   0.228   4.796 -0.5773  0.8163  0.1050
 4275SOL     OW24478   3.004   3.464   5.123  0.8202 -0.1175  0.3565
 4275SOL    HW124479   2.912   3.459   5.084  0.5909  2.1061  0.5700
 4275SOL    HW224480   3.018   3.387   5.185 -0.8174 -0.5931  0.1631
 4276SOL     OW24481   1.265   4.166   1.523 -0.3389 -0.1612  0.1919
 4276SOL    HW124482   1.336   4.108   1.562 -0.9434 -0.4186  0.9150
 4276SOL    HW224483   1.276   4.259   1.556  1.5080  0.4917 -2.0889
 4277SOL     OW24484   0.399   2.691   8.096  0.0850  0.4136  0.8005
 4277SOL    HW124485   0.404   2.765   8.162  1.5373 -0.1870  1.3838
 4277SOL    HW224486   0.485   2.683   8.047 -0.6173  0.1698 -0.4311
 4278SOL     OW24487   1.360   2.771   6.044 -0.2828 -0.7268  0.3096
 4278SOL    HW124488   1.450   2.727   6.035 -0.2433 -0.7509  0.7896
 4278SOL    HW224489   1.350   2.807   6.137 -0.4112  0.0789 -0.0179
 4279SOL     OW24490   9.664   4.128   2.752  0.6684  0.2165 -0.6384
 4279SOL    HW124491   9.644   4.119   2.849  1.8620  1.2034 -0.2916
 4279SOL    HW224492   9.753   4.087   2.732 -0.3304 -1.5758 -1.6601
 4280SOL     OW24493   9.868   2.063   5.541 -0.3729  0.0627  0.0603
 4280SOL    HW124494   9.820   2.063   5.628 -1.6831  1.0762 -0.6372
 4280SOL    HW224495   9.950   2.121   5.548 -0.2628 -0.1714  0.7217
 4281SOL     OW24496   6.462   5.103   1.702  0.3977 -0.0315  0.0326
 4281SOL    HW124497   6.491   5.011   1.674  0.9331  0.0624  0.2711
 4281SOL    HW224498   6.504   5.125   1.790  0.0446  0.3335  0.1085
 4282SOL     OW24499   9.663   5.313   0.075  0.0508  0.1010  0.8449
 4282SOL    HW124500   9.622   5.228   0.042  0.9392 -0.1982  0.4711
 4282SOL    HW224501   9.592   5.379   0.097 -0.6341 -0.5858  0.7037
 4283SOL     OW24502   9.764   9.848   1.698  0.2976 -0.1895  0.0356
 4283SOL    HW124503   9.721   9.909   1.765  0.4997 -0.0965  0.0782
 4283SOL    HW224504   9.729   9.755   1.710  0.2806 -0.1585  0.2217
 4284SOL     OW24505   6.290   2.266   3.839 -0.3451 -0.2885  0.0063
 4284SOL    HW124506   6.202   2.307   3.817 -0.8815 -1.4004  0.0362
 4284SOL    HW224507   6.351   2.275   3.761 -0.2703  1.0340  0.2040
 4285SOL     OW24508   7.462   2.493   3.512  0.7016 -0.3028 -0.1386
 4285SOL    HW124509   7.493   2.398   3.514 -0.7564 -0.7621  1.5479
 4285SOL    HW224510   7.522   2.550   3.569  1.1864 -0.3325 -0.6201
 4286SOL     OW24511   3.539   7.289   2.356 -0.3347  0.2814  0.0072
 4286SOL    HW124512   3.619   7.300   2.298 -1.1649 -0.0643 -1.2143
 4286SOL    HW224513   3.456   7.293   2.301 -1.2954  2.8559  1.5351
 4287SOL     OW24514   4.807   9.749   6.001 -0.0773  0.2264  0.4318
 4287SOL    HW124515   4.798   9.655   5.967  0.8464 -0.3139  1.6277
 4287SOL    HW224516   4.732   9.805   5.966 -1.0272 -1.1319  0.2604
 4288SOL     OW24517   2.375   0.606   3.411  0.0012  0.1318  0.0344
 4288SOL    HW124518   2.421   0.567   3.331 -0.3159  0.9240 -0.5364
 4288SOL    HW224519   2.442   0.657   3.466  0.0502  0.2877 -0.1683
 4289SOL     OW24520   1.377   2.729   2.656 -0.3809 -0.2045  0.1348
 4289SOL    HW124521   1.434   2.681   2.590  0.1088  0.1267  0.3126
 4289SOL    HW224522   1.384   2.828   2.640 -0.9222 -0.1657  0.1418
 4290SOL     OW24523   4.469   6.956   3.492  0.1120 -0.0257 -0.3439
 4290SOL    HW124524   4.453   6.884   3.559  0.7644  0.8120  0.7286
 4290SOL    HW224525   4.440   7.044   3.530  2.4025  0.7606 -0.3415
 4291SOL     OW24526   1.454   9.031   7.489 -0.0719  0.2274  0.1519
 4291SOL    HW124527   1.530   8.973   7.461  0.8330  1.8917 -0.9436
 4291SOL    HW224528   1.387   9.037   7.414  0.4047  1.4883 -0.1957
 4292SOL     OW24529   6.509   9.905   1.952 -0.5095 -0.0468 -0.5162
 4292SOL    HW124530   6.460   9.840   1.894 -0.5437  0.2664 -0.8399
 4292SOL    HW224531   6.567   9.856   2.016  2.4752 -0.3748 -3.3259
 4293SOL     OW24532   3.700   0.577   1.642 -0.6170  0.1354  0.0498
 4293SOL    HW124533   3.631   0.614   1.705 -1.2451  0.8885 -1.0558
 4293SOL    HW224534   3.655   0.519   1.574 -0.1856  0.7591 -0.7731
 4294SOL     OW24535   0.709   2.022   0.938  0.6560  0.0394 -0.8650
 4294SOL    HW124536   0.672   1.929   0.947 -0.3210  0.5448  0.5916
 4294SOL    HW224537   0.720   2.044   0.841 -0.2157 -1.1574 -1.2556
 4295SOL     OW24538   1.868   7.004   0.488 -0.1102  0.3061 -0.0086
 4295SOL    HW124539   1.926   7.076   0.525 -0.7657 -0.1948  2.0303
 4295SOL    HW224540   1.904   6.975   0.399  1.5378  1.4608  0.2621
 4296SOL     OW24541   7.018   0.595   4.648  0.6283 -0.0713 -0.1206
 4296SOL    HW124542   7.043   0.613   4.743 -0.1857  3.8582 -0.5758
 4296SOL    HW224543   6.921   0.570   4.644  0.5526  0.1995  0.0205
 4297SOL     OW24544   1.334   1.941   2.985 -0.9887  0.4698  0.4253
 4297SOL    HW124545   1.385   1.978   3.062  0.8054 -0.0040 -0.5120
 4297SOL    HW224546   1.319   2.014   2.918  0.7984  0.0076 -0.5060
 4298SOL     OW24547   2.381   5.795   1.256  0.6426  0.1964 -0.1076
 4298SOL    HW124548   2.475   5.768   1.233 -0.0319 -1.7391 -0.6374
 4298SOL    HW224549   2.337   5.834   1.175  1.4072  2.3395  0.4891
 4299SOL     OW24550   9.359   0.652   3.924  0.1964 -0.4391  0.2452
 4299SOL    HW124551   9.356   0.623   3.828  0.7812 -0.6590  0.2914
 4299SOL    HW224552   9.301   0.592   3.979  0.2204 -0.5973  0.0994
 4300SOL     OW24553   7.454   2.281   4.531  0.3186 -0.2106 -0.3322
 4300SOL    HW124554   7.356   2.265   4.546  0.5563 -0.7638  0.6780
 4300SOL    HW224555   7.503   2.269   4.617  1.5834 -2.4305 -1.3179
 4301SOL     OW24556   3.121   1.790   0.281  0.0705  0.2930 -0.0532
 4301SOL    HW124557   3.138   1.867   0.219 -0.7315  1.0743  0.6793
 4301SOL    HW224558   3.203   1.774   0.336 -0.1174  1.3296  0.5432
 4302SOL     OW24559   0.942   8.837   3.635 -0.1210  0.1499 -0.1035
 4302SOL    HW124560   0.998   8.829   3.553 -2.7267  0.8313 -2.0194
 4302SOL    HW224561   0.951   8.754   3.690 -0.5192 -1.5577 -2.5385
 4303SOL     OW24562   0.809   8.786   2.734 -0.0734 -0.0633  0.1258
 4303SOL    HW124563   0.846   8.835   2.656  0.0312 -0.6002 -0.1644
 4303SOL    HW224564   0.770   8.699   2.703  1.5808 -1.1138  0.9039
 4304SOL     OW24565   2.198   8.409   0.969 -0.5143  0.1845 -0.4635
 4304SOL    HW124566   2.101   8.397   0.948 -0.5716  0.2528 -0.2385
 4304SOL    HW224567   2.251   8.406   0.884 -0.8999  1.9720 -0.7903
 4305SOL     OW24568   3.595   3.530   5.787  0.1084  1.1739 -0.0233
 4305SOL    HW124569   3.674   3.587   5.766  0.2192  1.1707  0.3817
 4305SOL    HW224570   3.582   3.525   5.886  0.8174 -0.4613  0.0066
 4306SOL     OW24571   0.818   6.443   4.618  0.7823 -0.5343  0.4228
 4306SOL    HW124572   0.724   6.467   4.642  0.7760 -1.6106  1.5114
 4306SOL    HW224573   0.870   6.526   4.599 -0.5788  0.0375 -0.9266
 4307SOL     OW24574   2.780   3.646   1.335 -0.4454  0.7490  0.2774
 4307SOL    HW124575   2.714   3.707   1.379 -0.2718  0.8194  0.4443
 4307SOL    HW224576   2.811   3.578   1.402 -0.0255  0.9820  0.3241
 4308SOL     OW24577   8.191   3.934   4.889  0.1665  0.2786  0.1446
 4308SOL    HW124578   8.117   3.993   4.922 -0.3648 -0.3695  0.1202
 4308SOL    HW224579   8.205   3.859   4.954  0.6953  0.3116  0.0691
 4309SOL     OW24580   3.264   3.755   3.807 -0.1336 -0.0007 -0.0422
 4309SOL    HW124581   3.258   3.658   3.785 -0.4186 -0.4280  1.9122
 4309SOL    HW224582   3.216   3.774   3.892 -0.4448  1.9393 -0.6232
 4310SOL     OW24583   0.224   7.493   7.864  0.3362  0.2043  0.1124
 4310SOL    HW124584   0.142   7.494   7.922  0.1658  0.8640 -0.1388
 4310SOL    HW224585   0.291   7.431   7.904  0.4364  1.0800  1.3244
 4311SOL     OW24586   1.055   3.654   2.450  0.1643  0.4476  0.0432
 4311SOL    HW124587   1.009   3.676   2.536  1.1562  1.0236  0.4469
 4311SOL    HW224588   1.116   3.730   2.425  0.7325 -0.2069 -0.5729
 4312SOL     OW24589   2.519   7.353   1.415  0.3195  0.3139  0.2325
 4312SOL    HW124590   2.564   7.436   1.449 -0.8477  1.1132 -0.1645
 4312SOL    HW224591   2.443   7.378   1.356 -0.3307 -1.0469  0.4802
 4313SOL     OW24592   3.006   3.330   2.880 -0.1969  0.2621  0.2448
 4313SOL    HW124593   3.033   3.371   2.793  1.4955  0.7365  0.9626
 4313SOL    HW224594   2.915   3.290   2.871 -0.4105  1.0612 -1.4883
 4314SOL     OW24595   6.784   9.888   6.449 -0.4373 -0.1296 -0.0759
 4314SOL    HW124596   6.816   9.904   6.542 -1.3046 -2.5381  0.6760
 4314SOL    HW224597   6.684   9.881   6.449 -0.4911  0.4113 -1.2938
 4315SOL     OW24598   7.117   9.318   6.548  0.2684 -0.2071 -0.1999
 4315SOL    HW124599   7.073   9.394   6.595  1.3313  1.0250 -1.1646
 4315SOL    HW224600   7.066   9.234   6.566 -0.7140  0.6607  1.1670
 4316SOL     OW24601   9.235   4.972   4.988  0.3489  0.3189 -0.5780
 4316SOL    HW124602   9.275   4.880   4.988  0.0400  0.1830  0.2824
 4316SOL    HW224603   9.157   4.974   4.924  0.1778 -0.0970 -0.3829
 4317SOL     OW24604   3.092   4.989   0.485  0.2513 -0.3066 -0.0975
 4317SOL    HW124605   3.137   5.076   0.505  2.5194 -1.4445  0.0188
 4317SOL    HW224606   3.143   4.915   0.529 -2.4221 -1.5832  0.9662
 4318SOL     OW24607   3.498   2.548   6.163  0.2338  0.0956 -0.5127
 4318SOL    HW124608   3.508   2.464   6.216 -1.2015  0.3113  0.1168
 4318SOL    HW224609   3.562   2.617   6.198 -1.3941  0.5655  1.6340
 4319SOL     OW24610   0.242   2.814   7.071  0.1246  0.0567  0.5181
 4319SOL    HW124611   0.329   2.824   7.023  0.9946  0.7621  2.2143
 4319SOL    HW224612   0.246   2.734   7.132  0.0232  0.7988  1.5061
 4320SOL     OW24613   5.480   0.644   1.029  0.1902  0.4358  0.4570
 4320SOL    HW124614   5.423   0.723   1.053  1.4441  1.5300 -0.1330
 4320SOL    HW224615   5.430   0.586   0.964 -0.9093  0.5041  1.2240
 4321SOL     OW24616   9.666   5.737   4.118 -0.4264 -0.4664  0.0580
 4321SOL    HW124617   9.649   5.806   4.047  0.6935  0.0316  0.2668
 4321SOL    HW224618   9.636   5.773   4.207  1.8324  0.4827  0.4544
 4322SOL     OW24619   3.232   8.846   0.407 -0.7060 -0.4897 -0.2210
 4322SOL    HW124620   3.228   8.749   0.383  1.3412 -0.7544  0.4163
 4322SOL    HW224621   3.326   8.871   0.428 -1.2959  1.5355  0.0861
 4323SOL     OW24622   0.671   3.719   5.608 -0.4266 -0.4298  0.1577
 4323SOL    HW124623   0.615   3.638   5.623 -2.7152  1.0588 -0.0888
 4323SOL    HW224624   0.717   3.711   5.520 -1.5782 -0.9572 -0.4116
 4324SOL     OW24625   2.844   2.460   3.742 -0.0832 -0.1577  0.1531
 4324SOL    HW124626   2.766   2.503   3.789 -0.4826 -0.3124 -0.3698
 4324SOL    HW224627   2.818   2.368   3.712  0.0010  0.1427 -0.8417
 4325SOL     OW24628   6.807   0.402   5.780 -0.0082  0.1163 -0.3519
 4325SOL    HW124629   6.714   0.380   5.809  0.0402  0.7786  0.3212
 4325SOL    HW224630   6.872   0.340   5.826 -0.1108 -0.3604 -0.8390
 4326SOL     OW24631   4.135   2.560   8.159  0.3300 -0.3809 -0.0642
 4326SOL    HW124632   4.156   2.525   8.250  0.3010 -1.6534 -0.5372
 4326SOL    HW224633   4.215   2.551   8.100 -0.2774 -1.5384 -0.7475
 4327SOL     OW24634   7.361   4.085   1.109  0.8900  0.1041 -0.3174
 4327SOL    HW124635   7.400   4.109   1.198  2.0542  0.9611 -1.0260
 4327SOL    HW224636   7.275   4.134   1.096  1.0258  0.4610  0.0964
 4328SOL     OW24637   9.755   0.692   7.783  0.4165 -0.0372  0.7407
 4328SOL    HW124638   9.756   0.592   7.783 -0.9553 -0.1663  4.8909
 4328SOL    HW224639   9.846   0.726   7.804  0.1877 -0.5824  2.7912
 4329SOL     OW24640   3.573   1.215   3.550 -0.7707 -0.0099  0.6077
 4329SOL    HW124641   3.664   1.256   3.545 -1.4168  1.2191 -1.7734
 4329SOL    HW224642   3.575   1.138   3.614  2.1138 -0.4181  0.1129
 4330SOL     OW24643   3.961   0.620   1.578 -0.4996 -1.0538  0.1504
 4330SOL    HW124644   3.866   0.592   1.588 -0.0809 -2.2311  0.9267
 4330SOL    HW224645   4.013   0.546   1.534  0.1688 -0.6377  0.2410
 4331SOL     OW24646   1.658   2.169   6.004 -0.5176 -0.2606  0.5324
 4331SOL    HW124647   1.639   2.110   6.083 -1.3672  1.9381  2.0107
 4331SOL    HW224648   1.757   2.175   5.991 -0.4187 -2.5700 -0.1099
 4332SOL     OW24649   9.960   9.019   7.351  0.0325  0.2930  0.1873
 4332SOL    HW124650   9.944   9.096   7.412 -1.5364 -0.2848  0.5388
 4332SOL    HW224651  10.004   9.050   7.267 -0.1169  1.4820  0.5476
 4333SOL     OW24652   8.718   1.790   3.618 -0.2549 -0.2039  0.0182
 4333SOL    HW124653   8.621   1.789   3.593  0.0538 -0.9597 -1.2069
 4333SOL    HW224654   8.762   1.870   3.577  0.2308 -1.3921 -1.8300
 4334SOL     OW24655   7.839   2.597   1.847 -0.1372  0.0040  1.2324
 4334SOL    HW124656   7.791   2.644   1.921 -0.6527 -0.3956  1.1566
 4334SOL    HW224657   7.843   2.499   1.867 -0.7323 -0.1761  0.4894
 4335SOL     OW24658   3.376   1.453   7.364  0.9523 -0.1530 -0.0855
 4335SOL    HW124659   3.391   1.460   7.266 -0.5414  1.3476 -0.2443
 4335SOL    HW224660   3.461   1.470   7.413  1.3836  0.5603 -1.0793
 4336SOL     OW24661   1.099   3.408   0.501  0.0769  0.3358  0.5979
 4336SOL    HW124662   1.199   3.411   0.508  0.1477  1.3743 -0.6563
 4336SOL    HW224663   1.067   3.316   0.524  1.2781  0.0952  1.3956
 4337SOL     OW24664   3.952   2.613   4.017 -0.2613 -0.0149 -0.3770
 4337SOL    HW124665   3.861   2.614   3.975  0.2472 -1.4029 -1.5553
 4337SOL    HW224666   4.018   2.576   3.952  1.1362  0.8799  0.5110
 4338SOL     OW24667   7.381   5.107   7.127 -0.3239 -0.1951 -0.3044
 4338SOL    HW124668   7.284   5.082   7.136 -0.3962 -0.1268 -0.8889
 4338SOL    HW224669   7.421   5.059   7.049 -0.0975  0.4011 -0.5600
 4339SOL     OW24670   5.609   5.570   1.495 -0.0198 -0.1034 -0.3400
 4339SOL    HW124671   5.521   5.541   1.459  0.5834 -0.7175 -1.3437
 4339SOL    HW224672   5.667   5.604   1.421  0.8378 -0.3508  0.2030
 4340SOL     OW24673   8.803   0.504   0.253  0.6660  0.3068 -0.3118
 4340SOL    HW124674   8.837   0.459   0.336 -1.2643  0.5709  0.6583
 4340SOL    HW224675   8.809   0.440   0.176  3.0967  0.2831 -0.1334
 4341SOL     OW24676   2.583   6.002   4.002 -0.4416 -0.0038  0.7543
 4341SOL    HW124677   2.577   5.974   3.907  0.4047  0.1042  0.6635
 4341SOL    HW224678   2.582   6.102   4.007  0.9779  0.0177  0.7445
 4342SOL     OW24679   9.317   5.398   7.317 -0.0203  0.4901 -0.8054
 4342SOL    HW124680   9.317   5.393   7.217  0.9540  1.3223 -0.8600
 4342SOL    HW224681   9.350   5.488   7.346 -0.4493  0.3137  0.2654
 4343SOL     OW24682   9.747   4.125   5.798 -0.2888 -0.3405 -0.5017
 4343SOL    HW124683   9.700   4.090   5.718  1.0193  1.0826 -1.9237
 4343SOL    HW224684   9.681   4.172   5.857 -1.1673 -0.9248 -1.0212
 4344SOL     OW24685   9.196   4.818   0.680 -0.3622  0.0536  0.4673
 4344SOL    HW124686   9.163   4.730   0.713  2.3658 -1.2584 -0.1721
 4344SOL    HW224687   9.238   4.868   0.755 -0.2181 -0.0041  0.4247
 4345SOL     OW24688   0.746   9.350   7.372  0.4606  0.2123 -0.2718
 4345SOL    HW124689   0.719   9.255   7.387  0.7135  0.3247  0.8731
 4345SOL    HW224690   0.843   9.354   7.348  1.1415  0.4167  2.4281
 4346SOL     OW24691   3.117   3.995   5.842  0.5733  0.7681 -0.0816
 4346SOL    HW124692   3.076   4.075   5.798  2.0529 -0.0757 -3.1459
 4346SOL    HW224693   3.049   3.921   5.846  0.6052  0.6467 -1.5619
 4347SOL     OW24694   0.874   2.113   5.938  0.0465  0.2523 -0.1833
 4347SOL    HW124695   0.948   2.095   5.873 -0.1989 -4.5232  0.6491
 4347SOL    HW224696   0.911   2.156   6.020  1.7304 -1.0588 -0.2349
 4348SOL     OW24697   1.078   5.503   6.068 -0.1024  0.0540 -0.0321
 4348SOL    HW124698   1.134   5.564   6.124 -1.0174  0.5147  0.3835
 4348SOL    HW224699   1.055   5.548   5.982  1.5647 -0.7692 -0.9381
 4349SOL     OW24700   9.254   8.701   6.357  0.1731  0.1843 -0.3692
 4349SOL    HW124701   9.321   8.730   6.288  0.9050  1.6659  0.9390
 4349SOL    HW224702   9.285   8.616   6.399  0.6166  0.2087 -0.6379
 4350SOL     OW24703   1.642   9.989   8.000  0.7229 -0.0821 -0.3466
 4350SOL    HW124704   1.561  10.037   7.969  1.1416 -0.2703 -1.7630
 4350SOL    HW224705   1.721  10.052   7.999  0.8373 -0.2179 -0.1155
 4351SOL     OW24706   2.619   7.385   4.130  0.2562  0.0378 -0.5268
 4351SOL    HW124707   2.682   7.446   4.081 -0.3996  0.2968 -1.0464
 4351SOL    HW224708   2.558   7.340   4.065  0.1379 -0.4886 -0.0526
 4352SOL     OW24709   5.060   1.350   2.110  0.2193 -0.3592  0.1873
 4352SOL    HW124710   5.079   1.448   2.105  0.0378 -0.3510 -0.3526
 4352SOL    HW224711   5.077   1.307   2.022 -2.3819 -0.3205 -0.3894
 4353SOL     OW24712   1.582   7.359   0.554 -0.4317  0.6759  0.3925
 4353SOL    HW124713   1.490   7.394   0.572 -0.0214  1.7659  0.4060
 4353SOL    HW224714   1.583   7.260   0.569 -2.3914  0.1162 -2.5744
 4354SOL     OW24715   8.592   0.127   0.929 -0.7641 -0.8634 -0.3523
 4354SOL    HW124716   8.509   0.179   0.950 -0.4891  0.0521 -1.4745
 4354SOL    HW224717   8.631   0.090   1.014 -0.9849  0.7246  0.4564
 4355SOL     OW24718   4.867   3.889   1.137  0.8126 -0.1907 -0.6283
 4355SOL    HW124719   4.828   3.943   1.212  0.7960 -0.6232 -0.3285
 4355SOL    HW224720   4.924   3.816   1.174  1.0372 -0.2290 -1.0445
 4356SOL     OW24721   8.161   8.745   4.355 -0.5302  0.2053  1.2135
 4356SOL    HW124722   8.218   8.691   4.294  1.4283  2.8024  0.6681
 4356SOL    HW224723   8.065   8.739   4.326 -0.0162 -1.0310 -0.2422
 4357SOL     OW24724   8.224   2.389   1.145  0.0863 -0.1998 -0.4220
 4357SOL    HW124725   8.305   2.334   1.123  0.3983  0.5074 -1.0903
 4357SOL    HW224726   8.168   2.399   1.063  0.2657  0.8427 -0.4226
 4358SOL     OW24727   8.768   5.894   5.149 -0.4020 -0.4826 -0.1135
 4358SOL    HW124728   8.771   5.919   5.053 -1.1760 -0.2797 -0.0827
 4358SOL    HW224729   8.806   5.969   5.204 -0.6901 -0.2790 -0.1952
 4359SOL     OW24730   9.752   2.953   2.836 -0.0562 -0.3611  0.2881
 4359SOL    HW124731   9.849   2.976   2.839 -0.1594  0.2808 -1.0592
 4359SOL    HW224732   9.715   2.956   2.929  0.7180  1.5582  0.5698
 4360SOL     OW24733   6.765   1.034   3.188  0.3659  0.0137 -0.2350
 4360SOL    HW124734   6.807   0.966   3.248  0.1478 -0.2665 -0.3991
 4360SOL    HW224735   6.676   1.062   3.225 -0.0579 -0.6290 -0.7530
 4361SOL     OW24736   9.131   6.148   2.520  0.6255 -0.0216  0.1657
 4361SOL    HW124737   9.222   6.147   2.561  0.1312 -0.1116  1.2579
 4361SOL    HW224738   9.113   6.238   2.481  1.9258 -0.5514 -1.7523
 4362SOL     OW24739   2.083   7.227   1.650 -0.2504  0.6042 -0.3183
 4362SOL    HW124740   2.155   7.158   1.664  0.3320  1.7078  2.3915
 4362SOL    HW224741   2.125   7.311   1.616 -0.5486  0.5915 -0.7129
 4363SOL     OW24742   9.762   3.454   5.035  0.0332  0.0968  0.3563
 4363SOL    HW124743   9.759   3.363   5.077  1.3305  0.3479  1.0007
 4363SOL    HW224744   9.746   3.524   5.105  0.8045  0.4514  0.1848
 4364SOL     OW24745   3.561   0.227   7.737 -0.4718  0.5187 -0.3374
 4364SOL    HW124746   3.605   0.256   7.652 -0.2329 -0.3708 -0.5239
 4364SOL    HW224747   3.555   0.304   7.800  1.5212  0.5873 -0.2272
 4365SOL     OW24748   9.015   4.124   6.200 -0.7830 -0.0862  0.2023
 4365SOL    HW124749   8.970   4.103   6.113  0.1986 -0.0575 -0.3202
 4365SOL    HW224750   9.083   4.196   6.186 -0.3523 -0.3420  0.9143
 4366SOL     OW24751   7.507   6.644   4.006  0.0465  0.4936  0.1996
 4366SOL    HW124752   7.487   6.734   4.045 -2.2605  0.4664 -0.8598
 4366SOL    HW224753   7.466   6.636   3.916 -0.4140 -1.8779  0.5735
 4367SOL     OW24754   9.354   6.087   6.076  0.0450 -0.0976  0.0764
 4367SOL    HW124755   9.378   6.183   6.061 -0.0606 -0.1897 -0.6923
 4367SOL    HW224756   9.322   6.075   6.170  0.3542  0.5586  0.2712
 4368SOL     OW24757   1.411  10.003   4.812 -0.5960 -0.3110  0.0297
 4368SOL    HW124758   1.322  10.011   4.857 -0.5511 -0.3276  0.1234
 4368SOL    HW224759   1.416   9.916   4.764 -0.5104 -0.4512  0.2930
 4369SOL     OW24760   1.050   8.801   7.911  0.2088 -0.0133 -0.3853
 4369SOL    HW124761   1.056   8.734   7.837  0.0747  0.9093 -1.2514
 4369SOL    HW224762   0.968   8.858   7.897 -0.0985 -0.1659  0.7583
 4370SOL     OW24763   5.133   1.767   4.674 -0.0081 -0.1864 -0.1456
 4370SOL    HW124764   5.198   1.703   4.713  0.0577  0.6654  1.1507
 4370SOL    HW224765   5.086   1.817   4.747  2.1535  3.4716 -1.0792
 4371SOL     OW24766   6.420   0.865   2.227 -0.3781  0.1457 -0.3998
 4371SOL    HW124767   6.322   0.871   2.243 -0.1546  0.6121  0.8158
 4371SOL    HW224768   6.439   0.791   2.162 -1.4161 -0.8171  0.3745
 4372SOL     OW24769   2.189   6.630   3.374  0.2155  0.5521  0.3835
 4372SOL    HW124770   2.266   6.568   3.390 -0.4213 -0.1301  0.8154
 4372SOL    HW224771   2.107   6.577   3.353  0.0470  1.3025 -0.9261
 4373SOL     OW24772   3.969   3.562   2.851 -0.7115 -0.5297 -0.0495
 4373SOL    HW124773   3.875   3.582   2.823  0.1537  4.0539 -0.0339
 4373SOL    HW224774   3.972   3.551   2.950 -0.6157  4.1199  0.5667
 4374SOL     OW24775   2.753   9.984   6.772 -0.0541  0.0277 -0.3442
 4374SOL    HW124776   2.784   9.898   6.733  1.1806 -0.4878  1.6982
 4374SOL    HW224777   2.658   9.974   6.803 -0.5090 -0.0329 -1.7119
 4375SOL     OW24778   9.463   4.876   7.234 -0.1108 -0.2225 -0.6188
 4375SOL    HW124779   9.554   4.864   7.273 -0.1506  0.6970 -0.2262
 4375SOL    HW224780   9.407   4.931   7.296 -1.5003 -2.2579 -0.0222
 4376SOL     OW24781   5.092   0.530   7.977  0.2961 -0.0358  0.0581
 4376SOL    HW124782   5.174   0.537   8.033  0.7240 -0.6290 -0.4945
 4376SOL    HW224783   5.055   0.437   7.982  0.2195 -0.0393 -0.4823
 4377SOL     OW24784   7.358   9.512   7.296  0.0395 -0.2138 -0.5621
 4377SOL    HW124785   7.329   9.590   7.351 -1.4605 -0.9274 -0.3077
 4377SOL    HW224786   7.295   9.499   7.219  0.4738 -0.9664 -0.8072
 4378SOL     OW24787   9.753   8.919   8.068  0.0192 -0.2766  0.2787
 4378SOL    HW124788   9.696   8.937   8.148 -0.0140  1.2420 -0.0677
 4378SOL    HW224789   9.713   8.844   8.015 -0.4063 -0.7302  1.2288
 4379SOL     OW24790   9.919   1.271   1.885 -0.2994 -0.2259  0.1629
 4379SOL    HW124791   9.832   1.273   1.934 -0.1466  0.9435  0.4157
 4379SOL    HW224792   9.906   1.233   1.794 -0.9433 -0.6902  0.4469
 4380SOL     OW24793   6.689   0.967   7.995 -0.2331  0.2126  0.2554
 4380SOL    HW124794   6.624   0.915   7.939  0.1731  0.0808 -0.0900
 4380SOL    HW224795   6.758   0.905   8.032  1.6830  0.8377 -2.1191
 4381SOL     OW24796   1.275   8.157   4.472  1.0064 -0.0647 -0.3479
 4381SOL    HW124797   1.313   8.241   4.433  0.9602 -0.4796 -1.3102
 4381SOL    HW224798   1.222   8.180   4.554 -0.3881  1.0718 -1.5276
 4382SOL     OW24799   4.426   3.079   7.026  0.3961 -0.0481 -0.6043
 4382SOL    HW124800   4.494   3.062   7.097  1.9719  2.2596 -1.5172
 4382SOL    HW224801   4.342   3.114   7.068  0.5244 -0.8371  0.3224
 4383SOL     OW24802   2.534   9.099   0.121 -0.2514  0.2098 -0.5795
 4383SOL    HW124803   2.615   9.068   0.171 -0.4356 -0.0911 -0.4657
 4383SOL    HW224804   2.539   9.198   0.107 -1.2243  0.6585  1.9572
 4384SOL     OW24805   3.855   4.752   6.164 -0.4261  0.3782  0.0198
 4384SOL    HW124806   3.898   4.843   6.172 -1.8250  0.9377  1.4383
 4384SOL    HW224807   3.823   4.739   6.070  1.7684  0.4149 -0.7777
 4385SOL     OW24808   4.459   9.869   8.064  0.3451 -0.6128 -1.0143
 4385SOL    HW124809   4.501   9.779   8.081  1.5787 -0.1568 -1.5409
 4385SOL    HW224810   4.369   9.872   8.106  0.8414 -1.6339  0.1756
 4386SOL     OW24811   7.507   1.367   5.246 -0.0880  0.3800 -0.1378
 4386SOL    HW124812   7.521   1.466   5.251  1.1245  0.1388  1.8505
 4386SOL    HW224813   7.597   1.322   5.241 -0.5915 -0.6749  0.3018
 4387SOL     OW24814   8.099   2.882   5.517  0.6658  0.8407 -0.2231
 4387SOL    HW124815   8.179   2.942   5.508  0.8591  0.6973  0.5123
 4387SOL    HW224816   8.038   2.896   5.439  1.6572  0.5732 -1.0619
 4388SOL     OW24817   4.233   8.748   6.855 -0.3957  0.3925  0.4722
 4388SOL    HW124818   4.268   8.822   6.912  1.3254 -1.8803  2.4343
 4388SOL    HW224819   4.304   8.717   6.793 -1.8104  1.8374 -1.9907
 4389SOL     OW24820   3.313   2.198   0.952 -0.2834 -0.1034 -0.3420
 4389SOL    HW124821   3.312   2.214   0.853  1.1679  0.2782 -0.3068
 4389SOL    HW224822   3.233   2.144   0.978 -0.7750 -0.0417 -1.6974
 4390SOL     OW24823   4.035   0.684   4.386  0.1446 -0.0444 -0.3042
 4390SOL    HW124824   4.105   0.750   4.359  0.8132 -1.0771 -1.1455
 4390SOL    HW224825   3.984   0.720   4.464  1.2029  1.0012 -0.0714
 4391SOL     OW24826   6.767   5.844   6.312  0.2998 -0.5145  0.2224
 4391SOL    HW124827   6.746   5.800   6.399  2.9862  2.9231  2.6980
 4391SOL    HW224828   6.865   5.835   6.293  0.6068  2.9265 -0.0071
 4392SOL     OW24829   2.229   9.727   7.390 -0.2729  0.7136  0.0121
 4392SOL    HW124830   2.156   9.742   7.456  0.1324 -0.7674  0.8127
 4392SOL    HW224831   2.202   9.764   7.301 -1.1311  2.0208  0.8131
 4393SOL     OW24832   2.457   2.398   1.397  0.6551  0.2317 -0.4245
 4393SOL    HW124833   2.470   2.344   1.314 -2.4472  1.3657 -1.6904
 4393SOL    HW224834   2.474   2.494   1.378 -1.4092  0.6739 -0.1067
 4394SOL     OW24835   9.580   0.429   6.873  0.5521 -0.6273  0.0138
 4394SOL    HW124836   9.542   0.517   6.847 -0.2164 -0.8712  0.2904
 4394SOL    HW224837   9.586   0.370   6.793  0.8168 -0.4240 -0.1195
 4395SOL     OW24838   3.194   5.779   0.684 -0.5776  0.0699  0.2086
 4395SOL    HW124839   3.215   5.712   0.756 -0.7713 -1.3538 -1.0444
 4395SOL    HW224840   3.096   5.780   0.667 -0.3366 -0.9472 -1.3185
 4396SOL     OW24841   2.509   2.274   0.403  0.9857  0.1320  0.0025
 4396SOL    HW124842   2.496   2.350   0.467  0.3870 -0.0988  0.1519
 4396SOL    HW224843   2.545   2.310   0.316 -2.0455  0.9967 -0.9598
 4397SOL     OW24844   9.301   1.224   6.475  0.7419  0.2646  0.3049
 4397SOL    HW124845   9.227   1.290   6.462  1.0928  0.5856 -0.0967
 4397SOL    HW224846   9.268   1.147   6.528  0.0821  0.3518  0.0285
 4398SOL     OW24847   9.331   4.951   0.864 -0.4735  0.2522  0.5369
 4398SOL    HW124848   9.406   4.985   0.806  0.6494 -1.2470  1.0903
 4398SOL    HW224849   9.319   5.012   0.942  2.6842 -1.4768  2.4558
 4399SOL     OW24850   4.543   3.923   5.410 -0.5427  0.0246  0.3512
 4399SOL    HW124851   4.496   3.845   5.452  0.4744  0.2031  1.8326
 4399SOL    HW224852   4.568   3.989   5.480 -1.0914  1.5497 -0.8491
 4400SOL     OW24853   2.615   7.858   2.628  0.3949 -0.1530  0.2268
 4400SOL    HW124854   2.575   7.829   2.716  1.1743  1.1864  1.0288
 4400SOL    HW224855   2.543   7.860   2.559 -0.4350 -0.2261  1.0710
 4401SOL     OW24856   6.986   4.141   1.357  0.0352  0.1590 -0.1446
 4401SOL    HW124857   7.015   4.056   1.312 -1.0264  0.2751 -1.0618
 4401SOL    HW224858   6.954   4.206   1.289 -0.2927  0.8576  0.6637
 4402SOL     OW24859   0.611   8.678   7.133  0.1798 -0.3545  0.0902
 4402SOL    HW124860   0.658   8.606   7.184 -0.6019 -2.3817 -1.9871
 4402SOL    HW224861   0.529   8.706   7.184  1.0952 -0.1033  1.4540
 4403SOL     OW24862   0.356   8.190   0.616 -0.0941  0.1143  0.6609
 4403SOL    HW124863   0.357   8.255   0.540  0.3891 -0.3651  0.2558
 4403SOL    HW224864   0.267   8.193   0.661 -0.5040  0.1487 -0.1428
 4404SOL     OW24865   8.610   8.650   5.925  1.0187 -0.0856  0.3582
 4404SOL    HW124866   8.542   8.703   5.977  0.2744  0.6193 -1.3170
 4404SOL    HW224867   8.691   8.637   5.981 -0.0865 -0.0463  2.0202
 4405SOL     OW24868   2.303   1.952   5.377 -0.2494 -0.0641  0.0295
 4405SOL    HW124869   2.233   1.952   5.448 -0.4941 -0.2195 -0.2096
 4405SOL    HW224870   2.386   1.996   5.411 -0.2457 -0.4604  0.5253
 4406SOL     OW24871   2.643   9.227   0.416 -0.0691  0.2531  0.0688
 4406SOL    HW124872   2.658   9.231   0.515  0.6702  0.6881 -0.0550
 4406SOL    HW224873   2.564   9.170   0.396  1.0395 -1.5644  0.7833
 4407SOL     OW24874   1.517   3.780   4.742 -0.1933 -0.0521 -0.1242
 4407SOL    HW124875   1.569   3.862   4.719 -0.5095  0.3091  0.4426
 4407SOL    HW224876   1.536   3.709   4.674 -1.1275  0.9965 -1.5140
 4408SOL     OW24877   4.520   3.054   8.048 -1.0706 -0.3291 -0.0460
 4408SOL    HW124878   4.577   2.985   8.002  1.6999  2.3300 -0.7403
 4408SOL    HW224879   4.434   3.011   8.078 -0.9935 -3.2435 -3.6013
 4409SOL     OW24880   2.921   8.837   4.598  0.4447  0.2690  0.1300
 4409SOL    HW124881   2.928   8.848   4.698  0.4521 -1.3815  0.3297
 4409SOL    HW224882   2.948   8.744   4.574 -1.5673  0.0273 -1.2042
 4410SOL     OW24883   6.249   0.222   2.362  0.5151 -0.1986  0.0280
 4410SOL    HW124884   6.216   0.315   2.346 -0.6881 -0.8180 -1.0930
 4410SOL    HW224885   6.281   0.214   2.457 -0.9759  0.8735  0.6237
 4411SOL     OW24886   4.649   1.554   0.344 -0.0990 -0.2785 -0.1119
 4411SOL    HW124887   4.708   1.575   0.266  2.3883 -1.0541  1.4776
 4411SOL    HW224888   4.560   1.597   0.331  0.2421 -0.4060 -3.3654
 4412SOL     OW24889   2.100   1.842   6.355 -0.0347  0.1068  0.8440
 4412SOL    HW124890   2.022   1.782   6.369  0.6805 -0.7588  1.1744
 4412SOL    HW224891   2.179   1.788   6.324  0.8305  0.7491  1.8832
 4413SOL     OW24892   6.992   3.734   8.041  0.1398  0.3046  0.2685
 4413SOL    HW124893   7.091   3.733   8.030  0.0883  2.5971 -0.5120
 4413SOL    HW224894   6.953   3.651   8.000  1.6770 -0.3314  0.0829
 4414SOL     OW24895   7.256   2.706   5.905 -0.1750  0.2564  0.3058
 4414SOL    HW124896   7.230   2.690   6.000  0.0389 -0.3391  0.2670
 4414SOL    HW224897   7.308   2.627   5.871 -0.2414  0.4700 -0.2977
 4415SOL     OW24898   5.056   4.166   1.967  0.0680 -0.5009 -0.5835
 4415SOL    HW124899   5.072   4.077   2.010 -1.1602 -1.0585 -1.2490
 4415SOL    HW224900   4.964   4.197   1.990  1.8532  2.5028  2.9846
 4416SOL     OW24901   1.874   7.698   0.905 -0.4347 -0.2721  0.4092
 4416SOL    HW124902   1.922   7.707   0.993  1.0062 -1.3212 -0.2551
 4416SOL    HW224903   1.781   7.667   0.921  0.0856 -1.3020  1.5222
 4417SOL     OW24904   0.202   7.416   7.456  0.1507  0.1349 -0.0085
 4417SOL    HW124905   0.249   7.418   7.368  0.7994 -0.8082  0.3052
 4417SOL    HW224906   0.249   7.475   7.521  2.2352 -2.4738  0.9379
 4418SOL     OW24907   0.251   8.188   6.105 -0.2814 -0.1742 -0.1836
 4418SOL    HW124908   0.350   8.200   6.106 -0.3581  0.5161 -0.1051
 4418SOL    HW224909   0.222   8.135   6.185 -0.0196 -0.0078  0.0231
 4419SOL     OW24910   8.910   4.015   3.204  0.6849  0.1331  0.2508
 4419SOL    HW124911   8.976   3.945   3.230 -0.2416 -1.5165 -1.6471
 4419SOL    HW224912   8.957   4.102   3.189  2.1757 -0.6102  0.5711
 4420SOL     OW24913   1.842   0.331   3.284  0.2588  0.2812 -0.4815
 4420SOL    HW124914   1.883   0.283   3.207  1.5700 -1.7709  1.4414
 4420SOL    HW224915   1.914   0.372   3.340 -0.3476 -1.9048  1.9852
 4421SOL     OW24916   9.469   7.337   7.048 -0.4516 -0.2057 -0.1457
 4421SOL    HW124917   9.496   7.257   6.995  0.2992 -0.2638  0.3228
 4421SOL    HW224918   9.433   7.407   6.986 -0.5088 -0.6575 -0.6225
 4422SOL     OW24919   2.261   5.054   5.782  0.5220  0.1318  0.4987
 4422SOL    HW124920   2.260   5.115   5.703 -1.3098 -1.6091 -0.8832
 4422SOL    HW224921   2.208   5.095   5.856 -0.9762  0.1305 -0.5288
 4423SOL     OW24922   1.701   0.640   6.117 -0.2234 -0.6682 -0.3555
 4423SOL    HW124923   1.716   0.707   6.045 -1.4156 -1.9062 -1.7835
 4423SOL    HW224924   1.760   0.561   6.102  0.1628 -0.5548  0.5330
 4424SOL     OW24925   0.599   4.262   4.742  0.1202 -0.3261  0.3420
 4424SOL    HW124926   0.639   4.262   4.650  2.4993 -0.4730  1.3247
 4424SOL    HW224927   0.558   4.173   4.761 -3.0297  0.6365 -1.6317
 4425SOL     OW24928   5.405   0.469   4.658  0.1082 -0.0325 -0.0736
 4425SOL    HW124929   5.365   0.453   4.567 -1.7945  2.8639  0.2073
 4425SOL    HW224930   5.446   0.384   4.691 -0.1876 -1.4382 -3.1356
 4426SOL     OW24931   5.039   7.877   1.806 -0.0007 -0.6345  0.2539
 4426SOL    HW124932   5.095   7.925   1.873  0.3187 -0.5783 -0.0508
 4426SOL    HW224933   5.032   7.933   1.723  0.3671 -1.1101 -0.0992
 4427SOL     OW24934   9.413   6.545   5.555  0.1703 -0.4207 -0.3471
 4427SOL    HW124935   9.350   6.606   5.506  0.3175 -0.8390 -1.0597
 4427SOL    HW224936   9.493   6.527   5.499 -0.0241 -1.5401 -0.2869
 4428SOL     OW24937   0.323   6.852   3.148  0.1717  0.5612  0.3700
 4428SOL    HW124938   0.416   6.825   3.123  0.4705  1.7891  0.0940
 4428SOL    HW224939   0.266   6.854   3.065 -0.2112 -0.5985  0.6007
 4429SOL     OW24940   1.656   8.214   6.142 -0.0955 -0.3698 -0.1650
 4429SOL    HW124941   1.625   8.120   6.128  1.7745 -1.0319  0.0411
 4429SOL    HW224942   1.659   8.234   6.240  0.4757 -0.4350 -0.1671
 4430SOL     OW24943   6.260   8.271   6.188  0.2704 -0.0125  0.3886
 4430SOL    HW124944   6.198   8.347   6.208 -0.3874 -0.8903  1.7524
 4430SOL    HW224945   6.353   8.305   6.181 -0.2420  1.1952 -0.8536
 4431SOL     OW24946   0.649   7.328   7.689 -0.3857 -0.1673 -0.2078
 4431SOL    HW124947   0.669   7.366   7.779 -1.2947 -2.5945  1.0617
 4431SOL    HW224948   0.606   7.238   7.699 -1.3968 -0.0627 -3.0531
 4432SOL     OW24949   1.060   9.868   3.472  0.3497 -0.0292 -0.0436
 4432SOL    HW124950   1.087   9.836   3.563  0.6187 -0.7625 -0.3884
 4432SOL    HW224951   0.961   9.882   3.471  0.5464  1.5578  0.8602
 4433SOL     OW24952   7.284   9.502   5.154 -0.3362  0.1279  0.1891
 4433SOL    HW124953   7.381   9.525   5.163 -0.5620  2.1873 -2.0979
 4433SOL    HW224954   7.233   9.545   5.228  0.3389  0.0426  0.7111
 4434SOL     OW24955   9.371   0.493   0.135  0.4845 -0.4144  0.4229
 4434SOL    HW124956   9.318   0.412   0.109 -0.0894  0.2508 -0.4779
 4434SOL    HW224957   9.378   0.497   0.235 -0.3272 -1.0325  0.5063
 4435SOL     OW24958   0.009   9.047   4.924  0.7988 -0.5575 -0.1213
 4435SOL    HW124959   0.022   9.062   5.022  0.4869  0.3310 -0.2131
 4435SOL    HW224960  -0.076   9.091   4.895  0.3159 -1.7547 -0.5753
 4436SOL     OW24961   6.136   4.178   1.048 -0.1549  0.3942 -0.1509
 4436SOL    HW124962   6.177   4.235   1.119  0.4995  1.3991 -1.3116
 4436SOL    HW224963   6.037   4.191   1.048 -0.0899  0.9105  0.1407
 4437SOL     OW24964   2.291   1.076   4.607 -0.0538  0.2560 -0.5997
 4437SOL    HW124965   2.363   1.135   4.572  1.3895 -0.7761  0.5642
 4437SOL    HW224966   2.216   1.131   4.643  1.6258  1.3902  1.2158
 4438SOL     OW24967   2.325   9.565   7.018  0.3316 -0.3073 -0.1676
 4438SOL    HW124968   2.333   9.583   6.920  1.2362  0.8819  0.1089
 4438SOL    HW224969   2.240   9.515   7.036 -1.1712  1.7461 -1.2629
 4439SOL     OW24970   6.108   1.247   5.943 -0.3967  0.1005  0.0465
 4439SOL    HW124971   6.154   1.282   6.025 -0.4604 -1.9641  0.9937
 4439SOL    HW224972   6.168   1.256   5.864 -0.1504  1.6742  0.3854
 4440SOL     OW24973   3.015   7.137   5.953 -0.1734 -0.6900 -0.4289
 4440SOL    HW124974   3.110   7.139   5.983  0.2307 -0.8150 -1.6712
 4440SOL    HW224975   3.007   7.082   5.870 -1.5416 -1.6949  0.3439
 4441SOL     OW24976   1.615   9.201   1.949  0.1435  0.9700 -0.1584
 4441SOL    HW124977   1.595   9.119   1.895  0.8100  1.6164 -1.4164
 4441SOL    HW224978   1.638   9.276   1.887  0.6902  1.7951  1.0330
 4442SOL     OW24979   5.679   1.339   3.210  0.0046  0.2870  0.0073
 4442SOL    HW124980   5.605   1.296   3.159 -0.1212  0.4527  0.0491
 4442SOL    HW224981   5.757   1.277   3.214 -0.8909 -0.7803  1.8249
 4443SOL     OW24982   7.151   3.236   2.646 -0.4018 -0.3397  0.4410
 4443SOL    HW124983   7.167   3.293   2.726 -1.3415  0.4347  0.0852
 4443SOL    HW224984   7.089   3.161   2.670  1.7188 -1.9030  1.1948
 4444SOL     OW24985   8.594   3.813   2.874 -0.0285  0.5467  0.5361
 4444SOL    HW124986   8.656   3.793   2.950  1.1573 -0.7877 -0.7596
 4444SOL    HW224987   8.631   3.774   2.790 -0.8090  2.8761 -0.9333
 4445SOL     OW24988   3.778   8.374   3.864 -0.1295  0.5499 -0.1699
 4445SOL    HW124989   3.854   8.310   3.873  0.3202  1.3976  2.5710
 4445SOL    HW224990   3.693   8.323   3.847  0.0704 -0.8994  2.8012
 4446SOL     OW24991   7.256   0.780   4.907  0.3261  0.2312 -0.7244
 4446SOL    HW124992   7.174   0.723   4.909 -0.0582  0.7903 -0.1396
 4446SOL    HW224993   7.229   0.877   4.908  1.0079  0.4221  0.5260
 4447SOL     OW24994   9.091   4.721   2.023 -0.2219 -0.1012 -0.6486
 4447SOL    HW124995   9.074   4.818   2.004  0.0957 -0.0492 -0.6636
 4447SOL    HW224996   9.048   4.696   2.110 -0.1388  0.0987 -0.5511
 4448SOL     OW24997   0.184   9.251   0.255  0.3689 -0.0962  0.4717
 4448SOL    HW124998   0.226   9.216   0.171 -1.5055 -0.4679 -0.3447
 4448SOL    HW224999   0.146   9.174   0.307 -1.9324  0.4879 -0.3006
 4449SOL     OW25000   1.319   6.255   0.160 -0.5124 -0.2211 -0.2964
 4449SOL    HW125001   1.278   6.176   0.113 -0.9075  0.3200 -0.8649
 4449SOL    HW225002   1.273   6.268   0.249 -1.2101  0.0455 -0.6886
 4450SOL     OW25003   4.636   3.090   4.315 -0.2719  0.1544 -0.1629
 4450SOL    HW125004   4.572   3.168   4.315 -0.8276 -0.2869 -1.4439
 4450SOL    HW225005   4.714   3.112   4.373 -1.4937  0.7818  1.2786
 4451SOL     OW25006   8.649   4.733   5.329 -0.0324 -0.4295 -0.3943
 4451SOL    HW125007   8.640   4.824   5.287  0.0965  0.0691  0.6311
 4451SOL    HW225008   8.595   4.667   5.277 -0.3902  0.2963 -0.9650
 4452SOL     OW25009   3.120   8.950   2.782 -0.5079 -0.2760  0.4149
 4452SOL    HW125010   3.199   8.891   2.770 -1.1147 -0.8478 -0.8324
 4452SOL    HW225011   3.118   8.985   2.876  1.4700  0.1323  0.3076
 4453SOL     OW25012   1.935   5.513   2.206 -0.3002  0.0877 -0.5563
 4453SOL    HW125013   2.028   5.498   2.173  0.2858  1.3638  0.4671
 4453SOL    HW225014   1.938   5.538   2.303 -1.8004 -1.0884 -0.1838
 4454SOL     OW25015   7.031   7.805   7.255  0.3351  0.1793  0.0123
 4454SOL    HW125016   7.060   7.709   7.253  0.5081  0.1995  1.3373
 4454SOL    HW225017   7.012   7.835   7.161 -0.5008 -1.3838 -0.3516
 4455SOL     OW25018   0.268   7.602   6.754 -0.0794 -0.3499 -0.0366
 4455SOL    HW125019   0.213   7.567   6.829 -0.5218 -0.8607 -0.5974
 4455SOL    HW225020   0.361   7.622   6.787 -1.0215  2.0259  1.2798
 4456SOL     OW25021   4.363   1.373   0.249 -0.4749 -0.0008  0.6089
 4456SOL    HW125022   4.406   1.320   0.322  1.1560  0.0216 -0.3226
 4456SOL    HW225023   4.363   1.470   0.273  1.4873  0.1935 -0.0935
 4457SOL     OW25024   9.328   8.358   7.003  0.4538 -0.5004 -0.1509
 4457SOL    HW125025   9.321   8.332   6.906 -1.0241  0.2581 -0.2750
 4457SOL    HW225026   9.265   8.303   7.057  1.0709 -0.7293  0.3349
 4458SOL     OW25027   4.411   4.537   2.998 -1.2822  0.2334  0.4504
 4458SOL    HW125028   4.471   4.472   3.044 -0.6390 -1.4287 -2.6109
 4458SOL    HW225029   4.459   4.624   2.986  0.0991 -0.6745 -0.8089
 4459SOL     OW25030   0.436   2.472   4.891 -0.1031  0.1229 -0.3008
 4459SOL    HW125031   0.480   2.526   4.819  0.1593  0.4587  0.1036
 4459SOL    HW225032   0.454   2.375   4.876 -0.1559  0.1833 -0.7576
 4460SOL     OW25033   3.167   9.173   5.209 -0.2364  0.3629  0.1014
 4460SOL    HW125034   3.145   9.076   5.196 -2.7751  0.8638  0.3629
 4460SOL    HW225035   3.177   9.193   5.306  0.1268  0.3944  0.0578
 4461SOL     OW25036   3.635   3.725   3.419 -0.1941 -0.0590 -0.0685
 4461SOL    HW125037   3.549   3.754   3.461 -0.3017 -0.1046 -0.2553
 4461SOL    HW225038   3.689   3.673   3.486  0.8473  2.1863  0.8751
 4462SOL     OW25039   3.794   3.358   7.773 -0.0187 -0.4148  0.2896
 4462SOL    HW125040   3.841   3.381   7.859  0.6412  0.2348 -0.2373
 4462SOL    HW225041   3.768   3.442   7.726 -0.7376 -0.7750  0.0400
 4463SOL     OW25042   7.548   9.582   3.467  0.3041 -0.3981 -0.0138
 4463SOL    HW125043   7.647   9.582   3.452 -0.0173 -0.6209 -2.2385
 4463SOL    HW225044   7.503   9.627   3.390 -1.2085  1.5575  1.9692
 4464SOL     OW25045   2.761   1.472   3.210 -0.5347  0.1726 -0.5184
 4464SOL    HW125046   2.751   1.484   3.112 -0.1663 -0.5337 -0.6467
 4464SOL    HW225047   2.813   1.389   3.228  1.1992  1.3850  0.2203
 4465SOL     OW25048   1.539   1.426   7.189 -0.1305  0.1811  0.0195
 4465SOL    HW125049   1.484   1.477   7.256  1.7023  0.0648  1.6588
 4465SOL    HW225050   1.493   1.341   7.166  0.1233 -0.7334  2.6927
 4466SOL     OW25051   4.952   5.411   7.898  0.0601 -0.1563  0.3750
 4466SOL    HW125052   4.885   5.439   7.967 -0.4954  0.2298 -0.3074
 4466SOL    HW225053   5.044   5.413   7.937  0.0042  2.3350  0.4356
 4467SOL     OW25054   6.968   0.963   1.614  0.6958 -0.3772 -0.2297
 4467SOL    HW125055   6.871   0.941   1.611  0.8180 -0.8558 -0.9647
 4467SOL    HW225056   6.982   1.048   1.663 -0.2414  0.5049 -1.4522
 4468SOL     OW25057   0.524   9.965   8.154 -0.6610 -0.6192 -0.1433
 4468SOL    HW125058   0.471   9.901   8.210  1.8287 -3.1924 -0.5926
 4468SOL    HW225059   0.595  10.008   8.211  0.1603 -1.2155 -0.7095
 4469SOL     OW25060   0.439   6.507   3.269 -0.1281 -0.1580 -0.5392
 4469SOL    HW125061   0.444   6.411   3.297  0.3366 -0.4983 -1.7811
 4469SOL    HW225062   0.518   6.557   3.306  0.6503 -0.6731 -1.5013
 4470SOL     OW25063   2.273   4.865   3.706 -0.4255 -0.5299 -0.5659
 4470SOL    HW125064   2.267   4.964   3.695 -0.2136 -0.5814 -1.1642
 4470SOL    HW225065   2.198   4.821   3.657  0.4177 -0.7520 -1.6611
 4471SOL     OW25066   5.449   6.142   0.715  0.0703  0.3816 -0.3597
 4471SOL    HW125067   5.423   6.183   0.802  0.0259 -2.2414  0.9132
 4471SOL    HW225068   5.415   6.199   0.640 -0.2655  2.4438  1.3203
 4472SOL     OW25069   9.190   3.563   4.571  0.2506 -0.5340 -0.1489
 4472SOL    HW125070   9.277   3.613   4.575 -0.9515  1.6044  0.0160
 4472SOL    HW225071   9.203   3.471   4.606  2.2386  0.0960  0.8382
 4473SOL     OW25072   9.592   7.035   3.070  0.1175 -0.0814  0.4912
 4473SOL    HW125073   9.597   6.935   3.065  0.4548 -0.1596  2.2606
 4473SOL    HW225074   9.504   7.062   3.109  0.7374  0.2441  1.6974
 4474SOL     OW25075   9.667   3.014   1.159 -0.0545 -0.2512 -0.2253
 4474SOL    HW125076   9.762   3.008   1.189 -0.3868 -2.8097  0.3754
 4474SOL    HW225077   9.606   3.021   1.239 -0.4604  0.2776 -0.5712
 4475SOL     OW25078   0.757   5.978   6.358  0.0291 -0.6136 -0.1937
 4475SOL    HW125079   0.809   5.908   6.309  0.6178  0.5691 -1.2781
 4475SOL    HW225080   0.661   5.952   6.361  0.4673 -2.2007  0.7253
 4476SOL     OW25081   0.212   8.752   2.693 -0.4712  0.3269 -0.1686
 4476SOL    HW125082   0.125   8.741   2.740 -0.4986  1.5980  0.0897
 4476SOL    HW225083   0.273   8.677   2.718 -0.8906  0.3652  1.0064
 4477SOL     OW25084   9.345   5.187   3.981  0.0370 -0.1719  0.1135
 4477SOL    HW125085   9.400   5.108   4.007  0.2536  0.8534  2.8486
 4477SOL    HW225086   9.249   5.162   3.977  0.3557 -1.1782 -1.5292
 4478SOL     OW25087   6.280   8.401   6.565 -0.7076 -0.4347 -0.2571
 4478SOL    HW125088   6.184   8.372   6.570 -0.6327 -0.6230  0.0580
 4478SOL    HW225089   6.292   8.462   6.486 -1.4925  1.1374  0.7960
 4479SOL     OW25090   9.432   4.725   6.019 -0.1002  0.4306 -0.2014
 4479SOL    HW125091   9.414   4.818   5.987  0.2658  0.7077  0.4074
 4479SOL    HW225092   9.438   4.723   6.118 -1.5170 -0.4888 -0.1219
 4480SOL     OW25093   0.554   8.283   3.089  0.5010  0.3077 -0.3708
 4480SOL    HW125094   0.457   8.308   3.080  0.2559 -0.9329 -1.2449
 4480SOL    HW225095   0.610   8.351   3.041  0.0576  0.9028 -0.0605
 4481SOL     OW25096   2.289   4.505   5.925  0.1896 -0.1480 -0.0373
 4481SOL    HW125097   2.238   4.461   5.998 -1.3229  0.9371 -0.4124
 4481SOL    HW225098   2.250   4.479   5.836 -0.1677  1.2329 -0.3016
 4482SOL     OW25099   8.860   0.287   3.119  0.6612  0.2992 -0.3286
 4482SOL    HW125100   8.952   0.260   3.148  1.0057 -0.7490 -2.2965
 4482SOL    HW225101   8.802   0.298   3.200  1.9079 -1.3065  0.8380
 4483SOL     OW25102   0.059   3.209   6.334  0.0214  0.5154  0.1188
 4483SOL    HW125103   0.066   3.297   6.381 -1.4414  0.4289  0.5510
 4483SOL    HW225104   0.097   3.217   6.242 -0.7375  1.8217 -0.1035
 4484SOL     OW25105   7.925   8.419   3.023  0.2871  0.1187 -0.0236
 4484SOL    HW125106   7.993   8.491   3.009 -1.6051  1.9188 -0.2462
 4484SOL    HW225107   7.932   8.352   2.950  1.2682  0.7377 -0.5103
 4485SOL     OW25108   2.410   3.274   3.072  0.2247  0.3935 -0.3452
 4485SOL    HW125109   2.462   3.196   3.037  0.6804  0.9673 -0.9606
 4485SOL    HW225110   2.321   3.278   3.027  0.4787  0.6403 -0.8241
 4486SOL     OW25111   5.536   7.615   6.525 -0.2235 -0.0456  0.1534
 4486SOL    HW125112   5.501   7.701   6.489 -2.1806 -0.7442  0.3071
 4486SOL    HW225113   5.617   7.588   6.474  0.2917  1.7756 -0.0201
 4487SOL     OW25114   4.090   3.937   5.768  0.1397  0.1503 -0.1078
 4487SOL    HW125115   4.027   3.983   5.830  1.6927  2.0392  0.1058
 4487SOL    HW225116   4.080   3.973   5.675  0.6496  0.2252 -0.1404
 4488SOL     OW25117   2.017   9.845   4.472  0.0822 -0.3751 -0.1777
 4488SOL    HW125118   1.925   9.870   4.503  0.3847  0.8537 -0.2463
 4488SOL    HW225119   2.031   9.881   4.379  1.0438  0.4283  0.2745
 4489SOL     OW25120   3.252   4.350   6.149 -0.0575 -0.1029  0.0399
 4489SOL    HW125121   3.282   4.411   6.222 -1.6654 -0.2530  0.8376
 4489SOL    HW225122   3.230   4.260   6.187  1.4689 -0.9526 -0.9970
 4490SOL     OW25123   1.906   1.974   0.435 -0.4629 -0.1013 -0.5860
 4490SOL    HW125124   1.968   2.043   0.473 -1.7577  0.5647  0.3383
 4490SOL    HW225125   1.818   2.016   0.414 -0.5142 -0.9842 -2.1790
 4491SOL     OW25126   7.031   5.671   6.427 -0.5190 -0.1769 -0.1589
 4491SOL    HW125127   7.049   5.713   6.337 -1.2102 -1.2397 -0.8059
 4491SOL    HW225128   6.932   5.669   6.443 -0.3645  0.7860  1.0201
 4492SOL     OW25129   3.713   7.848   7.219 -0.2832 -0.0386  0.0074
 4492SOL    HW125130   3.731   7.810   7.128  1.6240  0.5161  0.1423
 4492SOL    HW225131   3.751   7.940   7.225 -1.6193  0.4669  0.9220
 4493SOL     OW25132   5.529   2.003   4.092  0.2798 -0.0778 -0.0575
 4493SOL    HW125133   5.504   2.075   4.156  1.2849 -0.5493  0.8792
 4493SOL    HW225134   5.620   2.023   4.054 -0.0539 -0.1083 -0.8812
 4494SOL     OW25135   4.673   9.003   7.095 -0.6430  0.3218 -0.0560
 4494SOL    HW125136   4.625   8.918   7.116 -4.1584  1.9380 -1.1393
 4494SOL    HW225137   4.695   9.051   7.180 -1.1345 -0.3256  0.4384
 4495SOL     OW25138   2.120   5.700   6.481  0.0467  0.3814  0.1773
 4495SOL    HW125139   2.113   5.777   6.545 -0.2689 -0.3478  1.0368
 4495SOL    HW225140   2.149   5.618   6.531 -0.9681 -0.3871 -0.4678
 4496SOL     OW25141   4.925   0.842   4.345  0.1547  0.2982 -0.4059
 4496SOL    HW125142   4.937   0.746   4.370 -0.5966 -0.0445 -1.3477
 4496SOL    HW225143   5.015   0.886   4.339  0.4180  0.0286  1.4602
 4497SOL     OW25144   3.573   5.867   0.433 -0.2922  0.4123 -0.0612
 4497SOL    HW125145   3.606   5.961   0.439 -1.1996  0.7268  0.1596
 4497SOL    HW225146   3.611   5.823   0.352  0.0763  0.9941 -0.2100
 4498SOL     OW25147   7.894   0.852   8.131 -0.6526 -0.2265 -0.0197
 4498SOL    HW125148   7.970   0.789   8.113 -1.5060 -1.3458  0.2438
 4498SOL    HW225149   7.808   0.807   8.110 -1.1674  1.7252 -2.2445
 4499SOL     OW25150   9.480   0.465   0.671 -0.2929  0.0246 -0.1401
 4499SOL    HW125151   9.413   0.391   0.666 -0.5060  0.1997  0.1062
 4499SOL    HW225152   9.572   0.427   0.664 -0.4088 -0.2346 -0.3013
 4500SOL     OW25153   5.890   5.981   1.742  0.5724 -0.6507 -0.2150
 4500SOL    HW125154   5.925   5.934   1.661  2.5364  0.4463 -0.0406
 4500SOL    HW225155   5.924   5.936   1.824  0.4830 -0.3843 -0.0315
 4501SOL     OW25156   2.882   8.610   2.818 -0.0884  0.8186 -0.3635
 4501SOL    HW125157   2.808   8.635   2.755  0.9461 -0.5072 -2.1666
 4501SOL    HW225158   2.890   8.511   2.821 -0.1916  0.8517  2.0162
 4502SOL     OW25159   4.946   9.580   2.209 -0.1385 -0.6327 -0.1153
 4502SOL    HW125160   4.878   9.627   2.265 -0.4979 -1.7809  0.4352
 4502SOL    HW225161   5.027   9.638   2.199 -1.3238  0.8936 -1.0742
 4503SOL     OW25162   4.491   7.289   2.600  0.1311 -0.5142 -0.0177
 4503SOL    HW125163   4.590   7.297   2.608  0.1497 -0.4096 -0.3542
 4503SOL    HW225164   4.453   7.373   2.561  0.0130 -0.9217 -0.7977
 4504SOL     OW25165   8.401   6.504   5.267 -0.0283 -0.1734 -0.3166
 4504SOL    HW125166   8.436   6.509   5.361 -0.5828 -0.7084 -0.0722
 4504SOL    HW225167   8.348   6.585   5.247 -0.6930 -0.4822  0.1630
 4505SOL     OW25168   0.502   5.471   1.238 -0.3068 -0.5892 -0.1335
 4505SOL    HW125169   0.526   5.416   1.158  1.4163  2.0125 -1.4626
 4505SOL    HW225170   0.431   5.537   1.213 -1.3003 -1.1963  1.0593
 4506SOL     OW25171   9.065   5.216   4.988 -0.1293 -0.7591  0.2278
 4506SOL    HW125172   9.067   5.155   4.909  0.8885  0.1323 -0.4477
 4506SOL    HW225173   9.159   5.240   5.014 -0.4653 -0.7461  1.4872
 4507SOL     OW25174   9.585   8.527   6.734  0.0111  0.0621 -0.3527
 4507SOL    HW125175   9.645   8.509   6.657 -0.0101 -0.4145 -0.2618
 4507SOL    HW225176   9.494   8.488   6.715  0.2757 -0.9112  0.3079
 4508SOL     OW25177   2.938   4.452   7.448  0.2434  0.3735 -0.3959
 4508SOL    HW125178   2.860   4.440   7.509  0.1429  2.9916  0.0237
 4508SOL    HW225179   2.989   4.534   7.474 -0.2119  2.0067 -4.2773
 4509SOL     OW25180   2.000   4.580   5.726  0.4131 -0.2655 -0.5012
 4509SOL    HW125181   2.055   4.592   5.643 -2.1993 -0.9539 -2.3967
 4509SOL    HW225182   1.979   4.669   5.766  2.8179  0.0026  0.2153
 4510SOL     OW25183   1.106   6.071   2.745  0.0010  0.0182  0.7594
 4510SOL    HW125184   1.008   6.080   2.759 -0.2787  1.8922 -1.9653
 4510SOL    HW225185   1.148   6.162   2.743  1.3895 -0.6384 -0.6482
 4511SOL     OW25186   9.940   6.135   5.084 -0.1286  0.5901  0.3498
 4511SOL    HW125187   9.842   6.151   5.094 -0.5016 -1.0292 -0.4782
 4511SOL    HW225188   9.965   6.051   5.132  0.9173  1.1662  0.8198
 4512SOL     OW25189   9.512   7.777   1.808  0.0828 -0.0347  0.3420
 4512SOL    HW125190   9.604   7.748   1.780 -0.2260 -0.9154  0.2275
 4512SOL    HW225191   9.502   7.875   1.793  1.5823  0.3864  1.9435
 4513SOL     OW25192   1.288   0.912   4.111  0.5826 -0.4654 -0.4822
 4513SOL    HW125193   1.244   0.977   4.049 -0.4441  0.2772  0.9973
 4513SOL    HW225194   1.219   0.854   4.154  1.0617  0.3338  1.4358
 4514SOL     OW25195   4.414   6.252   3.158  0.0730 -0.2188  0.4421
 4514SOL    HW125196   4.410   6.167   3.106  0.9509  0.6641 -1.0930
 4514SOL    HW225197   4.369   6.325   3.107  1.3299  0.7569  0.7094
 4515SOL     OW25198   0.666   8.467   1.480  0.1655  0.2330 -0.1708
 4515SOL    HW125199   0.676   8.556   1.523 -0.0446  0.2297 -0.1093
 4515SOL    HW225200   0.604   8.474   1.402 -0.9245 -0.1167  0.6493
 4516SOL     OW25201   2.731   7.109   5.516  0.0492 -0.0822 -0.3454
 4516SOL    HW125202   2.753   7.158   5.432  0.6070 -0.3538 -0.3590
 4516SOL    HW225203   2.730   7.010   5.498 -1.1844 -0.0796 -0.3441
 4517SOL     OW25204   7.761   1.173   3.438  0.0451  0.1907 -0.1597
 4517SOL    HW125205   7.751   1.260   3.391 -0.6103 -0.7683 -1.8333
 4517SOL    HW225206   7.670   1.134   3.454  0.3439 -0.2469  0.5001
 4518SOL     OW25207   7.942   3.808   0.908 -0.0867 -0.0407  0.5720
 4518SOL    HW125208   7.946   3.753   0.824  1.9023 -0.3116  0.8274
 4518SOL    HW225209   8.033   3.841   0.931 -0.7930  0.9553  2.0419
 4519SOL     OW25210   4.886   6.951   1.220  0.2184 -0.0134  0.1316
 4519SOL    HW125211   4.856   7.046   1.222 -1.2452 -0.4705  0.0228
 4519SOL    HW225212   4.885   6.914   1.313 -0.5297 -0.3294 -0.0010
 4520SOL     OW25213   3.430   9.950   6.882 -0.0555 -0.1000  0.3013
 4520SOL    HW125214   3.491  10.002   6.821 -1.4581  1.4867  0.2070
 4520SOL    HW225215   3.383  10.013   6.943  0.7333 -1.6135  2.5240
 4521SOL     OW25216   2.443   6.744   3.826 -0.2307  0.2027 -0.4172
 4521SOL    HW125217   2.486   6.727   3.738  1.2375 -1.4158  0.5895
 4521SOL    HW225218   2.353   6.786   3.812  0.0967  0.1920 -2.6538
 4522SOL     OW25219   5.727   1.843   0.227 -0.4731  0.5090 -0.2550
 4522SOL    HW125220   5.747   1.879   0.135 -2.0765  1.6353 -0.1885
 4522SOL    HW225221   5.807   1.852   0.285  1.0417 -1.5833 -1.9623
 4523SOL     OW25222   0.708   3.326   5.738 -0.1531 -0.0739 -0.2471
 4523SOL    HW125223   0.742   3.235   5.711 -0.7311 -0.2234 -0.4720
 4523SOL    HW225224   0.724   3.339   5.836 -0.4553 -0.5943 -0.1234
 4524SOL     OW25225   0.960   5.323   2.833  0.2760 -0.1197 -0.1910
 4524SOL    HW125226   1.020   5.325   2.912  0.8487  0.2329 -0.6308
 4524SOL    HW225227   0.865   5.325   2.863  0.4950  0.2762  0.4772
 4525SOL     OW25228   4.632   0.145   5.072 -0.6310  0.0186 -0.4046
 4525SOL    HW125229   4.591   0.056   5.093  1.0763 -0.7719 -0.3626
 4525SOL    HW225230   4.560   0.215   5.071 -1.6589 -0.9476  1.9116
 4526SOL     OW25231   4.985   2.854   3.569 -0.2180  0.1492  0.4496
 4526SOL    HW125232   4.942   2.849   3.658 -0.6496 -0.1177  0.2264
 4526SOL    HW225233   4.988   2.949   3.538  2.7484  0.6582  2.1255
 4527SOL     OW25234   5.522   2.588   0.212  0.4099 -0.1760 -0.9791
 4527SOL    HW125235   5.458   2.665   0.201  0.3663  0.2115  1.6077
 4527SOL    HW225236   5.614   2.618   0.187  0.2332  0.4500 -0.8970
 4528SOL     OW25237   9.056   7.787   4.251 -0.6863  0.1671  0.2287
 4528SOL    HW125238   9.092   7.784   4.157 -0.8816  2.3390  0.0611
 4528SOL    HW225239   8.985   7.717   4.261  0.4436 -1.1614 -0.7596
 4529SOL     OW25240   0.164   0.328   0.838 -0.0254 -0.4475 -0.7873
 4529SOL    HW125241   0.235   0.293   0.777 -0.5871 -0.6874 -1.3061
 4529SOL    HW225242   0.083   0.271   0.831 -1.0511  1.1079 -1.8648
 4530SOL     OW25243   2.708   9.808   5.964 -0.1645  0.8232  0.4607
 4530SOL    HW125244   2.710   9.907   5.953 -0.1094  0.6915 -0.9154
 4530SOL    HW225245   2.796   9.770   5.934 -1.8454 -0.0356 -3.7536
 4531SOL     OW25246   8.785   9.476   0.600 -0.0997 -0.7131 -0.3093
 4531SOL    HW125247   8.833   9.503   0.516 -0.3774  0.5238 -0.0771
 4531SOL    HW225248   8.852   9.450   0.669  0.2512  1.1070  0.0448
 4532SOL     OW25249   5.649   9.222   2.320  0.6041 -0.3411  0.2415
 4532SOL    HW125250   5.681   9.257   2.232 -1.7189  1.7561  0.1640
 4532SOL    HW225251   5.660   9.123   2.323  2.0050 -0.2724 -1.8417
 4533SOL     OW25252   6.332   8.997   5.906 -0.2725 -0.3995  0.1015
 4533SOL    HW125253   6.374   8.918   5.949  1.0312  0.1575 -0.1146
 4533SOL    HW225254   6.285   9.053   5.975  0.4462 -0.3497  0.5509
 4534SOL     OW25255   4.271   2.565   7.646 -0.0581  0.0903 -0.0819
 4534SOL    HW125256   4.350   2.537   7.701 -1.5728  0.0025  2.0760
 4534SOL    HW225257   4.190   2.516   7.677 -0.9560  0.0415 -2.4133
 4535SOL     OW25258   7.702   8.539   4.208  0.3097  0.1445  0.4176
 4535SOL    HW125259   7.704   8.467   4.277  0.8610  0.0811  0.3401
 4535SOL    HW225260   7.791   8.543   4.161  0.2618  0.8263  0.3764
 4536SOL     OW25261   4.470   4.308   6.360  0.8139  1.0245  0.1437
 4536SOL    HW125262   4.558   4.309   6.313 -0.0723  1.0899 -1.5470
 4536SOL    HW225263   4.458   4.394   6.409  1.6322  1.0692  0.2667
 4537SOL     OW25264   8.038   1.198   1.123  0.8342 -0.6807 -0.5528
 4537SOL    HW125265   7.965   1.144   1.163  1.1934 -2.9734 -2.8527
 4537SOL    HW225266   8.114   1.205   1.187 -0.7799  0.5257  1.2998
 4538SOL     OW25267   2.815   6.867   2.310 -0.0208  0.3756  0.2323
 4538SOL    HW125268   2.856   6.907   2.228 -0.9210 -1.0593 -0.9479
 4538SOL    HW225269   2.751   6.932   2.350 -1.7762  0.0058 -1.8994
 4539SOL     OW25270   1.449   4.018   3.841 -0.0552 -0.4246  0.2716
 4539SOL    HW125271   1.537   4.019   3.794 -0.6426 -1.4589 -0.8707
 4539SOL    HW225272   1.378   3.988   3.778 -1.0519 -0.6626  1.4965
 4540SOL     OW25273   8.139   0.125   0.641 -0.0296 -0.3060  0.2654
 4540SOL    HW125274   8.044   0.114   0.668 -0.0905 -2.3063 -0.6712
 4540SOL    HW225275   8.193   0.049   0.678  0.5597 -1.0491 -2.0330
 4541SOL     OW25276   8.994   4.215   5.440  0.4089 -0.3042  0.2887
 4541SOL    HW125277   8.910   4.266   5.419  0.0231 -0.8283  0.5332
 4541SOL    HW225278   9.072   4.260   5.397 -0.0851 -0.1635 -0.4796
 4542SOL     OW25279   9.890   2.250   2.523 -0.2944 -0.1266 -0.2505
 4542SOL    HW125280   9.916   2.342   2.550 -2.2977  0.4126 -0.1182
 4542SOL    HW225281   9.916   2.185   2.595 -1.5595  0.7216  0.9862
 4543SOL     OW25282   2.532   6.560   5.287  0.4299  0.2281 -0.0716
 4543SOL    HW125283   2.610   6.527   5.340  0.4151 -0.2300 -0.3333
 4543SOL    HW225284   2.448   6.550   5.342  0.6924  1.7544  0.6344
 4544SOL     OW25285   0.036   6.991   3.731  0.5335 -0.6531  0.0807
 4544SOL    HW125286   0.041   6.904   3.779  0.4929 -1.3117 -1.0983
 4544SOL    HW225287  -0.053   7.034   3.746  0.4688 -0.9265  0.4628
 4545SOL     OW25288   9.288   3.004   0.300 -0.5611 -0.7807 -0.1465
 4545SOL    HW125289   9.216   2.990   0.367 -2.5625 -0.0713 -2.0986
 4545SOL    HW225290   9.252   2.989   0.208  0.8336  2.9705 -1.4128
 4546SOL     OW25291   9.619   5.917   2.289  0.3282 -0.3333  0.1960
 4546SOL    HW125292   9.615   5.842   2.355  0.4662 -0.4461  0.0771
 4546SOL    HW225293   9.627   5.880   2.197  1.3311 -0.1650  0.2078
 4547SOL     OW25294   9.366   2.261   3.906 -0.5406  0.1757  0.1497
 4547SOL    HW125295   9.355   2.361   3.903 -2.1489  0.0357  0.6128
 4547SOL    HW225296   9.424   2.232   3.830 -2.3266  1.2159 -1.7130
 4548SOL     OW25297   6.253   5.299   8.131 -0.6365 -0.4684 -0.0219
 4548SOL    HW125298   6.231   5.302   8.033 -0.1374  4.6341 -0.1391
 4548SOL    HW225299   6.351   5.316   8.144 -0.7799 -0.6235  1.3851
 4549SOL     OW25300   0.423   6.598   7.150  0.5473  0.2689 -0.1670
 4549SOL    HW125301   0.382   6.534   7.214  2.0944 -3.4868 -2.7062
 4549SOL    HW225302   0.522   6.599   7.163  0.6791  1.0033 -1.1706
 4550SOL     OW25303   8.183   3.033   3.912  0.2879  0.2203  0.0291
 4550SOL    HW125304   8.231   2.972   3.976 -0.3030  0.6754  0.9180
 4550SOL    HW225305   8.190   2.996   3.819  0.6946 -0.7391  0.4322
 4551SOL     OW25306   0.591   6.013   3.160 -0.0691 -0.2195  0.1792
 4551SOL    HW125307   0.522   5.962   3.109 -0.3876  1.3959 -1.0646
 4551SOL    HW225308   0.632   5.954   3.230 -1.8689 -1.5381  0.1527
 4552SOL     OW25309   0.559   2.116   1.846 -0.2256 -0.6639  0.5660
 4552SOL    HW125310   0.550   2.094   1.749 -1.1914 -0.3197  0.5752
 4552SOL    HW225311   0.570   2.215   1.857  1.4129 -0.8444  0.7094
 4553SOL     OW25312   2.931   2.261   0.452 -0.4296 -0.0476  0.2300
 4553SOL    HW125313   2.881   2.259   0.539  0.6681 -0.0640  0.8723
 4553SOL    HW225314   2.941   2.167   0.418  1.7358 -0.3580  1.6188
 4554SOL     OW25315   9.373   9.936   4.127 -0.3616 -0.2955  0.2633
 4554SOL    HW125316   9.320   9.897   4.203 -0.2151  1.8595  1.5132
 4554SOL    HW225317   9.469   9.940   4.152 -0.4869  1.6784  0.5485
 4555SOL     OW25318   7.876   5.279   6.955 -0.5275 -0.4092 -0.1918
 4555SOL    HW125319   7.953   5.342   6.955 -0.1799 -0.8336 -0.0011
 4555SOL    HW225320   7.825   5.289   7.041 -0.6208 -0.2098 -0.2702
 4556SOL     OW25321   3.764   9.688   6.753 -0.1881  0.4025 -0.5393
 4556SOL    HW125322   3.772   9.686   6.853 -1.8585  1.3630 -0.3724
 4556SOL    HW225323   3.684   9.635   6.724  1.5607 -1.7763 -1.5549
 4557SOL     OW25324   9.116   9.736   5.833 -0.2365 -0.7687  0.5021
 4557SOL    HW125325   9.031   9.760   5.787 -0.3249 -0.2374  0.9439
 4557SOL    HW225326   9.124   9.636   5.837 -2.3888 -0.8928  3.2255
 4558SOL     OW25327   2.133   3.247   0.278 -0.0549  0.5074 -0.5433
 4558SOL    HW125328   2.147   3.192   0.360 -1.5981  0.9494  0.0265
 4558SOL    HW225329   2.155   3.342   0.297 -0.4206  0.6131 -0.6488
 4559SOL     OW25330   5.148   0.956   3.647 -0.7471  0.2588 -0.2759
 4559SOL    HW125331   5.103   0.867   3.645  0.6239 -0.4620  0.5063
 4559SOL    HW225332   5.202   0.968   3.564 -0.3843  0.0635 -0.0709
 4560SOL     OW25333   0.624   7.388   5.600  0.3795 -0.1409  0.4133
 4560SOL    HW125334   0.672   7.418   5.517  1.1432 -0.0629  0.8829
 4560SOL    HW225335   0.600   7.467   5.656 -1.7292 -0.0351 -0.5729
 4561SOL     OW25336   4.388   1.115   4.479 -0.8894 -0.7066 -0.0818
 4561SOL    HW125337   4.460   1.077   4.537 -0.5860 -1.0501 -0.6864
 4561SOL    HW225338   4.417   1.204   4.443 -1.2903 -0.2419  0.7069
 4562SOL     OW25339   5.234   3.604   1.283 -0.0743  0.0579 -0.4216
 4562SOL    HW125340   5.309   3.656   1.244 -0.7996  1.0778 -0.4726
 4562SOL    HW225341   5.222   3.519   1.231  1.0131 -0.0980 -0.4277
 4563SOL     OW25342   4.107   7.812   1.424  0.0821  0.0802  0.4874
 4563SOL    HW125343   4.067   7.730   1.382  0.8119  0.4528 -0.9206
 4563SOL    HW225344   4.046   7.890   1.409  0.3072  0.1975  0.1861
 4564SOL     OW25345   3.152   3.091   0.661  0.0566 -0.3933  0.1261
 4564SOL    HW125346   3.056   3.120   0.659  0.0115 -0.3875  1.7853
 4564SOL    HW225347   3.179   3.061   0.570 -1.3105  0.2977 -0.5269
 4565SOL     OW25348   0.798   6.327   6.922  0.0823  0.3606  0.2620
 4565SOL    HW125349   0.716   6.347   6.867  0.3155  2.0193  0.4920
 4565SOL    HW225350   0.837   6.239   6.893 -0.6550  0.5056 -1.2102
 4566SOL     OW25351   7.621   5.348   1.125 -0.7232  0.4421 -0.1734
 4566SOL    HW125352   7.542   5.346   1.064 -0.5897  1.3029 -0.3723
 4566SOL    HW225353   7.677   5.428   1.105 -0.3968  0.4401  0.7203
 4567SOL     OW25354   1.571   1.543   4.940  0.5600  0.3863  0.3448
 4567SOL    HW125355   1.482   1.499   4.925  1.5389 -1.6955  0.4509
 4567SOL    HW225356   1.589   1.549   5.038  1.3063 -0.8465  0.2984
 4568SOL     OW25357   9.742   1.132   1.165 -0.0567  0.1617  0.1241
 4568SOL    HW125358   9.673   1.111   1.234  1.5764 -0.1580  1.6976
 4568SOL    HW225359   9.743   1.231   1.147 -0.3855  0.2608  0.6599
 4569SOL     OW25360   5.650   8.153   3.161  0.1450  0.2231  0.3980
 4569SOL    HW125361   5.558   8.167   3.198  1.2430  0.1014  3.3086
 4569SOL    HW225362   5.646   8.086   3.088 -1.8717 -0.9879  1.5536
 4570SOL     OW25363   1.193   9.374   6.194 -0.0284  0.2223  0.5136
 4570SOL    HW125364   1.281   9.406   6.229  0.0551  2.1182 -1.2967
 4570SOL    HW225365   1.205   9.344   6.099 -1.3528  0.5660  0.2362
 4571SOL     OW25366   4.473   7.672   4.322 -0.3860  0.6573 -0.4387
 4571SOL    HW125367   4.386   7.638   4.358 -0.2107 -2.1341 -2.4706
 4571SOL    HW225368   4.457   7.717   4.234 -0.0375  1.9558  0.1615
 4572SOL     OW25369   8.324   6.988   4.110  0.5819 -0.1781 -0.1588
 4572SOL    HW125370   8.245   6.973   4.051 -0.5369 -0.7610  1.4624
 4572SOL    HW225371   8.399   6.930   4.080 -0.2441 -1.0702 -0.5273
 4573SOL     OW25372   8.083   3.068   6.719  0.3155 -0.4170  0.4245
 4573SOL    HW125373   7.998   3.074   6.666  0.6854  2.2957  0.0312
 4573SOL    HW225374   8.068   3.104   6.811  0.8274 -0.6491  0.5997
 4574SOL     OW25375   0.780   9.607   1.604  0.1435  0.2727 -0.4905
 4574SOL    HW125376   0.821   9.639   1.690  1.0236 -2.1939  0.0660
 4574SOL    HW225377   0.682   9.593   1.618  0.0249  1.2373 -0.3099
 4575SOL     OW25378   2.120   9.607   4.495  0.4517 -0.0358  1.2065
 4575SOL    HW125379   2.169   9.588   4.410  0.4550 -0.0695  1.2160
 4575SOL    HW225380   2.077   9.698   4.490 -1.4978 -0.9852  0.2601
 4576SOL     OW25381   8.848   6.275   0.957  0.1880  0.9153 -0.0069
 4576SOL    HW125382   8.821   6.372   0.954  1.1021  1.1767 -0.0195
 4576SOL    HW225383   8.891   6.255   1.045  1.8510  1.0312 -0.7766
 4577SOL     OW25384   8.973   2.194   4.184  0.9567  0.4620 -0.0585
 4577SOL    HW125385   9.046   2.152   4.238  3.1658  3.2210 -0.8317
 4577SOL    HW225386   8.999   2.196   4.088 -0.2223  1.3189 -0.3707
 4578SOL     OW25387   8.329   6.242   1.367 -0.2325  0.2049 -0.2686
 4578SOL    HW125388   8.306   6.201   1.279 -0.3659  0.8836 -0.5589
 4578SOL    HW225389   8.246   6.265   1.416 -0.1688 -2.7840  1.3013
 4579SOL     OW25390   4.516   0.665   3.614 -0.5953  0.3211 -0.1643
 4579SOL    HW125391   4.446   0.624   3.671 -0.0857 -1.2056 -0.6051
 4579SOL    HW225392   4.552   0.596   3.550  0.4195  1.3999 -0.7856
 4580SOL     OW25393   3.890   0.824   2.016  0.7217 -0.1382 -0.0684
 4580SOL    HW125394   3.920   0.747   1.960  0.9657  0.2434 -0.4740
 4580SOL    HW225395   3.797   0.851   1.990  0.2519 -0.9353  0.7707
 4581SOL     OW25396   3.292   7.295   7.150  0.3709 -0.6409  0.4142
 4581SOL    HW125397   3.337   7.348   7.222 -0.1677  0.6399 -0.1683
 4581SOL    HW225398   3.207   7.341   7.123  0.7390 -0.9105 -1.2762
 4582SOL     OW25399   9.726   7.274   6.836 -0.8342 -0.0692  0.1941
 4582SOL    HW125400   9.748   7.177   6.843  0.4396  0.1860  0.0194
 4582SOL    HW225401   9.693   7.294   6.744  1.1692  0.0581 -0.5361
 4583SOL     OW25402   3.385   0.775   5.706 -0.0376 -0.6518 -0.3768
 4583SOL    HW125403   3.400   0.870   5.681 -0.9446 -0.0039  1.4311
 4583SOL    HW225404   3.432   0.715   5.641  0.0117  1.0025 -1.9055
 4584SOL     OW25405   4.123   1.854   3.075  0.0981 -0.2061  0.0204
 4584SOL    HW125406   4.115   1.765   3.030 -0.5234 -0.4497  0.5952
 4584SOL    HW225407   4.049   1.864   3.141  0.8505  0.2555  0.8002
 4585SOL     OW25408   9.854   9.214   0.487 -0.0464  0.6175  0.2064
 4585SOL    HW125409   9.942   9.174   0.511  0.2198 -0.3863 -2.2592
 4585SOL    HW225410   9.844   9.304   0.530  1.2265 -0.2204  2.2702
 4586SOL     OW25411   7.417   2.602   1.118  0.2035  0.0002 -0.0012
 4586SOL    HW125412   7.407   2.674   1.186 -1.3479 -0.0593 -0.1541
 4586SOL    HW225413   7.327   2.574   1.085  0.9364  0.3103 -2.3696
 4587SOL     OW25414   6.133   7.506   4.968 -0.3107 -0.5811  0.2672
 4587SOL    HW125415   6.055   7.567   4.955 -0.3255 -0.7162 -0.3128
 4587SOL    HW225416   6.162   7.508   5.064 -0.8218 -0.2856  0.4177
 4588SOL     OW25417   1.828   9.019   4.538  0.5984 -0.3321  0.6915
 4588SOL    HW125418   1.748   9.005   4.479 -0.3275 -1.9440  2.2445
 4588SOL    HW225419   1.814   9.101   4.594  0.5082 -0.0250  0.2206
 4589SOL     OW25420   3.728   0.893   6.133  0.0977  0.0056 -0.4220
 4589SOL    HW125421   3.727   0.796   6.109 -0.3062  0.5423 -2.7399
 4589SOL    HW225422   3.787   0.907   6.212 -2.0607 -2.4960  1.7461
 4590SOL     OW25423   2.497   2.509   8.175  0.1631 -0.4388 -0.6450
 4590SOL    HW125424   2.548   2.591   8.149  1.0843 -0.3610  1.3072
 4590SOL    HW225425   2.401   2.520   8.149  0.7287  0.2517 -2.5469
 4591SOL     OW25426   9.880   1.108   0.257  0.2210 -0.0003  0.2891
 4591SOL    HW125427   9.935   1.069   0.184  0.2457 -1.2945  0.9866
 4591SOL    HW225428   9.932   1.179   0.304  0.3646  0.5290 -0.6588
 4592SOL     OW25429   1.279   6.086   2.370  0.1337 -0.2670 -0.3910
 4592SOL    HW125430   1.180   6.080   2.361  0.4049 -1.3701 -2.9366
 4592SOL    HW225431   1.303   6.095   2.467 -2.4197 -0.1400  0.2667
 4593SOL     OW25432   6.493   3.078   1.359 -0.1078 -0.2951 -0.2664
 4593SOL    HW125433   6.523   3.095   1.453  1.2321 -0.2926 -0.6814
 4593SOL    HW225434   6.481   3.165   1.312  1.0662 -0.3234 -0.6470
 4594SOL     OW25435   1.179   1.487   4.018  0.3083 -0.0538  0.2083
 4594SOL    HW125436   1.097   1.515   4.069 -0.8151 -0.3800 -1.3772
 4594SOL    HW225437   1.258   1.539   4.051 -0.7788  1.2476  0.8430
 4595SOL     OW25438   1.635   8.183   8.170 -0.2327  0.3189 -0.1289
 4595SOL    HW125439   1.559   8.211   8.112 -0.8941  2.5556  1.7436
 4595SOL    HW225440   1.599   8.154   8.259  0.9996  0.0355  0.2833
 4596SOL     OW25441   7.746   7.318   7.024  0.0395  0.4938  0.1166
 4596SOL    HW125442   7.700   7.361   6.946 -0.1079 -0.6880 -0.4535
 4596SOL    HW225443   7.678   7.288   7.090  0.1551  1.3472  0.6260
 4597SOL     OW25444   3.825   9.442   3.580  0.3335 -0.4151  0.4168
 4597SOL    HW125445   3.806   9.516   3.517 -0.8182  0.2085  1.4657
 4597SOL    HW225446   3.789   9.465   3.671  2.7794 -0.8762  1.5528
 4598SOL     OW25447   2.253   2.781   0.346  0.1832 -0.3509 -0.4246
 4598SOL    HW125448   2.218   2.821   0.261 -1.6168 -0.0314  0.4456
 4598SOL    HW225449   2.292   2.692   0.327  1.0580  0.3052 -1.8175
 4599SOL     OW25450   1.736   9.049   7.769  0.1284  0.5912  0.3857
 4599SOL    HW125451   1.702   8.959   7.738  0.7992  0.6654 -0.5835
 4599SOL    HW225452   1.684   9.078   7.849  1.4983 -1.7593  2.1742
 4600SOL     OW25453   9.134   6.437   4.285  0.0126 -0.3317  0.1567
 4600SOL    HW125454   9.061   6.474   4.228 -0.8794 -1.1437  0.7404
 4600SOL    HW225455   9.208   6.503   4.293 -0.4999  0.3543 -0.7530
 4601SOL     OW25456   3.669   4.937   1.602  0.1766 -0.1165  0.2211
 4601SOL    HW125457   3.727   4.958   1.680 -0.1999 -2.2027  1.0980
 4601SOL    HW225458   3.709   4.862   1.550 -0.5157  0.0287 -0.5387
 4602SOL     OW25459   6.208   8.945   6.747  0.3128  0.5285 -0.0359
 4602SOL    HW125460   6.284   8.996   6.787  0.6817  0.1022 -0.2061
 4602SOL    HW225461   6.233   8.850   6.735 -1.1744 -0.2483  2.5168
 4603SOL     OW25462   9.023   2.304   4.791 -0.5188  0.0612  0.0282
 4603SOL    HW125463   9.098   2.278   4.730 -0.8442  0.4891 -0.5621
 4603SOL    HW225464   9.056   2.310   4.885 -0.0417 -0.7451 -0.0841
 4604SOL     OW25465   3.713   1.814   7.936 -0.2324 -0.3961  0.4072
 4604SOL    HW125466   3.716   1.889   7.871 -0.8509  0.2380  1.1042
 4604SOL    HW225467   3.728   1.849   8.029 -1.8627 -0.9138  0.8967
 4605SOL     OW25468   2.993   3.127   1.122 -0.0387 -0.5355 -0.3656
 4605SOL    HW125469   2.937   3.048   1.146  0.0580 -0.2531  0.8354
 4605SOL    HW225470   2.958   3.208   1.169  0.6587 -0.1210 -0.5502
 4606SOL     OW25471   3.580   4.304   3.093 -0.3626 -0.0834  0.3946
 4606SOL    HW125472   3.543   4.385   3.047 -0.6107 -1.4060 -1.8639
 4606SOL    HW225473   3.510   4.233   3.096 -0.6497  0.2592  3.7362
 4607SOL     OW25474   8.654   4.098   2.039 -0.2045 -0.4492  0.7324
 4607SOL    HW125475   8.632   4.179   2.093  1.6524  2.0693 -2.1456
 4607SOL    HW225476   8.732   4.050   2.080  0.0116  0.3730  1.2866
 4608SOL     OW25477   0.781   8.722   3.293 -0.0371  0.2905  0.1450
 4608SOL    HW125478   0.712   8.751   3.226  0.0992  1.9176  0.6821
 4608SOL    HW225479   0.826   8.639   3.260 -1.5621 -0.2198 -0.6843
 4609SOL     OW25480   0.905   5.720   7.952  0.2509 -0.2900  0.0306
 4609SOL    HW125481   0.928   5.721   8.049  1.5075  1.5564 -0.2409
 4609SOL    HW225482   0.843   5.796   7.932 -0.5935 -1.1133 -0.4772
 4610SOL     OW25483   0.858   8.979   4.272  0.5167 -0.2383  0.2106
 4610SOL    HW125484   0.955   8.992   4.251  0.5736 -0.3657  0.3955
 4610SOL    HW225485   0.804   9.000   4.191  0.6896 -0.0236  0.1507
 4611SOL     OW25486   3.519   6.329   2.736  0.1920 -0.4331  0.5881
 4611SOL    HW125487   3.531   6.427   2.723 -4.4091  0.1446  0.1749
 4611SOL    HW225488   3.489   6.287   2.650 -0.0892 -1.8111  1.3505
 4612SOL     OW25489   7.143   7.071   7.115  0.1146 -0.0506  0.3306
 4612SOL    HW125490   7.176   6.982   7.148 -1.0949 -0.5495  0.2252
 4612SOL    HW225491   7.048   7.082   7.142  0.0191  0.8594 -0.3952
 4613SOL     OW25492   5.609   0.972   1.156 -0.1002 -0.2017 -0.3052
 4613SOL    HW125493   5.620   0.944   1.251  1.2409 -2.2453 -1.0309
 4613SOL    HW225494   5.518   0.948   1.124 -0.2874 -0.2075  0.2242
 4614SOL     OW25495   6.829   1.313   5.953 -0.0189 -0.0529  0.4685
 4614SOL    HW125496   6.878   1.398   5.936 -2.2293  1.5136  1.7339
 4614SOL    HW225497   6.886   1.254   6.011  1.9205  0.1179 -1.1970
 4615SOL     OW25498   8.501   0.487   2.321 -0.2472  0.0947 -0.2002
 4615SOL    HW125499   8.479   0.464   2.415  0.6457  1.1228  0.2730
 4615SOL    HW225500   8.558   0.569   2.319 -1.2994  0.8160 -1.7024
 4616SOL     OW25501   7.867   4.796   3.092 -0.5814 -0.2683  0.1588
 4616SOL    HW125502   7.868   4.765   2.996  1.3936 -1.2249  0.4514
 4616SOL    HW225503   7.832   4.722   3.150  0.4610 -0.5609  0.4261
 4617SOL     OW25504   0.536   2.252   0.908  0.1621 -0.3400  0.8817
 4617SOL    HW125505   0.469   2.183   0.884  0.4520 -0.1575 -0.4832
 4617SOL    HW225506   0.619   2.208   0.943  1.2377 -0.8404 -2.1524
 4618SOL     OW25507   9.264   3.635   5.525  0.6970 -0.1756 -0.1163
 4618SOL    HW125508   9.269   3.535   5.523 -1.7784 -0.3148 -2.6553
 4618SOL    HW225509   9.324   3.672   5.454 -1.4442 -0.0883 -1.9453
 4619SOL     OW25510   4.535   2.156   1.033  0.4816  0.3840 -0.0574
 4619SOL    HW125511   4.470   2.081   1.028  0.9337 -0.0210  0.1167
 4619SOL    HW225512   4.514   2.224   0.963 -0.8590  0.8301  0.7576
 4620SOL     OW25513   0.694   1.137   8.130  0.1141  0.0535  0.1789
 4620SOL    HW125514   0.758   1.191   8.076  0.0039  0.0642  0.0595
 4620SOL    HW225515   0.618   1.195   8.159  0.6406  0.2862  1.1336
 4621SOL     OW25516   3.467   4.119   2.120  0.4801  0.4189  0.2727
 4621SOL    HW125517   3.423   4.103   2.032  1.3558 -0.3904 -0.0297
 4621SOL    HW225518   3.549   4.061   2.128  0.6896  0.8456  1.4073
 4622SOL     OW25519   9.290   2.178   0.486 -0.2521  0.5863 -0.4851
 4622SOL    HW125520   9.354   2.106   0.512 -1.0982 -1.0718 -2.8406
 4622SOL    HW225521   9.282   2.181   0.386 -3.0687  1.4026 -0.2787
 4623SOL     OW25522   0.422   6.492   0.064  0.1242 -0.1762  0.6255
 4623SOL    HW125523   0.371   6.502  -0.021  3.8039  1.1763 -1.5413
 4623SOL    HW225524   0.396   6.564   0.128 -0.0854  0.9971 -0.7686
 4624SOL     OW25525   1.151   2.426   4.491  0.2610  0.0818 -0.3008
 4624SOL    HW125526   1.192   2.400   4.403  0.1702  2.0762 -0.9498
 4624SOL    HW225527   1.096   2.350   4.525  0.6286 -0.8775 -1.7656
 4625SOL     OW25528   3.332   4.415   4.930  0.1594 -0.2714  0.0742
 4625SOL    HW125529   3.268   4.492   4.929  1.3966  0.7733 -0.5264
 4625SOL    HW225530   3.391   4.420   4.849  1.4300 -0.8420  0.9575
 4626SOL     OW25531   2.300   3.651   6.250 -0.4161 -0.2001  0.5481
 4626SOL    HW125532   2.310   3.674   6.153  1.1169 -0.7322  0.5815
 4626SOL    HW225533   2.291   3.552   6.260 -2.2373 -0.0282  0.8232
 4627SOL     OW25534   2.924   9.653   3.523 -0.0232 -0.2988 -0.8376
 4627SOL    HW125535   2.928   9.733   3.464 -0.3365  0.1168 -0.2933
 4627SOL    HW225536   2.848   9.661   3.587  1.2285 -0.0345  0.6580
 4628SOL     OW25537   7.450   8.900   3.428 -0.3182 -0.3266 -0.2511
 4628SOL    HW125538   7.516   8.825   3.433  1.4745  1.2189 -0.1358
 4628SOL    HW225539   7.446   8.947   3.517  0.7003  1.4745 -1.1364
 4629SOL     OW25540   2.514   1.562   8.149  0.0226  0.3313  0.4185
 4629SOL    HW125541   2.598   1.561   8.096 -0.0063  0.3807  0.3714
 4629SOL    HW225542   2.500   1.473   8.193 -0.4466 -0.0175 -0.4312
 4630SOL     OW25543   1.181   4.850   7.160  0.0737  0.4397  0.0244
 4630SOL    HW125544   1.231   4.800   7.089  1.8552 -0.2841  1.7351
 4630SOL    HW225545   1.190   4.948   7.144 -0.6697  0.2899 -1.4782
 4631SOL     OW25546   4.127   6.373   1.384 -0.1838 -0.0483  0.7309
 4631SOL    HW125547   4.051   6.364   1.320  1.2020 -0.7474 -0.8567
 4631SOL    HW225548   4.159   6.282   1.410 -0.1705  0.2410  1.7267
 4632SOL     OW25549   3.430   0.058   1.431 -0.4579  0.0514 -0.0305
 4632SOL    HW125550   3.360   0.129   1.415 -0.5488 -0.1194 -0.3868
 4632SOL    HW225551   3.406  -0.025   1.381 -0.6067 -0.4032  0.7818
 4633SOL     OW25552   8.668   6.605   2.445 -0.8058 -0.6911 -0.2988
 4633SOL    HW125553   8.675   6.507   2.427 -1.3109 -0.9962  1.0889
 4633SOL    HW225554   8.758   6.640   2.472 -0.5804 -0.7248 -0.9925
 4634SOL     OW25555   3.971   7.138   2.729  0.3740  0.1247  0.0848
 4634SOL    HW125556   4.007   7.157   2.820  0.0873 -2.3636  0.7650
 4634SOL    HW225557   3.875   7.164   2.725  0.9259  2.1782 -0.1823
 4635SOL     OW25558   1.612   2.996   1.109 -0.6993 -0.5058 -0.0670
 4635SOL    HW125559   1.528   2.954   1.073 -0.6724 -0.4621 -0.1793
 4635SOL    HW225560   1.655   2.934   1.174 -0.9003 -0.4666  0.1067
 4636SOL     OW25561   2.561   6.300   8.066  0.2767 -0.0662  0.2023
 4636SOL    HW125562   2.642   6.266   8.020 -0.8896 -1.6928 -0.7244
 4636SOL    HW225563   2.571   6.287   8.165  2.0445  1.8124  0.3042
 4637SOL     OW25564   4.222   5.228   6.802  0.1105  0.5827  0.0628
 4637SOL    HW125565   4.222   5.216   6.702  0.8602  0.6755  0.0453
 4637SOL    HW225566   4.135   5.266   6.831 -0.0053  0.8313 -0.5950
 4638SOL     OW25567   8.360   0.526   0.613  0.0581  0.1093 -0.1605
 4638SOL    HW125568   8.287   0.458   0.607 -0.3943  0.5420  0.3486
 4638SOL    HW225569   8.320   0.615   0.635  0.7599  0.2943  0.3799
 4639SOL     OW25570   1.209   7.381   5.440 -0.3657  0.2271  0.3366
 4639SOL    HW125571   1.185   7.349   5.532  0.0050 -1.0051  0.0102
 4639SOL    HW225572   1.308   7.390   5.433 -0.3948  0.3087  0.0445
 4640SOL     OW25573   8.204   0.256   4.438 -0.4709  0.3676  0.2053
 4640SOL    HW125574   8.149   0.196   4.495  0.1620 -0.4182 -0.0048
 4640SOL    HW225575   8.223   0.341   4.487  0.4134 -0.4683  1.3295
 4641SOL     OW25576   0.035   5.633   6.908  0.8094 -0.6627  0.0446
 4641SOL    HW125577   0.089   5.713   6.885 -0.6200  0.2984 -0.0304
 4641SOL    HW225578   0.001   5.590   6.824 -1.7403  0.9917  0.1743
 4642SOL     OW25579   3.391   7.827   0.759 -0.3961 -0.1444  0.3900
 4642SOL    HW125580   3.357   7.822   0.665 -0.4949  0.0504  0.4168
 4642SOL    HW225581   3.461   7.898   0.766 -0.3241 -0.2200  0.4438
 4643SOL     OW25582   2.444   4.808   4.918  0.6988  0.0954  0.1991
 4643SOL    HW125583   2.369   4.836   4.977  1.9204  0.9389  1.3931
 4643SOL    HW225584   2.458   4.709   4.926 -1.1293 -0.2931 -1.0682
 4644SOL     OW25585   2.499   2.666   1.349  0.1957  0.0601  0.4250
 4644SOL    HW125586   2.430   2.687   1.281 -0.9588  0.1423  1.6075
 4644SOL    HW225587   2.557   2.745   1.364  1.2484 -0.3427 -1.3523
 4645SOL     OW25588   8.963   9.451   3.593 -0.5487 -0.4412 -0.2206
 4645SOL    HW125589   9.049   9.487   3.629 -0.0744 -3.4576  1.9043
 4645SOL    HW225590   8.886   9.500   3.634  0.1043 -0.1119  0.6299
 4646SOL     OW25591   7.225   5.887   7.934 -0.1824 -0.4881 -0.1032
 4646SOL    HW125592   7.196   5.804   7.980  0.0481  0.0114  0.9691
 4646SOL    HW225593   7.275   5.864   7.850  0.6444 -1.4462  0.6417
 4647SOL     OW25594   7.044   5.797   6.178 -1.0704  0.1237 -0.2728
 4647SOL    HW125595   7.063   5.885   6.223 -1.6618  0.7556 -1.2400
 4647SOL    HW225596   7.115   5.779   6.110  0.1405 -1.1121  1.3045
 4648SOL     OW25597   5.503   9.188   4.314 -0.5316  0.3849  0.5910
 4648SOL    HW125598   5.488   9.090   4.302  1.9468 -0.0215  0.4385
 4648SOL    HW225599   5.576   9.203   4.382  0.6128  2.0288 -0.9460
 4649SOL     OW25600   0.363   8.036   7.678  0.4420  0.1657 -0.4337
 4649SOL    HW125601   0.269   8.038   7.712  0.0829 -1.3019 -1.2739
 4649SOL    HW225602   0.401   7.944   7.692  2.4213  1.2270  1.6295
 4650SOL     OW25603   2.206   9.825   2.976 -0.2026  0.4350  0.0172
 4650SOL    HW125604   2.155   9.740   2.987  0.6959 -0.3010 -1.3154
 4650SOL    HW225605   2.298   9.812   3.013 -0.7718  1.5525  1.8491
 4651SOL     OW25606   4.206   8.369   2.416 -0.0809 -0.0024  0.0569
 4651SOL    HW125607   4.212   8.284   2.365 -1.8000 -0.4483  0.5422
 4651SOL    HW225608   4.121   8.417   2.393  0.5015  1.2145  0.3443
 4652SOL     OW25609   8.615   2.497   2.631  0.1408  0.1606  0.3200
 4652SOL    HW125610   8.673   2.434   2.681 -0.4598 -0.1718  0.6058
 4652SOL    HW225611   8.572   2.561   2.694 -1.4552 -0.9385  0.3692
 4653SOL     OW25612   9.676   9.799   0.197 -0.1343 -0.0320  0.3768
 4653SOL    HW125613   9.638   9.754   0.115  0.0857  0.6402 -0.1002
 4653SOL    HW225614   9.662   9.898   0.190 -0.7395 -0.0312  1.4876
 4654SOL     OW25615   7.594   9.917   6.246 -0.1004 -0.0778 -0.1664
 4654SOL    HW125616   7.558   9.893   6.336  1.2334 -0.0049  0.3911
 4654SOL    HW225617   7.656   9.844   6.215 -0.5822 -0.1189 -1.0414
 4655SOL     OW25618   0.322   1.947   6.644  0.0508 -0.4827  0.0438
 4655SOL    HW125619   0.317   1.874   6.713  1.1937 -0.3368  0.2962
 4655SOL    HW225620   0.412   1.990   6.649 -0.6441  0.9944 -0.0573
 4656SOL     OW25621   0.128   9.125   1.217 -0.5157  0.6094 -0.0564
 4656SOL    HW125622   0.215   9.171   1.236 -0.6845  1.0820 -0.4269
 4656SOL    HW225623   0.080   9.109   1.302 -0.3325  0.8747  0.0991
 4657SOL     OW25624   5.226   2.232   0.657 -0.1220  0.5906  0.3441
 4657SOL    HW125625   5.244   2.201   0.750 -2.0230  0.7941  0.7904
 4657SOL    HW225626   5.260   2.326   0.646  3.6008 -0.7287 -0.3555
 4658SOL     OW25627   7.516   1.130   2.197  0.9219  0.5280 -0.4326
 4658SOL    HW125628   7.418   1.111   2.186  0.6632  1.1580  0.7717
 4658SOL    HW225629   7.536   1.223   2.169  0.9865  0.7581  0.3673
 4659SOL     OW25630   2.374   3.669   3.223  0.3412  0.1698 -0.5519
 4659SOL    HW125631   2.356   3.714   3.310  0.7688  0.0536 -0.4020
 4659SOL    HW225632   2.291   3.622   3.192  0.8260 -1.7147  0.9323
 4660SOL     OW25633   9.159   1.310   6.076 -0.6491  0.2476  0.3303
 4660SOL    HW125634   9.232   1.272   6.132 -1.1300  1.4127  1.7658
 4660SOL    HW225635   9.165   1.272   5.984 -0.2319 -2.1695  1.3160
 4661SOL     OW25636   9.502   2.069   1.311  0.1713  0.2922  0.2127
 4661SOL    HW125637   9.576   2.130   1.340  0.5792  0.6945 -1.5959
 4661SOL    HW225638   9.418   2.121   1.298 -0.2805 -0.0615  1.6620
 4662SOL     OW25639   2.729   3.678   4.135  0.4632  0.2526 -0.4691
 4662SOL    HW125640   2.631   3.665   4.154  1.0388 -1.2852  1.6707
 4662SOL    HW225641   2.746   3.773   4.109 -1.1562  1.2663  2.0329
 4663SOL     OW25642   1.328   4.903   3.145  0.1728 -0.0204 -0.2732
 4663SOL    HW125643   1.282   4.896   3.056 -0.1088  1.9879 -0.2985
 4663SOL    HW225644   1.261   4.926   3.215  1.0857  2.9619 -0.3153
 4664SOL     OW25645   9.360   6.020   0.732 -0.3472 -0.1792 -0.4174
 4664SOL    HW125646   9.457   6.040   0.738 -0.1530 -0.8563 -1.2050
 4664SOL    HW225647   9.316   6.084   0.669 -0.8698  1.6678  1.7773
 4665SOL     OW25648   9.923   7.862   0.673 -0.0338  0.1780  0.0633
 4665SOL    HW125649   9.826   7.847   0.656 -0.3457  0.1673  1.7400
 4665SOL    HW225650   9.955   7.797   0.742  1.2765 -0.1078 -0.7862
 4666SOL     OW25651   9.504   4.703   7.042  0.4116 -0.0203 -0.2767
 4666SOL    HW125652   9.544   4.751   6.963 -0.0155 -1.8102 -1.6100
 4666SOL    HW225653   9.491   4.768   7.117  2.2165  1.4029 -1.1477
 4667SOL     OW25654   6.959   3.156   2.265 -0.4653 -0.5996 -0.3172
 4667SOL    HW125655   6.931   3.090   2.335  0.1946  0.0585  0.5826
 4667SOL    HW225656   6.984   3.108   2.182 -1.1709 -1.4007 -0.0754
 4668SOL     OW25657   0.052   2.459   3.155  0.2926  0.2021  0.3317
 4668SOL    HW125658  -0.022   2.403   3.119 -1.4019  2.1315  0.7167
 4668SOL    HW225659   0.098   2.411   3.230 -2.2042 -0.0239  1.7714
 4669SOL     OW25660   1.537   1.762   4.738 -0.8573 -0.2519 -0.3512
 4669SOL    HW125661   1.497   1.677   4.704 -0.9562 -0.2369 -0.2714
 4669SOL    HW225662   1.587   1.807   4.664  0.7010 -1.2639  0.0562
 4670SOL     OW25663   2.292   9.410   7.969  0.0873 -0.7280 -0.6303
 4670SOL    HW125664   2.358   9.483   7.951  0.4119 -0.8606  0.0010
 4670SOL    HW225665   2.201   9.450   7.983 -0.1466 -0.6089 -2.3602
 4671SOL     OW25666   8.640   8.024   5.703  0.3774  0.0348 -0.1452
 4671SOL    HW125667   8.723   8.079   5.701  0.5995 -0.3137 -0.9035
 4671SOL    HW225668   8.576   8.061   5.771 -0.7594  3.0773 -2.7374
 4672SOL     OW25669   6.302   2.063   5.096  0.0850  0.2680 -0.2467
 4672SOL    HW125670   6.309   1.965   5.115  1.3686  0.5887  1.0105
 4672SOL    HW225671   6.224   2.101   5.146  0.1914  0.0706  0.0717
 4673SOL     OW25672   7.766   4.017   7.782  0.1006  0.2056  0.2388
 4673SOL    HW125673   7.688   4.002   7.722  0.5889  0.3564 -0.4429
 4673SOL    HW225674   7.792   3.930   7.825  0.3541 -0.0957 -0.5217
 4674SOL     OW25675   5.471   0.652   4.843 -0.3600 -0.0225  0.5870
 4674SOL    HW125676   5.551   0.617   4.893 -2.1343 -1.2365  2.6514
 4674SOL    HW225677   5.444   0.586   4.773 -0.2568 -0.1687  0.6840
 4675SOL     OW25678   0.951   8.428   1.469 -0.0699 -0.0583 -0.5577
 4675SOL    HW125679   0.856   8.430   1.499  0.5387  2.5210  1.3929
 4675SOL    HW225680   0.957   8.460   1.375 -1.3054 -2.1329 -1.3862
 4676SOL     OW25681   2.257   6.511   0.284  0.4819  0.0647  0.5484
 4676SOL    HW125682   2.190   6.537   0.214  0.1778  0.3232  0.9318
 4676SOL    HW225683   2.341   6.564   0.271  0.6469 -0.3265  0.0095
 4677SOL     OW25684   0.561   0.885   3.841  0.1583  0.1882 -0.4518
 4677SOL    HW125685   0.559   0.816   3.913 -1.3899  0.7782  0.0745
 4677SOL    HW225686   0.607   0.848   3.760 -0.7641 -1.4832 -0.2170
 4678SOL     OW25687   8.123   4.852   1.686 -0.0006 -0.0963 -0.1491
 4678SOL    HW125688   8.203   4.794   1.672  0.3740  0.5861 -0.9244
 4678SOL    HW225689   8.074   4.862   1.600 -0.1075  0.6632 -0.0027
 4679SOL     OW25690   2.952   3.063   6.346  0.1637 -0.6204  0.0119
 4679SOL    HW125691   2.857   3.062   6.316 -0.2813  0.6462  1.2987
 4679SOL    HW225692   2.962   3.006   6.428  0.1491  0.5866  0.8673
 4680SOL     OW25693   6.270   1.571   7.937 -0.3138 -0.0027  0.2059
 4680SOL    HW125694   6.357   1.554   7.890 -0.4464 -0.8984  0.2860
 4680SOL    HW225695   6.201   1.508   7.903 -0.1583 -1.3561  2.3150
 4681SOL     OW25696   0.868   0.179   7.188 -0.6670  0.3739  0.2621
 4681SOL    HW125697   0.926   0.174   7.107  0.5208 -1.6018  1.1913
 4681SOL    HW225698   0.790   0.118   7.178  0.9813 -2.0470  1.7216
 4682SOL     OW25699   5.555   4.538   0.445  0.0798 -0.0711  0.0719
 4682SOL    HW125700   5.499   4.598   0.387 -1.1246 -0.6098  0.6426
 4682SOL    HW225701   5.647   4.576   0.454 -0.6557  1.7178  0.4374
 4683SOL     OW25702   3.840   0.969   5.303  0.1499 -0.2892 -0.1798
 4683SOL    HW125703   3.818   1.014   5.216  1.7233 -0.1319 -0.5029
 4683SOL    HW225704   3.757   0.964   5.359 -0.7061  0.3148 -1.3645
 4684SOL     OW25705   3.420   3.122   5.707  0.7097 -0.6146  0.0653
 4684SOL    HW125706   3.407   3.221   5.711  2.1301 -0.4505  1.0820
 4684SOL    HW225707   3.462   3.097   5.620 -1.1605 -0.5323 -0.8937
 4685SOL     OW25708   2.710   9.512   2.867 -0.2122  0.0426  0.4600
 4685SOL    HW125709   2.765   9.482   2.789  1.9605  1.7309  1.2961
 4685SOL    HW225710   2.622   9.547   2.833  1.7089  3.1954 -1.5765
 4686SOL     OW25711   2.751   1.879   2.108 -0.1710  0.1084 -0.5618
 4686SOL    HW125712   2.758   1.969   2.150 -1.8218 -0.1970  0.4096
 4686SOL    HW225713   2.707   1.816   2.171  1.7243 -1.6052 -0.9302
 4687SOL     OW25714   1.340   6.008   0.367  0.5663 -0.2816 -0.3729
 4687SOL    HW125715   1.350   6.076   0.440  0.6211  0.9128 -1.4651
 4687SOL    HW225716   1.430   5.986   0.330  0.6763 -1.9551  0.8606
 4688SOL     OW25717   9.777   3.022   2.004  0.0541  0.3954  0.3053
 4688SOL    HW125718   9.848   3.092   2.006 -1.0899  1.6034 -0.1758
 4688SOL    HW225719   9.742   3.013   1.911  0.0431 -0.6664  0.4121
 4689SOL     OW25720   6.520   7.357   6.659 -0.1429  0.1533  0.5564
 4689SOL    HW125721   6.475   7.419   6.723  1.0484  0.7790  0.7894
 4689SOL    HW225722   6.562   7.282   6.710 -1.4441 -0.7767  0.2883
 4690SOL     OW25723   0.781   7.715   0.118  0.1315  0.2234 -0.1747
 4690SOL    HW125724   0.717   7.729   0.194 -0.3112 -0.0383 -0.5010
 4690SOL    HW225725   0.767   7.625   0.079  1.6779 -0.3959  0.6692
 4691SOL     OW25726   1.091   1.996   6.315 -0.0907 -0.1002  0.0791
 4691SOL    HW125727   1.015   2.020   6.255 -0.1939  2.3241  1.0998
 4691SOL    HW225728   1.105   2.070   6.381  1.0245 -2.0175  2.0344
 4692SOL     OW25729   1.445   0.726   7.418  0.0127  0.0504 -0.4843
 4692SOL    HW125730   1.475   0.638   7.383 -0.4472 -0.5166  0.5440
 4692SOL    HW225731   1.499   0.750   7.499 -1.7389 -0.5912  0.8965
 4693SOL     OW25732   2.361   3.122   8.020 -0.3566 -0.4458 -0.1120
 4693SOL    HW125733   2.325   3.207   8.058  1.2987  0.3169 -0.2094
 4693SOL    HW225734   2.397   3.064   8.094 -1.4979 -1.0865 -0.0417
 4694SOL     OW25735   3.087   4.597   2.709  0.1695  0.4803 -0.7836
 4694SOL    HW125736   3.065   4.670   2.773 -0.8405  0.0444 -0.6291
 4694SOL    HW225737   3.005   4.571   2.658  0.7945  0.2866 -1.7032
 4695SOL     OW25738   9.750   2.397   5.333 -0.0714 -0.8536 -0.5749
 4695SOL    HW125739   9.801   2.316   5.304  0.9046 -1.3129  2.3595
 4695SOL    HW225740   9.789   2.478   5.289  1.2927 -1.5406 -0.6454
 4696SOL     OW25741   8.021   6.366   0.825 -0.2636  0.2497  0.3575
 4696SOL    HW125742   8.051   6.452   0.784 -0.7949  1.0396  1.6352
 4696SOL    HW225743   8.039   6.291   0.760  2.1044  1.0300  0.0690
 4697SOL     OW25744   3.870   0.491   5.892 -0.0331  0.7456 -0.3997
 4697SOL    HW125745   3.867   0.417   5.824  0.2322  0.2950  0.0751
 4697SOL    HW225746   3.809   0.565   5.863  0.1024  0.5711 -1.1448
 4698SOL     OW25747   2.763   6.933   0.260  0.4449 -0.4872  0.3305
 4698SOL    HW125748   2.792   6.844   0.226 -0.5060 -0.9440  0.7075
 4698SOL    HW225749   2.834   7.001   0.241  0.9963 -1.2432 -0.3115
 4699SOL     OW25750   6.837   5.495   0.269  0.2852 -0.3417  0.3128
 4699SOL    HW125751   6.769   5.567   0.264  0.6731  0.1901  2.1542
 4699SOL    HW225752   6.797   5.409   0.237 -1.7287 -0.3676  2.7527
 4700SOL     OW25753   9.686   4.844   3.320  0.1011 -0.1877  0.7081
 4700SOL    HW125754   9.602   4.791   3.311 -0.4910  0.8427  0.0510
 4700SOL    HW225755   9.741   4.834   3.237 -0.1319  0.4179  0.4766
 4701SOL     OW25756   9.289   8.943   4.871 -0.2162  0.6319 -0.5246
 4701SOL    HW125757   9.366   8.990   4.828  1.3015  0.4338  1.8683
 4701SOL    HW225758   9.260   8.867   4.813  3.3959 -1.1777 -0.1008
 4702SOL     OW25759   3.041   5.582   3.607  0.2048  0.4595  0.1912
 4702SOL    HW125760   3.032   5.681   3.610 -2.2547  0.2573  0.0865
 4702SOL    HW225761   3.048   5.551   3.512  2.7517  0.6435  0.2801
 4703SOL     OW25762   2.716   6.899   3.673 -0.2329  0.2885 -0.2165
 4703SOL    HW125763   2.632   6.855   3.638  0.0253  0.2940 -0.8467
 4703SOL    HW225764   2.726   6.989   3.631 -0.5968  0.8285  0.8478
 4704SOL     OW25765   1.213   5.608   8.178 -0.0482 -0.2334 -0.2362
 4704SOL    HW125766   1.150   5.665   8.230  1.9591  0.8241  1.0506
 4704SOL    HW225767   1.187   5.512   8.190 -1.0103  0.1443  0.8263
 4705SOL     OW25768   1.738   9.005   5.378 -0.3928  0.5693  0.3578
 4705SOL    HW125769   1.773   9.085   5.329 -0.8829  1.0416  0.7617
 4705SOL    HW225770   1.673   8.956   5.320  0.2353  0.2181 -0.0510
 4706SOL     OW25771   1.747   5.092   3.859 -0.1243 -0.8113  0.1378
 4706SOL    HW125772   1.667   5.035   3.874 -0.1449 -1.0353 -0.7743
 4706SOL    HW225773   1.725   5.187   3.879  0.1394 -1.2139  2.4252
 4707SOL     OW25774   3.273   6.290   4.108 -0.0007  0.2822  0.1282
 4707SOL    HW125775   3.258   6.285   4.207 -0.1745  0.0250  0.0908
 4707SOL    HW225776   3.217   6.362   4.069 -0.3323  0.0347  0.1435
 4708SOL     OW25777   3.864   6.216   2.201  0.8620 -0.3388  0.2093
 4708SOL    HW125778   3.803   6.285   2.163 -1.4380 -2.3643  0.0740
 4708SOL    HW225779   3.933   6.192   2.133 -0.4387 -0.6500 -1.0429
 4709SOL     OW25780   0.794   7.062   7.519 -0.5895 -0.4831  0.4758
 4709SOL    HW125781   0.849   7.070   7.602 -0.6136  1.5972  0.3115
 4709SOL    HW225782   0.769   7.153   7.486  0.4871 -1.2188 -2.5499
 4710SOL     OW25783   4.692   6.967   1.806  0.3085 -0.4537 -0.3839
 4710SOL    HW125784   4.664   7.038   1.741  0.4395 -0.2212 -0.1866
 4710SOL    HW225785   4.631   6.888   1.797 -0.2539 -0.0465 -0.1328
 4711SOL     OW25786   6.330   2.588   0.114  0.3853  0.0336 -0.0256
 4711SOL    HW125787   6.247   2.642   0.128  0.0652  0.0975 -2.0067
 4711SOL    HW225788   6.406   2.649   0.091  0.1796 -0.2944 -1.5988
 4712SOL     OW25789   4.737   3.671   2.308 -0.6413 -0.4145  0.4471
 4712SOL    HW125790   4.728   3.572   2.291  1.4915 -0.9781  2.3438
 4712SOL    HW225791   4.753   3.686   2.405  2.4416  1.5542 -0.3233
 4713SOL     OW25792   2.443   4.374   0.896 -0.1660 -0.0162 -0.6678
 4713SOL    HW125793   2.516   4.385   0.963  1.3771 -0.0113 -2.3027
 4713SOL    HW225794   2.458   4.290   0.844 -1.4180 -0.1008 -0.8957
 4714SOL     OW25795   5.559   3.062   0.326 -0.2799 -0.5233  0.0919
 4714SOL    HW125796   5.461   3.058   0.308 -0.5808 -2.7957  1.8828
 4714SOL    HW225797   5.574   3.096   0.419  0.7417  1.6849 -0.8513
 4715SOL     OW25798   2.486   8.762   7.308 -0.3699 -0.2370 -0.2692
 4715SOL    HW125799   2.480   8.668   7.275 -1.8311 -0.1408 -0.2989
 4715SOL    HW225800   2.434   8.771   7.393  0.2239  0.4147  0.0280
 4716SOL     OW25801   7.735   8.594   3.217 -0.1567  0.0252  0.3674
 4716SOL    HW125802   7.710   8.622   3.310  0.3459 -1.3018  0.9178
 4716SOL    HW225803   7.747   8.495   3.215  2.7393  0.3582 -0.4386
 4717SOL     OW25804   4.502   8.068   6.246 -0.7324  0.5699 -0.2355
 4717SOL    HW125805   4.427   8.129   6.221 -0.7312  0.1982 -1.1947
 4717SOL    HW225806   4.464   7.983   6.283 -0.7552  0.8038  0.2806
 4718SOL     OW25807   7.342   8.813   6.532 -0.5866 -0.3727 -0.5008
 4718SOL    HW125808   7.296   8.880   6.590 -0.3123  0.0747 -0.8036
 4718SOL    HW225809   7.418   8.856   6.484  0.6923 -1.3085  0.6476
 4719SOL     OW25810   9.243   4.483   4.842 -0.4204  0.0971  0.0773
 4719SOL    HW125811   9.191   4.442   4.916 -0.2581 -1.4301 -0.6322
 4719SOL    HW225812   9.306   4.552   4.879 -0.8684 -0.1148  1.2485
 4720SOL     OW25813   2.119   2.517   1.416  0.0197  0.9913 -0.0669
 4720SOL    HW125814   2.184   2.453   1.375  0.9262  1.5640  0.4570
 4720SOL    HW225815   2.169   2.595   1.454 -1.0219  1.6647 -0.0811
 4721SOL     OW25816   3.623   2.845   4.228  0.0143  0.1527  0.3111
 4721SOL    HW125817   3.693   2.916   4.234  0.7241 -0.3677 -1.4321
 4721SOL    HW225818   3.641   2.774   4.296  0.2048  0.8643  1.0048
 4722SOL     OW25819   1.004   2.142   3.218 -0.4768  0.2473 -0.2900
 4722SOL    HW125820   0.929   2.120   3.280  2.0021  0.0323  2.7533
 4722SOL    HW225821   1.023   2.240   3.223  0.8615 -0.0463  0.6585
 4723SOL     OW25822   9.465   3.218   5.750  0.6695 -0.2164 -0.1782
 4723SOL    HW125823   9.365   3.216   5.751  0.6192  0.0300 -2.0801
 4723SOL    HW225824   9.500   3.202   5.842 -1.0940 -1.4849  0.2932
 4724SOL     OW25825   4.035   8.531   7.116  0.0900 -0.4002 -0.1827
 4724SOL    HW125826   3.994   8.495   7.032 -0.8591 -0.7192  0.4121
 4724SOL    HW225827   4.069   8.455   7.172  1.0266 -0.1687 -0.4287
 4725SOL     OW25828   3.240   6.824   6.421 -0.1124 -0.4250  0.2793
 4725SOL    HW125829   3.270   6.876   6.501  0.7389 -0.4165 -0.0445
 4725SOL    HW225830   3.156   6.865   6.385 -0.7543 -0.7008  1.4318
 4726SOL     OW25831   0.977   4.379   6.270 -0.8947 -0.0193 -0.0762
 4726SOL    HW125832   1.019   4.403   6.358  1.7948  2.7634 -2.0013
 4726SOL    HW225833   0.900   4.441   6.252 -1.1557 -0.2928  0.0839
 4727SOL     OW25834   4.594   0.858   3.196  0.0111  0.0819  0.0176
 4727SOL    HW125835   4.573   0.766   3.164  0.9443  0.4073 -1.5804
 4727SOL    HW225836   4.688   0.882   3.170 -1.2562  2.6772 -2.4625
 4728SOL     OW25837   8.304   1.102   3.348 -0.0837 -0.3039  0.2046
 4728SOL    HW125838   8.348   1.130   3.262  1.4892 -2.4101  0.2965
 4728SOL    HW225839   8.256   1.016   3.334  2.3070 -2.0111  1.9988
 4729SOL     OW25840   3.396   5.320   6.370  0.5267 -0.0347  0.0627
 4729SOL    HW125841   3.430   5.383   6.439 -0.2145 -1.3535  1.6838
 4729SOL    HW225842   3.448   5.331   6.285  0.6267  2.4762  0.4221
 4730SOL     OW25843   3.315   2.988   6.569  0.4645  0.4432 -0.5312
 4730SOL    HW125844   3.293   3.027   6.479  2.1235 -1.0017 -1.6007
 4730SOL    HW225845   3.323   2.888   6.561  2.2444  0.4537  0.8687
 4731SOL     OW25846   5.168   0.312   3.093  0.1588  0.2655  0.2063
 4731SOL    HW125847   5.186   0.284   2.999  0.1906 -2.2783  0.9370
 4731SOL    HW225848   5.078   0.355   3.097  0.3701  0.8657 -1.0634
 4732SOL     OW25849   3.392   6.422   2.136  0.0346 -0.0654 -0.3343
 4732SOL    HW125850   3.294   6.411   2.154 -0.6432  1.2215 -2.9921
 4732SOL    HW225851   3.406   6.499   2.074  2.8514  0.5448  0.9686
 4733SOL     OW25852   8.113   5.774   2.273 -0.3182  0.1938  0.2609
 4733SOL    HW125853   8.142   5.865   2.300  1.0143  0.2999 -1.4384
 4733SOL    HW225854   8.188   5.727   2.225 -0.8131 -1.9771  1.5409
 4734SOL     OW25855   9.600   4.761   0.944 -0.3571 -0.3577 -0.7467
 4734SOL    HW125856   9.657   4.837   0.911  1.3012 -1.1911  0.1517
 4734SOL    HW225857   9.550   4.721   0.867 -0.6461  1.1394 -1.3544
 4735SOL     OW25858   3.843   3.049   1.563 -0.1162  0.4544  0.2514
 4735SOL    HW125859   3.776   3.120   1.540  0.8217  1.7269  1.3770
 4735SOL    HW225860   3.927   3.063   1.510  0.2648  0.5043  0.8629
 4736SOL     OW25861   3.855   7.958   3.349 -0.6544 -0.6551 -0.1213
 4736SOL    HW125862   3.874   7.896   3.272  0.8503 -0.1650 -0.1448
 4736SOL    HW225863   3.825   8.046   3.313 -1.1365 -0.8194 -0.1216
 4737SOL     OW25864   8.469   4.558   6.218 -0.3792 -0.3748 -0.5509
 4737SOL    HW125865   8.494   4.553   6.121  1.6648 -1.9359  0.0123
 4737SOL    HW225866   8.548   4.592   6.270 -1.8416  1.5670  0.4396
 4738SOL     OW25867   6.753   8.431   2.715  0.0470 -0.0496  0.1872
 4738SOL    HW125868   6.660   8.417   2.748 -0.1753  0.4422 -0.2306
 4738SOL    HW225869   6.766   8.526   2.689  0.3705 -0.3300 -0.6936
 4739SOL     OW25870   7.299   7.387   7.236  0.0930 -0.3804 -0.2919
 4739SOL    HW125871   7.260   7.321   7.301 -0.1966  1.4919  1.4878
 4739SOL    HW225872   7.386   7.421   7.271  0.2596  0.1556 -1.2019
 4740SOL     OW25873   5.617   3.425   0.485 -0.2292 -0.8049 -0.2752
 4740SOL    HW125874   5.541   3.376   0.527 -0.3848 -0.7131 -0.4471
 4740SOL    HW225875   5.672   3.361   0.431 -1.3496 -0.5051 -1.8049
 4741SOL     OW25876   9.585   3.091   2.680  0.3669  0.6914  0.4256
 4741SOL    HW125877   9.667   3.050   2.721  0.0610  1.3513  1.7282
 4741SOL    HW225878   9.520   3.115   2.753 -1.2313 -0.3351 -0.6143
 4742SOL     OW25879   9.842   5.645   5.660 -0.3909 -0.5586  0.3598
 4742SOL    HW125880   9.822   5.547   5.662  0.2566 -0.7365 -1.2099
 4742SOL    HW225881   9.939   5.659   5.645 -0.2505  0.3383  1.9652
 4743SOL     OW25882   1.920   5.336   1.541  0.3840  1.0097 -0.8869
 4743SOL    HW125883   2.006   5.376   1.509  0.2578  0.5513 -1.8123
 4743SOL    HW225884   1.902   5.251   1.492  1.0914 -0.6845  1.7132
 4744SOL     OW25885   5.838   1.259   7.615 -0.3686  0.7256 -0.7802
 4744SOL    HW125886   5.777   1.204   7.672 -0.3278 -0.9927 -2.3559
 4744SOL    HW225887   5.918   1.205   7.591  0.2774  1.9088 -1.3469
 4745SOL     OW25888   0.433   3.141   3.962  0.1833 -0.0608  0.2982
 4745SOL    HW125889   0.486   3.172   4.041  1.8735 -1.2149 -0.3732
 4745SOL    HW225890   0.468   3.183   3.879 -0.1278 -0.6158 -0.1193
 4746SOL     OW25891   1.640   2.256   3.420 -0.0215 -0.4092 -0.2831
 4746SOL    HW125892   1.571   2.326   3.402 -0.1656 -0.2795  0.7503
 4746SOL    HW225893   1.705   2.289   3.489  0.7886 -0.7215 -0.8818
 4747SOL     OW25894   9.882   4.754   4.795  0.7713 -0.3442 -0.0753
 4747SOL    HW125895   9.925   4.677   4.841 -0.4792 -0.7169  0.4958
 4747SOL    HW225896   9.951   4.808   4.747  1.5953 -2.1016 -0.8956
 4748SOL     OW25897   0.567   7.461   1.440 -0.4577 -0.3238 -1.1759
 4748SOL    HW125898   0.546   7.405   1.519 -1.3235 -2.2224 -2.7038
 4748SOL    HW225899   0.604   7.549   1.470 -2.2954 -0.3628  1.3433
 4749SOL     OW25900   8.116   1.169   3.539 -0.0439 -0.3586 -0.0515
 4749SOL    HW125901   8.152   1.216   3.620 -0.2270 -0.8937  0.3424
 4749SOL    HW225902   8.192   1.134   3.485  0.0455 -1.2310  0.6269
 4750SOL     OW25903   3.532   6.698   4.725  0.1606  0.5669 -0.1093
 4750SOL    HW125904   3.523   6.771   4.793  0.6279 -2.1339  3.0192
 4750SOL    HW225905   3.627   6.665   4.723  0.1396  0.5641 -2.0598
 4751SOL     OW25906   8.780   7.357   0.554  0.1750 -0.0429 -0.7894
 4751SOL    HW125907   8.830   7.437   0.587  0.6334 -0.1155 -1.3078
 4751SOL    HW225908   8.779   7.287   0.624 -0.2291  0.4182 -0.3310
 4752SOL     OW25909   2.846   6.332   6.867 -0.8867  0.5208  0.3172
 4752SOL    HW125910   2.809   6.421   6.839  0.1999  0.8151 -0.2060
 4752SOL    HW225911   2.879   6.283   6.786  0.0238  0.3368  0.7932
 4753SOL     OW25912   1.932   3.462   2.791 -0.0647  0.1334  0.4017
 4753SOL    HW125913   1.865   3.396   2.825 -0.8828  1.0678  0.6414
 4753SOL    HW225914   2.011   3.465   2.853 -0.9622  0.8788  1.5154
 4754SOL     OW25915   2.631   2.026   0.328  0.1222  0.5235  0.6154
 4754SOL    HW125916   2.605   2.099   0.391  1.3688  1.4202  0.1043
 4754SOL    HW225917   2.569   2.025   0.250  1.0296  2.0470 -0.1395
 4755SOL     OW25918   3.989   0.448   2.144 -0.0752  0.5735 -0.2023
 4755SOL    HW125919   3.907   0.424   2.091 -0.8410  0.5054  0.9692
 4755SOL    HW225920   3.995   0.387   2.224  1.3691  0.2938 -0.5126
 4756SOL     OW25921   6.458   8.997   6.470  0.0984  0.5640  0.4502
 4756SOL    HW125922   6.459   8.904   6.508 -2.0437 -0.8827 -2.7756
 4756SOL    HW225923   6.364   9.024   6.451  0.9113  2.3272 -1.1903
 4757SOL     OW25924   1.240   8.610   1.228 -0.0023  0.3985 -0.2347
 4757SOL    HW125925   1.311   8.679   1.242  1.1377 -0.8072 -0.0950
 4757SOL    HW225926   1.268   8.524   1.270 -1.8775  0.1210  0.5041
 4758SOL     OW25927   3.608   4.566   6.221 -0.5856  0.3466  0.0395
 4758SOL    HW125928   3.608   4.516   6.135 -2.4083  0.7727 -0.2359
 4758SOL    HW225929   3.658   4.651   6.210 -0.8781  0.4362 -0.6298
 4759SOL     OW25930   2.671   7.152   2.056 -0.2881  0.2609  0.0906
 4759SOL    HW125931   2.596   7.205   2.016 -1.3760 -1.4521 -0.2294
 4759SOL    HW225932   2.711   7.203   2.131 -1.3189  1.5193 -0.1824
 4760SOL     OW25933   8.546   0.583   7.308  1.0349 -0.5972  0.3048
 4760SOL    HW125934   8.510   0.651   7.372  0.4136 -1.6643  1.1020
 4760SOL    HW225935   8.641   0.605   7.286  0.4025  1.3605 -0.6083
 4761SOL     OW25936   8.387   6.637   0.524  0.2581  0.0982  0.3173
 4761SOL    HW125937   8.411   6.710   0.589  2.1387  0.7386 -1.0654
 4761SOL    HW225938   8.441   6.555   0.545 -1.9410 -0.9648  1.9443
 4762SOL     OW25939   1.401   1.942   4.056  0.0526  0.3442 -0.0485
 4762SOL    HW125940   1.421   1.852   4.017  0.6557 -0.9162  3.0197
 4762SOL    HW225941   1.306   1.966   4.036 -0.4137 -1.4177 -0.0972
 4763SOL     OW25942   9.006   7.549   7.669  0.0974 -0.4527 -0.6681
 4763SOL    HW125943   9.046   7.562   7.578 -0.3005  0.0606 -0.7648
 4763SOL    HW225944   8.976   7.454   7.678 -0.1953 -0.4138 -1.2029
 4764SOL     OW25945   4.059   1.283   2.991  0.3276  0.3039  0.7149
 4764SOL    HW125946   3.960   1.297   2.993  0.4760  1.2593  1.3745
 4764SOL    HW225947   4.089   1.270   2.897 -0.1030  2.2806  0.3011
 4765SOL     OW25948   5.878   1.291   5.598  0.2738 -0.6221  0.4895
 4765SOL    HW125949   5.943   1.354   5.556 -1.1650 -0.4347 -1.5588
 4765SOL    HW225950   5.795   1.342   5.624  0.2104 -1.1734  1.3613
 4766SOL     OW25951   8.211   5.066   1.864 -0.0125  0.0897  0.6099
 4766SOL    HW125952   8.154   5.007   1.806  0.7568 -0.0998  0.0269
 4766SOL    HW225953   8.291   5.097   1.811  0.2590  0.6022  1.3158
 4767SOL     OW25954   0.748   6.822   7.408 -0.8469 -0.6222 -0.2177
 4767SOL    HW125955   0.798   6.752   7.459  3.0538 -0.4735 -3.5658
 4767SOL    HW225956   0.769   6.912   7.445  0.2488 -0.6909 -0.6324
 4768SOL     OW25957   9.723   0.944   3.794 -0.1273 -0.1184 -0.5215
 4768SOL    HW125958   9.808   0.949   3.846 -0.5260  1.5486 -0.0147
 4768SOL    HW225959   9.687   0.850   3.799 -0.5070  0.1421  2.8130
 4769SOL     OW25960   7.196   7.324   6.632  0.3184  0.0424 -0.8997
 4769SOL    HW125961   7.260   7.344   6.706  0.1867 -0.1849 -0.7229
 4769SOL    HW225962   7.105   7.358   6.657 -0.0164 -1.2024 -0.3796
 4770SOL     OW25963   8.637   9.307   6.241  0.0342 -0.3995 -0.3255
 4770SOL    HW125964   8.546   9.313   6.282  0.5480  0.2842  0.7333
 4770SOL    HW225965   8.629   9.313   6.141 -1.1251 -0.9017 -0.2701
 4771SOL     OW25966   9.464   9.221   4.796  0.2757  0.5633  0.4867
 4771SOL    HW125967   9.546   9.189   4.749  0.1853  0.5406  0.3466
 4771SOL    HW225968   9.416   9.288   4.739 -0.4468 -0.3127  0.0589
 4772SOL     OW25969   8.578   5.943   2.373 -0.0820 -0.4713 -0.6197
 4772SOL    HW125970   8.506   5.981   2.431  0.4064 -0.6612  0.1171
 4772SOL    HW225971   8.634   5.879   2.426  2.0217  1.3742 -0.5651
 4773SOL     OW25972   2.862   1.863   0.847  0.4848 -0.3991 -0.2732
 4773SOL    HW125973   2.841   1.773   0.885 -0.5741  0.2469  0.7024
 4773SOL    HW225974   2.869   1.930   0.921  1.6913  0.2494 -0.9540
 4774SOL     OW25975   1.286   5.265   5.506 -0.0853  0.1792  0.2694
 4774SOL    HW125976   1.326   5.298   5.592  1.8668  0.3583 -0.6923
 4774SOL    HW225977   1.210   5.325   5.480  0.8595  1.5439  0.6303
 4775SOL     OW25978   8.444   2.750   2.284  0.0718  0.3471 -0.5081
 4775SOL    HW125979   8.351   2.780   2.305  0.2614  0.6167 -0.0335
 4775SOL    HW225980   8.457   2.744   2.185 -1.0466 -1.5280 -0.5686
 4776SOL     OW25981   3.875   6.308   3.488  0.0732 -0.2249 -0.2244
 4776SOL    HW125982   3.843   6.355   3.406  0.1475  0.5214  0.1705
 4776SOL    HW225983   3.880   6.373   3.564 -1.0342 -1.1183  0.6492
 4777SOL     OW25984   9.153   3.317   7.147  0.6873 -0.2190 -0.1091
 4777SOL    HW125985   9.111   3.298   7.236 -1.0134 -0.7472 -1.0018
 4777SOL    HW225986   9.082   3.346   7.083  1.5802 -1.7866 -1.8415
 4778SOL     OW25987   9.010   6.564   7.046  0.3567  0.6050 -0.3357
 4778SOL    HW125988   9.092   6.617   7.072  0.4488 -0.1467  0.9492
 4778SOL    HW225989   8.933   6.594   7.102 -0.0299  0.6443 -0.8858
 4779SOL     OW25990   5.444   8.761   6.889 -0.0241  0.0719  0.0680
 4779SOL    HW125991   5.415   8.732   6.798 -0.4299  0.3837  0.0977
 4779SOL    HW225992   5.489   8.685   6.936 -1.3881 -0.6091  0.2804
 4780SOL     OW25993   9.761   5.531   1.075  0.3802 -0.1241  0.3058
 4780SOL    HW125994   9.689   5.475   1.115 -0.2745  0.4217 -0.0953
 4780SOL    HW225995   9.850   5.502   1.111 -0.2055  0.5249  2.3362
 4781SOL     OW25996   3.331   6.366   8.022 -0.0412 -0.2287  0.6343
 4781SOL    HW125997   3.288   6.280   8.048 -0.3048 -0.2392  0.1862
 4781SOL    HW225998   3.260   6.431   7.994  0.2155 -0.1499  0.1618
 4782SOL     OW25999   3.804   0.566   7.591 -1.2083 -0.1077 -0.3747
 4782SOL    HW126000   3.790   0.600   7.498  0.3126  1.8196  0.0534
 4782SOL    HW226001   3.730   0.598   7.650 -1.2792  0.0869 -0.5691
 4783SOL     OW26002   2.101   8.449   7.056  0.1273 -0.4871  0.3937
 4783SOL    HW126003   2.094   8.534   7.003  1.3751 -0.3903  0.3647
 4783SOL    HW226004   2.176   8.457   7.121 -0.3015 -1.2566  0.9872
 4784SOL     OW26005   1.264   9.864   4.467  0.4103 -0.1475 -0.1399
 4784SOL    HW126006   1.362   9.843   4.464  0.1491 -1.4709  0.3836
 4784SOL    HW226007   1.233   9.867   4.562  0.4662  2.8628 -0.1567
 4785SOL     OW26008   1.817   9.631   4.568 -0.2200 -0.3531  0.2661
 4785SOL    HW126009   1.893   9.579   4.532 -1.7155 -2.0965 -0.4167
 4785SOL    HW226010   1.844   9.674   4.654  0.9609 -2.4640  0.9789
 4786SOL     OW26011   1.233   2.403   7.684 -0.2298 -0.7144 -0.2903
 4786SOL    HW126012   1.277   2.409   7.774  1.1812  2.0757 -1.1125
 4786SOL    HW226013   1.144   2.449   7.688  0.1654  0.0844 -0.4848
 4787SOL     OW26014   3.187   3.531   1.031  0.3073  0.5009  0.8204
 4787SOL    HW126015   3.129   3.577   1.099 -1.9115 -1.5950  0.4116
 4787SOL    HW226016   3.227   3.449   1.071  1.0169  0.6073  0.3425
 4788SOL     OW26017   1.267   7.244   5.725  0.2304  0.0258 -0.1416
 4788SOL    HW126018   1.281   7.152   5.690 -2.0607 -0.2231 -0.5021
 4788SOL    HW226019   1.231   7.239   5.818 -1.0016  0.5016 -0.5779
 4789SOL     OW26020   9.321   7.177   5.064  0.0466 -0.1050 -0.3677
 4789SOL    HW126021   9.386   7.230   5.118 -0.4814  2.1093 -1.8515
 4789SOL    HW226022   9.334   7.079   5.083  1.9136  0.4572  1.4258
 4790SOL     OW26023   8.446   2.851   6.574 -0.6183  0.2830  0.0661
 4790SOL    HW126024   8.438   2.948   6.596  0.6556  0.3803  0.0888
 4790SOL    HW226025   8.539   2.829   6.547 -1.1160 -0.7484 -0.8815
 4791SOL     OW26026   5.610   1.440   3.619  0.2452 -0.1992  0.1509
 4791SOL    HW126027   5.571   1.509   3.680  1.8553  0.6844  0.1999
 4791SOL    HW226028   5.708   1.431   3.637  0.4869 -0.8512 -1.4431
 4792SOL     OW26029   2.084   7.008   0.848 -0.1796  0.0873  0.1632
 4792SOL    HW126030   1.984   7.011   0.839 -0.1476 -0.5138 -0.4416
 4792SOL    HW226031   2.108   6.963   0.934 -0.4477  2.5980  1.6059
 4793SOL     OW26032   0.423   0.346   4.009  0.0226 -0.3614 -0.2560
 4793SOL    HW126033   0.471   0.375   4.091  0.0836  1.8201 -1.0225
 4793SOL    HW226034   0.332   0.311   4.033 -0.2173  0.8951  0.6624
 4794SOL     OW26035   0.757   6.586   6.136  0.4487 -0.1846 -0.0680
 4794SOL    HW126036   0.667   6.543   6.125 -0.0718  1.0707 -0.9403
 4794SOL    HW226037   0.757   6.642   6.219  0.7458 -0.9275  0.4409
 4795SOL     OW26038   0.787   7.069   4.655 -0.1550  0.0743 -0.2958
 4795SOL    HW126039   0.729   7.103   4.728 -0.2801 -1.0802  0.1500
 4795SOL    HW226040   0.859   7.136   4.635 -0.3793  0.5771  0.5743
 4796SOL     OW26041   0.810   4.934   7.340  0.1231  0.1741 -0.1728
 4796SOL    HW126042   0.724   4.938   7.391  0.9634  0.4917  1.2565
 4796SOL    HW226043   0.859   5.020   7.350 -0.5615  0.9392 -3.1064
 4797SOL     OW26044   7.176   2.022   2.187  0.1169  0.1309  0.2874
 4797SOL    HW126045   7.182   1.972   2.101 -0.7035  2.5073 -1.1893
 4797SOL    HW226046   7.080   2.039   2.209  0.3664  0.4844  1.1097
 4798SOL     OW26047   8.387   5.317   5.102 -0.2318 -0.3023 -0.0192
 4798SOL    HW126048   8.321   5.385   5.134  0.5826  0.5830 -0.2250
 4798SOL    HW226049   8.353   5.226   5.125 -1.2020  0.1730  0.4911
 4799SOL     OW26050   7.168   6.849   3.203 -0.0243 -0.2006  0.0318
 4799SOL    HW126051   7.237   6.836   3.132 -0.6983 -1.0522 -0.4795
 4799SOL    HW226052   7.087   6.893   3.163 -0.5738 -1.0760  0.1635
 4800SOL     OW26053   4.576   4.080   6.507 -0.3701  0.1436 -0.1158
 4800SOL    HW126054   4.568   4.056   6.604 -2.4538  0.3317 -0.2181
 4800SOL    HW226055   4.541   4.173   6.493 -0.4213 -0.0210 -1.0904
 4801SOL     OW26056   2.801   0.140   3.467 -0.1484  0.4347 -0.1306
 4801SOL    HW126057   2.731   0.082   3.508 -0.4069  0.3442 -0.6966
 4801SOL    HW226058   2.759   0.227   3.438 -0.2304 -0.0127 -1.3696
 4802SOL     OW26059   2.937   9.173   1.739  0.3143  0.4782  0.0210
 4802SOL    HW126060   2.924   9.186   1.837 -0.5073  1.8829 -0.2721
 4802SOL    HW226061   3.034   9.161   1.720  0.4660  0.0391  1.0129
 4803SOL     OW26062   4.927   1.743   4.223  0.1757  0.1142 -0.0866
 4803SOL    HW126063   4.935   1.727   4.125 -0.5841  1.5333 -0.3925
 4803SOL    HW226064   5.015   1.773   4.259  0.0845  1.0659 -0.6315
 4804SOL     OW26065   1.358   7.207   6.599  0.1700  0.6349  0.2979
 4804SOL    HW126066   1.279   7.264   6.575  0.6063  0.7426 -0.8656
 4804SOL    HW226067   1.334   7.111   6.586 -0.6302  0.5066  2.4434
 4805SOL     OW26068   4.158   0.821   3.478 -0.2740 -0.6219 -0.0991
 4805SOL    HW126069   4.163   0.803   3.380 -4.4522 -1.2560 -0.2877
 4805SOL    HW226070   4.136   0.736   3.527 -2.1713  0.4240  0.9314
 4806SOL     OW26071   1.677   3.964   4.612 -0.2402  0.0928  0.1669
 4806SOL    HW126072   1.718   3.921   4.531 -2.6057  0.7140 -1.4350
 4806SOL    HW226073   1.620   4.042   4.583 -0.2231  1.0316  2.5434
 4807SOL     OW26074   7.908   9.117   4.017  0.0250  0.0771  0.1611
 4807SOL    HW126075   7.956   9.104   4.104  1.0719  1.2708 -0.2223
 4807SOL    HW226076   7.953   9.189   3.965 -2.5224  1.6317  0.0291
 4808SOL     OW26077   8.854   9.707   7.025  0.4501  0.1551  0.4436
 4808SOL    HW126078   8.798   9.625   7.037  0.5986  0.1795  1.3782
 4808SOL    HW226079   8.828   9.753   6.940 -0.0688 -0.5158  0.2310
 4809SOL     OW26080   6.477   8.176   6.819  0.4414  0.2778  0.2941
 4809SOL    HW126081   6.411   8.121   6.767  1.5793 -0.5859 -0.2513
 4809SOL    HW226082   6.493   8.134   6.908  0.7657  0.1259  0.1623
 4810SOL     OW26083   4.185   0.321   2.904 -0.2866 -0.2679 -0.6424
 4810SOL    HW126084   4.087   0.303   2.918 -0.1962 -1.5076 -1.4375
 4810SOL    HW226085   4.201   0.345   2.809  0.0698  0.8032 -0.3132
 4811SOL     OW26086   2.285   7.844   4.187  0.1558 -0.1734  0.3367
 4811SOL    HW126087   2.226   7.772   4.225  0.6463 -1.4944 -1.3215
 4811SOL    HW226088   2.249   7.872   4.098  0.5224  0.9424  0.5398
 4812SOL     OW26089   1.354   2.515   6.458 -0.0915  0.0582 -0.4865
 4812SOL    HW126090   1.397   2.478   6.376 -1.5521 -0.4865 -1.0266
 4812SOL    HW226091   1.277   2.574   6.432 -2.6905 -2.7640  0.4975
 4813SOL     OW26092   2.415   0.042   4.277  0.1342 -0.1365  0.3915
 4813SOL    HW126093   2.420   0.082   4.368 -0.3946  0.3678  0.2004
 4813SOL    HW226094   2.320   0.020   4.254  0.1296  0.6893 -0.4379
 4814SOL     OW26095   9.932   3.250   2.053  0.1248 -0.0504  0.0788
 4814SOL    HW126096   9.972   3.280   2.140 -0.0876 -1.4594  0.6726
 4814SOL    HW226097   9.943   3.322   1.985  3.2272 -0.2118  0.3707
 4815SOL     OW26098   3.230   2.497   2.817  0.4641 -0.0836  0.1569
 4815SOL    HW126099   3.135   2.471   2.832  0.4933 -0.5008 -0.3551
 4815SOL    HW226100   3.246   2.589   2.854 -0.0122 -0.2009  0.6671
 4816SOL     OW26101   1.821   7.054   6.382  0.3080 -0.1175 -0.1753
 4816SOL    HW126102   1.753   7.098   6.441  0.1410 -2.5965  1.5536
 4816SOL    HW226103   1.910   7.056   6.427  0.2414 -1.7408  0.0610
 4817SOL     OW26104   1.282   1.380   7.605 -0.7586 -0.0858 -0.2890
 4817SOL    HW126105   1.353   1.315   7.632 -0.9179 -0.7193 -1.3666
 4817SOL    HW226106   1.196   1.331   7.590 -1.0023  0.4444 -0.6380
 4818SOL     OW26107   8.443   9.601   7.004 -0.3010  0.2666 -0.0391
 4818SOL    HW126108   8.487   9.677   6.955 -1.5217  0.7464 -0.4195
 4818SOL    HW226109   8.469   9.605   7.101  1.2147 -0.0089 -0.4189
 4819SOL     OW26110   8.014   0.664   2.804  0.1998 -0.8265 -0.4534
 4819SOL    HW126111   8.013   0.758   2.771 -0.0516 -0.8663 -0.5678
 4819SOL    HW226112   7.981   0.603   2.731 -1.1303 -0.8296  0.1287
 4820SOL     OW26113   9.958   6.544   1.547 -0.2978  0.2170 -0.2736
 4820SOL    HW126114   9.971   6.643   1.546 -0.9682  0.3649  2.0605
 4820SOL    HW226115   9.882   6.521   1.608  0.2198 -1.7802 -0.3279
 4821SOL     OW26116   1.787   9.295   1.021  0.2331  0.9392 -0.0336
 4821SOL    HW126117   1.872   9.322   0.977  0.3419  0.3757 -0.1765
 4821SOL    HW226118   1.773   9.196   1.009 -1.8164  1.4652 -2.4127
 4822SOL     OW26119   7.585   7.007   4.307 -0.0482 -0.0486 -0.2636
 4822SOL    HW126120   7.617   7.059   4.227 -1.0010 -0.8191 -1.1541
 4822SOL    HW226121   7.652   6.937   4.330 -0.7090 -1.1421 -1.6389
 4823SOL     OW26122   0.585   9.083   6.498 -0.3470 -0.4360  0.3505
 4823SOL    HW126123   0.638   9.077   6.413  2.1692  0.3045  1.8141
 4823SOL    HW226124   0.539   9.172   6.502  0.6250  0.0738  0.3616
 4824SOL     OW26125   3.043   0.287   5.428  0.2432 -0.2108 -0.0698
 4824SOL    HW126126   2.947   0.280   5.403  0.6246  1.5234 -2.2109
 4824SOL    HW226127   3.098   0.229   5.367  0.6643 -0.2366  0.3312
 4825SOL     OW26128   6.044   4.087   0.103 -0.2516 -0.2024  0.0650
 4825SOL    HW126129   5.949   4.088   0.072  0.3091 -0.5396 -1.7228
 4825SOL    HW226130   6.091   4.167   0.068  0.3244 -0.4156  0.3439
 4826SOL     OW26131   2.651   1.108   4.125 -0.6293  0.0444  0.0745
 4826SOL    HW126132   2.558   1.071   4.130 -1.2257  1.2691 -1.3643
 4826SOL    HW226133   2.707   1.049   4.067 -1.1704  0.5434 -0.9881
 4827SOL     OW26134   1.215   4.377   5.213 -0.2185  0.3129  0.4071
 4827SOL    HW126135   1.256   4.286   5.213 -0.9052  0.0037 -0.1736
 4827SOL    HW226136   1.200   4.407   5.119  1.2674  1.6045  0.5483
 4828SOL     OW26137   3.603   4.289   2.675  0.1996  0.5640  0.0242
 4828SOL    HW126138   3.653   4.286   2.588  2.2211 -0.5276  1.1931
 4828SOL    HW226139   3.572   4.383   2.692  0.9807  1.0583 -1.2087
 4829SOL     OW26140   1.504   0.816   3.668  0.5697 -0.0525  0.2703
 4829SOL    HW126141   1.435   0.746   3.648 -0.1880  0.7538  0.0172
 4829SOL    HW226142   1.521   0.819   3.766  1.5240 -1.4380  0.1622
 4830SOL     OW26143   8.148   8.995   3.462 -0.0243 -0.8001 -0.2607
 4830SOL    HW126144   8.202   8.921   3.500 -0.5154  0.6366  3.3674
 4830SOL    HW226145   8.051   8.978   3.478 -0.0010  2.1687  3.7008
 4831SOL     OW26146   0.790   0.612   3.179  0.0028  0.4078  0.2880
 4831SOL    HW126147   0.789   0.702   3.136 -0.4644 -0.2277 -1.0505
 4831SOL    HW226148   0.696   0.577   3.185  0.2337 -0.2048  0.3545
 4832SOL     OW26149   9.586   3.684   3.873  0.4300  0.0024 -0.2816
 4832SOL    HW126150   9.578   3.600   3.927  0.0674  0.8543  1.0117
 4832SOL    HW226151   9.504   3.740   3.885  1.2681  1.1899 -0.0169
 4833SOL     OW26152   2.220   8.041   4.788  0.0740 -0.3834 -0.2007
 4833SOL    HW126153   2.170   8.031   4.701  1.3659 -1.7678 -0.8082
 4833SOL    HW226154   2.314   8.069   4.769  0.1989 -0.1123  0.7985
 4834SOL     OW26155   4.914   1.648   4.579 -0.0192  0.1868  0.1935
 4834SOL    HW126156   4.880   1.682   4.491  1.7091 -0.8459 -0.8899
 4834SOL    HW226157   5.000   1.693   4.601  0.6665 -1.1688  0.2887
 4835SOL     OW26158   6.811   0.432   3.127  0.5997  0.0584  0.4457
 4835SOL    HW126159   6.870   0.377   3.187  0.7801  0.3691  0.5550
 4835SOL    HW226160   6.814   0.528   3.156 -0.8067 -0.0870  1.1406
 4836SOL     OW26161   4.258   1.037   7.853 -0.0140  0.0812 -0.4364
 4836SOL    HW126162   4.226   0.973   7.783  0.4249  0.3723 -0.9014
 4836SOL    HW226163   4.207   1.021   7.938 -0.6506 -0.1735 -0.8625
 4837SOL     OW26164   8.187   3.209   3.170  0.4365 -0.1796  0.3476
 4837SOL    HW126165   8.121   3.265   3.221  1.4988  0.0819  1.4724
 4837SOL    HW226166   8.277   3.215   3.215  1.3765 -0.0217 -1.5127
 4838SOL     OW26167   9.488   9.086   3.058  0.0438 -0.5119 -0.4388
 4838SOL    HW126168   9.461   8.995   3.091  2.8086 -1.2001  0.0314
 4838SOL    HW226169   9.430   9.155   3.100 -0.6129 -1.8911  0.9680
 4839SOL     OW26170   3.455   7.853   5.608  0.0596 -0.4349 -0.3222
 4839SOL    HW126171   3.447   7.810   5.518  0.2040  1.8878 -1.4795
 4839SOL    HW226172   3.371   7.904   5.628 -0.1881 -1.3872  1.1134
 4840SOL     OW26173   0.088   1.697   1.737 -0.5398  0.2437  0.4380
 4840SOL    HW126174   0.113   1.609   1.780  1.2294  1.3963  1.8647
 4840SOL    HW226175   0.172   1.748   1.716 -1.4859  0.8050 -2.1244
 4841SOL     OW26176   8.914   0.438   7.835 -0.1486  0.4358  0.5263
 4841SOL    HW126177   9.000   0.405   7.797 -0.6890 -1.7539  1.1032
 4841SOL    HW226178   8.931   0.485   7.922  0.5445  0.8047  0.1928
 4842SOL     OW26179   5.637   2.156   0.246  0.3912 -0.3482 -0.0415
 4842SOL    HW126180   5.695   2.184   0.169  0.2496  0.8713  0.2812
 4842SOL    HW226181   5.647   2.223   0.320 -0.4551 -0.8257  0.5017
 4843SOL     OW26182   0.618   3.276   7.378 -0.2813  0.1340  0.0299
 4843SOL    HW126183   0.572   3.220   7.309  1.2094 -4.4178  2.5193
 4843SOL    HW226184   0.717   3.270   7.364 -0.0219  0.2637  1.7342
 4844SOL     OW26185   4.117   0.352   3.776  0.2002 -0.1709 -0.4691
 4844SOL    HW126186   4.100   0.324   3.682  0.4237 -1.3838 -0.1518
 4844SOL    HW226187   4.033   0.344   3.829  0.6000 -1.6531 -0.0339
 4845SOL     OW26188   8.283   6.775   0.915  0.0204 -0.0333 -0.4180
 4845SOL    HW126189   8.289   6.804   1.011  0.7692  1.5187 -0.9160
 4845SOL    HW226190   8.373   6.750   0.882 -0.0368  0.5792 -1.0558
 4846SOL     OW26191   8.970   1.934   2.366  0.2306 -0.6663 -0.0062
 4846SOL    HW126192   8.962   1.949   2.268  0.9440 -2.0227 -0.2929
 4846SOL    HW226193   8.894   1.877   2.397  0.1673 -0.4851  0.1705
 4847SOL     OW26194   8.263   7.481   3.858  0.2029  0.9986  0.8645
 4847SOL    HW126195   8.312   7.502   3.943 -0.6974 -0.9540  1.8935
 4847SOL    HW226196   8.180   7.429   3.879 -1.0023  2.0763 -1.0691
 4848SOL     OW26197   4.127   1.836   2.046  0.2068  0.2357  0.0622
 4848SOL    HW126198   4.039   1.876   2.071  0.2263  1.0509 -1.1131
 4848SOL    HW226199   4.115   1.738   2.027 -0.3262  0.2163  0.4867
 4849SOL     OW26200   4.833   2.111   3.221  0.6052 -0.4864 -0.3634
 4849SOL    HW126201   4.932   2.125   3.232  0.9077 -2.8584  0.1435
 4849SOL    HW226202   4.785   2.160   3.294  1.4259  0.1471 -0.2303
 4850SOL     OW26203   1.676   0.921   7.309 -0.1778  0.2177  0.1717
 4850SOL    HW126204   1.674   1.012   7.266 -2.1144  1.1627  2.1512
 4850SOL    HW226205   1.610   0.862   7.263 -0.2651  0.3790  0.0881
 4851SOL     OW26206   9.492   6.146   2.395  0.4613 -0.0581  0.2595
 4851SOL    HW126207   9.509   6.052   2.366  0.6823 -0.3413  1.2976
 4851SOL    HW226208   9.573   6.202   2.377  0.7666 -0.3367  0.7478
 4852SOL     OW26209   1.859   4.386   5.462 -0.4014 -0.2254  0.1806
 4852SOL    HW126210   1.865   4.486   5.465 -1.1508 -0.1813  0.1961
 4852SOL    HW226211   1.883   4.354   5.370  0.5561 -0.0837  0.3763
 4853SOL     OW26212   9.875   6.460   2.303  0.3979 -0.0124  0.3527
 4853SOL    HW126213   9.853   6.362   2.297 -0.7612  0.3234 -1.3892
 4853SOL    HW226214   9.973   6.471   2.322  0.6664 -1.5001 -0.0602
 4854SOL     OW26215   3.353   1.502   0.037 -0.0004  0.4839  0.5455
 4854SOL    HW126216   3.288   1.490   0.111 -1.0063 -1.0356 -0.5538
 4854SOL    HW226217   3.305   1.526  -0.047  1.1057  1.9675  0.3183
 4855SOL     OW26218   0.146   2.784   0.486  0.1643  0.0244  0.1453
 4855SOL    HW126219   0.077   2.854   0.507  1.0853  0.7743  0.6998
 4855SOL    HW226220   0.100   2.700   0.457 -1.0365  0.1877  1.5162
 4856SOL     OW26221   7.418   7.094   2.052  0.0195  0.2993 -0.3656
 4856SOL    HW126222   7.357   7.111   2.130 -0.4157  2.3574 -1.1030
 4856SOL    HW226223   7.462   7.180   2.025  2.7787 -1.0107 -0.2657
 4857SOL     OW26224   5.211   5.355   2.289 -0.2027 -0.0120  0.4947
 4857SOL    HW126225   5.256   5.416   2.354 -1.2867 -0.1934  1.4222
 4857SOL    HW226226   5.112   5.368   2.293 -0.4024 -1.3054  0.1758
 4858SOL     OW26227   1.798   6.834   4.934 -0.4049 -0.1560 -0.4064
 4858SOL    HW126228   1.796   6.736   4.914  0.1686  0.3510 -3.1049
 4858SOL    HW226229   1.705   6.865   4.954 -0.4383 -1.4332  1.6002
 4859SOL     OW26230   3.149   4.604   4.848 -0.4680 -0.0004 -0.0875
 4859SOL    HW126231   3.235   4.630   4.805 -0.7891  0.6001 -0.3800
 4859SOL    HW226232   3.095   4.549   4.785 -0.0148 -0.9438  0.3415
 4860SOL     OW26233   2.357   2.538   0.326  0.0438 -0.4223 -0.0758
 4860SOL    HW126234   2.432   2.543   0.393 -0.5108 -0.3461  0.5455
 4860SOL    HW226235   2.392   2.502   0.240  0.7739 -0.5115  0.2532
 4861SOL     OW26236   8.330   9.579   0.341 -0.1677  0.5443  0.6166
 4861SOL    HW126237   8.261   9.539   0.401 -0.2949  0.1778  0.2239
 4861SOL    HW226238   8.288   9.651   0.285  0.1677  1.5699  1.6692
 4862SOL     OW26239   1.029   8.042   4.054 -0.3283 -0.3476  0.6025
 4862SOL    HW126240   0.997   7.949   4.073 -0.0638 -0.4987  0.3287
 4862SOL    HW226241   1.057   8.048   3.958 -0.8110  0.1521  0.4886
 4863SOL     OW26242   4.174   8.536   8.022 -0.3259  0.4759 -0.3395
 4863SOL    HW126243   4.243   8.533   8.095 -1.2260  0.1381  0.5201
 4863SOL    HW226244   4.090   8.494   8.055 -0.4096 -0.6744 -1.9651
 4864SOL     OW26245   9.162   2.334   8.114  0.4545  0.1807  0.2520
 4864SOL    HW126246   9.144   2.354   8.211  2.6939 -2.2603  1.2298
 4864SOL    HW226247   9.197   2.415   8.069  2.0978  0.6037  2.2229
 4865SOL     OW26248   3.207   7.328   5.536 -0.2567 -0.0836  0.2717
 4865SOL    HW126249   3.258   7.373   5.609  1.4711 -1.3004 -0.1498
 4865SOL    HW226250   3.112   7.314   5.565  0.2722 -0.0829  2.0795
 4866SOL     OW26251   5.941   2.760   0.579 -0.2194  0.0352  0.6817
 4866SOL    HW126252   6.030   2.750   0.534 -0.1778 -1.5323  1.0868
 4866SOL    HW226253   5.869   2.767   0.510  0.0752 -0.0729  0.3628
 4867SOL     OW26254   7.067   1.156   5.188 -0.5966  0.0130  0.2864
 4867SOL    HW126255   7.018   1.138   5.273 -2.1568 -1.3694 -0.8815
 4867SOL    HW226256   7.047   1.084   5.122  4.0052 -1.3083  0.1613
 4868SOL     OW26257   7.979   8.040   7.905 -0.1398  0.6331  0.1414
 4868SOL    HW126258   8.001   8.136   7.923  0.3440  0.8450 -1.4804
 4868SOL    HW226259   7.992   7.987   7.989  1.2683  1.7016  0.6330
 4869SOL     OW26260   1.970   9.221   2.295  0.1801  0.4893  0.0627
 4869SOL    HW126261   2.016   9.138   2.264 -2.8173 -0.9603 -0.6594
 4869SOL    HW226262   1.983   9.293   2.227 -0.6451 -0.6490 -1.3337
 4870SOL     OW26263   0.230   1.405   6.688 -0.1805 -0.0697  0.0909
 4870SOL    HW126264   0.309   1.424   6.745  0.3564 -2.2258  0.0960
 4870SOL    HW226265   0.218   1.479   6.622  2.0099  0.1149 -0.1214
 4871SOL     OW26266   7.727   5.730   5.487 -0.0232 -0.4115  0.2872
 4871SOL    HW126267   7.825   5.737   5.503  0.2635  1.0376 -1.7696
 4871SOL    HW226268   7.678   5.792   5.548  0.2895 -1.5548  1.7056
 4872SOL     OW26269   2.911   5.113   6.423  0.0472  0.5277 -0.2180
 4872SOL    HW126270   2.909   5.156   6.332  1.0280 -0.0104 -0.4965
 4872SOL    HW226271   3.005   5.098   6.451 -0.2437 -1.9974 -0.4109
 4873SOL     OW26272   2.198   7.010   4.950 -0.0067 -0.1735  0.0791
 4873SOL    HW126273   2.190   6.923   5.000  1.2881 -0.9469 -1.0160
 4873SOL    HW226274   2.142   7.006   4.868  2.7598 -1.3494 -1.8072
 4874SOL     OW26275   9.775   5.524   4.030  0.5273  0.7393 -0.0784
 4874SOL    HW126276   9.734   5.607   4.069 -0.2747  0.6213 -0.6547
 4874SOL    HW226277   9.748   5.515   3.934 -0.0296 -0.5994  0.1917
 4875SOL     OW26278   9.438   1.077   3.558 -0.5541 -0.0154  0.2692
 4875SOL    HW126279   9.344   1.098   3.584  0.4642  0.8609  3.4006
 4875SOL    HW226280   9.451   0.978   3.559 -1.6473 -0.1843 -0.9919
 4876SOL     OW26281   9.548   1.922   4.973 -0.2815 -0.3194  0.0744
 4876SOL    HW126282   9.581   1.829   4.993 -1.4100 -1.5730 -3.3575
 4876SOL    HW226283   9.486   1.918   4.894 -2.2324  3.0717  1.3467
 4877SOL     OW26284   7.484   8.337   3.375 -0.0244 -0.4688  0.2043
 4877SOL    HW126285   7.579   8.341   3.344  0.3561  0.3247  1.4110
 4877SOL    HW226286   7.432   8.410   3.331  0.5936  0.8724  1.6301
 4878SOL     OW26287   8.668   6.117   3.520 -0.1990 -0.3359 -0.1637
 4878SOL    HW126288   8.599   6.135   3.591 -0.6580  0.5506 -0.8174
 4878SOL    HW226289   8.711   6.029   3.537 -2.4208 -1.5245 -0.4597
 4879SOL     OW26290   3.343   4.182   1.580  0.4505  0.3380 -0.0867
 4879SOL    HW126291   3.346   4.157   1.677  0.5741 -1.0101 -0.4242
 4879SOL    HW226292   3.278   4.258   1.567  0.9652  1.0032  1.1423
 4880SOL     OW26293   5.971   9.151   3.408  0.7497  0.0436  0.2868
 4880SOL    HW126294   5.923   9.072   3.371  1.5292 -0.9462  1.3807
 4880SOL    HW226295   5.979   9.142   3.507  0.0369  1.9337  0.5369
 4881SOL     OW26296   6.425   0.012   1.565 -0.4665  0.7805  0.2982
 4881SOL    HW126297   6.498  -0.022   1.507 -1.0729  2.4756 -1.5110
 4881SOL    HW226298   6.399  -0.059   1.631  1.0766 -0.7222 -0.6703
 4882SOL     OW26299   3.522   9.553   5.500  0.0866 -0.3777 -0.6255
 4882SOL    HW126300   3.580   9.599   5.434  0.6015 -0.3277 -0.1419
 4882SOL    HW226301   3.466   9.484   5.453 -0.9595  0.9730 -1.4017
 4883SOL     OW26302   9.554   4.352   4.510 -0.2490 -0.2613  0.7289
 4883SOL    HW126303   9.640   4.346   4.562 -1.4544  0.1823  2.8240
 4883SOL    HW226304   9.490   4.284   4.545 -0.9247 -0.2684 -0.5210
 4884SOL     OW26305   4.069   2.480   6.194  0.5424 -0.9592 -0.0347
 4884SOL    HW126306   4.128   2.517   6.266  0.0554 -0.7253  0.2445
 4884SOL    HW226307   4.019   2.401   6.229  0.2417 -0.7942 -0.0979
 4885SOL     OW26308   9.366   5.052   5.851 -0.1385  0.2935 -0.6033
 4885SOL    HW126309   9.304   5.003   5.912 -0.4530  0.7381 -0.5654
 4885SOL    HW226310   9.451   5.074   5.900 -0.1364  0.0987 -0.5174
 4886SOL     OW26311   2.941   3.532   7.486 -0.3543  0.7463  0.5265
 4886SOL    HW126312   2.862   3.542   7.546  0.8137 -1.4228  2.5307
 4886SOL    HW226313   2.922   3.462   7.417 -0.0289 -0.2106  1.3800
 4887SOL     OW26314   3.675   1.143   0.079  0.0544 -0.3579  0.1274
 4887SOL    HW126315   3.735   1.185   0.010  1.3893  0.7785  1.9504
 4887SOL    HW226316   3.698   1.046   0.088 -0.6094 -0.6939 -1.5020
 4888SOL     OW26317   7.270   4.712   8.057  0.0099 -0.2004  0.4476
 4888SOL    HW126318   7.359   4.672   8.079  0.4440  1.1930  1.2750
 4888SOL    HW226319   7.200   4.673   8.116  0.5848  0.8997  1.8918
 4889SOL     OW26320   4.166   5.806   3.505 -0.1397 -0.6360  0.3462
 4889SOL    HW126321   4.136   5.845   3.592 -0.5951  0.3876 -0.2552
 4889SOL    HW226322   4.164   5.707   3.510  0.1922 -0.5890  1.6255
 4890SOL     OW26323   8.061   3.253   2.164  0.1726 -0.0288 -0.4009
 4890SOL    HW126324   8.010   3.305   2.095  0.3194 -1.0138 -1.2661
 4890SOL    HW226325   8.013   3.259   2.251 -0.7691  0.0812 -0.9129
 4891SOL     OW26326   5.862   7.811   4.259 -0.6483  0.7672 -0.6492
 4891SOL    HW126327   5.882   7.833   4.354 -1.9386 -1.1822  0.1068
 4891SOL    HW226328   5.936   7.843   4.200  0.5610  1.2209  1.1048
 4892SOL     OW26329   0.485   8.431   7.385 -0.1494 -0.8446 -0.3999
 4892SOL    HW126330   0.459   8.503   7.450  0.5513 -0.9163 -0.0262
 4892SOL    HW226331   0.537   8.361   7.434 -1.2935 -1.8830 -0.6534
 4893SOL     OW26332   6.650   0.696   2.714 -0.2662  0.3560 -0.5770
 4893SOL    HW126333   6.644   0.735   2.806  1.4002 -0.8466  0.0820
 4893SOL    HW226334   6.623   0.764   2.647 -1.1844  1.3652  0.7870
 4894SOL     OW26335   1.779   7.341   6.162 -0.4336  0.0584  0.0069
 4894SOL    HW126336   1.809   7.437   6.169 -3.1270  0.9324 -0.1301
 4894SOL    HW226337   1.688   7.331   6.202 -1.0358 -2.0492 -1.8002
 4895SOL     OW26338   8.630   3.520   1.467  0.4289 -0.5205 -0.4815
 4895SOL    HW126339   8.730   3.515   1.476  0.2859  0.6473  2.0639
 4895SOL    HW226340   8.602   3.616   1.464 -0.5806 -0.8530 -1.8158
 4896SOL     OW26341   2.881   8.883   8.031 -0.1255  0.2500  0.1786
 4896SOL    HW126342   2.890   8.882   7.931 -0.7750 -1.4469  0.1237
 4896SOL    HW226343   2.790   8.918   8.056 -0.2719 -0.1109  0.1504
 4897SOL     OW26344   8.923   3.711   6.889 -0.4779  0.1290  0.0222
 4897SOL    HW126345   8.902   3.807   6.869  1.8335  0.3377 -1.5078
 4897SOL    HW226346   8.965   3.704   6.979  0.7472  0.7363 -0.5022
 4898SOL     OW26347   3.213   8.900   2.257 -0.1792 -0.1838  0.1510
 4898SOL    HW126348   3.155   8.847   2.319  0.5602  1.5387  2.3890
 4898SOL    HW226349   3.214   8.995   2.287  2.7895  0.0588 -0.5891
 4899SOL     OW26350   4.592   8.568   5.939 -0.2197 -0.1139 -0.4992
 4899SOL    HW126351   4.572   8.605   5.849 -0.9097 -0.0528 -0.3224
 4899SOL    HW226352   4.550   8.626   6.009  1.1348  0.3934 -0.0860
 4900SOL     OW26353   1.949   4.134   0.931  0.3569  0.5775  0.6089
 4900SOL    HW126354   1.890   4.134   1.011  1.4067  3.5624  1.4095
 4900SOL    HW226355   2.035   4.089   0.953  0.2137  0.4029  0.8115
 4901SOL     OW26356   1.749   8.253   4.799  0.1972 -0.5771  0.6839
 4901SOL    HW126357   1.802   8.181   4.844 -0.7034  0.0230  2.7458
 4901SOL    HW226358   1.737   8.330   4.861 -2.5802 -0.4631  0.0698
 4902SOL     OW26359   5.230   3.120   0.311 -0.0226  0.3840 -0.0738
 4902SOL    HW126360   5.218   3.125   0.212  0.4403 -1.4316 -0.2322
 4902SOL    HW226361   5.157   3.065   0.351 -0.4698  1.4911  0.6623
 4903SOL     OW26362   2.418   5.364   4.731 -0.0626  0.0492 -0.0370
 4903SOL    HW126363   2.443   5.278   4.776  0.8790 -0.3939 -1.3884
 4903SOL    HW226364   2.318   5.373   4.729 -0.1760 -1.1457 -0.1276
 4904SOL     OW26365   6.627   0.657   5.517 -0.4216  0.1227  0.1823
 4904SOL    HW126366   6.710   0.688   5.563 -1.1512  0.2281  1.4603
 4904SOL    HW226367   6.615   0.559   5.532 -0.3108  0.0219 -0.3596
 4905SOL     OW26368   6.801   0.513   5.226 -0.1167 -0.4679  0.5978
 4905SOL    HW126369   6.776   0.610   5.226 -0.0440 -0.4491  0.4056
 4905SOL    HW226370   6.763   0.469   5.308 -0.5526 -0.3801  0.4486
 4906SOL     OW26371   1.819   3.261   6.421  0.2623  0.0780 -0.4742
 4906SOL    HW126372   1.890   3.191   6.433 -0.6460 -0.9147 -0.8586
 4906SOL    HW226373   1.835   3.336   6.486  0.4281 -1.1472  0.9275
 4907SOL     OW26374   9.658   5.095   7.601  0.0826  0.2892 -0.4355
 4907SOL    HW126375   9.738   5.148   7.574  0.7859 -0.4008  0.2972
 4907SOL    HW226376   9.670   5.000   7.574  0.4790 -0.2600  1.6641
 4908SOL     OW26377   3.761   3.288   3.908 -0.4470  0.3708 -0.6676
 4908SOL    HW126378   3.688   3.283   3.839  0.2699 -0.3217 -1.3750
 4908SOL    HW226379   3.725   3.334   3.990 -2.2071 -1.4806 -0.3513
 4909SOL     OW26380   2.944   5.952   7.335 -0.4107 -0.1522 -0.2199
 4909SOL    HW126381   2.888   5.908   7.264 -0.6421 -0.3778  0.1002
 4909SOL    HW226382   3.037   5.915   7.333 -0.6493 -0.7936  0.1636
 4910SOL     OW26383   7.940   5.772   2.040  0.0041  0.6276 -0.3397
 4910SOL    HW126384   7.885   5.691   2.063  1.0945 -0.8991 -2.9517
 4910SOL    HW226385   8.008   5.786   2.112  0.0388 -0.9977 -0.0282
 4911SOL     OW26386   7.776   3.051   1.990 -0.2375 -0.1957 -0.3690
 4911SOL    HW126387   7.696   3.084   2.041  0.4808  1.1101 -0.0677
 4911SOL    HW226388   7.830   3.129   1.959  0.6787 -1.0620 -0.9751
 4912SOL     OW26389   0.522   2.658   4.687 -0.1450  0.3541 -0.9379
 4912SOL    HW126390   0.610   2.705   4.678 -1.8511  3.6941 -0.9629
 4912SOL    HW226391   0.453   2.723   4.716 -2.4252 -2.4603  0.1982
 4913SOL     OW26392   8.306   7.512   5.413  0.1626  0.1999  0.2914
 4913SOL    HW126393   8.403   7.488   5.406  0.0295 -0.1130 -0.5006
 4913SOL    HW226394   8.297   7.597   5.465  0.8675  0.2663  0.3126
 4914SOL     OW26395   9.943   6.023   2.592 -0.7737 -0.5457  0.0927
 4914SOL    HW126396   9.912   5.991   2.503  0.5907 -0.2761 -0.4867
 4914SOL    HW226397  10.002   5.954   2.634 -1.3488 -0.6416  0.7534
 4915SOL     OW26398   6.274   1.193   3.111  0.2605  0.0170 -0.5881
 4915SOL    HW126399   6.335   1.267   3.086 -0.7918  0.9050 -0.5596
 4915SOL    HW226400   6.220   1.166   3.031  0.7247 -0.8098 -0.6321
 4916SOL     OW26401   8.672   8.219   7.753  0.1377  0.1245 -0.7129
 4916SOL    HW126402   8.765   8.256   7.745  0.5947 -1.0978 -1.0760
 4916SOL    HW226403   8.674   8.135   7.807 -1.0886  1.2808  1.2081
 4917SOL     OW26404   2.262   4.294   7.954 -0.5811 -0.2338  0.1221
 4917SOL    HW126405   2.174   4.249   7.962 -0.9255  0.2643 -0.8140
 4917SOL    HW226406   2.335   4.228   7.972 -1.1333 -0.6709  0.7935
 4918SOL     OW26407   1.660   3.174   6.898  0.0043 -0.5667 -0.2223
 4918SOL    HW126408   1.592   3.121   6.949 -1.4274  0.6317 -0.8745
 4918SOL    HW226409   1.661   3.143   6.802  0.3381 -0.5358 -0.2294
 4919SOL     OW26410   9.481   9.571   2.009  0.1080 -0.4484 -0.1091
 4919SOL    HW126411   9.487   9.520   2.095 -2.2091  2.4737  1.8655
 4919SOL    HW226412   9.552   9.641   2.007  0.4753 -0.8328 -0.8455
 4920SOL     OW26413   8.918   1.261   5.061  0.2494  0.3062 -0.1461
 4920SOL    HW126414   8.928   1.212   5.147 -0.0061 -2.0684 -1.4055
 4920SOL    HW226415   8.840   1.323   5.066  0.8428  0.9420  1.6377
 4921SOL     OW26416   9.639   2.208   6.951 -0.7897  0.3818 -0.1429
 4921SOL    HW126417   9.722   2.209   6.894 -0.7568 -1.5107 -0.1515
 4921SOL    HW226418   9.651   2.272   7.027  0.3436  0.7645 -0.6227
 4922SOL     OW26419   2.934   5.139   2.468 -0.0650  0.2459  0.8070
 4922SOL    HW126420   3.031   5.131   2.445 -0.3338  1.2998 -0.8275
 4922SOL    HW226421   2.922   5.128   2.566  1.3420 -2.8482  0.6732
 4923SOL     OW26422   6.797   7.857   6.317 -0.5919 -0.1108 -0.0128
 4923SOL    HW126423   6.876   7.915   6.298 -1.9973  1.0040 -2.7632
 4923SOL    HW226424   6.816   7.798   6.395  3.2250 -0.4130 -1.1193
 4924SOL     OW26425   8.889   3.418   5.682 -0.2504  0.8603 -0.0736
 4924SOL    HW126426   8.977   3.435   5.727  0.3896  0.1412 -1.0479
 4924SOL    HW226427   8.898   3.343   5.618 -2.4457 -1.5630  2.3330
 4925SOL     OW26428   1.922   7.228   5.758 -0.6666  0.7111 -0.3618
 4925SOL    HW126429   1.862   7.165   5.710 -0.3848  0.4733 -0.3979
 4925SOL    HW226430   1.917   7.210   5.856  0.2634 -0.1014 -0.4627
 4926SOL     OW26431   1.520   4.927   3.862  0.0130  0.2794  0.4601
 4926SOL    HW126432   1.551   4.835   3.840 -1.5861 -0.2249  0.1997
 4926SOL    HW226433   1.475   4.967   3.781 -1.2575  0.4296  1.2228
 4927SOL     OW26434   8.402   7.600   0.109  0.8676  0.2432  0.0487
 4927SOL    HW126435   8.379   7.549   0.192  0.6446  0.9515  0.4252
 4927SOL    HW226436   8.361   7.691   0.113 -1.0735 -0.5019 -1.8645
 4928SOL     OW26437   0.319   3.237   1.288  0.4012  0.6040  0.7540
 4928SOL    HW126438   0.365   3.196   1.210  0.9962 -2.3162  2.5807
 4928SOL    HW226439   0.267   3.167   1.337 -0.5457  2.5236  2.5856
 4929SOL     OW26440   0.443   7.526   4.949  0.1153 -0.1375  0.0373
 4929SOL    HW126441   0.373   7.468   4.907 -0.4399  0.6007 -0.0799
 4929SOL    HW226442   0.493   7.575   4.878 -1.2655  1.6103  0.2468
 4930SOL     OW26443   5.966   0.067   6.472  0.8627  0.5433 -0.5391
 4930SOL    HW126444   5.883   0.068   6.417  0.4791 -0.5463  0.0222
 4930SOL    HW226445   5.948   0.109   6.561  0.8201 -0.0450 -0.2732
 4931SOL     OW26446   8.306   2.909   3.270  0.1786  0.4131  0.1421
 4931SOL    HW126447   8.270   2.991   3.314  0.5846  0.0221  1.2184
 4931SOL    HW226448   8.301   2.832   3.333  2.6514  0.2873  0.2647
 4932SOL     OW26449   7.653   0.655   6.121  0.0658 -0.1885  0.2309
 4932SOL    HW126450   7.631   0.590   6.193  0.4208  0.0325  0.5389
 4932SOL    HW226451   7.604   0.630   6.037  0.1326 -0.7992  0.3738
 4933SOL     OW26452   0.960   0.818   6.631 -0.1580 -0.4151  0.4759
 4933SOL    HW126453   1.039   0.761   6.607 -0.6298 -0.7699 -0.2686
 4933SOL    HW226454   0.975   0.911   6.597  0.5406 -0.1208  1.5500
 4934SOL     OW26455   8.197   6.007   7.780  0.0476  0.5209 -0.3337
 4934SOL    HW126456   8.292   5.993   7.754 -0.4128  0.0970 -1.8962
 4934SOL    HW226457   8.184   6.099   7.815  0.8448  0.8930 -1.0167
 4935SOL     OW26458   1.479   7.385   5.430 -0.2988  0.1386 -0.3599
 4935SOL    HW126459   1.539   7.307   5.444 -0.3667  0.2805  0.7548
 4935SOL    HW226460   1.517   7.444   5.359  0.1990 -0.4498 -0.5877
 4936SOL     OW26461   6.187   8.489   3.966  0.0020 -0.8586  0.8107
 4936SOL    HW126462   6.214   8.565   3.905  1.6058 -1.5760  0.5915
 4936SOL    HW226463   6.203   8.402   3.919 -1.7242 -1.3550  1.1078
 4937SOL     OW26464   3.751   9.073   7.842  0.0183  0.5345 -0.3734
 4937SOL    HW126465   3.672   9.108   7.893  0.0398 -1.0170  0.7359
 4937SOL    HW226466   3.720   9.030   7.757 -0.2884  0.2938 -0.1396
 4938SOL     OW26467   3.432   7.898   1.725 -0.5213  0.0347 -0.8982
 4938SOL    HW126468   3.367   7.900   1.649 -2.8605 -0.7620  0.9960
 4938SOL    HW226469   3.394   7.950   1.802  0.1741 -2.0863  0.9187
 4939SOL     OW26470   6.431   0.946   2.862  0.4726  0.2219 -0.3810
 4939SOL    HW126471   6.479   0.873   2.911 -1.6555 -0.5190  0.6621
 4939SOL    HW226472   6.333   0.931   2.868  0.0546  2.3134 -1.5363
 4940SOL     OW26473   2.788   5.986   1.123 -0.0071 -0.1313  0.6306
 4940SOL    HW126474   2.722   6.008   1.051  1.2182  0.5931 -0.2872
 4940SOL    HW226475   2.878   5.971   1.082  0.2281 -2.0100  1.7677
 4941SOL     OW26476   8.016   3.985   6.656 -0.3398 -0.0430 -0.0549
 4941SOL    HW126477   7.997   4.062   6.716 -0.1784  0.3106 -0.4527
 4941SOL    HW226478   7.930   3.944   6.626 -0.4458  0.3814 -0.3477
 4942SOL     OW26479   2.173   0.842   6.588 -0.1152  0.0333 -0.1575
 4942SOL    HW126480   2.237   0.806   6.655  0.1679 -1.1008 -1.0185
 4942SOL    HW226481   2.091   0.784   6.586 -0.9114  1.1126  0.4970
 4943SOL     OW26482   8.237   1.794   4.098 -0.1768  0.5829 -0.1244
 4943SOL    HW126483   8.294   1.712   4.093  2.4669  2.4282 -1.3039
 4943SOL    HW226484   8.260   1.845   4.181 -2.0629 -0.0005  0.7873
 4944SOL     OW26485   8.072   3.250   0.822  0.0580  0.3493  0.4425
 4944SOL    HW126486   8.038   3.329   0.873 -1.1459 -0.6240  1.1810
 4944SOL    HW226487   8.090   3.175   0.885  0.1369 -0.3279 -0.3768
 4945SOL     OW26488   8.846   4.469   5.311 -0.4269 -0.4160 -0.5825
 4945SOL    HW126489   8.935   4.501   5.277  0.5078 -1.9500  0.3705
 4945SOL    HW226490   8.792   4.548   5.342  0.9263  0.4514 -0.3884
 4946SOL     OW26491   0.505   0.912   0.732 -0.0475 -0.7004 -0.6469
 4946SOL    HW126492   0.422   0.857   0.726 -0.1311 -0.7480  0.6364
 4946SOL    HW226493   0.481   1.007   0.752  0.1969 -0.7454 -0.1049
 4947SOL     OW26494   1.898   5.641   4.255 -0.1773  0.6205  0.2443
 4947SOL    HW126495   1.869   5.577   4.327  1.6494  0.8993  1.2543
 4947SOL    HW226496   1.854   5.615   4.169  1.3713 -2.7022  0.3784
 4948SOL     OW26497   5.792   9.991   5.885 -0.2217 -0.7077 -0.2161
 4948SOL    HW126498   5.858   9.996   5.960  0.2579  0.7262 -0.7241
 4948SOL    HW226499   5.722   9.922   5.907  0.7222 -1.3399  0.8850
 4949SOL     OW26500   7.900   5.665   7.461 -0.4432  0.2480  0.3120
 4949SOL    HW126501   7.966   5.740   7.457 -1.6400  1.2426 -1.8671
 4949SOL    HW226502   7.941   5.582   7.422 -0.1395  0.6054 -0.1296
 4950SOL     OW26503   3.038   1.309   3.648 -0.3412  0.2333 -0.1093
 4950SOL    HW126504   2.969   1.366   3.603 -0.1486  1.0622  0.6453
 4950SOL    HW226505   2.997   1.264   3.727 -0.8556 -1.7324 -1.4465
 4951SOL     OW26506   6.446   7.338   4.433  0.2671 -0.3141 -0.2166
 4951SOL    HW126507   6.445   7.261   4.496 -0.1215  0.5320  0.8254
 4951SOL    HW226508   6.460   7.423   4.484  1.4123  0.2411 -1.4285
 4952SOL     OW26509   4.342   1.464   4.668 -0.0516  0.0865  0.5928
 4952SOL    HW126510   4.377   1.554   4.692  2.8248 -1.2237  1.5062
 4952SOL    HW226511   4.326   1.411   4.751 -3.2068  0.2527  0.1349
 4953SOL     OW26512   3.703   2.948   1.957 -0.2434 -0.0331 -0.2960
 4953SOL    HW126513   3.761   2.956   2.038  1.1286  0.5398 -1.3119
 4953SOL    HW226514   3.755   2.904   1.883 -1.1508  0.3707 -1.1872
 4954SOL     OW26515   5.476   4.443   1.107 -0.5955  0.0562 -0.0036
 4954SOL    HW126516   5.531   4.527   1.114  1.4071 -1.2785  0.6687
 4954SOL    HW226517   5.456   4.408   1.198 -1.5426 -0.1462 -0.2819
 4955SOL     OW26518   6.828   8.469   5.773 -0.4976 -0.0213 -0.5409
 4955SOL    HW126519   6.819   8.374   5.805 -0.1887 -0.0548 -0.5511
 4955SOL    HW226520   6.849   8.469   5.675  3.1682 -0.0725  0.1783
 4956SOL     OW26521   0.452   9.062   3.443  0.5549 -0.0065 -0.6133
 4956SOL    HW126522   0.352   9.056   3.440  0.5633 -0.0034 -1.0485
 4956SOL    HW226523   0.484   9.112   3.362  1.0349 -1.8354 -1.5671
 4957SOL     OW26524   9.091   2.931   6.955 -0.4804  0.1566 -0.1568
 4957SOL    HW126525   9.007   2.895   6.916 -0.4540  0.7799 -0.7905
 4957SOL    HW226526   9.164   2.927   6.887  0.8355 -3.3021  1.3368
 4958SOL     OW26527   0.223   2.536   4.115 -0.4045 -0.3746 -0.5853
 4958SOL    HW126528   0.200   2.535   4.017 -1.6802  0.3271 -0.3004
 4958SOL    HW226529   0.144   2.504   4.168  0.1070 -0.2574  0.2532
 4959SOL     OW26530   4.225   8.987   1.320 -0.0398  0.5782 -0.0619
 4959SOL    HW126531   4.282   8.907   1.303  0.6336  0.9667  0.3563
 4959SOL    HW226532   4.145   8.960   1.373 -0.7814 -0.1478 -1.5302
 4960SOL     OW26533   0.707   7.370   4.477  0.2306 -0.7262 -0.2850
 4960SOL    HW126534   0.688   7.403   4.384 -0.1646  1.8840  0.6843
 4960SOL    HW226535   0.624   7.332   4.516 -0.0542 -0.2265 -0.3910
 4961SOL     OW26536   8.014   0.379   8.124  0.5117 -0.6790 -0.3212
 4961SOL    HW126537   7.993   0.424   8.037 -0.9996 -1.0728 -0.1721
 4961SOL    HW226538   8.100   0.416   8.161  0.8509 -0.0841 -1.6775
 4962SOL     OW26539   0.076   6.637   3.397  0.7292 -0.0340 -0.7631
 4962SOL    HW126540   0.105   6.585   3.316  2.2767  1.6554 -1.3342
 4962SOL    HW226541   0.139   6.713   3.412 -0.1316  0.2900  1.4508
 4963SOL     OW26542   9.786   1.544   0.505 -0.3154 -0.3383  0.0787
 4963SOL    HW126543   9.780   1.644   0.508  2.3602 -0.1262 -0.5255
 4963SOL    HW226544   9.822   1.515   0.416 -1.2247 -1.8603  0.1818
 4964SOL     OW26545   9.529   8.168   6.057  0.1225  0.0805  0.2928
 4964SOL    HW126546   9.467   8.105   6.010 -2.1121  0.8509  2.0553
 4964SOL    HW226547   9.527   8.257   6.012  0.7098 -0.1839 -0.2482
 4965SOL     OW26548   6.657   3.403   0.817 -0.0731  0.2298  0.1336
 4965SOL    HW126549   6.698   3.439   0.901  0.3509 -0.3655  0.1876
 4965SOL    HW226550   6.727   3.355   0.764 -0.6307 -0.5592  0.0940
 4966SOL     OW26551   0.933   7.441   0.267  0.9694 -0.2985  0.5462
 4966SOL    HW126552   0.849   7.411   0.311  0.6752  0.1171  0.2726
 4966SOL    HW226553   1.001   7.463   0.337  0.4948  0.3772  0.8016
 4967SOL     OW26554   5.123   0.650   6.709 -0.5461  0.6296  0.0945
 4967SOL    HW126555   5.181   0.581   6.666 -1.4462 -0.0872  0.0181
 4967SOL    HW226556   5.179   0.728   6.737  0.5313 -0.2712  0.4769
 4968SOL     OW26557   5.197   8.466   3.434 -0.1855 -0.0198 -0.0242
 4968SOL    HW126558   5.253   8.452   3.515  0.7635  1.3033 -0.4455
 4968SOL    HW226559   5.114   8.409   3.441  0.4450 -0.8028  1.3082
 4969SOL     OW26560   3.503   6.132   0.647  0.2265  0.3566 -0.3927
 4969SOL    HW126561   3.562   6.145   0.727  0.8091 -0.1875 -0.7313
 4969SOL    HW226562   3.533   6.194   0.573  1.2168 -0.8484 -1.0220
 4970SOL     OW26563   0.519   4.809   0.776 -0.0053 -0.6777  0.1086
 4970SOL    HW126564   0.533   4.710   0.778  0.4299 -0.6069  1.3161
 4970SOL    HW226565   0.596   4.853   0.823  1.0073  0.3733 -2.4697
 4971SOL     OW26566   1.832   8.671   3.120 -0.0583 -0.2799 -0.2632
 4971SOL    HW126567   1.849   8.686   3.218  0.3598  0.0031 -0.3786
 4971SOL    HW226568   1.866   8.748   3.068 -0.0149 -0.5658 -0.6616
 4972SOL     OW26569   6.518   1.450   4.205 -0.2407 -0.5555 -0.2250
 4972SOL    HW126570   6.538   1.449   4.107  0.8209 -0.7596 -0.0137
 4972SOL    HW226571   6.603   1.442   4.257 -0.6420  1.0067  0.7324
 4973SOL     OW26572   9.261   5.834   2.980 -0.0219  0.3218  0.3448
 4973SOL    HW126573   9.269   5.804   3.075 -2.2852 -2.1990 -0.2107
 4973SOL    HW226574   9.185   5.898   2.971 -0.9287 -0.7885 -0.0426
 4974SOL     OW26575   1.089   4.951   0.840  0.3061  0.4397  0.4955
 4974SOL    HW126576   1.111   4.882   0.909  2.2945 -0.0891 -0.6288
 4974SOL    HW226577   1.055   4.907   0.757  2.4783  0.7139 -0.5703
 4975SOL     OW26578   6.727   6.119   6.541 -0.5550  0.3397  0.6510
 4975SOL    HW126579   6.679   6.056   6.479 -1.1166  0.9382  0.4639
 4975SOL    HW226580   6.814   6.078   6.570 -0.4007 -0.0529 -0.3413
 4976SOL     OW26581   2.635   3.276   7.730 -0.5040  0.6650  0.6206
 4976SOL    HW126582   2.725   3.274   7.687 -1.4057 -0.5403 -1.2583
 4976SOL    HW226583   2.625   3.198   7.792 -0.5130  0.3979  0.2824
 4977SOL     OW26584   0.640   6.649   0.740 -0.4461 -0.5268  0.2929
 4977SOL    HW126585   0.722   6.648   0.683 -0.6242 -1.4723  0.0535
 4977SOL    HW226586   0.631   6.561   0.787 -3.2363 -1.7502 -2.4161
 4978SOL     OW26587   4.128   6.873   2.187  0.6061  0.1767 -0.1781
 4978SOL    HW126588   4.048   6.890   2.245 -0.5332  1.0597 -1.9750
 4978SOL    HW226589   4.209   6.864   2.245 -0.5516  0.7109  1.5768
 4979SOL     OW26590   3.772   5.075   0.786  0.2702  0.0255 -0.2008
 4979SOL    HW126591   3.713   4.997   0.804  1.0287 -0.4920  0.0473
 4979SOL    HW226592   3.858   5.065   0.836  0.4363  0.9433 -0.2842
 4980SOL     OW26593   3.978   0.658   4.126 -0.7134 -1.0025  0.0792
 4980SOL    HW126594   3.927   0.743   4.113  1.0744 -0.0399 -0.9291
 4980SOL    HW226595   4.000   0.648   4.223 -0.8022 -0.2259  0.1880
 4981SOL     OW26596   4.203   9.461   6.489 -0.3764  0.3706 -0.1797
 4981SOL    HW126597   4.243   9.547   6.457  0.1020  0.1518 -0.1755
 4981SOL    HW226598   4.192   9.464   6.588 -0.7247  0.5771 -0.2226
 4982SOL     OW26599   8.169   7.493   5.187 -0.0378  0.3369  0.4280
 4982SOL    HW126600   8.225   7.489   5.270  1.6624 -0.2335 -0.7164
 4982SOL    HW226601   8.073   7.500   5.213  0.3530 -1.0728  2.4693
 4983SOL     OW26602   7.590   1.201   6.835 -0.3264  0.1089 -0.6910
 4983SOL    HW126603   7.517   1.195   6.903 -0.0194  0.7399 -0.2964
 4983SOL    HW226604   7.556   1.169   6.747 -0.8153 -0.4423 -0.3080
 4984SOL     OW26605   0.744   8.130   5.301  0.3970  0.0636 -0.1555
 4984SOL    HW126606   0.700   8.059   5.246  0.5069  0.1680 -0.3770
 4984SOL    HW226607   0.684   8.156   5.377  0.1680  0.0535 -0.3352
 4985SOL     OW26608   4.119   9.986   7.578  0.3369 -0.2434 -0.1436
 4985SOL    HW126609   4.197  10.013   7.634  1.0138 -1.2924 -0.5689
 4985SOL    HW226610   4.040   9.966   7.637  0.9441 -1.0241  0.3977
 4986SOL     OW26611   8.222   1.293   4.577 -0.0889 -0.8777 -0.2158
 4986SOL    HW126612   8.154   1.247   4.635  1.1187 -2.5669 -0.0764
 4986SOL    HW226613   8.314   1.267   4.608  0.5805 -0.8320 -2.1099
 4987SOL     OW26614   6.220   1.027   1.856 -0.2249 -0.2485  0.1147
 4987SOL    HW126615   6.142   0.969   1.878  0.7645 -1.9530 -0.7787
 4987SOL    HW226616   6.261   1.061   1.940 -1.9977  0.7734  0.5925
 4988SOL     OW26617   2.383   4.978   2.617 -0.3578  0.1325  0.8137
 4988SOL    HW126618   2.375   4.944   2.711 -0.7116  0.1143  0.7794
 4988SOL    HW226619   2.350   5.072   2.613  1.0093  0.6211  0.9882
 4989SOL     OW26620   7.330   5.361   0.586  0.2194 -0.6295 -0.6644
 4989SOL    HW126621   7.230   5.361   0.594  0.4202 -1.1395  2.4848
 4989SOL    HW226622   7.364   5.455   0.588 -0.0604 -0.5447  0.8726
 4990SOL     OW26623   1.996   4.856   7.832 -0.1081 -0.1859 -0.1021
 4990SOL    HW126624   2.002   4.779   7.895  1.5642 -0.7753 -0.9652
 4990SOL    HW226625   1.943   4.829   7.751  2.2854 -1.1303 -1.3871
 4991SOL     OW26626   2.416   8.151   7.455  0.4203  0.3778  0.0460
 4991SOL    HW126627   2.326   8.140   7.413 -0.3229  2.4629  1.0247
 4991SOL    HW226628   2.454   8.062   7.476 -0.6498 -0.5930 -1.9867
 4992SOL     OW26629   8.807   3.744   6.264 -0.1490 -0.2428  0.8339
 4992SOL    HW126630   8.757   3.830   6.268 -0.4503 -0.4330  1.1967
 4992SOL    HW226631   8.749   3.674   6.222 -0.8322 -0.8989  2.8064
 4993SOL     OW26632   1.446   1.789   2.410  0.2019 -0.5193 -0.2813
 4993SOL    HW126633   1.364   1.744   2.376  0.0337 -0.2587 -0.2138
 4993SOL    HW226634   1.481   1.852   2.341 -0.4662  0.4398  0.2556
 4994SOL     OW26635   1.181   3.048   7.908  0.2675  0.3810 -0.2891
 4994SOL    HW126636   1.208   3.137   7.871  0.0831  0.5004 -0.1330
 4994SOL    HW226637   1.246   2.978   7.877  0.4650  0.5855 -0.3329
 4995SOL     OW26638   1.108   0.724   2.450  0.1702  0.2789 -0.2274
 4995SOL    HW126639   1.030   0.679   2.493  0.3836 -0.4959 -0.6395
 4995SOL    HW226640   1.145   0.794   2.511 -0.5457  0.3152  0.1637
 4996SOL     OW26641   0.121   2.798   3.417 -0.1895  0.1582  0.3527
 4996SOL    HW126642   0.119   2.709   3.462 -1.8070 -0.3211 -0.6268
 4996SOL    HW226643   0.029   2.837   3.415  0.1789  1.0114 -0.8969
 4997SOL     OW26644   3.414   5.361   4.739 -0.4862 -0.1535  0.1562
 4997SOL    HW126645   3.444   5.442   4.689  0.8827 -0.6826  0.0938
 4997SOL    HW226646   3.315   5.366   4.754 -0.0828  2.6209  2.1866
 4998SOL     OW26647   1.308   0.309   1.324 -0.0504 -0.1037 -0.0733
 4998SOL    HW126648   1.316   0.271   1.417 -0.2895  2.7813  1.1879
 4998SOL    HW226649   1.212   0.326   1.304  0.1669  1.2095 -0.0237
 4999SOL     OW26650   5.078   1.615   0.198 -0.0701 -0.4155 -0.8988
 4999SOL    HW126651   5.122   1.618   0.108 -0.3609  1.5344 -1.0007
 4999SOL    HW226652   4.980   1.633   0.187 -0.0701  0.0151 -0.1650
 5000SOL     OW26653   2.586   2.384   4.299 -0.3139 -0.5931 -0.1252
 5000SOL    HW126654   2.620   2.305   4.249  0.9248 -0.7982  1.0141
 5000SOL    HW226655   2.534   2.353   4.379 -0.2751 -0.2624  0.0282
 5001SOL     OW26656   2.068   2.833   5.252  0.5238  0.2721 -0.4957
 5001SOL    HW126657   2.106   2.741   5.262 -0.9169 -0.2518  0.4405
 5001SOL    HW226658   2.137   2.901   5.275  2.2973 -0.4691 -3.3111
 5002SOL     OW26659   3.582   4.528   3.463 -0.0049  0.3199  0.0582
 5002SOL    HW126660   3.652   4.515   3.393  0.0338  2.5979 -0.3411
 5002SOL    HW226661   3.493   4.498   3.428 -0.2240  2.6434 -1.4388
 5003SOL     OW26662   9.601   7.317   7.544 -0.0836  0.1847  0.0540
 5003SOL    HW126663   9.515   7.303   7.495  0.2445  0.8521 -0.7192
 5003SOL    HW226664   9.666   7.246   7.519 -0.6167 -0.6950  1.1292
 5004SOL     OW26665   2.985   3.463   0.851 -0.4660 -0.0843  0.0210
 5004SOL    HW126666   3.056   3.437   0.917  1.1213 -0.7899 -1.9298
 5004SOL    HW226667   2.982   3.563   0.845  0.3869 -0.0423  0.1034
 5005SOL     OW26668   9.631   4.158   0.109  0.2932 -0.0490 -0.0286
 5005SOL    HW126669   9.535   4.128   0.113  0.5016 -0.7347 -0.1105
 5005SOL    HW226670   9.688   4.096   0.162  0.6777  0.4393  0.1354
 5006SOL     OW26671   9.136   6.543   2.563  0.0045 -0.1737 -0.6131
 5006SOL    HW126672   9.157   6.512   2.656 -1.7717 -1.2207 -0.5377
 5006SOL    HW226673   9.216   6.526   2.505  0.6418 -0.8195  0.4109
 5007SOL     OW26674   7.547   1.503   1.368 -0.1449  0.0896  0.0104
 5007SOL    HW126675   7.626   1.447   1.393 -1.0895 -0.6967  1.2685
 5007SOL    HW226676   7.463   1.454   1.391 -0.9987  1.1577 -0.8057
 5008SOL     OW26677   8.415   8.051   7.752 -0.2057  0.0381 -0.1645
 5008SOL    HW126678   8.493   8.104   7.785  0.0090 -0.5775  0.3243
 5008SOL    HW226679   8.339   8.113   7.731  0.1670  0.5687  0.0424
 5009SOL     OW26680   0.229   1.572   6.485 -0.9110 -0.3479 -0.5726
 5009SOL    HW126681   0.178   1.534   6.408 -0.3893  0.2419 -1.2240
 5009SOL    HW226682   0.254   1.667   6.464  1.0380 -0.8339 -0.5615
 5010SOL     OW26683   3.438   9.309   4.840 -0.4308 -0.8873 -0.0280
 5010SOL    HW126684   3.389   9.394   4.861 -0.3185 -0.0634 -2.9396
 5010SOL    HW226685   3.536   9.324   4.855 -0.5686 -1.0906  1.1847
 5011SOL     OW26686   1.425   0.872   2.686  0.1750  0.6340 -0.6973
 5011SOL    HW126687   1.452   0.863   2.782  2.2866 -0.7568 -1.3839
 5011SOL    HW226688   1.481   0.942   2.642  1.8442 -1.3243 -1.7983
 5012SOL     OW26689   4.338   7.529   5.392  0.1326  0.0468  0.3914
 5012SOL    HW126690   4.269   7.457   5.389 -0.7787  0.9218 -0.1227
 5012SOL    HW226691   4.393   7.527   5.308  0.2432 -0.1672  0.4677
 5013SOL     OW26692   1.518   6.499   5.686 -0.4339  0.2062 -0.3081
 5013SOL    HW126693   1.437   6.441   5.682 -1.1908  1.0455  2.1423
 5013SOL    HW226694   1.506   6.576   5.622 -1.8970  0.7153  0.5461
 5014SOL     OW26695   2.780   2.738   6.873 -0.6314 -0.4684  0.3545
 5014SOL    HW126696   2.753   2.751   6.777 -1.7050 -0.9527  0.5781
 5014SOL    HW226697   2.879   2.747   6.882 -0.6878  1.2441 -0.5299
 5015SOL     OW26698   9.023   0.880   8.070  0.1163 -0.1223 -0.4281
 5015SOL    HW126699   9.097   0.911   8.130 -0.6320  0.0773  0.4090
 5015SOL    HW226700   9.005   0.949   8.000  0.6809 -0.1456 -0.5982
 5016SOL     OW26701   9.305   0.257   2.416 -0.4417 -0.2632  0.6789
 5016SOL    HW126702   9.316   0.222   2.509  0.6506 -0.2177  0.5770
 5016SOL    HW226703   9.380   0.320   2.396 -0.9869  0.1572 -0.0366
 5017SOL     OW26704   8.431   0.040   3.226  0.2889  0.0565  0.2432
 5017SOL    HW126705   8.513   0.016   3.176  0.5707 -1.0076  1.1939
 5017SOL    HW226706   8.433  -0.003   3.316 -0.9392  0.6609  0.5727
 5018SOL     OW26707   6.709   1.329   2.851 -0.1058  0.4248 -0.4290
 5018SOL    HW126708   6.631   1.284   2.808  0.0186  0.1581 -0.3750
 5018SOL    HW226709   6.728   1.287   2.940  2.1086 -1.6856 -1.8434
 5019SOL     OW26710   4.122   0.948   2.809  0.4668  0.3745 -0.1922
 5019SOL    HW126711   4.193   0.878   2.810  1.1209  1.0492  0.7409
 5019SOL    HW226712   4.112   0.983   2.716 -0.6875 -1.7655 -0.9257
 5020SOL     OW26713   9.328   9.787   1.115 -0.0548  0.0650 -0.2324
 5020SOL    HW126714   9.265   9.732   1.171  0.2289  1.2212  1.2483
 5020SOL    HW226715   9.286   9.875   1.094  1.9633  1.8534  2.8556
 5021SOL     OW26716   9.886   1.353   3.468  0.6189 -0.0332 -0.5808
 5021SOL    HW126717   9.826   1.432   3.462  1.3383  0.5156 -0.6792
 5021SOL    HW226718   9.847   1.286   3.531  0.0399  0.4340 -0.4388
 5022SOL     OW26719   5.824   0.190   4.375  0.5216 -0.1992 -0.1026
 5022SOL    HW126720   5.888   0.234   4.438  0.5370  0.1094 -0.3321
 5022SOL    HW226721   5.765   0.127   4.425  1.1320 -0.6282  0.0797
 5023SOL     OW26722   8.268   1.818   0.543  0.2264 -0.8806 -0.4905
 5023SOL    HW126723   8.200   1.779   0.605 -0.1217 -0.0702 -0.3640
 5023SOL    HW226724   8.245   1.913   0.523  1.9438 -0.2557  0.4514
 5024SOL     OW26725   8.828   7.723   4.749  0.5762  0.5922 -0.2149
 5024SOL    HW126726   8.782   7.791   4.806  0.0846  0.8882 -0.9613
 5024SOL    HW226727   8.835   7.757   4.655 -2.0514 -1.4601 -1.2166
 5025SOL     OW26728   3.348   3.171   6.037 -0.4997  0.0877  0.0000
 5025SOL    HW126729   3.414   3.196   6.108 -0.1382 -2.2974  0.5305
 5025SOL    HW226730   3.382   3.203   5.948 -0.2680  1.8264  0.6989
 5026SOL     OW26731   3.190   8.790   3.169 -0.8140  0.3383  0.7559
 5026SOL    HW126732   3.158   8.881   3.144 -1.7166 -0.3116 -0.5676
 5026SOL    HW226733   3.173   8.727   3.093  0.2244 -0.8361  1.4669
 5027SOL     OW26734   3.094   3.248   6.121  0.5063  0.2642  0.0089
 5027SOL    HW126735   3.039   3.176   6.164  0.2832  1.5166  1.9391
 5027SOL    HW226736   3.186   3.214   6.104  0.1836 -0.7245  0.1809
 5028SOL     OW26737   3.884   3.151   8.013 -0.2387  0.4319 -0.4631
 5028SOL    HW126738   3.941   3.229   8.039 -1.0779  1.0686 -0.5171
 5028SOL    HW226739   3.788   3.178   8.017 -0.5646 -0.8250  0.2455
 5029SOL     OW26740   2.791   4.461   3.823  0.3920 -0.4268  0.4213
 5029SOL    HW126741   2.762   4.528   3.891  0.1813 -0.1238  0.0381
 5029SOL    HW226742   2.717   4.446   3.758 -0.0455 -2.0263  1.2667
 5030SOL     OW26743   2.922   9.491   1.159 -0.5014 -0.2834 -0.0677
 5030SOL    HW126744   2.908   9.515   1.255 -2.0421 -0.2921 -0.2877
 5030SOL    HW226745   2.847   9.527   1.104  1.3799  1.5234 -1.5828
 5031SOL     OW26746   8.057   6.206   6.998  0.0254 -0.0948 -0.1523
 5031SOL    HW126747   8.139   6.210   6.940  0.0596 -0.1720 -0.1101
 5031SOL    HW226748   8.050   6.114   7.038 -0.2895 -0.2046 -0.4554
 5032SOL     OW26749   7.970   7.923   8.163  0.5843  0.4211  0.2465
 5032SOL    HW126750   7.964   8.012   8.207  1.6690  0.6086  0.0418
 5032SOL    HW226751   7.892   7.866   8.190  1.6999  0.1876  3.1259
 5033SOL     OW26752   1.151   7.349   5.165 -0.6389 -0.3183  0.2429
 5033SOL    HW126753   1.232   7.321   5.112 -1.6293 -2.4678 -0.1625
 5033SOL    HW226754   1.175   7.355   5.262  0.4703  0.9339 -0.0806
 5034SOL     OW26755   4.046   4.127   5.175  0.2915  0.1149  0.6934
 5034SOL    HW126756   4.089   4.138   5.085  0.0321  1.2245  0.6950
 5034SOL    HW226757   4.115   4.133   5.247  0.9504 -3.6404  0.4786
 5035SOL     OW26758   7.734   9.037   2.863 -0.0547  0.2503 -0.1907
 5035SOL    HW126759   7.639   9.060   2.841 -0.0678 -0.8123 -1.2935
 5035SOL    HW226760   7.736   8.959   2.926  0.0950 -0.6093 -1.2389
 5036SOL     OW26761   1.771   1.755   0.706  0.5201 -0.3468  0.1952
 5036SOL    HW126762   1.707   1.771   0.630  1.3566 -1.4592 -0.7744
 5036SOL    HW226763   1.794   1.842   0.749  1.7317  0.5981 -2.2622
 5037SOL     OW26764   3.480   7.850   2.824  0.1362  0.2412 -0.0662
 5037SOL    HW126765   3.533   7.862   2.740  0.2306 -1.2196 -0.2391
 5037SOL    HW226766   3.400   7.793   2.805 -1.5200  2.4286  0.1952
 5038SOL     OW26767   6.219   3.700   1.144  0.9154  0.4536  0.0470
 5038SOL    HW126768   6.298   3.640   1.155  0.4054  0.0780  2.0565
 5038SOL    HW226769   6.249   3.791   1.115  1.7355 -0.6340 -2.6470
 5039SOL     OW26770   1.837   6.290   1.880  0.2558  0.3536 -0.3138
 5039SOL    HW126771   1.877   6.376   1.848 -0.5489  0.5653 -0.7633
 5039SOL    HW226772   1.749   6.276   1.835 -1.2879  1.0497  2.4207
 5040SOL     OW26773   2.043   6.265   1.292  0.4084 -0.0378 -1.0084
 5040SOL    HW126774   2.041   6.365   1.291  0.7879 -0.0205 -2.2886
 5040SOL    HW226775   2.130   6.234   1.252  0.8110 -0.8684  0.4929
 5041SOL     OW26776   4.489   7.688   4.972  0.8781  0.6287 -0.3506
 5041SOL    HW126777   4.452   7.619   5.035 -1.5836  1.9468 -0.2710
 5041SOL    HW226778   4.480   7.656   4.878  0.4294  0.5123 -0.2700
 5042SOL     OW26779   4.778   7.428   4.710 -0.1446 -0.0067 -0.5822
 5042SOL    HW126780   4.772   7.528   4.719 -1.8237 -0.0066 -1.7149
 5042SOL    HW226781   4.722   7.397   4.634  2.1257 -1.6067 -1.6530
 5043SOL     OW26782   6.728   7.363   6.440  0.0813  0.3197  0.4851
 5043SOL    HW126783   6.666   7.370   6.518 -1.5577 -0.3001 -0.7362
 5043SOL    HW226784   6.715   7.442   6.380 -1.7017 -1.2784 -1.3052
 5044SOL     OW26785   2.392   5.233   0.041  0.8116 -0.1548  0.1925
 5044SOL    HW126786   2.341   5.160  -0.005 -0.5035  0.6609  0.3403
 5044SOL    HW226787   2.378   5.225   0.140  0.1923  0.6364  0.1754
 5045SOL     OW26788   1.289   1.745   1.087  0.3490  0.4023  0.6400
 5045SOL    HW126789   1.205   1.691   1.089  0.2175  0.5231 -1.1738
 5045SOL    HW226790   1.267   1.842   1.091  0.2691  0.5119 -1.7560
 5046SOL     OW26791   8.258   6.837   1.506 -0.0118  0.1588 -0.2835
 5046SOL    HW126792   8.281   6.740   1.512  0.7761  0.2012 -2.2623
 5046SOL    HW226793   8.160   6.846   1.485 -0.4478 -0.1460  1.5105
 5047SOL     OW26794   8.638   5.149   5.576  0.5155  0.2407 -0.3732
 5047SOL    HW126795   8.627   5.049   5.572  0.1950  0.3141 -1.6014
 5047SOL    HW226796   8.566   5.192   5.523  1.7104  1.0600 -1.3528
 5048SOL     OW26797   3.283   4.650   2.513 -0.0039  0.0179 -0.2641
 5048SOL    HW126798   3.226   4.599   2.578  2.1457 -1.1194  0.7918
 5048SOL    HW226799   3.297   4.743   2.547  0.3416 -0.2887  0.4475
 5049SOL     OW26800   4.848   4.896   7.313  0.2518  0.7225  0.1906
 5049SOL    HW126801   4.848   4.804   7.274  1.9055 -0.1505  2.1727
 5049SOL    HW226802   4.754   4.923   7.336 -0.4182  0.1716 -1.8031
 5050SOL     OW26803   2.979   8.552   4.659  0.1576  0.6241  0.4863
 5050SOL    HW126804   3.065   8.537   4.609 -1.1078 -1.0764 -1.2876
 5050SOL    HW226805   2.979   8.496   4.742 -0.0741 -1.0625 -0.6081
 5051SOL     OW26806   1.891   4.105   3.538  0.3655 -0.7416 -0.4840
 5051SOL    HW126807   1.895   4.087   3.439  1.4350 -0.3623 -0.5131
 5051SOL    HW226808   1.981   4.136   3.570  0.5464 -2.6823  0.9671
 5052SOL     OW26809   8.314   4.971   6.254  0.0472  0.1749 -0.2485
 5052SOL    HW126810   8.288   4.958   6.349 -0.6946  0.2398 -0.4395
 5052SOL    HW226811   8.304   4.885   6.204  0.5222  0.1190 -0.2464
 5053SOL     OW26812   3.428   6.867   2.160 -0.7752 -0.1632  0.1042
 5053SOL    HW126813   3.522   6.894   2.178 -1.0733  0.1659  1.1871
 5053SOL    HW226814   3.366   6.942   2.182 -1.2882 -0.3005 -0.7973
 5054SOL     OW26815   0.437   2.073   0.186 -0.7510  0.1297 -0.2372
 5054SOL    HW126816   0.413   1.991   0.135  0.5861  0.1444 -0.8980
 5054SOL    HW226817   0.355   2.130   0.197 -1.7517 -1.3907  0.4570
 5055SOL     OW26818   4.832   2.994   0.666  0.4126 -0.1176 -0.0864
 5055SOL    HW126819   4.889   3.045   0.730  1.2531 -0.3990 -0.6043
 5055SOL    HW226820   4.851   3.025   0.573 -0.7298  0.2199 -0.2140
 5056SOL     OW26821   0.779   5.430   2.551 -1.3931 -0.1450 -0.2874
 5056SOL    HW126822   0.803   5.347   2.501  0.4271  1.1885 -1.6583
 5056SOL    HW226823   0.813   5.423   2.645 -0.1315 -0.4311 -0.7578
 5057SOL     OW26824   0.897   7.690   3.730 -0.5771  0.1948 -0.0813
 5057SOL    HW126825   0.959   7.617   3.700 -3.9684 -1.9186 -2.3684
 5057SOL    HW226826   0.875   7.749   3.653 -0.2805  1.8171  1.0555
 5058SOL     OW26827   6.338   0.104   2.634 -0.6517  0.2739 -0.2899
 5058SOL    HW126828   6.437   0.096   2.643 -0.4106  0.6921 -2.3080
 5058SOL    HW226829   6.303   0.165   2.705  0.3593 -0.8498  1.2008
 5059SOL     OW26830   9.763   6.446   2.883 -0.1916 -0.0998  0.1591
 5059SOL    HW126831   9.711   6.428   2.967  0.6214 -1.7440  0.3240
 5059SOL    HW226832   9.816   6.529   2.894 -1.3143  0.5657  0.6884
 5060SOL     OW26833   4.254   6.525   2.003 -0.1808  0.6811 -0.1987
 5060SOL    HW126834   4.178   6.517   1.937 -0.6779 -0.2731  0.4802
 5060SOL    HW226835   4.219   6.510   2.095  1.0364 -0.9367  0.0163
 5061SOL     OW26836   1.398   9.194   1.429 -0.3565 -0.1339 -0.0251
 5061SOL    HW126837   1.354   9.194   1.340 -2.4999  0.5880  0.9909
 5061SOL    HW226838   1.470   9.124   1.432 -0.5510 -0.4399 -2.1468
 5062SOL     OW26839   3.436   6.505   5.231  0.4539  0.5208  1.0606
 5062SOL    HW126840   3.383   6.475   5.152 -0.3643  0.8789  1.4741
 5062SOL    HW226841   3.488   6.587   5.207  2.0216 -0.6719  0.1928
 5063SOL     OW26842   8.381   0.479   2.593  0.1730  0.3589 -0.4614
 5063SOL    HW126843   8.359   0.390   2.632 -0.4187  1.0223  0.7571
 5063SOL    HW226844   8.428   0.535   2.662  2.4336  0.2623 -1.8606
 5064SOL     OW26845   3.807   2.695   1.150 -0.2201  0.5903 -0.2110
 5064SOL    HW126846   3.795   2.789   1.119  1.0741  1.5172  2.0129
 5064SOL    HW226847   3.905   2.675   1.158 -0.5021 -0.5833  0.3809
 5065SOL     OW26848   1.397   6.645   7.173  0.3691 -0.3592 -0.4033
 5065SOL    HW126849   1.307   6.688   7.176  0.6219  0.1588 -0.3234
 5065SOL    HW226850   1.393   6.556   7.218 -0.2489 -0.6011 -0.9211
 5066SOL     OW26851   4.003   9.522   4.299 -0.2270  0.1600  0.1931
 5066SOL    HW126852   3.993   9.605   4.354 -0.9708  0.3890 -0.2784
 5066SOL    HW226853   4.067   9.538   4.225 -1.1361  0.6246 -0.4943
 5067SOL     OW26854   0.185   1.916   4.077 -0.1170  0.2777 -0.1099
 5067SOL    HW126855   0.243   1.997   4.086 -0.4539  0.6072 -0.8407
 5067SOL    HW226856   0.235   1.836   4.107  0.2116  0.7629  0.6515
 5068SOL     OW26857   2.884   9.772   1.916  0.3799  0.0473 -0.3985
 5068SOL    HW126858   2.791   9.771   1.953 -0.3297 -1.1282 -2.1141
 5068SOL    HW226859   2.950   9.779   1.990 -1.0912  1.4768  0.8142
 5069SOL     OW26860   9.131   5.342   1.270 -0.0214  0.2321  0.0756
 5069SOL    HW126861   9.096   5.332   1.363  0.5457 -0.8677  0.1715
 5069SOL    HW226862   9.193   5.420   1.266  2.6959 -1.7905  1.4498
 5070SOL     OW26863   6.835   1.976   4.511  0.7739 -0.2211 -0.0168
 5070SOL    HW126864   6.800   1.959   4.603  1.2454  1.1794  0.4279
 5070SOL    HW226865   6.935   1.969   4.512  0.8444  0.7161 -0.2198
 5071SOL     OW26866   2.930   8.030   0.795  0.2339  0.1322  0.4483
 5071SOL    HW126867   2.832   8.017   0.811 -0.2533  1.6587 -1.2103
 5071SOL    HW226868   2.981   7.956   0.840 -1.6916 -0.8753  1.0161
 5072SOL     OW26869   6.780   0.146   6.330  0.2896 -0.1042  0.2770
 5072SOL    HW126870   6.807   0.055   6.364 -0.8150  0.2523  2.1760
 5072SOL    HW226871   6.733   0.196   6.403 -2.0015  0.7805 -1.7393
 5073SOL     OW26872   0.367   1.794   3.114 -0.0167 -0.1561 -0.2902
 5073SOL    HW126873   0.402   1.758   3.201  1.3527  1.0115 -0.3385
 5073SOL    HW226874   0.270   1.814   3.123 -0.1382 -1.0871  0.6296
 5074SOL     OW26875   0.105   8.956   6.877 -0.0842 -0.2867  0.0014
 5074SOL    HW126876   0.147   9.013   6.948 -1.3824  0.3937  0.2366
 5074SOL    HW226877   0.031   8.902   6.917  1.0032 -2.0126 -0.2662
 5075SOL     OW26878   1.291   4.924   6.526 -0.2933  0.5379 -0.0388
 5075SOL    HW126879   1.363   4.855   6.532 -1.5481 -0.8549 -0.5973
 5075SOL    HW226880   1.247   4.934   6.615 -2.6181 -2.1905 -0.8094
 5076SOL     OW26881   2.629   8.574   4.216  0.3827  0.0004  0.1046
 5076SOL    HW126882   2.715   8.582   4.266  1.4547 -0.5006 -1.5943
 5076SOL    HW226883   2.627   8.486   4.167 -1.0855  0.0206  0.1030
 5077SOL     OW26884   5.689   9.552   2.248  0.3553  0.5275 -0.2250
 5077SOL    HW126885   5.781   9.575   2.216  1.2188  0.8045  2.3194
 5077SOL    HW226886   5.665   9.611   2.325 -1.9595  0.4268 -0.8305
 5078SOL     OW26887   6.260   0.995   0.673 -0.3794 -0.0184 -0.3445
 5078SOL    HW126888   6.177   0.981   0.727 -0.5553 -0.4626 -0.7284
 5078SOL    HW226889   6.328   1.042   0.729 -0.6867 -0.1585  0.1527
 5079SOL     OW26890   9.572   7.135   4.861  0.3495  0.1868 -0.2455
 5079SOL    HW126891   9.625   7.070   4.807  0.4438 -1.9925  2.3747
 5079SOL    HW226892   9.479   7.141   4.824  1.1644  0.8072 -2.2625
 5080SOL     OW26893   8.620   0.813   0.535 -0.0066 -0.4113 -0.3486
 5080SOL    HW126894   8.520   0.809   0.543  0.0626 -0.4469  0.6797
 5080SOL    HW226895   8.648   0.784   0.444 -0.8243 -2.0698 -0.0870
 5081SOL     OW26896   0.782   9.879   4.795 -0.3834 -0.8820 -0.1337
 5081SOL    HW126897   0.843   9.803   4.772 -0.9674 -0.5851 -2.8551
 5081SOL    HW226898   0.690   9.859   4.761 -1.0973  0.0366  1.2090
 5082SOL     OW26899   0.317   6.657   4.290  0.1509  0.1843  0.1261
 5082SOL    HW126900   0.261   6.701   4.360  0.6876  0.8751  0.1253
 5082SOL    HW226901   0.390   6.604   4.333  2.0465  2.6664  0.0787
 5083SOL     OW26902   1.901   0.860   0.793 -0.2956 -0.0673  0.0369
 5083SOL    HW126903   1.990   0.906   0.790 -1.2335  1.7948  0.2652
 5083SOL    HW226904   1.839   0.902   0.726 -0.8991 -1.6086 -0.3960
 5084SOL     OW26905   3.689   5.517   6.772 -0.5204  0.0118 -0.1608
 5084SOL    HW126906   3.724   5.549   6.860 -1.3449  1.6845 -0.4054
 5084SOL    HW226907   3.743   5.559   6.698 -2.2304  1.6453 -0.5120
 5085SOL     OW26908   4.859   2.186   5.380 -0.1078  0.5303  0.2237
 5085SOL    HW126909   4.849   2.245   5.460 -1.2058  0.0940  0.4160
 5085SOL    HW226910   4.770   2.147   5.356 -0.0978  1.9034 -2.1941
 5086SOL     OW26911   8.152   3.859   6.893 -0.4448 -0.4541 -0.1739
 5086SOL    HW126912   8.160   3.906   6.805  0.5783  0.5755  0.4534
 5086SOL    HW226913   8.119   3.766   6.878  0.5660 -0.5835 -1.7258
 5087SOL     OW26914   9.275   3.304   4.629  0.0315 -0.5150 -0.0804
 5087SOL    HW126915   9.279   3.229   4.695  0.5071 -1.0429 -0.6984
 5087SOL    HW226916   9.256   3.266   4.538  1.6464 -0.0341 -0.6403
 5088SOL     OW26917   6.877   9.372   4.146 -0.3164  0.2414 -0.1928
 5088SOL    HW126918   6.778   9.390   4.148 -0.2234  0.7139  0.1562
 5088SOL    HW226919   6.909   9.374   4.051 -0.3587  1.6574 -0.1941
 5089SOL     OW26920   0.907   0.169   8.038 -0.1116 -0.0478 -0.3582
 5089SOL    HW126921   0.903   0.114   7.955 -0.5855 -0.1600 -0.2656
 5089SOL    HW226922   0.935   0.263   8.015  1.3117 -0.4802 -0.4297
 5090SOL     OW26923   0.954   8.583   7.032 -0.5770  0.2402 -0.1779
 5090SOL    HW126924   0.914   8.552   7.118  1.3046  0.0596  0.6750
 5090SOL    HW226925   0.934   8.680   7.020 -3.1388 -0.3452 -0.9015
 5091SOL     OW26926   2.075   6.579   0.092  0.8403 -0.5351  0.3475
 5091SOL    HW126927   2.112   6.671   0.079 -0.0752 -0.0958  0.7425
 5091SOL    HW226928   2.113   6.517   0.024  0.9242  0.2974 -0.3726
 5092SOL     OW26929   7.003   1.131   6.686 -0.1743  0.8168  0.2755
 5092SOL    HW126930   7.098   1.110   6.709 -0.2511  0.9475  0.7168
 5092SOL    HW226931   6.943   1.093   6.756 -0.4081  1.2550  0.3100
 5093SOL     OW26932   0.009   1.653   3.987  0.2941 -0.0647 -0.4332
 5093SOL    HW126933   0.032   1.564   3.950  1.2212 -0.6676  1.5433
 5093SOL    HW226934   0.069   1.674   4.064 -0.0348  2.1834 -0.7513
 5094SOL     OW26935   7.525   0.913   1.848  1.5302  0.2591  0.3184
 5094SOL    HW126936   7.574   0.999   1.835  1.3696  0.1188 -1.2408
 5094SOL    HW226937   7.577   0.837   1.808  1.7348 -0.4081  1.7942
 5095SOL     OW26938   8.221   5.735   7.873 -0.2040 -0.6847 -0.2082
 5095SOL    HW126939   8.187   5.819   7.831  0.1617 -0.6894 -0.5203
 5095SOL    HW226940   8.251   5.672   7.801  0.5232 -0.6535  0.0618
 5096SOL     OW26941   1.529   7.866   0.908  0.0875 -0.2393 -0.2050
 5096SOL    HW126942   1.582   7.781   0.906 -1.1508 -1.0326  0.0602
 5096SOL    HW226943   1.475   7.869   0.992 -1.1765  0.0045 -1.0180
 5097SOL     OW26944   7.904   6.439   4.124 -0.3709 -0.3963  0.2110
 5097SOL    HW126945   7.968   6.427   4.199  0.4520 -1.6170 -0.6753
 5097SOL    HW226946   7.822   6.486   4.158 -0.3225 -1.5654  2.0183
 5098SOL     OW26947   9.309   5.114   2.729  0.1814  0.1629  0.6916
 5098SOL    HW126948   9.279   5.089   2.821 -0.6261 -0.0109  0.3883
 5098SOL    HW226949   9.269   5.202   2.704 -0.8851 -0.5407 -0.0988
 5099SOL     OW26950   2.773   0.075   0.619  0.0886 -0.1967 -0.9160
 5099SOL    HW126951   2.831   0.155   0.634 -0.2292 -0.3619  1.5415
 5099SOL    HW226952   2.683   0.091   0.661 -0.3751 -1.3819 -1.4411
 5100SOL     OW26953   8.398   1.291   3.152 -0.1039  0.0529 -0.2508
 5100SOL    HW126954   8.365   1.314   3.060  1.0694  1.4176 -0.3506
 5100SOL    HW226955   8.374   1.364   3.215  1.9954  0.7344 -0.1740
 5101SOL     OW26956   2.181   7.815   6.619 -0.0969 -0.8946 -0.0839
 5101SOL    HW126957   2.178   7.734   6.560 -0.5066 -1.1699  0.3069
 5101SOL    HW226958   2.246   7.800   6.693 -0.6467 -1.1208  0.3539
 5102SOL     OW26959   6.514   9.532   4.465 -0.0720 -0.2006 -0.5073
 5102SOL    HW126960   6.467   9.453   4.505  1.9163 -1.3388 -0.3315
 5102SOL    HW226961   6.577   9.571   4.533  1.0029 -0.2058 -1.4796
 5103SOL     OW26962   0.626   5.084   7.832  0.0642 -0.6547  0.7465
 5103SOL    HW126963   0.527   5.067   7.840  0.0970 -1.2342  0.0068
 5103SOL    HW226964   0.642   5.183   7.832 -0.7487 -0.4824 -1.3802
 5104SOL     OW26965   1.188   9.776   4.751 -0.2162  0.2837  0.4051
 5104SOL    HW126966   1.264   9.712   4.745 -1.3224 -0.8974 -1.5611
 5104SOL    HW226967   1.113   9.734   4.802 -0.4007  0.5723  0.3748
 5105SOL     OW26968   6.154   5.498   0.485 -0.2176  0.3164  0.3547
 5105SOL    HW126969   6.237   5.552   0.495 -1.8089  2.7054  1.3291
 5105SOL    HW226970   6.109   5.521   0.399  0.1617 -0.9983 -0.1921
 5106SOL     OW26971   6.887   2.243   7.907  0.0784  0.3191  0.5638
 5106SOL    HW126972   6.897   2.331   7.860 -1.1961  0.5164  0.6604
 5106SOL    HW226973   6.940   2.174   7.858  0.3651  0.9464 -0.0298
 5107SOL     OW26974   8.802   2.838   4.537 -0.1840  0.1884  0.0158
 5107SOL    HW126975   8.774   2.744   4.556  3.2574 -0.7655  0.6831
 5107SOL    HW226976   8.810   2.852   4.439  1.5634 -0.9651 -0.0315
 5108SOL     OW26977   1.064   1.110   5.986 -0.1397 -0.0695 -0.2692
 5108SOL    HW126978   1.024   1.054   6.058  0.2397 -0.3196 -0.2534
 5108SOL    HW226979   1.107   1.051   5.917  2.2795  0.2447  0.9134
 5109SOL     OW26980   7.900   2.762   2.925 -0.1042  0.1850  0.3660
 5109SOL    HW126981   7.988   2.801   2.949 -0.2814  0.1634  1.0718
 5109SOL    HW226982   7.831   2.791   2.991 -0.9846  1.5191 -1.0826
 5110SOL     OW26983   9.090   5.337   4.288  0.8583  0.2672  0.0463
 5110SOL    HW126984   9.070   5.242   4.266 -0.5507  0.5505  0.0890
 5110SOL    HW226985   9.164   5.341   4.355 -0.7231 -0.8814  1.8966
 5111SOL     OW26986   9.900   7.453   0.626 -0.1354  0.2514 -0.2773
 5111SOL    HW126987   9.803   7.470   0.644 -0.2837  0.0540 -0.8815
 5111SOL    HW226988   9.942   7.410   0.707 -0.8919 -1.0214 -0.5511
 5112SOL     OW26989   5.902   3.456   0.637  0.1532  0.2351  0.2748
 5112SOL    HW126990   5.811   3.497   0.629  1.3985  2.9339 -0.4554
 5112SOL    HW226991   5.915   3.388   0.565 -0.6457  1.0645 -0.6477
 5113SOL     OW26992   4.308   3.808   3.133  0.3213 -0.0374 -0.1798
 5113SOL    HW126993   4.344   3.773   3.046  0.1430 -1.1905  0.2028
 5113SOL    HW226994   4.226   3.756   3.159 -0.6883  1.5037 -0.2305
 5114SOL     OW26995   2.295   7.595   6.219  0.6680  0.2539  0.1972
 5114SOL    HW126996   2.254   7.604   6.128  0.0452 -1.8690  0.2580
 5114SOL    HW226997   2.383   7.548   6.211  0.9302  0.6738  0.6189
 5115SOL     OW26998   4.120   3.826   1.507  0.1351 -0.4944  0.6988
 5115SOL    HW126999   4.155   3.804   1.416 -2.6106  0.1432 -0.5789
 5115SOL    HW227000   4.195   3.826   1.573  2.0312 -1.9059 -1.3836
 5116SOL     OW27001   3.801  10.000   2.197  0.0240 -0.2904 -0.0532
 5116SOL    HW127002   3.718   9.983   2.251  0.6152 -2.2182  0.2868
 5116SOL    HW227003   3.879   9.955   2.240  0.9426  0.1168 -1.2668
 5117SOL     OW27004   0.265   9.934   1.817 -0.7038 -0.2943  0.1191
 5117SOL    HW127005   0.322  10.016   1.824  0.3827 -1.1733  1.9640
 5117SOL    HW227006   0.185   9.944   1.876 -0.9827 -0.2467 -0.2652
 5118SOL     OW27007   6.346   2.791   0.628  0.0711 -0.1227  0.1056
 5118SOL    HW127008   6.344   2.710   0.570 -0.0627 -0.1749  0.1828
 5118SOL    HW227009   6.266   2.791   0.688  1.4179 -1.2976  1.9693
 5119SOL     OW27010   3.488   0.742   4.067  0.5475  0.0953 -0.4732
 5119SOL    HW127011   3.524   0.669   4.009  0.8049  1.5715 -2.2165
 5119SOL    HW227012   3.563   0.791   4.111  0.5307  0.9800 -1.4013
 5120SOL     OW27013   7.371   9.160   7.713  0.0133 -0.4284  0.2587
 5120SOL    HW127014   7.331   9.246   7.683  0.3601 -0.1570  0.5625
 5120SOL    HW227015   7.334   9.085   7.659  0.0118 -0.0430 -0.2799
 5121SOL     OW27016   4.719   2.812   1.799 -0.0313  0.3962  0.1773
 5121SOL    HW127017   4.711   2.887   1.865 -0.3640 -0.4520  1.1125
 5121SOL    HW227018   4.637   2.756   1.802  1.6945 -2.1950  2.2423
 5122SOL     OW27019   8.233   7.797   3.786  0.5310 -0.3498  0.0253
 5122SOL    HW127020   8.330   7.816   3.801  1.3211 -2.3782 -2.1217
 5122SOL    HW227021   8.217   7.698   3.792 -1.0304 -0.2134 -1.4823
 5123SOL     OW27022   7.814   1.341   1.974  0.9661 -0.0472  0.2419
 5123SOL    HW127023   7.825   1.427   1.924 -0.1454  0.8490  1.4715
 5123SOL    HW227024   7.894   1.325   2.032  2.3009 -1.1382 -1.8362
 5124SOL     OW27025   6.540   7.818   6.600 -0.2640 -0.0016 -0.3417
 5124SOL    HW127026   6.558   7.882   6.525  0.0378 -0.4931 -0.6858
 5124SOL    HW227027   6.619   7.815   6.661 -0.6593  0.6910  0.2120
 5125SOL     OW27028   6.761   8.709   2.626 -0.4539  0.0864 -0.5256
 5125SOL    HW127029   6.792   8.800   2.598  0.2000 -0.0320 -0.1977
 5125SOL    HW227030   6.728   8.714   2.720  0.2464 -0.1604 -0.2633
 5126SOL     OW27031   2.967   9.076   7.497 -0.1646 -0.5586  0.4272
 5126SOL    HW127032   2.878   9.110   7.465 -0.0824  0.6683  1.4252
 5126SOL    HW227033   3.032   9.152   7.501  0.8350 -1.3785  0.0535
 5127SOL     OW27034   3.183   6.560   7.144  0.1544  0.0712  0.2868
 5127SOL    HW127035   3.094   6.529   7.110 -0.1066  1.5309 -0.4229
 5127SOL    HW227036   3.172   6.649   7.189  1.2907  0.4031 -0.0706
 5128SOL     OW27037   9.092   6.055   5.953  0.2842 -0.0104 -0.0887
 5128SOL    HW127038   9.008   6.068   6.007  0.5785  1.8360 -0.0345
 5128SOL    HW227039   9.171   6.068   6.011  0.6140 -0.2626 -0.4780
 5129SOL     OW27040   2.822   0.717   3.873 -0.2417 -0.4982 -0.1711
 5129SOL    HW127041   2.911   0.743   3.836 -0.8173  0.4877 -0.8788
 5129SOL    HW227042   2.777   0.653   3.810  0.3852 -1.7845  0.6722
 5130SOL     OW27043   1.418   1.978   2.156 -0.0189 -0.2350  0.7379
 5130SOL    HW127044   1.344   1.998   2.092  0.1592  0.4080  0.7234
 5130SOL    HW227045   1.446   1.883   2.146 -0.3999 -0.3007  0.2780
 5131SOL     OW27046   4.448   2.346   6.666 -0.0621 -0.5802  0.2040
 5131SOL    HW127047   4.419   2.430   6.711 -1.5477 -0.5093 -0.8311
 5131SOL    HW227048   4.399   2.269   6.705 -0.2068 -0.7115 -0.2383
 5132SOL     OW27049   6.122   1.274   0.559  0.2215  0.1629 -0.2634
 5132SOL    HW127050   6.060   1.328   0.616 -1.4715 -0.3609 -1.5894
 5132SOL    HW227051   6.174   1.211   0.616 -0.9075  0.1729  0.7793
 5133SOL     OW27052   4.117   9.507   0.682 -0.2480  0.1808  0.4625
 5133SOL    HW127053   4.046   9.438   0.695  0.0557 -0.0144  1.1189
 5133SOL    HW227054   4.163   9.524   0.769  1.1017 -0.3370 -0.1468
 5134SOL     OW27055   1.764   8.722   7.651  0.9972  0.0265 -0.5338
 5134SOL    HW127056   1.828   8.752   7.580  0.4718  0.3220 -0.8822
 5134SOL    HW227057   1.686   8.677   7.609  1.5796 -1.4627 -0.0320
 5135SOL     OW27058   3.541   8.075   2.621 -0.7071 -0.0594  0.8538
 5135SOL    HW127059   3.468   8.086   2.553  0.0671 -0.8745 -0.1364
 5135SOL    HW227060   3.571   8.165   2.652 -1.0279  0.3349  0.0515
 5136SOL     OW27061   3.563   7.477   5.410  0.1325  0.0970 -0.5525
 5136SOL    HW127062   3.528   7.477   5.503 -1.0476 -1.2640 -0.9754
 5136SOL    HW227063   3.488   7.462   5.346  0.9958  0.5631 -1.6947
 5137SOL     OW27064   0.870   0.562   2.560 -0.3627  0.2812  0.7015
 5137SOL    HW127065   0.890   0.466   2.580 -0.8048 -0.0745 -0.5119
 5137SOL    HW227066   0.826   0.605   2.639 -1.5347 -0.9270  0.7236
 5138SOL     OW27067   7.624   1.306   4.155  0.2460 -0.2157  0.2665
 5138SOL    HW127068   7.597   1.262   4.069 -1.6822 -0.5799  1.0390
 5138SOL    HW227069   7.565   1.385   4.172  0.4851 -0.2635  1.3447
 5139SOL     OW27070   9.208   4.326   6.184 -0.5060  0.6851 -0.7525
 5139SOL    HW127071   9.201   4.385   6.265 -0.3279  0.4621 -0.5738
 5139SOL    HW227072   9.206   4.383   6.102 -1.6733  0.8503 -0.6322
 5140SOL     OW27073   1.664   1.526   1.424 -0.4986 -0.3046  0.4423
 5140SOL    HW127074   1.590   1.574   1.471 -1.1494 -1.5264  0.6922
 5140SOL    HW227075   1.632   1.491   1.337 -0.6995 -2.2316  1.2673
 5141SOL     OW27076   3.216   4.025   5.428  0.6932  0.7589 -0.2988
 5141SOL    HW127077   3.138   4.086   5.414  0.8060  0.8241 -0.6657
 5141SOL    HW227078   3.188   3.947   5.483  0.2078  0.4607 -0.9720
 5142SOL     OW27079   6.353   0.130   6.006 -0.2903  0.4165 -0.0239
 5142SOL    HW127080   6.449   0.128   6.033 -0.9563 -0.2089  2.4260
 5142SOL    HW227081   6.320   0.036   5.993 -0.5596  0.6334 -0.9789
 5143SOL     OW27082   1.738   9.052   0.855  0.0017  0.1190 -0.0229
 5143SOL    HW127083   1.823   9.089   0.818  0.9072 -1.2980  0.5558
 5143SOL    HW227084   1.679   9.021   0.781  0.6903 -0.3528 -0.3760
 5144SOL     OW27085   4.005   3.960   7.003  0.5713  0.1802  0.1111
 5144SOL    HW127086   4.105   3.948   7.009  0.5830  0.9188  1.5457
 5144SOL    HW227087   3.985   4.050   6.963  0.4614 -0.7857 -2.0963
 5145SOL     OW27088   4.203   0.955   6.768  0.2927  0.0091  0.5461
 5145SOL    HW127089   4.296   0.992   6.756 -0.0754  0.7125 -0.1515
 5145SOL    HW227090   4.138   1.010   6.717 -0.5014 -0.5877  0.8978
 5146SOL     OW27091   4.349   4.585   1.058 -0.2281 -0.5001 -0.0822
 5146SOL    HW127092   4.320   4.496   1.094 -3.5951  0.3450 -0.5825
 5146SOL    HW227093   4.305   4.658   1.110  0.8062  0.8528 -1.0748
 5147SOL     OW27094   0.860   9.399   4.747  0.0089 -0.4101 -0.0628
 5147SOL    HW127095   0.914   9.366   4.669 -1.1031  0.5794 -1.2625
 5147SOL    HW227096   0.851   9.325   4.814  1.7436 -0.9975 -0.4379
 5148SOL     OW27097   9.974   7.925   7.304 -0.6197 -0.7037  0.3690
 5148SOL    HW127098  10.051   7.986   7.321 -2.4292  1.7119  0.1495
 5148SOL    HW227099   9.991   7.871   7.222  0.6770  0.0504  0.1382
 5149SOL     OW27100   7.476   8.069   3.532 -0.8354  0.1295  0.2672
 5149SOL    HW127101   7.462   8.146   3.470 -1.8790 -0.5837 -0.4174
 5149SOL    HW227102   7.403   8.069   3.602 -1.8180 -1.1684 -0.7313
 5150SOL     OW27103   0.527   6.527   4.383  0.0289  0.0182 -0.1325
 5150SOL    HW127104   0.587   6.461   4.338 -1.5097 -3.6156  2.9191
 5150SOL    HW227105   0.547   6.530   4.481 -3.4156  0.1510  0.6404
 5151SOL     OW27106   5.603   8.574   7.059  0.1051 -0.2945 -0.0111
 5151SOL    HW127107   5.670   8.643   7.088 -0.2786  0.5317 -1.0557
 5151SOL    HW227108   5.523   8.578   7.118  1.7894 -2.6796  2.5511
 5152SOL     OW27109   7.198   2.834   6.432 -0.0524  0.3037 -0.0559
 5152SOL    HW127110   7.239   2.745   6.412 -0.5870  0.3890 -1.5508
 5152SOL    HW227111   7.104   2.836   6.398 -0.0569  1.4284  0.0054
 5153SOL     OW27112   7.596   6.814   3.256  1.1224 -0.1062 -0.3491
 5153SOL    HW127113   7.625   6.848   3.346  2.3915 -2.9477  0.3741
 5153SOL    HW227114   7.509   6.766   3.265  0.4084  1.0545 -0.9709
 5154SOL     OW27115   4.486   8.792   4.321 -0.0509  0.1401  0.1898
 5154SOL    HW127116   4.539   8.828   4.398  0.2264  1.2465 -0.5124
 5154SOL    HW227117   4.546   8.740   4.261 -0.3443 -1.0535  0.9113
 5155SOL     OW27118   3.477   3.174   0.847 -0.1055 -0.3877 -0.0470
 5155SOL    HW127119   3.462   3.168   0.749  0.7088  0.7750 -0.2501
 5155SOL    HW227120   3.460   3.268   0.878  0.1464 -0.6279  0.8330
 5156SOL     OW27121   2.473   0.578   3.148 -0.4463  0.1327 -0.2687
 5156SOL    HW127122   2.384   0.572   3.102 -0.9845 -0.3633  0.8048
 5156SOL    HW227123   2.540   0.620   3.087 -1.1365 -0.5341 -1.4916
 5157SOL     OW27124   4.511   3.161   0.341  0.0037  0.1516  0.2749
 5157SOL    HW127125   4.533   3.107   0.260  0.3405  1.4989 -0.5525
 5157SOL    HW227126   4.413   3.154   0.360 -0.1061 -0.0416 -0.3481
 5158SOL     OW27127   3.920   1.238   2.523  0.1442  0.8561 -0.1789
 5158SOL    HW127128   3.851   1.193   2.580  0.6218  1.4507  0.8867
 5158SOL    HW227129   3.986   1.169   2.491 -0.3330  0.4605 -0.3223
 5159SOL     OW27130   7.434   1.324   6.091 -0.4770 -0.2444 -0.8403
 5159SOL    HW127131   7.367   1.251   6.079  1.2853 -1.8211 -1.3860
 5159SOL    HW227132   7.434   1.383   6.010  0.5953 -1.7976 -2.0156
 5160SOL     OW27133   7.060   8.361   6.002 -0.2307  0.2547 -0.7545
 5160SOL    HW127134   7.138   8.369   6.064 -0.0998  0.8817 -1.0019
 5160SOL    HW227135   7.071   8.425   5.926 -1.8874  1.6972  0.1748
 5161SOL     OW27136   1.676   9.965   2.635 -0.0932  0.2582  0.1507
 5161SOL    HW127137   1.640  10.051   2.673 -0.9553  0.0034 -0.0970
 5161SOL    HW227138   1.776   9.970   2.634 -0.1039  0.8592  1.0826
 5162SOL     OW27139   7.921   3.449   6.341 -0.4668  0.4307 -0.6038
 5162SOL    HW127140   7.857   3.424   6.413 -1.5131 -0.9507 -1.9621
 5162SOL    HW227141   8.015   3.438   6.373 -0.8971 -3.0584 -0.3848
 5163SOL     OW27142   0.285   2.809   4.135  0.5130  0.0761  0.0750
 5163SOL    HW127143   0.254   2.716   4.152  0.9510  0.3039  2.2979
 5163SOL    HW227144   0.206   2.871   4.134  0.2488 -0.2724 -1.1391
 5164SOL     OW27145   8.161   8.640   7.805  0.0101  0.3013 -0.1347
 5164SOL    HW127146   8.242   8.694   7.828 -0.7159  1.6996 -0.7811
 5164SOL    HW227147   8.189   8.557   7.757  1.0835  0.6235 -0.0746
 5165SOL     OW27148   5.823   9.049   2.654  0.2063  0.2654  0.2222
 5165SOL    HW127149   5.840   8.962   2.699  1.2751  0.7495  0.7686
 5165SOL    HW227150   5.889   9.117   2.686  0.6987  0.7411 -1.7257
 5166SOL     OW27151   9.518   7.790   5.109 -0.4730 -0.5018  0.4595
 5166SOL    HW127152   9.445   7.782   5.177 -1.7256  2.0534 -0.4958
 5166SOL    HW227153   9.583   7.860   5.140 -0.9665  0.5586 -0.8729
 5167SOL     OW27154   8.719   6.807   5.560  0.5025  0.1438 -0.3040
 5167SOL    HW127155   8.729   6.763   5.649 -0.0146  1.2744  0.3244
 5167SOL    HW227156   8.634   6.860   5.558  1.0778  1.0549 -1.0638
 5168SOL     OW27157   2.380   8.041   7.117 -0.1615  0.2986 -0.1821
 5168SOL    HW127158   2.362   8.050   7.215  0.4235  1.4175 -0.1701
 5168SOL    HW227159   2.445   7.966   7.102 -0.5292 -0.1110  0.2532
 5169SOL     OW27160   0.904   2.509   6.760  0.5526 -0.5313 -0.0250
 5169SOL    HW127161   0.889   2.446   6.684  0.4859 -0.9641  0.3402
 5169SOL    HW227162   0.891   2.460   6.846  2.4418 -0.5124  0.2970
 5170SOL     OW27163   1.657   4.524   7.033  0.0922 -0.6469 -0.2325
 5170SOL    HW127164   1.650   4.424   7.034 -0.9329 -0.5723  0.5475
 5170SOL    HW227165   1.697   4.553   6.946  0.2165 -1.7221 -0.5484
 5171SOL     OW27166   7.551   5.658   6.108  0.3633 -0.2289  0.2004
 5171SOL    HW127167   7.649   5.663   6.086  0.6344  1.0875  1.5384
 5171SOL    HW227168   7.518   5.565   6.095  1.8323 -0.7132 -0.1555
 5172SOL     OW27169   6.147   8.164   4.613  0.1762  0.0592  0.3680
 5172SOL    HW127170   6.155   8.249   4.665 -1.4785 -0.6482  1.8042
 5172SOL    HW227171   6.227   8.106   4.632  0.5821  0.6651  0.5249
 5173SOL     OW27172   0.625   2.411   5.542 -0.4079  0.0346  0.2301
 5173SOL    HW127173   0.636   2.317   5.513  0.0182  0.5320 -1.2644
 5173SOL    HW227174   0.676   2.472   5.481 -0.4860  1.2202  1.2992
 5174SOL     OW27175   8.523   6.589   7.587 -0.1908 -0.5929 -0.3852
 5174SOL    HW127176   8.485   6.681   7.578  0.3358 -0.4251 -0.9214
 5174SOL    HW227177   8.490   6.532   7.512 -0.2156 -0.7322 -0.2677
 5175SOL     OW27178   7.058   8.310   3.508  0.3170 -0.0316 -0.0828
 5175SOL    HW127179   6.971   8.279   3.545 -0.5036  0.0381 -1.9252
 5175SOL    HW227180   7.091   8.245   3.439  2.3255 -0.6806  1.4275
 5176SOL     OW27181   0.635   5.439   3.218 -0.2889  0.6742 -0.2828
 5176SOL    HW127182   0.721   5.390   3.211 -0.7677  0.0316 -1.8438
 5176SOL    HW227183   0.601   5.461   3.127 -0.9043  2.4826  0.3593
 5177SOL     OW27184   4.769   3.981   6.734 -0.4059  0.1995 -0.7087
 5177SOL    HW127185   4.679   4.009   6.767  0.0446  0.1604  0.6128
 5177SOL    HW227186   4.834   3.981   6.811 -0.0131 -2.8670 -0.9506
 5178SOL     OW27187   1.302   9.536   2.826 -0.6292 -0.2750 -0.3977
 5178SOL    HW127188   1.352   9.494   2.750 -0.3046 -0.4658 -0.0802
 5178SOL    HW227189   1.255   9.465   2.878 -0.1375 -0.2465  0.0973
 5179SOL     OW27190   1.877   7.924   0.564  0.2785 -0.1544  0.1492
 5179SOL    HW127191   1.884   7.902   0.467  0.8233 -1.4818  0.4914
 5179SOL    HW227192   1.963   7.902   0.610 -1.7764 -4.9272  2.0081
 5180SOL     OW27193   1.306   9.126   8.159 -0.2961 -0.2826 -0.2391
 5180SOL    HW127194   1.223   9.177   8.140 -0.2235 -0.0610  0.0395
 5180SOL    HW227195   1.283   9.029   8.171 -0.3757 -0.3790 -1.1642
 5181SOL     OW27196   2.663   7.311   4.822  0.5610 -0.2099 -0.1540
 5181SOL    HW127197   2.712   7.271   4.900  1.9819 -0.6666 -1.2700
 5181SOL    HW227198   2.719   7.305   4.740 -1.6643 -1.3443 -1.6314
 5182SOL     OW27199   8.590   4.140   7.487  0.2468 -0.1330 -0.3737
 5182SOL    HW127200   8.510   4.082   7.467  1.5856 -2.2877  0.3578
 5182SOL    HW227201   8.668   4.108   7.433  1.1196  0.7458  0.3579
 5183SOL     OW27202   3.761   4.601   2.284 -0.5387 -0.9283  0.2222
 5183SOL    HW127203   3.840   4.612   2.344 -1.3517  0.8234  1.0282
 5183SOL    HW227204   3.787   4.550   2.202  1.0644 -1.5975  1.1289
 5184SOL     OW27205   7.007   0.956   4.679  0.1679  0.1909 -0.2237
 5184SOL    HW127206   6.925   0.924   4.725  0.5322 -1.0381 -0.4011
 5184SOL    HW227207   7.072   0.990   4.746 -0.6173  1.5026 -0.1098
 5185SOL     OW27208   6.597   8.669   5.585  0.4424 -0.4153 -0.0280
 5185SOL    HW127209   6.616   8.740   5.518  1.4124 -2.3457 -1.8685
 5185SOL    HW227210   6.534   8.602   5.546 -0.3535 -0.6703  1.6245
 5186SOL     OW27211   0.612   6.581   6.765  0.3934  0.3124 -0.5516
 5186SOL    HW127212   0.551   6.660   6.777 -0.7635 -0.7382  0.6412
 5186SOL    HW227213   0.575   6.503   6.815  2.2097 -0.6325 -0.6566
 5187SOL     OW27214   0.660   6.125   2.201 -0.4845 -0.5407  0.2881
 5187SOL    HW127215   0.641   6.103   2.297  0.1301 -0.2529  0.4791
 5187SOL    HW227216   0.754   6.155   2.192 -0.3200 -1.2811 -0.5391
 5188SOL     OW27217   1.137   4.403   7.048  0.2498 -0.3987 -0.0326
 5188SOL    HW127218   1.038   4.398   7.067  0.1148 -0.1756 -0.6838
 5188SOL    HW227219   1.172   4.490   7.082  0.6414 -1.3614  2.1188
 5189SOL     OW27220   9.178   6.347   6.478 -0.9935  0.1477  0.0463
 5189SOL    HW127221   9.213   6.257   6.448 -0.3133 -0.4505  2.5529
 5189SOL    HW227222   9.169   6.406   6.398  1.2431 -1.2456 -1.3240
 5190SOL     OW27223   9.284   2.537   3.910 -0.0147 -0.8265 -0.1882
 5190SOL    HW127224   9.252   2.572   3.998  0.8160  1.4542 -0.7457
 5190SOL    HW227225   9.206   2.522   3.849 -0.5294 -1.6798  0.6828
 5191SOL     OW27226   4.454   4.533   0.068  0.3211  0.6717 -0.0774
 5191SOL    HW127227   4.427   4.628   0.050 -0.8900  0.0613 -1.6142
 5191SOL    HW227228   4.503   4.497  -0.011 -1.4653 -0.7739 -0.5659
 5192SOL     OW27229   8.222   1.874   1.666 -0.0302  0.1323  0.0977
 5192SOL    HW127230   8.213   1.907   1.760  1.4330  0.5951  0.0887
 5192SOL    HW227231   8.319   1.862   1.644 -0.3848 -0.5055 -1.1720
 5193SOL     OW27232   9.187   4.760   7.821 -0.0308 -0.3456 -0.4805
 5193SOL    HW127233   9.103   4.806   7.852  0.1257 -0.0894 -0.4359
 5193SOL    HW227234   9.244   4.738   7.900  1.0805  1.6815 -0.6966
 5194SOL     OW27235   6.204   2.066   3.644 -0.4904  0.4491  0.3198
 5194SOL    HW127236   6.249   2.092   3.729  0.2645 -1.0939  0.4067
 5194SOL    HW227237   6.110   2.037   3.663 -0.9297  1.8464  0.3749
 5195SOL     OW27238   1.183   1.338   5.203 -0.7758  0.1720  0.0939
 5195SOL    HW127239   1.108   1.383   5.251 -1.2354  0.6801 -1.0887
 5195SOL    HW227240   1.146   1.266   5.144 -0.3987  0.8377 -0.9637
 5196SOL     OW27241   9.333   1.417   0.726 -0.0736  0.2634  0.0919
 5196SOL    HW127242   9.404   1.443   0.661 -0.6661 -0.5465 -0.8790
 5196SOL    HW227243   9.371   1.353   0.793 -0.2104 -1.1414 -1.1667
 5197SOL     OW27244   4.030   5.169   3.950  0.1343 -0.3318 -0.6245
 5197SOL    HW127245   3.992   5.147   4.040 -1.0313 -0.5330 -1.1658
 5197SOL    HW227246   3.957   5.200   3.889  1.1039  0.9180 -1.1550
 5198SOL     OW27247   3.423   5.205   4.470  0.2541  0.6708  0.6608
 5198SOL    HW127248   3.420   5.227   4.568 -1.0835  0.3841  0.6898
 5198SOL    HW227249   3.445   5.287   4.418  0.1945  0.9916  1.1422
 5199SOL     OW27250   2.892   1.698   7.802 -0.4841 -0.0354  0.0977
 5199SOL    HW127251   2.844   1.777   7.763 -0.2049  0.0068 -0.1583
 5199SOL    HW227252   2.979   1.728   7.840  0.2766 -0.4618 -1.2838
 5200SOL     OW27253   7.634   1.511   5.522 -0.3187 -0.0205 -0.2557
 5200SOL    HW127254   7.559   1.522   5.458 -0.1019  0.1057 -0.4884
 5200SOL    HW227255   7.619   1.428   5.576 -0.9375  0.3365  0.1277
 5201SOL     OW27256   8.110   9.488   6.284  0.2658 -0.0100 -0.4134
 5201SOL    HW127257   8.034   9.429   6.255  1.6599 -1.8707 -0.3473
 5201SOL    HW227258   8.188   9.473   6.223  1.7199 -0.6256  1.5680
 5202SOL     OW27259   4.697   5.589   3.748 -0.6577 -0.1635  0.3528
 5202SOL    HW127260   4.675   5.659   3.681 -0.9017  0.2351  0.8458
 5202SOL    HW227261   4.672   5.621   3.839 -0.0632 -0.5874  0.6688
 5203SOL     OW27262   3.071   4.622   0.083  0.9111  0.7285  0.1561
 5203SOL    HW127263   2.978   4.638   0.116  0.5710 -1.4761  0.3239
 5203SOL    HW227264   3.117   4.557   0.143  2.1662  0.9216 -0.5901
 5204SOL     OW27265   9.371   3.505   2.416 -0.1567 -0.2687 -1.1500
 5204SOL    HW127266   9.392   3.579   2.352 -0.0322 -0.6006 -1.4951
 5204SOL    HW227267   9.278   3.473   2.401  0.0825 -0.7639 -1.5841
 5205SOL     OW27268   6.316   7.954   6.234  0.0243 -0.5143 -0.3702
 5205SOL    HW127269   6.288   8.042   6.198 -0.3306 -0.6947 -0.5369
 5205SOL    HW227270   6.399   7.965   6.289 -1.5230  0.3532  1.8270
 5206SOL     OW27271   6.500   1.384   3.916 -0.1145 -0.3754  0.1541
 5206SOL    HW127272   6.401   1.396   3.910  0.0625  2.1070  1.5591
 5206SOL    HW227273   6.546   1.451   3.858  0.7808 -0.0345  1.2408
 5207SOL     OW27274   5.553   5.514   1.949  0.4748  0.3210  0.4577
 5207SOL    HW127275   5.552   5.583   1.876  2.8566  2.3085  2.1996
 5207SOL    HW227276   5.631   5.453   1.936 -0.7759 -1.1596 -0.2472
 5208SOL     OW27277   4.846   3.580   1.538 -0.5854 -0.1033  0.0592
 5208SOL    HW127278   4.798   3.570   1.624 -0.9564  3.1294  0.2744
 5208SOL    HW227279   4.780   3.583   1.463 -0.5706  1.6552  0.1058
 5209SOL     OW27280   1.658   5.967   1.875  0.4787 -0.5220 -0.1003
 5209SOL    HW127281   1.689   6.059   1.901  2.2488 -1.2702  0.5222
 5209SOL    HW227282   1.676   5.952   1.778 -0.1241 -0.0858 -0.2800
 5210SOL     OW27283   1.880   9.481   5.161  0.7763  0.1964  0.5140
 5210SOL    HW127284   1.883   9.533   5.247 -0.6258 -1.1011  1.3622
 5210SOL    HW227285   1.911   9.388   5.178 -0.6264 -0.3996 -0.1366
 5211SOL     OW27286   9.576   5.918   6.685  0.3071 -0.6234  0.4441
 5211SOL    HW127287   9.605   5.930   6.590  0.2701  0.4102  0.5553
 5211SOL    HW227288   9.498   5.856   6.688  0.7681 -1.2397 -0.1288
 5212SOL     OW27289   1.558   3.300   2.718 -0.3513  0.1703  0.3314
 5212SOL    HW127290   1.622   3.322   2.792 -1.1172  1.0145  0.7549
 5212SOL    HW227291   1.469   3.274   2.757 -0.4751 -0.3201 -0.2663
 5213SOL     OW27292   9.401   3.106   1.411 -0.3516  0.4706 -0.1755
 5213SOL    HW127293   9.472   3.045   1.445  1.0524  1.9502 -0.4102
 5213SOL    HW227294   9.312   3.060   1.416  0.5730 -1.2831  0.3918
 5214SOL     OW27295   3.098   7.119   4.721  0.1166  0.3060  0.0426
 5214SOL    HW127296   3.160   7.166   4.784 -0.0924  0.5318  0.0834
 5214SOL    HW227297   3.121   7.022   4.718  0.6053  0.4266 -0.1083
 5215SOL     OW27298   5.343   8.009   6.055  0.0031 -0.3434  0.1531
 5215SOL    HW127299   5.286   8.001   6.137 -0.0602 -1.2024  0.0332
 5215SOL    HW227300   5.338   7.924   6.002 -1.2733  0.8069 -1.6153
 5216SOL     OW27301   2.343   5.212   6.894  0.2842  0.4812  0.9544
 5216SOL    HW127302   2.299   5.297   6.922 -1.4328 -0.1865  0.3120
 5216SOL    HW227303   2.361   5.214   6.796  1.0279  0.4535  1.0878
 5217SOL     OW27304   7.003   0.457   8.026 -0.5544 -0.2266 -0.2326
 5217SOL    HW127305   6.981   0.360   8.015 -0.6412 -0.2845  0.4180
 5217SOL    HW227306   7.032   0.474   8.121  2.2951 -0.1929 -1.0474
 5218SOL     OW27307   7.150   4.307   7.998  0.0281  0.4470 -0.2385
 5218SOL    HW127308   7.189   4.374   7.934 -0.9800  0.0001 -1.3508
 5218SOL    HW227309   7.140   4.219   7.951 -0.9700  0.1873  0.4494
 5219SOL     OW27310   0.765   0.402   0.172  0.0896 -0.4351 -0.7589
 5219SOL    HW127311   0.673   0.421   0.138 -0.3455  0.3735  0.8149
 5219SOL    HW227312   0.785   0.462   0.249  1.1928 -1.9531  0.1701
 5220SOL     OW27313   0.210   6.849   2.883  0.0951 -0.0590 -0.5018
 5220SOL    HW127314   0.294   6.833   2.830  0.8591 -1.2524  1.0273
 5220SOL    HW227315   0.132   6.811   2.834  0.6859 -0.4485 -1.1477
 5221SOL     OW27316   1.225   2.274   1.668  0.3326 -0.0326 -0.3219
 5221SOL    HW127317   1.305   2.303   1.617  0.3357  0.4462 -0.0487
 5221SOL    HW227318   1.240   2.290   1.765  0.3919 -1.0915 -0.1525
 5222SOL     OW27319   2.727   8.791   7.616 -0.9229 -0.5565 -0.2743
 5222SOL    HW127320   2.667   8.796   7.696  0.9570 -0.8983  1.2162
 5222SOL    HW227321   2.724   8.699   7.577  1.5713 -1.7643  2.2198
 5223SOL     OW27322   4.813   8.660   4.488 -0.2473  0.0697  0.5832
 5223SOL    HW127323   4.751   8.739   4.493 -1.2022 -0.7147  1.3851
 5223SOL    HW227324   4.869   8.656   4.570 -0.7926 -0.5563  0.9329
 5224SOL     OW27325   3.317   2.490   1.732  0.2458  0.0171 -0.3573
 5224SOL    HW127326   3.314   2.391   1.723 -0.8006  0.0734 -0.6557
 5224SOL    HW227327   3.405   2.525   1.699  0.9903 -0.8986  0.6351
 5225SOL     OW27328   1.207   8.094   7.396 -0.3495 -0.3494  0.0541
 5225SOL    HW127329   1.212   8.029   7.320  0.3322 -0.1775 -0.0494
 5225SOL    HW227330   1.270   8.066   7.468 -0.4857 -0.1238  0.2623
 5226SOL     OW27331   5.966   7.997   4.497  0.8572  0.1748  0.4709
 5226SOL    HW127332   6.051   8.048   4.505 -0.0208  1.7533 -0.1059
 5226SOL    HW227333   5.888   8.060   4.500 -0.2684 -1.1720  0.2737
 5227SOL     OW27334   2.549   3.377   0.762 -0.4604 -0.2666 -0.2075
 5227SOL    HW127335   2.610   3.358   0.839 -1.7523  1.1513  1.2093
 5227SOL    HW227336   2.537   3.295   0.707  1.8203 -0.8648  0.1271
 5228SOL     OW27337   9.807   3.923   5.533  0.1074 -0.2029 -0.0196
 5228SOL    HW127338   9.878   3.869   5.578 -0.0740  1.5650  2.5075
 5228SOL    HW227339   9.846   4.009   5.501 -0.0847 -0.8510 -2.0342
 5229SOL     OW27340   4.388   7.969   4.996 -0.2851 -0.5604  0.2168
 5229SOL    HW127341   4.459   7.997   4.931  0.1541 -1.5043  0.2715
 5229SOL    HW227342   4.417   7.885   5.042  0.2670  1.1075  3.0266
 5230SOL     OW27343   1.019   2.695   2.374  0.8223 -0.1575  0.1098
 5230SOL    HW127344   1.023   2.597   2.353 -0.4355 -0.4364  1.1235
 5230SOL    HW227345   0.930   2.731   2.347  0.5256  0.2575  1.5963
 5231SOL     OW27346   7.584   7.453   7.581  0.3725 -0.1229 -0.0713
 5231SOL    HW127347   7.494   7.485   7.612 -0.4157 -0.9203 -1.4928
 5231SOL    HW227348   7.603   7.364   7.623  0.2812 -0.1877 -0.1675
 5232SOL     OW27349   3.478   0.642   6.083 -0.2354  0.1630  0.0031
 5232SOL    HW127350   3.427   0.727   6.083 -0.6628 -0.0816  1.6285
 5232SOL    HW227351   3.429   0.573   6.029 -0.0272  0.8516 -1.0725
 5233SOL     OW27352   9.478   6.496   0.323 -0.0168  0.2400  0.1920
 5233SOL    HW127353   9.540   6.574   0.311  0.5461 -0.2807 -0.3302
 5233SOL    HW227354   9.494   6.429   0.250 -0.6967 -0.2299  0.4696
 5234SOL     OW27355   0.818   9.119   3.193 -0.1110 -0.0445 -0.2697
 5234SOL    HW127356   0.885   9.048   3.215  1.3641  0.6464 -2.4503
 5234SOL    HW227357   0.847   9.206   3.232 -0.7870 -0.1413  0.4833
 5235SOL     OW27358   7.259   0.153   0.565 -0.3759 -0.0206 -0.7207
 5235SOL    HW127359   7.202   0.099   0.627  0.2295 -1.0840 -1.0763
 5235SOL    HW227360   7.215   0.157   0.475 -0.6886  0.5586 -0.5495
 5236SOL     OW27361   7.509   8.130   2.385  0.4084 -0.0121  0.3860
 5236SOL    HW127362   7.419   8.157   2.421  1.1897  2.6316  0.4983
 5236SOL    HW227363   7.570   8.110   2.462  1.0306  2.0861  0.4697
 5237SOL     OW27364   2.266   6.437   1.539  0.1116 -0.1105 -0.1731
 5237SOL    HW127365   2.335   6.366   1.554  0.6841  0.7351  1.2168
 5237SOL    HW227366   2.300   6.524   1.573 -1.5362  0.3750  0.2482
 5238SOL     OW27367   9.789   6.130   3.335  0.0691  0.1516 -0.0193
 5238SOL    HW127368   9.854   6.203   3.355  0.9749 -0.3123 -1.2229
 5238SOL    HW227369   9.814   6.086   3.249 -0.8660 -1.1308  0.3542
 5239SOL     OW27370   2.653   6.793   5.215 -0.1346  0.0813 -0.6261
 5239SOL    HW127371   2.592   6.714   5.222  1.2699 -1.0045 -0.4423
 5239SOL    HW227372   2.608   6.865   5.163 -0.7271 -1.5487 -2.4323
 5240SOL     OW27373   7.177   8.367   4.150  0.2093 -0.0953  0.2495
 5240SOL    HW127374   7.247   8.330   4.089  0.5034  0.5695  0.1815
 5240SOL    HW227375   7.121   8.292   4.185  0.8509 -0.6163  0.1781
 5241SOL     OW27376   1.239   0.656   6.807  0.0257 -0.3184  0.2372
 5241SOL    HW127377   1.276   0.565   6.825  1.8891 -0.1899 -2.6427
 5241SOL    HW227378   1.235   0.671   6.708 -1.2511  2.3442  0.6560
 5242SOL     OW27379   6.593   2.785   0.748  0.6284  0.2372  0.3995
 5242SOL    HW127380   6.497   2.797   0.720  0.2690 -0.9799  1.0928
 5242SOL    HW227381   6.604   2.816   0.842  1.1907  1.4842 -0.0594
 5243SOL     OW27382   9.393   3.252   6.698  0.5454 -0.1230  0.1610
 5243SOL    HW127383   9.295   3.255   6.718  0.7854 -0.5027  1.4726
 5243SOL    HW227384   9.418   3.328   6.637 -0.6163 -0.2363 -0.4596
 5244SOL     OW27385   7.992   2.163   6.098 -0.4596  0.1206  0.5402
 5244SOL    HW127386   8.048   2.172   6.016 -2.8874 -0.4895 -1.2377
 5244SOL    HW227387   7.990   2.068   6.127 -0.1419  0.2288  0.9204
 5245SOL     OW27388   9.767   9.480   1.287 -0.3293 -0.2969  0.2952
 5245SOL    HW127389   9.811   9.421   1.219  1.4899  0.0109  1.1565
 5245SOL    HW227390   9.745   9.426   1.368 -3.1520 -0.8231 -0.7550
 5246SOL     OW27391   9.635   6.067   1.623 -0.5056  0.0967 -0.3099
 5246SOL    HW127392   9.715   6.116   1.588  1.4912 -1.8640  1.3589
 5246SOL    HW227393   9.634   5.974   1.585 -1.2787 -0.3067  0.6736
 5247SOL     OW27394   4.534   1.840   8.091  0.5681  0.5377 -0.3705
 5247SOL    HW127395   4.482   1.773   8.142 -0.7546  0.8139 -1.3333
 5247SOL    HW227396   4.630   1.812   8.087 -0.1574 -1.8768 -1.7159
 5248SOL     OW27397   4.756   0.268   1.912 -0.3198  0.0976  0.7768
 5248SOL    HW127398   4.773   0.349   1.855 -1.2449 -0.4745 -0.3382
 5248SOL    HW227399   4.676   0.219   1.877  0.0706 -1.1499  1.6048
 5249SOL     OW27400   0.611   1.305   6.821 -0.2189 -0.3178  0.3757
 5249SOL    HW127401   0.680   1.369   6.787  0.4323 -0.5598  1.2447
 5249SOL    HW227402   0.598   1.317   6.919  1.9037 -3.3447  1.0858
 5250SOL     OW27403   5.903   0.854   8.136  0.3426 -0.3836  0.0793
 5250SOL    HW127404   5.900   0.909   8.053 -0.3561 -2.4879 -1.3474
 5250SOL    HW227405   5.997   0.847   8.169  0.9092 -1.1013 -1.6512
 5251SOL     OW27406   4.861   3.357   0.468 -0.4214  0.2473 -0.2279
 5251SOL    HW127407   4.932   3.427   0.457  0.0669 -0.2268 -0.1039
 5251SOL    HW227408   4.814   3.372   0.555  0.0523  0.0946  0.0581
 5252SOL     OW27409   4.939   7.581   4.451  0.5061 -0.4935 -0.0761
 5252SOL    HW127410   4.861   7.520   4.434 -0.8973  1.4614 -0.7960
 5252SOL    HW227411   4.977   7.561   4.542 -1.1567 -1.1411  0.4986
 5253SOL     OW27412   9.701   0.490   6.487 -0.7636  0.5425 -0.4105
 5253SOL    HW127413   9.656   0.408   6.521  0.7708 -0.6890 -1.3235
 5253SOL    HW227414   9.640   0.537   6.422 -2.4215  1.2173  1.5554
 5254SOL     OW27415   2.755   2.756   4.800 -0.3301  0.9860  0.1734
 5254SOL    HW127416   2.819   2.793   4.733 -0.7592  0.5303 -0.4944
 5254SOL    HW227417   2.699   2.830   4.837 -0.0877  1.2386  0.0391
 5255SOL     OW27418   2.932   3.407   8.183  0.1787 -0.0444 -0.2510
 5255SOL    HW127419   2.906   3.359   8.099  0.3075 -1.3921  0.4655
 5255SOL    HW227420   3.028   3.433   8.179 -0.8218  3.5442 -2.2401
 5256SOL     OW27421   7.834   8.026   5.895  0.2935  0.3590  0.0986
 5256SOL    HW127422   7.789   7.948   5.939  1.1693 -0.6405 -0.7580
 5256SOL    HW227423   7.787   8.047   5.810  1.7404 -1.0195 -1.0576
 5257SOL     OW27424   4.107   2.543   5.046  0.2396 -0.6676 -0.2977
 5257SOL    HW127425   4.107   2.592   5.133 -2.6683 -0.7470 -0.2005
 5257SOL    HW227426   4.040   2.469   5.049  0.2794 -0.8436 -2.5169
 5258SOL     OW27427   8.601   2.340   2.055  0.1874  0.2653 -0.3688
 5258SOL    HW127428   8.657   2.418   2.082 -1.4396  0.6679  2.0227
 5258SOL    HW227429   8.576   2.287   2.136 -2.8399  0.0885 -1.3432
 5259SOL     OW27430   1.663   5.931   6.685  0.9374  0.1247  0.0992
 5259SOL    HW127431   1.627   5.910   6.593  1.4074 -1.1401  0.2010
 5259SOL    HW227432   1.688   6.028   6.689  0.7062  0.2425 -1.0402
 5260SOL     OW27433   1.736   0.382   4.808  0.0083 -0.1972 -0.1943
 5260SOL    HW127434   1.717   0.287   4.784  1.2793 -0.5179  0.0191
 5260SOL    HW227435   1.827   0.388   4.850 -0.9416  0.7985  1.7812
 5261SOL     OW27436   0.536   4.854   0.450  0.0601  0.9719 -0.0431
 5261SOL    HW127437   0.632   4.874   0.469  0.0743  1.1742 -0.3149
 5261SOL    HW227438   0.513   4.763   0.483 -0.1228  1.6132  1.6453
 5262SOL     OW27439   9.185   2.598   0.385 -0.0469 -0.0987 -0.4053
 5262SOL    HW127440   9.280   2.571   0.403 -0.4846 -1.1076  0.4368
 5262SOL    HW227441   9.168   2.597   0.287  0.5020 -1.0334 -0.4979
 5263SOL     OW27442   1.706   8.973   6.693 -0.1774 -0.1102  0.1466
 5263SOL    HW127443   1.766   8.994   6.771  0.4775  0.1918 -0.4342
 5263SOL    HW227444   1.749   9.005   6.609 -0.9016 -0.4116 -0.3373
 5264SOL     OW27445   2.494   8.036   3.098  0.3597  0.5872  0.3399
 5264SOL    HW127446   2.567   8.088   3.144  0.3601  0.1171  0.8689
 5264SOL    HW227447   2.418   8.022   3.161  0.9808 -1.3505  0.6791
 5265SOL     OW27448   9.066   8.928   5.455 -0.2040  0.4077 -0.0364
 5265SOL    HW127449   9.014   8.874   5.522 -0.0542  1.0186  0.5765
 5265SOL    HW227450   9.104   9.009   5.499  1.3237 -0.0534 -0.4765
 5266SOL     OW27451   7.112   2.004   4.509  0.3716 -0.0336  0.6891
 5266SOL    HW127452   7.111   2.104   4.512 -0.1257 -0.0628  1.6728
 5266SOL    HW227453   7.207   1.971   4.515  0.5004  0.3646  0.8062
 5267SOL     OW27454   5.658   4.640   1.137  0.1648 -0.1794  0.1995
 5267SOL    HW127455   5.667   4.672   1.231  0.1849 -0.1643  0.1926
 5267SOL    HW227456   5.674   4.716   1.074  0.4931 -0.2640  0.1788
 5268SOL     OW27457   9.750   6.791   7.084 -0.2029 -0.1300  0.3624
 5268SOL    HW127458   9.761   6.818   7.179  0.4536 -0.0295  0.2595
 5268SOL    HW227459   9.672   6.729   7.075 -0.4606  0.1202  0.9131
 5269SOL     OW27460   1.304   2.825   7.838 -0.5787 -0.4114  0.7167
 5269SOL    HW127461   1.240   2.775   7.781  0.2890  0.4714 -1.0711
 5269SOL    HW227462   1.386   2.847   7.785 -0.0192  0.9682  2.1165
 5270SOL     OW27463   5.745   1.127   1.622  0.0860 -0.3656  0.2647
 5270SOL    HW127464   5.827   1.075   1.598 -0.2628  0.3255 -2.4745
 5270SOL    HW227465   5.771   1.221   1.645  0.3433 -0.8673  2.1730
 5271SOL     OW27466   6.200   8.449   3.609 -0.2152  0.1311 -0.2837
 5271SOL    HW127467   6.174   8.403   3.694 -0.2595  1.2761  0.3372
 5271SOL    HW227468   6.292   8.420   3.582  0.5140  1.0940  1.1195
 5272SOL     OW27469   1.439   6.041   4.042  0.0569 -0.3943 -0.6437
 5272SOL    HW127470   1.521   6.098   4.042  0.5760 -1.1105  0.2147
 5272SOL    HW227471   1.402   6.037   4.135  0.2013 -1.6855 -0.6317
 5273SOL     OW27472   4.607   6.233   2.084  0.4052 -0.1102 -0.1047
 5273SOL    HW127473   4.680   6.277   2.136 -1.2614  0.5185  1.7615
 5273SOL    HW227474   4.573   6.154   2.134  1.4682 -1.9274 -2.1386
 5274SOL     OW27475   6.952   0.605   5.682  0.1703 -0.0444  0.2780
 5274SOL    HW127476   6.900   0.674   5.733  1.0801 -0.9272  2.4718
 5274SOL    HW227477   6.913   0.515   5.698  0.7434 -0.3903 -0.2413
 5275SOL     OW27478   7.785   8.969   2.610 -0.1959 -0.3812 -0.3268
 5275SOL    HW127479   7.800   9.046   2.549  1.5026 -0.5874 -0.1956
 5275SOL    HW227480   7.781   9.001   2.704  0.8636 -0.4729 -0.2404
 5276SOL     OW27481   6.590   9.349   2.154  0.1300 -0.1224  0.0695
 5276SOL    HW127482   6.682   9.357   2.115  0.2844  0.5970  0.5692
 5276SOL    HW227483   6.532   9.422   2.119 -0.4858 -1.0498 -0.8627
 5277SOL     OW27484   9.914   1.489   7.794 -0.3961  0.0917 -0.1603
 5277SOL    HW127485   9.879   1.528   7.879  1.5349  1.4220  0.0550
 5277SOL    HW227486   9.849   1.508   7.720 -1.2908  0.3887  0.6889
 5278SOL     OW27487   7.529   5.523   8.032 -0.2742 -0.7948 -0.4005
 5278SOL    HW127488   7.567   5.469   7.957  1.2294  0.6932 -0.7422
 5278SOL    HW227489   7.594   5.525   8.108  1.1958  3.1432 -1.6095
 5279SOL     OW27490   5.545   1.688   3.733  0.5953 -0.4032 -0.0996
 5279SOL    HW127491   5.628   1.736   3.705  0.0283  0.3536 -0.5128
 5279SOL    HW227492   5.498   1.742   3.803  0.8526 -1.2073  0.7042
 5280SOL     OW27493   9.771   5.155   7.262  0.2755  0.1375  0.0316
 5280SOL    HW127494   9.829   5.209   7.201 -0.8742  1.5175  0.1460
 5280SOL    HW227495   9.791   5.178   7.357 -0.8262  1.0243  0.0599
 5281SOL     OW27496   9.307   6.761   3.268 -0.1815 -0.1971  0.3950
 5281SOL    HW127497   9.393   6.775   3.318  0.8113  2.0669 -1.8143
 5281SOL    HW227498   9.327   6.748   3.171 -2.3514  0.2800 -0.1386
 5282SOL     OW27499   3.257   1.854   7.483 -0.3264 -0.4126 -0.2942
 5282SOL    HW127500   3.158   1.853   7.469 -0.4296 -0.1733  0.4308
 5282SOL    HW227501   3.288   1.948   7.497  0.5843  0.0449 -4.5817
 5283SOL     OW27502   5.879   9.731   1.938 -0.3494  0.0117 -0.0919
 5283SOL    HW127503   5.826   9.700   2.017 -0.8999 -1.3105 -0.9530
 5283SOL    HW227504   5.825   9.718   1.854  1.5201 -1.8641 -1.0551
 5284SOL     OW27505   2.959   3.860   3.377 -0.2747  0.0642 -0.3414
 5284SOL    HW127506   2.965   3.779   3.320  0.7341 -0.1664  0.0729
 5284SOL    HW227507   3.026   3.854   3.451  0.4745  1.7018 -0.8616
 5285SOL     OW27508   7.832   5.198   2.131  0.1646  0.5240 -0.0276
 5285SOL    HW127509   7.761   5.199   2.061  0.6451  2.0436 -0.5172
 5285SOL    HW227510   7.911   5.148   2.098 -0.2063 -0.1190  0.0469
 5286SOL     OW27511   1.896   8.832   2.034  0.4495  0.4490 -0.2819
 5286SOL    HW127512   1.959   8.794   2.101  0.6474 -0.2779 -0.8659
 5286SOL    HW227513   1.814   8.867   2.080 -0.2384 -1.7106  0.1734
 5287SOL     OW27514   7.539   8.761   5.816 -0.0917  0.1091 -0.4078
 5287SOL    HW127515   7.479   8.717   5.748 -0.7612  1.2013 -0.5384
 5287SOL    HW227516   7.494   8.843   5.852  1.4811  1.1833 -0.7989
 5288SOL     OW27517   3.350   8.250   1.369  0.0315  0.1906  0.2897
 5288SOL    HW127518   3.445   8.282   1.373  0.4359 -1.0756  0.9275
 5288SOL    HW227519   3.290   8.329   1.354  1.1074  1.1058  0.6665
 5289SOL     OW27520   5.178   1.148   5.613  0.2255 -0.2833 -0.4522
 5289SOL    HW127521   5.162   1.125   5.709  1.9544  1.6386  0.3151
 5289SOL    HW227522   5.141   1.075   5.555 -0.4189 -1.6833  1.6700
 5290SOL     OW27523   0.480   7.186   8.155  0.7176 -0.2081 -0.0051
 5290SOL    HW127524   0.515   7.211   8.245  0.3976  0.8578 -0.1700
 5290SOL    HW227525   0.446   7.092   8.157  0.8806 -0.2502  0.9361
 5291SOL     OW27526   1.994   1.351   4.912  0.5170  0.1431 -0.1261
 5291SOL    HW127527   2.015   1.336   4.816  0.9019 -0.9565  0.1241
 5291SOL    HW227528   1.931   1.428   4.921 -0.0637 -0.1827 -1.3105
 5292SOL     OW27529   8.348   7.278   0.495 -0.2437 -0.0614 -0.1729
 5292SOL    HW127530   8.445   7.261   0.476 -0.5862 -2.7151  0.2735
 5292SOL    HW227531   8.309   7.332   0.420  2.1313  3.2464  0.8824
 5293SOL     OW27532   8.166   1.680   0.768 -0.0386 -0.3451 -0.4029
 5293SOL    HW127533   8.199   1.680   0.863  0.0308  1.2461 -0.4058
 5293SOL    HW227534   8.070   1.709   0.767 -0.0820 -0.5129 -0.8042
 5294SOL     OW27535   2.148   4.991   5.280  0.3999  0.2105  0.7470
 5294SOL    HW127536   2.186   4.928   5.212 -1.0917  1.1248 -0.9614
 5294SOL    HW227537   2.167   4.956   5.372  1.2536 -1.7421 -0.1474
 5295SOL     OW27538   0.641   6.905   7.934  0.0117  0.1663 -0.3403
 5295SOL    HW127539   0.660   6.938   8.027  0.1605  0.3781 -0.4457
 5295SOL    HW227540   0.626   6.983   7.873  1.1035  0.0588 -0.7521
 5296SOL     OW27541   1.557   0.264   1.682  0.2363 -0.2261 -0.2963
 5296SOL    HW127542   1.498   0.343   1.699 -0.3631 -1.0116  1.4962
 5296SOL    HW227543   1.634   0.290   1.624 -0.7033  1.3313 -0.8650
 5297SOL     OW27544   3.063   1.674   5.930  0.1283  0.4230 -0.0475
 5297SOL    HW127545   2.964   1.656   5.926  0.4397 -1.5073  0.3276
 5297SOL    HW227546   3.102   1.663   5.839  0.3072 -0.8338  0.1692
 5298SOL     OW27547   5.062   4.974   1.519  0.2037  0.1751  0.2906
 5298SOL    HW127548   5.053   5.071   1.545  0.6169  0.2682  0.0786
 5298SOL    HW227549   4.992   4.951   1.451  1.7638  1.0009 -1.6357
 5299SOL     OW27550   2.113   5.950   1.905 -0.0500 -0.1479 -0.1580
 5299SOL    HW127551   2.180   5.876   1.914 -1.0215 -1.0506 -0.2696
 5299SOL    HW227552   2.145   6.016   1.838  0.6056 -0.7232 -0.4199
 5300SOL     OW27553   1.325   7.742   5.658  0.2933  0.0095 -0.2145
 5300SOL    HW127554   1.274   7.659   5.683  1.5823 -1.0054 -0.8380
 5300SOL    HW227555   1.317   7.809   5.731 -0.5880 -0.7602  0.4153
 5301SOL     OW27556   9.411   8.989   5.486  0.3204 -0.3070 -0.2816
 5301SOL    HW127557   9.363   9.019   5.403  0.5042  0.0680 -0.2559
 5301SOL    HW227558   9.373   8.902   5.518 -1.6397  0.9428  0.8399
 5302SOL     OW27559   3.714   4.232   7.958 -0.1827 -0.6988  0.2327
 5302SOL    HW127560   3.742   4.153   7.902 -1.1158 -2.0258  1.5886
 5302SOL    HW227561   3.789   4.257   8.019  0.7798  0.6515 -1.4695
 5303SOL     OW27562   1.430   9.251   4.374 -0.0027  0.4033 -0.1560
 5303SOL    HW127563   1.444   9.281   4.468  3.2090 -0.5790 -0.2679
 5303SOL    HW227564   1.403   9.155   4.373 -1.9272  0.9214 -0.1845
 5304SOL     OW27565   5.927   3.058   1.024 -0.1559 -0.3624  0.2035
 5304SOL    HW127566   5.898   3.144   0.981  0.0383 -1.4521 -2.2145
 5304SOL    HW227567   6.027   3.057   1.031 -0.2295  0.1435  1.4390
 5305SOL     OW27568   8.275   9.805   2.374  0.2542  0.4855 -0.1975
 5305SOL    HW127569   8.215   9.882   2.353 -1.9703 -0.4118  2.5510
 5305SOL    HW227570   8.368   9.826   2.344 -0.4559  3.9051 -0.1901
 5306SOL     OW27571   7.454   7.378   4.726 -0.3995 -0.0060 -0.0995
 5306SOL    HW127572   7.433   7.283   4.699 -0.5263  0.0177 -0.0828
 5306SOL    HW227573   7.485   7.429   4.645 -1.3937  0.2378 -0.3352
 5307SOL     OW27574   4.329   8.576   2.233  0.0107 -0.1416 -0.0570
 5307SOL    HW127575   4.388   8.571   2.153 -0.4779  0.2202 -0.4447
 5307SOL    HW227576   4.367   8.520   2.306  0.3238 -0.6818 -0.6313
 5308SOL     OW27577   1.502   5.347   5.103 -0.1766 -0.5608  0.0846
 5308SOL    HW127578   1.516   5.399   5.019 -1.0933 -0.1620  0.1709
 5308SOL    HW227579   1.545   5.396   5.180  1.0623 -1.1586 -0.2163
 5309SOL     OW27580   3.901   7.930   6.785  0.1018  0.3347 -0.0492
 5309SOL    HW127581   3.815   7.897   6.746  0.1726  1.7190 -1.4180
 5309SOL    HW227582   3.895   8.028   6.801  1.0541  0.2513  0.8893
 5310SOL     OW27583   8.840   2.796   8.034 -0.2710  0.5281  0.1074
 5310SOL    HW127584   8.897   2.849   8.098  1.4960 -0.9127 -0.2287
 5310SOL    HW227585   8.800   2.718   8.083  0.3217 -0.0384 -0.2969
 5311SOL     OW27586   8.103   1.691   6.625 -0.6371  0.3995 -0.0430
 5311SOL    HW127587   8.181   1.629   6.635 -0.2322  1.0637  1.0490
 5311SOL    HW227588   8.019   1.644   6.650 -0.6625 -0.4880 -1.7540
 5312SOL     OW27589   0.661   8.857   6.104 -0.5090  0.1560  0.4714
 5312SOL    HW127590   0.689   8.898   6.190  0.8734 -0.6849  0.4250
 5312SOL    HW227591   0.562   8.844   6.104 -0.4302 -0.5174  2.2243
 5313SOL     OW27592   8.502   6.312   7.954  0.1341  0.4525  0.4866
 5313SOL    HW127593   8.553   6.367   7.888  1.4555 -0.9120  0.3440
 5313SOL    HW227594   8.566   6.267   8.017 -0.9837 -0.0490  1.2808
 5314SOL     OW27595   3.281   5.526   3.812  0.1395  0.3405  0.2776
 5314SOL    HW127596   3.232   5.536   3.725  0.1002 -0.8496  0.1432
 5314SOL    HW227597   3.226   5.470   3.874  0.2577  1.0243  0.9980
 5315SOL     OW27598   9.550   7.143   2.381 -0.1084  0.2172  0.7990
 5315SOL    HW127599   9.570   7.188   2.468  0.8904 -0.5566  0.9860
 5315SOL    HW227600   9.472   7.081   2.393  0.5474 -0.5004  1.3461
 5316SOL     OW27601   7.356   2.486   4.982  0.0677  0.1146 -0.4407
 5316SOL    HW127602   7.359   2.449   5.075 -0.9363  0.3494 -0.3056
 5316SOL    HW227603   7.413   2.568   4.976  1.3806 -0.8012 -0.4400
 5317SOL     OW27604   3.267   1.990   2.279 -1.0309 -0.7985  0.0056
 5317SOL    HW127605   3.283   2.038   2.193  1.9313 -1.0169  0.3810
 5317SOL    HW227606   3.302   1.897   2.273 -1.1893 -0.9587  1.3092
 5318SOL     OW27607   0.946   4.624   6.064  0.0112  0.2483 -0.1049
 5318SOL    HW127608   0.966   4.563   5.987 -0.2691  0.3377 -0.2509
 5318SOL    HW227609   0.847   4.623   6.081  0.2964 -1.3822  1.5754
 5319SOL     OW27610   4.151   9.014   2.163 -0.5425  0.7751  0.4557
 5319SOL    HW127611   4.097   9.001   2.080 -1.6929 -0.2900  1.3665
 5319SOL    HW227612   4.246   8.985   2.145 -0.7822  0.5355 -0.4690
 5320SOL     OW27613   0.409   4.138   0.502  0.0085  0.0472  0.6184
 5320SOL    HW127614   0.401   4.043   0.473  1.5776  0.1387 -0.1857
 5320SOL    HW227615   0.473   4.143   0.579 -0.0825  0.4592  0.6670
 5321SOL     OW27616   0.126   4.982   5.565  0.4695 -0.0666 -0.4768
 5321SOL    HW127617   0.077   4.990   5.651  0.0751  1.1989 -0.8084
 5321SOL    HW227618   0.216   4.943   5.581 -0.6056 -2.3358  0.1527
 5322SOL     OW27619   0.696   2.368   2.275 -0.1246 -0.9466 -0.2187
 5322SOL    HW127620   0.654   2.304   2.340 -0.3476  0.3918  0.9845
 5322SOL    HW227621   0.725   2.318   2.193 -1.1185 -2.4297  0.3067
 5323SOL     OW27622   4.337   4.161   0.315 -0.1255 -0.2106 -0.1190
 5323SOL    HW127623   4.343   4.065   0.288  0.3151 -0.3185  0.3633
 5323SOL    HW227624   4.259   4.173   0.377 -0.4568 -0.1721 -0.5439
 5324SOL     OW27625   8.658   9.488   1.693 -0.9204  0.6182 -0.2502
 5324SOL    HW127626   8.754   9.516   1.689 -0.3154 -1.1631  0.9823
 5324SOL    HW227627   8.630   9.451   1.605  0.1373 -0.7061 -0.0518
 5325SOL     OW27628   9.605   4.818   4.461  0.1293  0.3309  0.1660
 5325SOL    HW127629   9.531   4.755   4.486 -0.6843  0.5477 -1.6434
 5325SOL    HW227630   9.601   4.898   4.520 -1.4224  0.5890 -0.2592
 5326SOL     OW27631   9.757   9.231   5.732  0.2980 -0.3227 -0.6685
 5326SOL    HW127632   9.686   9.241   5.662 -2.1233  0.9778  1.8684
 5326SOL    HW227633   9.732   9.155   5.793  1.4430 -0.2665 -0.1232
 5327SOL     OW27634   3.096   5.926   4.352 -0.0401  0.4944  0.2274
 5327SOL    HW127635   3.082   5.866   4.273 -1.2642  1.1645 -0.0802
 5327SOL    HW227636   3.031   5.902   4.424  0.3603  0.5888  0.6237
 5328SOL     OW27637   4.702   5.945   0.935 -0.7061  0.6177  0.0952
 5328SOL    HW127638   4.772   5.895   0.986 -1.5660 -0.9200 -0.2131
 5328SOL    HW227639   4.703   5.916   0.840 -0.0663  2.4569 -0.4835
 5329SOL     OW27640   1.176   4.428   0.790 -0.1662  0.0276 -0.2607
 5329SOL    HW127641   1.083   4.463   0.777  0.2320  1.9037  1.6591
 5329SOL    HW227642   1.172   4.343   0.842 -0.9262 -1.0150 -1.9891
 5330SOL     OW27643   9.612   3.495   1.473  0.2093 -0.1702  0.9432
 5330SOL    HW127644   9.667   3.574   1.499 -1.1438  0.8824  0.6788
 5330SOL    HW227645   9.556   3.465   1.550 -1.4348  0.9715  0.2412
 5331SOL     OW27646   0.569   9.887   5.672 -0.6819 -0.1220  0.4239
 5331SOL    HW127647   0.548   9.969   5.620  1.1574 -0.7747 -1.3866
 5331SOL    HW227648   0.485   9.836   5.689 -1.5850  1.1867 -0.0221
 5332SOL     OW27649   7.529   3.672   0.293 -0.2749  0.4616  0.3105
 5332SOL    HW127650   7.534   3.744   0.362  1.4623  0.7400 -0.0800
 5332SOL    HW227651   7.446   3.684   0.239 -0.8837  1.1279  1.3794
 5333SOL     OW27652   8.298   1.575   7.770 -0.0876 -0.1710  0.2078
 5333SOL    HW127653   8.381   1.560   7.717  0.3804 -1.6454  1.3324
 5333SOL    HW227654   8.292   1.508   7.843 -3.2157 -1.2357 -0.9424
 5334SOL     OW27655   0.166   5.930   5.414  0.0108  0.1726 -0.3229
 5334SOL    HW127656   0.175   5.887   5.504  0.0255  0.4246 -0.2056
 5334SOL    HW227657   0.212   6.019   5.414 -0.7157  0.5569 -0.3229
 5335SOL     OW27658   5.336   0.705   3.606 -0.1724 -0.3610  0.0067
 5335SOL    HW127659   5.409   0.639   3.592  0.4400  0.5422 -1.1639
 5335SOL    HW227660   5.349   0.751   3.694  0.9061  0.0649 -0.3640
 5336SOL     OW27661   9.525   0.153   8.068  0.4239 -0.4069  0.3815
 5336SOL    HW127662   9.554   0.177   7.976 -0.2526  1.0793  0.5402
 5336SOL    HW227663   9.602   0.111   8.117  0.9362 -0.7130 -0.6741
 5337SOL     OW27664   6.685   8.113   3.767  0.5770 -0.6465 -0.4703
 5337SOL    HW127665   6.667   8.195   3.821  1.2886 -0.2934 -0.7634
 5337SOL    HW227666   6.711   8.038   3.829  1.4372 -0.2287 -0.3181
 5338SOL     OW27667   2.292   9.909   4.638 -0.1853  0.7727  0.1857
 5338SOL    HW127668   2.344   9.852   4.574 -0.3435  2.2936 -1.3538
 5338SOL    HW227669   2.328  10.002   4.635 -0.4459  0.9518  2.0755
 5339SOL     OW27670   8.302   8.069   0.027 -0.3183  0.0001 -0.1103
 5339SOL    HW127671   8.319   8.016   0.111  1.1209 -0.1147 -0.4565
 5339SOL    HW227672   8.285   8.165   0.051  1.0775  0.1692  0.2751
 5340SOL     OW27673   8.516   8.456   4.147 -0.1861  0.2671  0.3997
 5340SOL    HW127674   8.519   8.409   4.059 -0.8756  1.6415 -0.3666
 5340SOL    HW227675   8.514   8.388   4.221 -0.8065 -0.8989 -0.6753
 5341SOL     OW27676   1.134   6.321   7.011  0.4052  0.4372  0.2363
 5341SOL    HW127677   1.182   6.391   6.957 -0.2815  0.6126 -0.1470
 5341SOL    HW227678   1.067   6.365   7.071 -0.2372  0.0897 -0.2216
 5342SOL     OW27679   6.560   8.581   4.051  0.3820 -0.4704 -0.7972
 5342SOL    HW127680   6.624   8.629   4.111  0.1298  1.3242 -1.9518
 5342SOL    HW227681   6.473   8.569   4.099  0.1086  1.1503 -0.8496
 5343SOL     OW27682   9.898   3.263   0.794  0.3718  0.2571 -0.4642
 5343SOL    HW127683   9.931   3.290   0.704  0.8082  0.0303 -0.3752
 5343SOL    HW227684   9.803   3.292   0.805 -0.0184 -0.6370 -1.3931
 5344SOL     OW27685   4.318   8.628   7.487  0.7112 -0.0554 -0.6314
 5344SOL    HW127686   4.232   8.669   7.457  0.0684 -0.4507  0.6124
 5344SOL    HW227687   4.382   8.701   7.513 -0.6202  0.2223  2.1003
 5345SOL     OW27688   3.572   1.090   6.554  0.1629 -0.2721  0.2551
 5345SOL    HW127689   3.512   1.085   6.634 -0.4387  0.0231 -0.1689
 5345SOL    HW227690   3.530   1.040   6.478  1.7644 -2.4093  0.7491
 5346SOL     OW27691   8.522   6.696   2.226 -0.3016  0.0098 -0.0686
 5346SOL    HW127692   8.574   6.657   2.302 -0.0165  1.0200  0.2686
 5346SOL    HW227693   8.441   6.641   2.209 -0.3829 -0.2079  0.9976
 5347SOL     OW27694   9.381   3.068   7.609 -0.2686  0.2911 -0.0143
 5347SOL    HW127695   9.322   3.035   7.535 -0.1363 -1.1253  0.4940
 5347SOL    HW227696   9.442   3.139   7.574 -1.3551  0.8132 -0.8636
 5348SOL     OW27697   9.305   1.662   1.253 -0.1583  0.1792  0.1162
 5348SOL    HW127698   9.336   1.627   1.165 -0.6396 -1.2936  0.5266
 5348SOL    HW227699   9.237   1.601   1.292 -0.5130  1.2159  1.1699
 5349SOL     OW27700   0.873   8.363   4.729  0.4889 -0.0395 -0.1526
 5349SOL    HW127701   0.781   8.390   4.757  0.5476  0.8933 -0.8390
 5349SOL    HW227702   0.879   8.263   4.723 -0.1887 -0.1460  0.8588
 5350SOL     OW27703   9.147   9.018   7.362 -0.7493 -0.3037 -0.1578
 5350SOL    HW127704   9.157   8.918   7.356 -2.6286 -0.5036 -0.4988
 5350SOL    HW227705   9.190   9.061   7.283  0.9803 -0.7735  0.5204
 5351SOL     OW27706   7.748   5.484   2.612  0.0354  0.2432 -0.0611
 5351SOL    HW127707   7.754   5.572   2.659 -0.1395 -0.5130  1.4141
 5351SOL    HW227708   7.679   5.489   2.539 -1.0772  0.8790  1.0176
 5352SOL     OW27709   0.337   7.561   6.054  0.4443 -0.3432  0.4529
 5352SOL    HW127710   0.388   7.602   6.130 -0.1295 -0.1561  0.7400
 5352SOL    HW227711   0.393   7.565   5.971  0.4038  1.0099  0.4770
 5353SOL     OW27712   8.265   4.725   6.160 -0.3025 -0.0665  0.3291
 5353SOL    HW127713   8.323   4.655   6.202  1.2740  1.0423  0.0307
 5353SOL    HW227714   8.277   4.723   6.061 -0.4332  0.4727  0.3011
 5354SOL     OW27715   0.502   0.418   0.203 -0.2925  0.4400  0.8045
 5354SOL    HW127716   0.527   0.485   0.273 -0.1685 -0.8260  1.9958
 5354SOL    HW227717   0.404   0.423   0.185 -0.3089  0.8392  0.9940
 5355SOL     OW27718   0.697   3.027   0.468  0.2558  0.8593 -0.1315
 5355SOL    HW127719   0.714   2.977   0.384 -1.0511  1.9357 -1.0699
 5355SOL    HW227720   0.649   2.968   0.533 -1.0206  0.7661 -1.1234
 5356SOL     OW27721   3.997   7.996   1.760 -0.3296  0.3156  0.3707
 5356SOL    HW127722   4.072   8.003   1.826 -1.1375 -2.4543  1.6167
 5356SOL    HW227723   3.913   8.033   1.801 -0.0541  1.9431 -0.4605
 5357SOL     OW27724   3.393   8.998   5.420  0.2592 -0.2829  0.5203
 5357SOL    HW127725   3.425   8.909   5.453 -0.0342 -0.7835 -0.5351
 5357SOL    HW227726   3.308   8.986   5.368  0.2789  0.5985  0.2702
 5358SOL     OW27727   2.960   9.528   1.803 -0.2055 -0.6076  0.2046
 5358SOL    HW127728   2.907   9.494   1.726 -1.3830  1.3311  0.1136
 5358SOL    HW227729   2.923   9.616   1.832  0.3841 -1.2057  2.8491
 5359SOL     OW27730   8.931   6.656   5.161  0.4916  0.5623  0.2492
 5359SOL    HW127731   8.990   6.711   5.220 -0.3442  0.6468  1.0171
 5359SOL    HW227732   8.929   6.562   5.194  0.4876  0.4738  0.0020
 5360SOL     OW27733   9.025   5.884   1.295  0.2207 -0.3627  0.1789
 5360SOL    HW127734   9.108   5.875   1.240  0.3428  0.0290  0.2930
 5360SOL    HW227735   8.948   5.909   1.236  0.8248  2.3885  0.4772
 5361SOL     OW27736   1.374   8.540   0.213  0.1134 -0.0006  0.1413
 5361SOL    HW127737   1.315   8.459   0.223  1.1370 -0.6837  0.7370
 5361SOL    HW227738   1.466   8.510   0.189  0.3770  1.0309 -0.1189
 5362SOL     OW27739   7.893   4.361   4.424 -0.4741  0.0676  0.3231
 5362SOL    HW127740   7.924   4.428   4.491 -0.0992  0.2150  0.0087
 5362SOL    HW227741   7.870   4.275   4.470  0.7347 -0.1517  0.5375
 5363SOL     OW27742   2.700   3.180   2.192  0.0580 -0.3209  0.2336
 5363SOL    HW127743   2.740   3.238   2.122 -0.3236 -0.1273  0.1720
 5363SOL    HW227744   2.606   3.210   2.210 -0.2527 -1.1299 -0.0408
 5364SOL     OW27745   2.839   1.040   6.579  0.2049 -0.1253 -0.5724
 5364SOL    HW127746   2.824   0.948   6.615  1.9179 -0.7887 -1.4688
 5364SOL    HW227747   2.883   1.034   6.489 -3.0292  1.5173 -2.3414
 5365SOL     OW27748   0.188   2.068   3.791 -0.0042  0.4708 -0.4574
 5365SOL    HW127749   0.185   2.015   3.875  0.2077 -0.2178 -0.8865
 5365SOL    HW227750   0.140   2.155   3.805  0.6976  0.6948  0.6063
 5366SOL     OW27751   6.686   9.096   5.328  0.7397 -0.1367 -0.8287
 5366SOL    HW127752   6.678   9.133   5.236 -1.0990  0.9993 -0.2382
 5366SOL    HW227753   6.752   9.150   5.380 -0.1324  0.8366 -0.7112
 5367SOL     OW27754   0.411   7.208   4.943  0.1194 -0.4036 -0.2511
 5367SOL    HW127755   0.396   7.247   5.034 -0.8371  0.0206 -0.5846
 5367SOL    HW227756   0.499   7.161   4.941 -0.2440 -1.1546  1.1429
 5368SOL     OW27757   7.450   2.858   7.410  0.5815 -0.4435  0.1330
 5368SOL    HW127758   7.488   2.950   7.419 -0.7315  0.1141  0.0679
 5368SOL    HW227759   7.394   2.837   7.490 -0.1781 -0.6834 -0.4588
 5369SOL     OW27760   6.313   0.604   4.674 -0.2028  0.0881 -0.0912
 5369SOL    HW127761   6.371   0.568   4.600  0.9106  0.3015  0.6667
 5369SOL    HW227762   6.310   0.704   4.668 -0.1746  0.1003  0.1023
 5370SOL     OW27763   7.078   0.762   5.435  0.3312  0.4023  0.4098
 5370SOL    HW127764   7.019   0.688   5.468 -1.4806  1.5870 -0.1230
 5370SOL    HW227765   7.172   0.744   5.464  0.2474 -2.9876 -1.1633
 5371SOL     OW27766   8.873   9.120   4.323 -0.2668 -0.3492 -0.2747
 5371SOL    HW127767   8.958   9.090   4.366 -0.8402 -1.1310  0.3333
 5371SOL    HW227768   8.856   9.216   4.347 -1.4674 -1.2421  2.7788
 5372SOL     OW27769   6.386   0.622   6.143 -0.1443 -0.0363  0.0959
 5372SOL    HW127770   6.407   0.573   6.059  1.4934  0.9154 -0.0750
 5372SOL    HW227771   6.367   0.557   6.216 -3.3592 -0.8591 -1.4165
 5373SOL     OW27772   9.135   2.895   6.530  0.1397 -0.5218 -0.0107
 5373SOL    HW127773   9.066   2.967   6.530  0.2023 -0.4376  1.4279
 5373SOL    HW227774   9.089   2.806   6.525 -0.1195 -0.4881  1.5633
 5374SOL     OW27775   2.684   3.531   2.828  0.0395 -0.6237  0.1248
 5374SOL    HW127776   2.700   3.433   2.837 -0.3007 -0.5225  1.9093
 5374SOL    HW227777   2.594   3.554   2.866 -0.3377  0.2360 -1.2334
 5375SOL     OW27778   7.803   9.345   4.977 -0.5081  0.4423  0.2812
 5375SOL    HW127779   7.711   9.374   5.003 -0.9763  0.7688 -1.6196
 5375SOL    HW227780   7.825   9.258   5.020 -1.0047  1.2246  2.1528
 5376SOL     OW27781   8.505   5.103   6.091 -0.2359 -0.2199 -0.3098
 5376SOL    HW127782   8.444   5.057   6.156 -1.4841  0.8336 -0.7060
 5376SOL    HW227783   8.466   5.098   5.999 -0.6075  1.9295 -0.3035
 5377SOL     OW27784   8.574   9.631   7.273  0.3221 -0.3125  0.0262
 5377SOL    HW127785   8.544   9.540   7.302 -0.8847  0.4287  1.2089
 5377SOL    HW227786   8.673   9.633   7.265  0.3691 -1.6856  0.1726
 5378SOL     OW27787   1.731   3.856   4.975  0.4173 -0.0178 -0.0468
 5378SOL    HW127788   1.666   3.931   4.986  1.9670  1.2484  0.7440
 5378SOL    HW227789   1.685   3.769   4.992 -1.6051  0.6558 -1.7789
 5379SOL     OW27790   8.984   5.198   1.932  0.3916 -0.5196 -0.2267
 5379SOL    HW127791   9.038   5.117   1.956  1.4606  0.7250  1.6011
 5379SOL    HW227792   8.988   5.265   2.006 -2.5641  0.1766 -0.6152
 5380SOL     OW27793   9.929   8.821   4.396 -0.1467  0.4685 -0.1635
 5380SOL    HW127794   9.975   8.830   4.307 -0.4832 -0.0235 -0.3895
 5380SOL    HW227795   9.941   8.727   4.430  0.3318  0.7707  0.5063
 5381SOL     OW27796   5.387   1.529   2.228  0.0906 -0.0851  0.0290
 5381SOL    HW127797   5.438   1.573   2.302 -0.6736 -0.3946  0.7553
 5381SOL    HW227798   5.307   1.483   2.266 -1.4719  1.5152 -1.2363
 5382SOL     OW27799   5.170   1.843   6.212 -0.0930  0.4853 -0.2590
 5382SOL    HW127800   5.197   1.868   6.119  0.5235  0.5826 -0.0563
 5382SOL    HW227801   5.095   1.902   6.242 -0.9751 -0.2077 -1.0650
 5383SOL     OW27802   7.103   0.441   0.731  0.2144  0.7359 -0.2385
 5383SOL    HW127803   7.192   0.486   0.739  0.6190  0.0598 -0.8460
 5383SOL    HW227804   7.093   0.403   0.638 -1.1897  1.8218 -0.5387
 5384SOL     OW27805   5.310   7.569   3.627  0.2768  0.2040 -0.3300
 5384SOL    HW127806   5.252   7.520   3.561 -1.0577  2.5130 -0.9388
 5384SOL    HW227807   5.310   7.519   3.714 -1.1660 -0.7895 -0.8747
 5385SOL     OW27808   7.148   2.306   3.009  0.0014  0.4475  0.2615
 5385SOL    HW127809   7.101   2.342   2.928 -1.0231  0.4099  0.8231
 5385SOL    HW227810   7.082   2.295   3.083  0.4143 -1.9966  0.3142
 5386SOL     OW27811   2.991   7.192   5.128 -0.4442  0.2924  0.6405
 5386SOL    HW127812   3.027   7.133   5.200  1.3009  1.7494  0.9787
 5386SOL    HW227813   3.044   7.178   5.044  1.4927  3.0180  1.3591
 5387SOL     OW27814   4.611   1.719   4.625 -0.9203  0.0890 -0.1208
 5387SOL    HW127815   4.527   1.739   4.675 -0.5911  1.0736  0.0550
 5387SOL    HW227816   4.670   1.662   4.682 -0.8697  0.5846  0.3321
 5388SOL     OW27817   1.257   5.570   4.071  0.3758  0.6993  0.1743
 5388SOL    HW127818   1.164   5.544   4.100 -0.3588  1.6912 -1.2240
 5388SOL    HW227819   1.323   5.507   4.112 -0.9111  0.0099  1.2382
 5389SOL     OW27820   8.504   2.202   1.138 -0.2562  0.2489 -0.5363
 5389SOL    HW127821   8.439   2.125   1.137 -0.2858  0.2794 -1.0708
 5389SOL    HW227822   8.578   2.181   1.202 -2.0352  1.2527  1.9050
 5390SOL     OW27823   4.156   8.711   1.515  0.0918 -0.3312 -0.2175
 5390SOL    HW127824   4.232   8.746   1.571  1.7438 -1.7530 -1.5046
 5390SOL    HW227825   4.156   8.611   1.519 -0.4555 -0.3961 -1.8745
 5391SOL     OW27826   3.077   4.615   5.570 -0.2561 -0.3276  0.7299
 5391SOL    HW127827   3.110   4.686   5.632  1.1525  1.3872 -1.8684
 5391SOL    HW227828   3.148   4.594   5.503 -2.0673 -1.4635 -0.8801
 5392SOL     OW27829   2.340   1.364   4.285  0.4107  0.1985  0.6694
 5392SOL    HW127830   2.300   1.413   4.363  0.3549  1.9491 -0.4482
 5392SOL    HW227831   2.332   1.266   4.301 -1.2702  0.5227  2.0386
 5393SOL     OW27832   0.813   6.699   4.453 -0.1503  0.1559  0.1560
 5393SOL    HW127833   0.891   6.679   4.394  0.4713 -4.1426  2.2520
 5393SOL    HW227834   0.728   6.684   4.402  0.3742 -0.1424 -0.6381
 5394SOL     OW27835   1.910   6.172   3.381 -0.0562  0.0687  0.2107
 5394SOL    HW127836   1.928   6.240   3.310  2.2113 -0.8775 -0.1507
 5394SOL    HW227837   1.815   6.141   3.373 -0.2103  0.9274 -1.5807
 5395SOL     OW27838   4.069   2.649   5.968 -0.0312 -0.2955  0.1858
 5395SOL    HW127839   3.993   2.714   5.975  1.3859  1.2222  2.0301
 5395SOL    HW227840   4.074   2.595   6.052  0.1990 -1.2532 -0.4321
 5396SOL     OW27841   7.171   0.491   2.184 -0.4464  0.0581  0.2134
 5396SOL    HW127842   7.212   0.408   2.220 -0.5930  0.3060  0.9526
 5396SOL    HW227843   7.101   0.524   2.247  0.2226  1.2255  0.3617
 5397SOL     OW27844   4.303   0.140   6.321 -0.0918  0.2713  0.6965
 5397SOL    HW127845   4.260   0.205   6.384  0.4101  1.0417  0.2381
 5397SOL    HW227846   4.399   0.128   6.345  0.2340  0.9715 -0.2524
 5398SOL     OW27847   0.961   1.015   8.148  0.0529 -0.1153  0.3335
 5398SOL    HW127848   0.877   1.056   8.182  1.1904 -0.1411  3.3397
 5398SOL    HW227849   1.028   1.087   8.128 -0.4083 -0.1353 -1.3360
 5399SOL     OW27850   3.055   8.281   5.829  0.2826 -0.5971 -0.5971
 5399SOL    HW127851   3.034   8.189   5.863  0.1444 -0.3339  0.0464
 5399SOL    HW227852   2.971   8.323   5.792  0.0461 -0.2235  0.3432
 5400SOL     OW27853   1.573   1.706   7.878 -0.0632  0.1003  0.0825
 5400SOL    HW127854   1.504   1.738   7.944  0.3355 -0.7271  0.9195
 5400SOL    HW227855   1.542   1.726   7.785 -0.2769  1.9873  0.5440
 5401SOL     OW27856   8.341   8.290   7.995  0.1563 -0.1858 -0.4035
 5401SOL    HW127857   8.287   8.369   8.022  0.8235  0.2382 -0.2871
 5401SOL    HW227858   8.303   8.249   7.913 -1.4203 -0.9993  0.7005
 5402SOL     OW27859   9.267   0.425   3.411 -0.2938 -0.2285 -0.2170
 5402SOL    HW127860   9.324   0.423   3.329  0.8863 -0.5305  0.5971
 5402SOL    HW227861   9.171   0.423   3.385  0.0292  2.0339 -1.6569
 5403SOL     OW27862   7.731   4.003   5.666 -0.5537 -0.8636 -0.8556
 5403SOL    HW127863   7.720   4.080   5.604  1.8162  1.0788  0.9976
 5403SOL    HW227864   7.762   3.923   5.615 -0.3418  0.1929 -2.4210
 5404SOL     OW27865   6.533   8.288   6.462  0.3866 -0.5755 -0.5255
 5404SOL    HW127866   6.446   8.319   6.500  1.6902  1.1728  1.1063
 5404SOL    HW227867   6.540   8.320   6.367  0.3422  1.5035  0.1350
 5405SOL     OW27868   0.066   1.359   4.162 -0.2838  0.0006  0.0232
 5405SOL    HW127869   0.060   1.364   4.062 -1.8192 -1.6436  0.0062
 5405SOL    HW227870  -0.026   1.350   4.200  0.3691 -0.4314  1.5230
 5406SOL     OW27871   4.574   3.798   0.524  0.1717 -0.3214 -0.1797
 5406SOL    HW127872   4.628   3.731   0.474  1.0653 -0.7651  1.3635
 5406SOL    HW227873   4.479   3.795   0.492  0.5252 -1.2413 -1.1697
 5407SOL     OW27874   3.924   3.048   2.867  0.4671  0.0547  0.0371
 5407SOL    HW127875   3.861   3.068   2.942  2.9939  0.4186  2.1090
 5407SOL    HW227876   3.892   2.967   2.818 -1.3972  0.0039  1.2909
 5408SOL     OW27877   4.360   9.579   5.784 -0.0683  0.3380  0.5286
 5408SOL    HW127878   4.308   9.661   5.760 -0.3596  0.4909  1.6566
 5408SOL    HW227879   4.458   9.600   5.785  0.0338  0.0569 -1.5765
 5409SOL     OW27880   1.436   0.923   0.267  0.6968  0.1460 -0.1441
 5409SOL    HW127881   1.429   0.826   0.241  0.3063  0.4645 -1.2298
 5409SOL    HW227882   1.361   0.974   0.226 -0.3537  0.5452  2.1839
 5410SOL     OW27883   0.416   9.982   7.606  0.3518 -0.2672 -0.5691
 5410SOL    HW127884   0.356  10.053   7.643  1.3930  0.7892 -0.8533
 5410SOL    HW227885   0.387   9.893   7.639  0.8500  0.5792  2.2361
 5411SOL     OW27886   0.754   8.865   7.608  0.6537 -0.1068  0.2382
 5411SOL    HW127887   0.774   8.904   7.698 -0.7290  0.1670  0.4448
 5411SOL    HW227888   0.801   8.777   7.598 -0.8047 -1.1231  2.0532
 5412SOL     OW27889   5.694   1.633   5.853  0.5881  0.1130  0.1264
 5412SOL    HW127890   5.644   1.553   5.886 -0.0014  0.5101  0.2019
 5412SOL    HW227891   5.629   1.704   5.827  1.1235  0.8137  0.6888
 5413SOL     OW27892   9.360   9.383   4.553  0.5305 -0.0019 -0.4860
 5413SOL    HW127893   9.376   9.290   4.519  0.1003 -0.5541  0.7985
 5413SOL    HW227894   9.347   9.445   4.475  0.1623 -1.1336 -1.3392
 5414SOL     OW27895   8.363   7.545   2.023 -0.2753 -0.1195  0.3670
 5414SOL    HW127896   8.373   7.497   2.111 -1.3378  0.1711  0.6583
 5414SOL    HW227897   8.266   7.553   2.001 -0.0720  1.1269 -0.1157
 5415SOL     OW27898   3.599   0.775   1.025 -0.2414 -0.1455  0.1373
 5415SOL    HW127899   3.698   0.765   1.021 -0.1991  0.2416  0.1818
 5415SOL    HW227900   3.574   0.827   1.107 -0.5374 -0.9872  0.5834
 5416SOL     OW27901   0.047   8.622   3.043  0.6275  0.0186 -0.2714
 5416SOL    HW127902   0.029   8.592   3.136  1.4183 -0.0500 -0.1389
 5416SOL    HW227903   0.117   8.564   3.001  2.1452  1.6204 -0.0260
 5417SOL     OW27904   8.983   2.447   5.371 -0.3059  0.1384 -0.3138
 5417SOL    HW127905   8.983   2.353   5.403 -1.9291  0.2468  0.0588
 5417SOL    HW227906   8.900   2.463   5.316  0.2992  1.1514 -0.9412
 5418SOL     OW27907   5.521   2.305   4.715  0.5628  0.0155  0.3242
 5418SOL    HW127908   5.445   2.304   4.650  1.4944 -2.3799 -0.7916
 5418SOL    HW227909   5.594   2.365   4.680  1.4195 -1.9158 -1.3409
 5419SOL     OW27910   0.089   9.693   8.053 -0.7088 -0.0487  0.2838
 5419SOL    HW127911   0.163   9.659   7.995 -1.3430 -0.4897 -0.2692
 5419SOL    HW227912   0.128   9.740   8.132  0.1603  0.2543 -0.3176
 5420SOL     OW27913   4.341   6.170   1.932  0.2272 -0.4801  0.4576
 5420SOL    HW127914   4.438   6.191   1.925 -0.0453  0.0433 -2.7048
 5420SOL    HW227915   4.293   6.210   1.854 -2.3568 -1.6800  1.3846
 5421SOL     OW27916   2.255   7.999   2.819  0.0233 -0.1822  0.5167
 5421SOL    HW127917   2.185   7.985   2.749 -1.0621 -1.1877  1.7803
 5421SOL    HW227918   2.268   7.915   2.872 -0.3764  1.0292  2.6096
 5422SOL     OW27919   7.965   8.265   2.771  0.3093 -0.2663 -0.0057
 5422SOL    HW127920   7.923   8.348   2.733 -0.7341 -1.6423 -1.9081
 5422SOL    HW227921   8.061   8.261   2.744 -0.2124 -0.8090 -1.8138
 5423SOL     OW27922   0.734   5.868   3.961  0.1025 -0.6054  0.7391
 5423SOL    HW127923   0.816   5.811   3.954 -0.6080 -1.4868 -0.8159
 5423SOL    HW227924   0.674   5.833   4.033  1.0100 -0.0633  1.7591
 5424SOL     OW27925   4.460   1.458   7.745 -0.5130  0.4315 -0.6424
 5424SOL    HW127926   4.426   1.531   7.804 -0.6743 -1.8021  2.1291
 5424SOL    HW227927   4.560   1.452   7.753 -0.7229 -1.3144  1.2462
 5425SOL     OW27928   4.305   5.705   3.109 -0.8724 -0.2621 -0.2612
 5425SOL    HW127929   4.294   5.787   3.164 -0.7071 -2.1854  2.7072
 5425SOL    HW227930   4.218   5.683   3.064 -1.4023  0.4779  0.3995
 5426SOL     OW27931   4.268   2.107   6.245 -0.2820 -0.2156 -0.1219
 5426SOL    HW127932   4.293   2.179   6.181 -0.6940  0.3096  0.3023
 5426SOL    HW227933   4.273   2.141   6.339 -0.2864 -0.7955  0.0972
 5427SOL     OW27934   2.385   1.948   6.810 -0.2270  0.4643 -0.7138
 5427SOL    HW127935   2.446   2.017   6.850  1.4105 -1.7384  0.7320
 5427SOL    HW227936   2.434   1.897   6.740 -0.2071 -1.6790  0.8201
 5428SOL     OW27937   2.890   8.664   3.134  0.2044  0.3611  0.4404
 5428SOL    HW127938   2.855   8.582   3.179  0.3451 -0.1431 -0.3542
 5428SOL    HW227939   2.958   8.638   3.065 -1.5165  0.9247 -1.5241
 5429SOL     OW27940   0.976   3.457   5.540 -0.6860  0.2541  0.1998
 5429SOL    HW127941   0.926   3.385   5.588  1.9390 -1.9798 -0.2923
 5429SOL    HW227942   1.024   3.514   5.607 -0.3225 -0.3395  0.4510
 5430SOL     OW27943   4.228   3.257   7.407  0.1086  0.2606  0.3261
 5430SOL    HW127944   4.319   3.233   7.439 -0.0091  1.1474  1.3685
 5430SOL    HW227945   4.165   3.182   7.424  0.0906  0.6493  2.0398
 5431SOL     OW27946   1.383   9.816   2.371 -0.2647 -0.2306  0.5245
 5431SOL    HW127947   1.371   9.825   2.470  1.8254  1.7532  0.6353
 5431SOL    HW227948   1.478   9.791   2.351 -0.8931 -1.5002 -0.9476
 5432SOL     OW27949   0.819   1.163   4.228 -0.0489  0.1193 -0.4280
 5432SOL    HW127950   0.829   1.070   4.262  1.7654  0.2190 -0.6342
 5432SOL    HW227951   0.733   1.202   4.261 -0.7040 -1.5381 -0.1527
 5433SOL     OW27952   6.841   8.807   3.552 -0.1925  0.9159 -0.3936
 5433SOL    HW127953   6.885   8.717   3.556 -2.0059 -0.0454 -1.5572
 5433SOL    HW227954   6.911   8.879   3.556  1.2271 -0.5136  1.2315
 5434SOL     OW27955   3.773   0.933   2.773  0.1041  0.3829 -0.1540
 5434SOL    HW127956   3.769   0.851   2.717 -0.1465  0.1104  0.2585
 5434SOL    HW227957   3.813   0.911   2.862  0.2482  0.7540 -0.1251
 5435SOL     OW27958   4.879   1.504   0.485  0.1445  0.0887  0.1852
 5435SOL    HW127959   4.794   1.546   0.453  0.1401 -0.1057 -0.0580
 5435SOL    HW227960   4.932   1.572   0.537  0.6454  0.7269 -1.1376
 5436SOL     OW27961   2.475   3.056   5.816 -0.1101  0.0256 -0.4606
 5436SOL    HW127962   2.452   3.100   5.729 -1.6421 -1.3841 -0.7989
 5436SOL    HW227963   2.453   2.958   5.810  1.8881 -0.5246  0.7502
 5437SOL     OW27964   0.862   8.006   5.710 -0.3222  0.7858 -0.1455
 5437SOL    HW127965   0.911   8.042   5.631  0.7226  1.2228  0.6984
 5437SOL    HW227966   0.793   8.072   5.739  1.6794  2.1903  1.4834
 5438SOL     OW27967   2.253   1.430   7.834 -0.0813  0.1762 -0.3390
 5438SOL    HW127968   2.255   1.340   7.878 -1.4098 -0.0105 -0.6326
 5438SOL    HW227969   2.238   1.500   7.903  0.6164  0.1511 -0.1527
 5439SOL     OW27970   3.755   8.777   5.844  0.1385 -0.0887 -0.3576
 5439SOL    HW127971   3.850   8.793   5.819  0.3989 -2.3951 -0.9194
 5439SOL    HW227972   3.744   8.787   5.943  1.2173 -0.9990 -0.1407
 5440SOL     OW27973   2.276   3.083   4.585 -0.2911  0.0952  0.2290
 5440SOL    HW127974   2.353   3.130   4.542 -0.1717 -0.7706 -0.5006
 5440SOL    HW227975   2.301   2.989   4.606 -0.0534  0.7540  3.0268
 5441SOL     OW27976   5.032   4.650   0.381  0.0974 -0.2090 -0.0779
 5441SOL    HW127977   5.056   4.685   0.471  1.5997  0.7224 -0.8237
 5441SOL    HW227978   5.033   4.550   0.383  1.5299 -0.1980  0.5861
 5442SOL     OW27979   2.809   3.759   6.939 -0.1935 -0.7574  0.4305
 5442SOL    HW127980   2.741   3.780   6.868 -0.1410 -0.2898  0.5232
 5442SOL    HW227981   2.791   3.814   7.020  0.9126  0.1137  0.0924
 5443SOL     OW27982   0.711   9.383   0.619  0.2473 -0.2173  0.4804
 5443SOL    HW127983   0.713   9.283   0.612  2.2024 -0.1751  0.1168
 5443SOL    HW227984   0.659   9.409   0.700 -0.0308 -1.5464  0.7430
 5444SOL     OW27985   6.924   9.644   3.700 -0.1875  0.6289  0.0124
 5444SOL    HW127986   6.957   9.724   3.650  0.5356 -1.2259 -2.5927
 5444SOL    HW227987   6.839   9.611   3.659  0.2445 -0.7520  0.2005
 5445SOL     OW27988   9.729   1.665   0.145 -0.1518 -0.0759 -0.0213
 5445SOL    HW127989   9.710   1.567   0.144 -1.5716  0.1122  2.7986
 5445SOL    HW227990   9.812   1.682   0.198  0.6884  0.1861 -1.3936
 5446SOL     OW27991   4.900   0.652   0.031  0.1653  0.1238  0.0273
 5446SOL    HW127992   4.812   0.671   0.074 -1.1248 -1.1152 -2.0175
 5446SOL    HW227993   4.887   0.596  -0.051  2.8694 -0.2470 -0.2199
 5447SOL     OW27994   9.002   4.584   8.064 -0.1051 -0.5324  0.3618
 5447SOL    HW127995   9.096   4.618   8.061  0.6239 -2.4158  1.2100
 5447SOL    HW227996   8.989   4.515   7.992 -0.7054 -0.5749  0.5084
 5448SOL     OW27997   8.619   0.929   2.548  0.0679 -1.1775  0.3565
 5448SOL    HW127998   8.639   0.896   2.639  1.0147 -1.1191  0.1706
 5448SOL    HW227999   8.703   0.959   2.503  0.3351 -5.3731 -2.2268
 5449SOL     OW28000   0.519   7.096   0.839 -0.1901  0.0697 -0.2406
 5449SOL    HW128001   0.562   7.186   0.841  1.1261 -0.5303 -0.9901
 5449SOL    HW228002   0.559   7.038   0.910 -1.2054  0.1449  0.4010
 5450SOL     OW28003   1.327   9.090   0.690 -0.4644 -0.3549  0.1057
 5450SOL    HW128004   1.426   9.077   0.683 -0.6391 -0.5180 -3.1897
 5450SOL    HW228005   1.307   9.185   0.713  0.4722  0.4315 -2.1511
 5451SOL     OW28006   0.599   6.392   0.523 -0.6564  0.5993 -0.7927
 5451SOL    HW128007   0.695   6.419   0.534 -1.1270  1.9063  0.2581
 5451SOL    HW228008   0.561   6.369   0.613 -1.4217  0.3527 -1.1731
 5452SOL     OW28009   9.608   8.914   3.556 -0.2607  0.1037  0.2420
 5452SOL    HW128010   9.666   8.992   3.577  0.6907  0.1240 -2.3818
 5452SOL    HW228011   9.598   8.857   3.638  3.2900  0.2240  0.8184
 5453SOL     OW28012   9.490   9.841   7.462  0.4175  0.4903 -0.0651
 5453SOL    HW128013   9.398   9.878   7.474  0.2218 -0.3551  1.1549
 5453SOL    HW228014   9.525   9.867   7.372 -1.7130 -0.6400 -1.2653
 5454SOL     OW28015   3.274   0.062   4.450  0.3914  0.0981 -0.7969
 5454SOL    HW128016   3.304   0.156   4.462 -0.2163 -0.0934  2.7331
 5454SOL    HW228017   3.175   0.060   4.435  0.3147 -0.0111 -0.2840
 5455SOL     OW28018   0.372   8.962   0.567  0.4528 -0.2918 -0.6496
 5455SOL    HW128019   0.466   8.949   0.534  1.2064  0.2402  1.2106
 5455SOL    HW228020   0.374   9.006   0.656 -1.5300 -1.4008 -0.0163
 5456SOL     OW28021   2.551   2.416   7.287 -0.0051  0.0792 -0.2098
 5456SOL    HW128022   2.521   2.349   7.355 -0.2563 -0.3848 -0.7725
 5456SOL    HW228023   2.614   2.372   7.223 -0.8651  0.1412 -1.1122
 5457SOL     OW28024   1.100   6.261   1.350  0.1320 -0.6440 -0.2811
 5457SOL    HW128025   1.063   6.204   1.423  0.3987 -1.2750 -0.6345
 5457SOL    HW228026   1.143   6.342   1.390  1.5638 -1.7080  0.3709
 5458SOL     OW28027   6.114   8.919   7.103  0.2726  0.0023 -0.0535
 5458SOL    HW128028   6.097   8.829   7.064 -0.4221 -0.1398  0.5700
 5458SOL    HW228029   6.052   8.985   7.060  2.4289  0.6464 -2.2573
 5459SOL     OW28030   8.683   1.646   7.253 -0.2014  0.0298 -0.5513
 5459SOL    HW128031   8.598   1.686   7.219  0.5244  0.1839 -2.2516
 5459SOL    HW228032   8.740   1.718   7.293  0.6022  0.5512 -2.5610
 5460SOL     OW28033   9.199   9.422   8.124  0.4240  0.1747  0.4862
 5460SOL    HW128034   9.202   9.414   8.224 -0.1953 -0.7116  0.4393
 5460SOL    HW228035   9.253   9.348   8.083 -0.0221  0.0416  0.1453
 5461SOL     OW28036   9.099   3.717   2.717 -0.7063 -0.1357 -0.2791
 5461SOL    HW128037   9.115   3.789   2.649 -1.2762  0.0115 -0.2561
 5461SOL    HW228038   9.157   3.735   2.797 -0.2858 -0.1224 -0.5809
 5462SOL     OW28039   1.087   3.806   7.048 -0.6423  0.0408 -0.5331
 5462SOL    HW128040   1.031   3.740   6.997 -1.4820 -0.5273  1.0836
 5462SOL    HW228041   1.027   3.872   7.094  0.1295  0.9873 -0.8744
 5463SOL     OW28042   2.405   2.688   7.642  0.1031  0.0992 -0.1523
 5463SOL    HW128043   2.505   2.685   7.637  0.1639  1.1420  0.2579
 5463SOL    HW228044   2.366   2.651   7.558  0.8263 -1.0662  0.0211
 5464SOL     OW28045   0.707   3.797   5.858 -0.0136  0.4721  0.3810
 5464SOL    HW128046   0.705   3.766   5.763  1.3230  1.3503  0.0592
 5464SOL    HW228047   0.798   3.832   5.880 -0.6450  1.3584  1.6448
 5465SOL     OW28048   8.837   4.525   6.662 -0.6494 -0.0904 -0.0140
 5465SOL    HW128049   8.911   4.576   6.618 -0.2359  0.9908  1.8395
 5465SOL    HW228050   8.837   4.431   6.629  1.3225 -0.0072 -0.3339
 5466SOL     OW28051   3.087   9.121   4.374 -0.4702 -0.0447 -0.4407
 5466SOL    HW128052   3.118   9.127   4.279  0.1122  1.7913 -0.1643
 5466SOL    HW228053   3.132   9.045   4.420  1.7607  1.0460 -0.7405
 5467SOL     OW28054   9.071   4.625   2.279  0.2444 -0.0022 -0.2954
 5467SOL    HW128055   9.041   4.694   2.344  0.4497 -1.4588  1.3928
 5467SOL    HW228056   9.007   4.548   2.281  1.0529 -0.6934 -0.7644
 5468SOL     OW28057   2.256   2.347   6.617  0.2156 -0.2418  0.1024
 5468SOL    HW128058   2.192   2.347   6.540 -1.7260  1.4025  1.6597
 5468SOL    HW228059   2.221   2.286   6.688  0.9317 -0.1689  0.5140
 5469SOL     OW28060   7.765   5.219   2.409 -0.6831  0.1159  0.0608
 5469SOL    HW128061   7.734   5.313   2.398  2.5308  1.1878 -0.6638
 5469SOL    HW228062   7.783   5.179   2.318  1.5683  0.1542  0.4527
 5470SOL     OW28063   3.010   1.844   2.234 -0.0997  0.5301  0.1923
 5470SOL    HW128064   3.018   1.850   2.135 -0.9296  0.0132  0.0898
 5470SOL    HW228065   3.050   1.925   2.276  0.9629  0.3830 -0.5248
 5471SOL     OW28066   1.867   1.201   7.884  0.3253  0.0009  0.6055
 5471SOL    HW128067   1.885   1.267   7.958  0.5800 -0.4625  0.9581
 5471SOL    HW228068   1.894   1.242   7.797 -0.2885  0.6812  0.7295
 5472SOL     OW28069   0.882   6.943   7.083 -0.4917 -0.0380  0.5569
 5472SOL    HW128070   0.876   6.988   7.172 -0.8880 -1.1858  1.1203
 5472SOL    HW228071   0.920   7.007   7.016 -1.7626  1.3817  1.1596
 5473SOL     OW28072   6.917   9.389   3.859  0.5341 -0.5419  0.1434
 5473SOL    HW128073   6.901   9.315   3.794  0.5736  0.1127 -0.6238
 5473SOL    HW228074   6.961   9.466   3.812  1.2202 -0.3336  1.1051
 5474SOL     OW28075   8.866   6.587   5.701 -0.2699 -0.5495 -0.4472
 5474SOL    HW128076   8.931   6.573   5.776 -0.8608 -1.9239 -0.1698
 5474SOL    HW228077   8.902   6.656   5.638 -0.1758  1.2565  1.5449
 5475SOL     OW28078   3.017   4.470   3.385  0.2008 -0.3402  0.1922
 5475SOL    HW128079   3.042   4.485   3.481  1.0689  0.3039 -0.1311
 5475SOL    HW228080   2.970   4.551   3.350  0.5168 -0.2939 -0.1291
 5476SOL     OW28081   2.996   2.836   2.989 -0.1002  0.6005 -0.6171
 5476SOL    HW128082   3.085   2.792   2.991 -0.4499 -0.0599  0.5323
 5476SOL    HW228083   2.986   2.897   3.067  0.1191  2.2332 -1.8310
 5477SOL     OW28084   0.214   1.665   7.616 -0.2779 -0.2289 -0.3020
 5477SOL    HW128085   0.177   1.742   7.669 -0.0229  0.6703 -1.4203
 5477SOL    HW228086   0.172   1.663   7.526 -0.6394 -1.7122 -0.1107
 5478SOL     OW28087   2.748   7.780   7.772  0.5769 -0.3132  0.2694
 5478SOL    HW128088   2.742   7.822   7.863 -0.6739  0.6042 -0.2206
 5478SOL    HW228089   2.728   7.849   7.703 -0.1711 -1.4198 -0.6227
 5479SOL     OW28090   5.438   6.498   1.018 -0.1601  0.1528 -0.2306
 5479SOL    HW128091   5.429   6.593   1.050  1.4835  0.3057 -0.1990
 5479SOL    HW228092   5.514   6.492   0.953 -0.9244 -0.9490 -1.0301
 5480SOL     OW28093   8.282   0.286   2.004  0.4481 -0.3442  0.0518
 5480SOL    HW128094   8.249   0.358   1.942 -0.5525 -1.5371 -0.8167
 5480SOL    HW228095   8.246   0.198   1.975  1.8652 -1.2448  0.9818
 5481SOL     OW28096   2.076   8.119   5.692 -0.6922 -0.0873 -0.6465
 5481SOL    HW128097   2.009   8.091   5.761  1.3560 -2.3660  0.5283
 5481SOL    HW228098   2.137   8.188   5.732 -1.2183  0.6455 -1.1085
 5482SOL     OW28099   0.667   0.158   7.622 -0.0697  0.7124  0.2388
 5482SOL    HW128100   0.743   0.132   7.681 -1.1911 -0.3652  1.2536
 5482SOL    HW228101   0.591   0.095   7.636 -1.6585  2.5864  0.2501
 5483SOL     OW28102   0.488   1.569   0.512  0.2847 -0.2066  0.2249
 5483SOL    HW128103   0.566   1.576   0.449 -0.7956 -0.1211 -1.1067
 5483SOL    HW228104   0.481   1.654   0.564  0.1562  0.3898 -0.7483
 5484SOL     OW28105   2.596   9.674   4.774 -0.1408  0.4044 -0.0299
 5484SOL    HW128106   2.503   9.649   4.802  0.4756  0.2280  1.9302
 5484SOL    HW228107   2.662   9.625   4.829  1.1634 -0.1402 -2.0237
 5485SOL     OW28108   7.365   3.262   6.383 -0.3271  0.2467  0.4455
 5485SOL    HW128109   7.316   3.218   6.307 -0.8980  3.2341 -0.9829
 5485SOL    HW228110   7.328   3.353   6.398  2.7214  1.3604  1.4553
 5486SOL     OW28111   2.262   0.389   3.601  0.4766  0.4864 -0.4440
 5486SOL    HW128112   2.291   0.442   3.522  0.6344  0.4177 -0.4317
 5486SOL    HW228113   2.164   0.403   3.616  0.6623  1.3269 -0.0115
 5487SOL     OW28114   2.906   6.186   6.643  0.0885  0.3209  0.1851
 5487SOL    HW128115   2.941   6.233   6.562  0.2298 -1.3479 -0.7454
 5487SOL    HW228116   2.974   6.119   6.673 -0.8538 -0.5201  0.4434
 5488SOL     OW28117   7.225   6.811   7.173 -0.4766  0.1381  0.4356
 5488SOL    HW128118   7.164   6.738   7.204 -0.7647 -0.1804 -0.8608
 5488SOL    HW228119   7.311   6.806   7.225 -0.5546 -1.0271  0.4803
 5489SOL     OW28120   7.271   6.659   4.343  0.6538  0.5237  0.3172
 5489SOL    HW128121   7.306   6.640   4.434  0.3961 -0.5254  0.2097
 5489SOL    HW228122   7.323   6.733   4.301  1.0381  0.7276  1.1555
 5490SOL     OW28123   0.418   1.029   7.064 -0.0140 -0.4904  0.0812
 5490SOL    HW128124   0.336   0.971   7.066 -0.4076  0.0370 -0.5319
 5490SOL    HW228125   0.462   1.022   6.974  0.0804 -0.0452  0.0904
 5491SOL     OW28126   9.302   1.580   3.020 -0.0904 -0.4419 -0.3318
 5491SOL    HW128127   9.220   1.625   3.054  1.4528  1.3452  1.1721
 5491SOL    HW228128   9.316   1.603   2.924  0.6272  2.2820  0.3953
 5492SOL     OW28129   9.367   7.964   5.510  0.1050 -0.2912  0.1053
 5492SOL    HW128130   9.417   7.976   5.424  2.0723 -1.3105  1.0802
 5492SOL    HW228131   9.398   7.880   5.555  0.4691  1.2040  2.7327
 5493SOL     OW28132   3.897   5.319   6.531  0.1001  0.4371  0.0806
 5493SOL    HW128133   3.844   5.403   6.517 -0.9850 -0.0155  1.3291
 5493SOL    HW228134   3.941   5.292   6.445  0.3213  2.1818 -0.3651
 5494SOL     OW28135   2.460   1.557   7.374 -0.5412 -0.3744 -0.7212
 5494SOL    HW128136   2.430   1.499   7.299  1.6015 -2.1651 -0.2287
 5494SOL    HW228137   2.433   1.517   7.462  0.7046 -0.5310 -0.3906
 5495SOL     OW28138   1.160   2.707   6.411  0.2471  0.0077 -0.6080
 5495SOL    HW128139   1.219   2.770   6.360 -1.0819  0.3418 -1.7716
 5495SOL    HW228140   1.071   2.702   6.366 -1.6044  1.7075  2.6890
 5496SOL     OW28141   1.010   2.409   3.598  0.2647 -0.0930  0.0135
 5496SOL    HW128142   0.999   2.332   3.659 -1.4634 -0.9431 -1.3342
 5496SOL    HW228143   0.938   2.477   3.615 -0.0149 -0.1721 -0.8274
 5497SOL     OW28144   0.477   5.271   0.452  0.1739  0.1782  0.4367
 5497SOL    HW128145   0.545   5.276   0.379 -0.8370 -1.5652 -0.6466
 5497SOL    HW228146   0.497   5.341   0.521  0.0602  3.1878 -2.4451
 5498SOL     OW28147   3.114   2.369   7.973 -0.2072 -0.7456  0.0743
 5498SOL    HW128148   3.105   2.363   8.072  0.3624 -0.1064  0.1684
 5498SOL    HW228149   3.204   2.334   7.945  0.1182  0.2276 -0.0981
 5499SOL     OW28150   7.134   8.198   7.138  0.1432  0.3593  0.0150
 5499SOL    HW128151   7.166   8.103   7.141  0.1614  0.3478 -0.5060
 5499SOL    HW228152   7.213   8.259   7.130  0.1011  0.3909 -0.1664
 5500SOL     OW28153   4.651   0.854   7.468 -0.0396  0.4501 -0.0013
 5500SOL    HW128154   4.709   0.915   7.522 -0.7762  1.8350 -0.7635
 5500SOL    HW228155   4.557   0.890   7.466 -0.3592 -0.4190 -0.9127
 5501SOL     OW28156   2.365   2.954   7.541 -0.7152  0.1168  0.4617
 5501SOL    HW128157   2.371   2.854   7.548 -1.1357  0.1781  1.8419
 5501SOL    HW228158   2.276   2.979   7.504 -1.2032  0.0307  1.5661
 5502SOL     OW28159   0.731   9.408   7.835  0.5366 -0.2677  0.0905
 5502SOL    HW128160   0.818   9.451   7.860  0.6503 -0.7638  0.5645
 5502SOL    HW228161   0.696   9.450   7.751  0.0956  1.4822  1.1449
 5503SOL     OW28162   4.774   1.391   7.231  0.1635 -0.6256  0.0848
 5503SOL    HW128163   4.723   1.410   7.314 -0.0611  0.1605 -0.2219
 5503SOL    HW228164   4.723   1.327   7.173 -0.5236  0.2269 -0.2623
 5504SOL     OW28165   0.330   2.791   6.482  0.0051 -0.4654  0.0279
 5504SOL    HW128166   0.386   2.840   6.416 -1.2036 -1.0737 -1.4607
 5504SOL    HW228167   0.233   2.810   6.466 -0.4226 -2.4679  0.1097
 5505SOL     OW28168   3.895   9.456   1.846 -0.6253  0.7519 -0.4300
 5505SOL    HW128169   3.966   9.525   1.859  0.0431  0.4746 -2.5439
 5505SOL    HW228170   3.809   9.489   1.885  0.6756  0.9883  2.3682
 5506SOL     OW28171   7.833   7.563   6.442 -0.5015  0.2476  0.0030
 5506SOL    HW128172   7.910   7.627   6.441  0.6757 -1.1511 -0.0477
 5506SOL    HW228173   7.843   7.497   6.368 -1.9707  0.3077 -0.2624
 5507SOL     OW28174   2.920   9.606   1.396 -0.4984  0.6605 -0.4891
 5507SOL    HW128175   2.863   9.686   1.407 -2.2044 -0.5794 -0.1649
 5507SOL    HW228176   2.877   9.527   1.440 -0.6905 -1.2621 -3.9533
 5508SOL     OW28177   8.222   1.913   5.100 -0.4042 -0.1725  0.2329
 5508SOL    HW128178   8.263   1.838   5.151 -1.4886 -0.2665  0.9805
 5508SOL    HW228179   8.122   1.903   5.100 -0.4073 -1.1248 -3.2997
 5509SOL     OW28180   7.686   2.641   5.090 -0.2813  0.1800 -0.1329
 5509SOL    HW128181   7.610   2.678   5.037  0.1242  0.4382 -0.5387
 5509SOL    HW228182   7.769   2.641   5.034  0.1176  0.3109  0.4486
 5510SOL     OW28183   1.885   6.451   6.261 -0.5874 -0.5269 -0.5778
 5510SOL    HW128184   1.959   6.475   6.198 -0.8675  1.9831 -0.0369
 5510SOL    HW228185   1.797   6.476   6.220 -0.7726  1.0758  0.7234
 5511SOL     OW28186   5.397   4.000   1.820  0.6321 -0.2012 -0.0809
 5511SOL    HW128187   5.395   4.099   1.828 -0.4207 -0.2617  0.5457
 5511SOL    HW228188   5.326   3.960   1.879 -0.4133 -1.2003 -1.9342
 5512SOL     OW28189   9.185   3.643   7.582  0.1482 -0.3865 -0.0944
 5512SOL    HW128190   9.099   3.664   7.629 -0.7824 -0.7747 -1.6109
 5512SOL    HW228191   9.216   3.723   7.532  0.5955 -0.2974  0.3203
 5513SOL     OW28192   1.440   5.727   3.971 -0.1288 -0.6214 -0.3336
 5513SOL    HW128193   1.366   5.664   3.995 -0.5145 -1.2112 -2.9265
 5513SOL    HW228194   1.416   5.819   4.001 -1.6222 -0.9302 -0.5329
 5514SOL     OW28195   4.196   2.248   7.901 -0.0448 -0.2505 -0.1780
 5514SOL    HW128196   4.282   2.223   7.858 -0.2137 -0.6645 -0.2778
 5514SOL    HW228197   4.194   2.213   7.995  0.4824  0.9798  0.2943
 5515SOL     OW28198   5.355   2.461   3.453  0.4821 -0.2879  0.5092
 5515SOL    HW128199   5.277   2.498   3.403  1.0073  0.1433 -0.0012
 5515SOL    HW228200   5.349   2.488   3.549  0.2597  0.1658  0.3700
 5516SOL     OW28201   2.210   1.474   2.002 -0.2212  0.1118 -0.0985
 5516SOL    HW128202   2.154   1.406   2.048  2.2211 -1.0840  1.2211
 5516SOL    HW228203   2.162   1.508   1.921 -3.0125 -0.4868  1.2378
 5517SOL     OW28204   0.885   6.811   6.048 -0.0943 -0.6535  0.1385
 5517SOL    HW128205   0.864   6.719   6.081 -2.0883  0.3573  1.8085
 5517SOL    HW228206   0.821   6.835   5.975 -0.3754 -0.1369  0.5523
 5518SOL     OW28207   2.599   3.034   3.886  0.4465  0.1557  0.0003
 5518SOL    HW128208   2.530   3.082   3.831 -1.5077  0.1281  2.3338
 5518SOL    HW228209   2.569   2.940   3.903  2.7175 -0.9247 -1.8203
 5519SOL     OW28210   1.751   1.177   7.248  0.1650  0.7131 -0.1584
 5519SOL    HW128211   1.696   1.194   7.167  1.1364  2.7903 -0.4199
 5519SOL    HW228212   1.762   1.263   7.299  0.9436 -0.2220  1.2781
 5520SOL     OW28213   9.940   5.035   3.890 -0.0783  0.0296  0.0037
 5520SOL    HW128214  10.037   5.022   3.910 -0.7163  0.3799  3.6116
 5520SOL    HW228215   9.888   4.958   3.925 -1.4979  1.6490  1.5172
 5521SOL     OW28216   2.257   6.336   5.267  0.5581 -0.4433 -0.5683
 5521SOL    HW128217   2.315   6.363   5.344  0.4668  1.0151 -0.9899
 5521SOL    HW228218   2.162   6.360   5.286  0.5011 -0.2900 -1.0272
 5522SOL     OW28219   8.626   8.361   1.684  0.1738 -0.3723  0.5910
 5522SOL    HW128220   8.691   8.394   1.752 -0.2459  1.0629  0.3184
 5522SOL    HW228221   8.556   8.431   1.669 -0.9471 -1.5489  0.2557
 5523SOL     OW28222   3.992   0.499   2.454 -0.2201 -0.2118 -0.3920
 5523SOL    HW128223   3.896   0.481   2.478  0.0320  0.2104  0.9989
 5523SOL    HW228224   4.033   0.558   2.524  1.2951 -1.0842 -0.5268
 5524SOL     OW28225   3.639   5.136   7.676  0.3862  0.1331 -0.0428
 5524SOL    HW128226   3.609   5.046   7.707 -1.4679  0.8684  0.3599
 5524SOL    HW228227   3.730   5.155   7.712 -0.0992 -0.6836  1.6741
 5525SOL     OW28228   9.812   8.640   4.147 -0.2800 -0.5973  0.0030
 5525SOL    HW128229   9.827   8.578   4.224 -2.6738 -1.9776 -0.5934
 5525SOL    HW228230   9.880   8.714   4.150  1.5480 -2.2844  1.6895
 5526SOL     OW28231   9.066   3.891   3.626  0.4405 -0.0482  0.0816
 5526SOL    HW128232   9.103   3.958   3.561 -0.2356  0.8899  0.6475
 5526SOL    HW228233   9.136   3.822   3.646  1.7904  1.5060  0.8670
 5527SOL     OW28234   3.293   8.604   6.438  0.6037  0.2638  0.1040
 5527SOL    HW128235   3.227   8.670   6.473 -1.8445 -1.8592 -0.3944
 5527SOL    HW228236   3.365   8.590   6.506 -1.2268  0.1436  2.0668
 5528SOL     OW28237   8.842   2.334   3.939  0.3672  0.0164  0.0890
 5528SOL    HW128238   8.788   2.408   3.979 -0.2191 -1.0264  1.2362
 5528SOL    HW228239   8.925   2.320   3.993  2.0372  1.8781 -1.8919
 5529SOL     OW28240   2.409   8.726   4.224  0.7541 -0.2459 -0.4502
 5529SOL    HW128241   2.499   8.683   4.234  0.3199 -0.5490  2.4105
 5529SOL    HW228242   2.337   8.660   4.243 -0.0912  0.1380 -2.1988
 5530SOL     OW28243   3.471   7.937   5.906  0.3081 -0.5779 -0.4756
 5530SOL    HW128244   3.435   7.960   5.815  1.0833 -0.0008 -0.6428
 5530SOL    HW228245   3.403   7.883   5.955  0.6069 -2.4318 -2.0557
 5531SOL     OW28246   0.024   0.998   3.334 -0.5471  0.5098 -0.1806
 5531SOL    HW128247   0.042   1.021   3.430 -1.9150 -0.0451  0.2233
 5531SOL    HW228248   0.101   0.946   3.298  0.4280  1.5844  0.3153
 5532SOL     OW28249   5.264   2.082   0.430 -0.3621 -0.3499  0.1834
 5532SOL    HW128250   5.261   2.137   0.513  0.6092 -2.6993  1.8086
 5532SOL    HW228251   5.170   2.057   0.404 -0.5665 -0.8684  1.4172
 5533SOL     OW28252   6.551   1.006   5.982  0.1404  0.3576  0.0784
 5533SOL    HW128253   6.582   1.073   5.914  1.8795  0.2037  0.6903
 5533SOL    HW228254   6.544   1.051   6.071 -0.0673  0.0543  0.2144
 5534SOL     OW28255   5.091   1.579   2.370  0.0225  0.1264 -0.1817
 5534SOL    HW128256   5.110   1.581   2.271 -1.0872  1.7849 -0.3791
 5534SOL    HW228257   5.119   1.666   2.411 -0.6090 -0.1108  0.7631
 5535SOL     OW28258   4.688   5.328   0.347  0.0144 -0.1753 -0.2668
 5535SOL    HW128259   4.657   5.331   0.442 -0.3440 -0.0816 -0.3862
 5535SOL    HW228260   4.696   5.233   0.318 -0.6524 -0.1984 -0.3922
 5536SOL     OW28261   2.327   1.415   6.276  0.5865 -0.0806 -0.1428
 5536SOL    HW128262   2.404   1.352   6.262 -0.5802 -1.6327  0.2633
 5536SOL    HW228263   2.274   1.421   6.191  0.5728  0.1735 -0.1150
 5537SOL     OW28264   9.365   3.834   3.959  0.1320 -0.9915 -0.2049
 5537SOL    HW128265   9.429   3.911   3.965 -0.0572 -0.7605 -1.1291
 5537SOL    HW228266   9.271   3.867   3.970  0.0866 -1.1809  0.0000
 5538SOL     OW28267   1.841   3.242   7.089  0.2634 -0.4258  0.3763
 5538SOL    HW128268   1.825   3.202   7.179 -1.0868  0.3054  0.4883
 5538SOL    HW228269   1.762   3.224   7.031 -0.3133  1.8722  0.3764
 5539SOL     OW28270   2.184   9.060   7.317  0.0861 -0.5663 -0.1667
 5539SOL    HW128271   2.259   9.057   7.383 -0.8770  0.6684  1.0191
 5539SOL    HW228272   2.182   8.975   7.264  0.6240 -1.7559  1.6897
 5540SOL     OW28273   1.011   7.242   7.214 -0.0448 -0.0276  0.6178
 5540SOL    HW128274   1.006   7.269   7.311 -0.4427  0.8289  0.3626
 5540SOL    HW228275   0.919   7.241   7.176  0.0595 -0.8883  0.3830
 5541SOL     OW28276   9.182   8.223   3.501 -0.1264  0.6647  0.4081
 5541SOL    HW128277   9.113   8.241   3.571 -1.7649  1.1284 -1.3024
 5541SOL    HW228278   9.228   8.137   3.521 -0.3289  0.9601  2.2405
 5542SOL     OW28279   0.893   3.053   5.158 -0.4182 -0.3083  0.1069
 5542SOL    HW128280   0.957   3.117   5.116  0.2872 -1.1060 -0.0557
 5542SOL    HW228281   0.833   3.014   5.088 -0.6651 -0.0326  0.1648
 5543SOL     OW28282   9.701   7.797   2.510 -0.5366 -0.1920 -0.0713
 5543SOL    HW128283   9.690   7.887   2.550  0.1365  0.0048 -0.3227
 5543SOL    HW228284   9.611   7.755   2.496 -0.8328  0.3248  0.2928
 5544SOL     OW28285   5.526   5.659   2.203  0.5317 -0.0198  0.4610
 5544SOL    HW128286   5.495   5.616   2.289  1.7371 -0.6599  0.5851
 5544SOL    HW228287   5.525   5.590   2.130  2.0334 -0.1391  0.5539
 5545SOL     OW28288   9.866   4.395   7.369 -0.1354  0.1711 -0.3303
 5545SOL    HW128289   9.775   4.424   7.397  0.0736  0.8084 -0.2884
 5545SOL    HW228290   9.876   4.297   7.383 -1.2312 -0.1252 -1.5003
 5546SOL     OW28291   1.644   7.027   7.169 -0.0718 -0.0348 -0.2091
 5546SOL    HW128292   1.681   7.117   7.192 -0.3530 -0.2998  1.3242
 5546SOL    HW228293   1.595   7.032   7.082  0.8626  1.0361 -0.6834
 5547SOL     OW28294   1.300   2.274   0.922  0.0575  0.2325 -0.3912
 5547SOL    HW128295   1.360   2.202   0.888  1.3524  1.0896  0.0512
 5547SOL    HW228296   1.256   2.320   0.844  1.1960  0.6366 -0.8003
 5548SOL     OW28297   1.265   8.317   5.053 -0.2544  0.3231 -0.3831
 5548SOL    HW128298   1.170   8.321   5.021 -0.0434 -0.8918 -1.1816
 5548SOL    HW228299   1.327   8.336   4.977  0.1741  0.3318 -0.0362
 5549SOL     OW28300   9.386   1.595   5.536  0.4194  0.2750 -0.2054
 5549SOL    HW128301   9.350   1.528   5.471  0.3746 -0.5541  0.6746
 5549SOL    HW228302   9.384   1.557   5.628 -0.0847  1.6673  0.3809
 5550SOL     OW28303   9.529   8.561   1.948 -0.2299 -0.2877  0.4053
 5550SOL    HW128304   9.538   8.602   1.858 -1.2804 -2.1314 -0.5853
 5550SOL    HW228305   9.619   8.552   1.990  0.1149  1.9203  0.1768
 5551SOL     OW28306   3.156   3.952   3.577  0.1749 -0.4404  0.2277
 5551SOL    HW128307   3.151   4.045   3.540  0.9863 -0.4116  0.1685
 5551SOL    HW228308   3.144   3.955   3.676  1.2715 -0.1407  0.3612
 5552SOL     OW28309   1.367   1.629   0.523  0.1078 -0.3104  0.3402
 5552SOL    HW128310   1.311   1.705   0.490  0.2747  0.0494  0.8896
 5552SOL    HW228311   1.394   1.572   0.445  1.4985  1.2117 -0.3259
 5553SOL     OW28312   2.072   3.957   8.178  0.3267  0.3122  0.9916
 5553SOL    HW128313   1.981   3.957   8.219 -0.1872  0.7688 -0.1374
 5553SOL    HW228314   2.064   3.950   8.078  1.5529 -0.6311  0.9412
 5554SOL     OW28315   1.509   0.557   6.305  0.0546 -0.1460 -0.2777
 5554SOL    HW128316   1.572   0.586   6.233  0.0253 -1.3134 -0.7902
 5554SOL    HW228317   1.556   0.557   6.393  0.1688  1.0176 -0.3340
 5555SOL     OW28318   2.428   8.892   4.513 -0.2504 -0.4499 -0.1453
 5555SOL    HW128319   2.435   8.890   4.413  0.3878 -0.4013 -0.1048
 5555SOL    HW228320   2.336   8.866   4.541  0.3840 -3.3237 -0.6221
 5556SOL     OW28321   4.610   0.503   6.218  0.1890  0.2931  0.4655
 5556SOL    HW128322   4.558   0.569   6.164 -0.3199  0.5993  1.3280
 5556SOL    HW228323   4.587   0.513   6.315  0.0387 -1.2182  0.5961
 5557SOL     OW28324   9.709   0.363   7.587 -0.2513 -0.1691 -0.2372
 5557SOL    HW128325   9.668   0.439   7.536  0.8466  0.1858 -0.6111
 5557SOL    HW228326   9.672   0.361   7.680  0.1689  1.2363 -0.0169
 5558SOL     OW28327   8.343   8.742   6.606 -0.2205 -0.1824  0.1495
 5558SOL    HW128328   8.253   8.705   6.631  0.1858 -1.0486  0.3796
 5558SOL    HW228329   8.392   8.674   6.550  0.7732 -0.2274  1.0605
 5559SOL     OW28330   9.907   5.159   3.000 -0.0982  0.0086  0.0163
 5559SOL    HW128331   9.898   5.122   2.907 -0.6737 -2.0068  0.8502
 5559SOL    HW228332   9.997   5.134   3.037 -0.8198 -1.3388  0.9002
 5560SOL     OW28333   1.125   1.373   6.321 -0.3150  0.6087 -0.4073
 5560SOL    HW128334   1.193   1.370   6.247  0.8111  0.2771  0.6218
 5560SOL    HW228335   1.124   1.464   6.361  0.8422  0.1290  0.7630
 5561SOL     OW28336   3.655   5.864   6.515  0.2054  0.1442 -0.3561
 5561SOL    HW128337   3.557   5.853   6.533  0.4712 -2.1563 -0.1575
 5561SOL    HW228338   3.669   5.904   6.425 -0.9583  3.7010  0.9461
 5562SOL     OW28339   0.690   0.076   0.162 -0.4741  0.2542  0.7030
 5562SOL    HW128340   0.677   0.132   0.244  0.8425 -0.3134  1.3093
 5562SOL    HW228341   0.728  -0.013   0.188 -0.8729 -0.2569 -0.4369
 5563SOL     OW28342   6.703   2.269   5.943 -0.3491  0.0648  0.1907
 5563SOL    HW128343   6.685   2.353   5.996  2.2329  0.3313  0.7149
 5563SOL    HW228344   6.742   2.293   5.855 -1.8098 -0.5250 -0.6374
 5564SOL     OW28345   0.357   6.405   4.806  0.4297  0.0652  0.6024
 5564SOL    HW128346   0.294   6.360   4.870  0.4586 -0.1396  0.4894
 5564SOL    HW228347   0.370   6.346   4.726 -1.5857  1.4142 -0.7753
 5565SOL     OW28348   7.728   6.668   1.653 -0.1019  0.0403  0.5437
 5565SOL    HW128349   7.822   6.648   1.625 -0.4294  1.6361 -1.8557
 5565SOL    HW228350   7.683   6.723   1.583 -2.5101  0.2172  2.1476
 5566SOL     OW28351   3.914   8.902   0.066 -0.2055 -0.4171  0.0221
 5566SOL    HW128352   3.933   8.906  -0.032  0.7185 -2.4908  0.1020
 5566SOL    HW228353   3.925   8.993   0.105 -0.1354  0.3451 -1.7073
 5567SOL     OW28354   8.326   4.773   2.457  0.0906  0.1597 -0.0645
 5567SOL    HW128355   8.242   4.823   2.476 -0.0577  0.1327 -0.6350
 5567SOL    HW228356   8.317   4.725   2.369  0.1404 -1.0692  0.5967
 5568SOL     OW28357   4.328   2.134   7.137 -0.2347 -0.5291  0.3428
 5568SOL    HW128358   4.281   2.219   7.159  0.9260 -0.0422  1.0121
 5568SOL    HW228359   4.281   2.057   7.179 -1.5375 -0.2746 -0.6286
 5569SOL     OW28360   8.937   7.843   0.288  0.1728  0.5060 -0.8080
 5569SOL    HW128361   8.949   7.804   0.379  1.1229  0.8881 -0.7653
 5569SOL    HW228362   8.986   7.930   0.282 -0.9943  1.1433 -1.2548
 5570SOL     OW28363   9.004   4.188   7.662  0.2020 -0.5798 -0.0976
 5570SOL    HW128364   8.906   4.176   7.676  0.3672  0.6798  2.4498
 5570SOL    HW228365   9.054   4.121   7.717  0.7864  0.7834  1.0800
 5571SOL     OW28366   5.725   8.264   3.700  0.3361 -0.1033  0.4477
 5571SOL    HW128367   5.702   8.303   3.611 -1.6311 -3.2352 -0.5123
 5571SOL    HW228368   5.645   8.267   3.759  0.7818 -0.6546  1.0929
 5572SOL     OW28369   4.879   7.890   4.114  0.5618  0.0906  0.1104
 5572SOL    HW128370   4.906   7.806   4.161 -0.1130  0.2112  0.7248
 5572SOL    HW228371   4.956   7.926   4.061  1.1537 -0.3493  0.6776
 5573SOL     OW28372   7.890   3.637   7.070  0.3399 -0.1697 -0.5946
 5573SOL    HW128373   7.984   3.615   7.098  1.0250  0.6687 -2.2007
 5573SOL    HW228374   7.888   3.726   7.025 -1.1722 -0.3517 -0.9141
 5574SOL     OW28375   1.131   5.335   1.448 -0.2460 -0.4135  0.2104
 5574SOL    HW128376   1.181   5.415   1.479 -0.6752  0.1304 -0.4644
 5574SOL    HW228377   1.056   5.364   1.388 -0.6224 -1.2924  0.2433
 5575SOL     OW28378   7.591   9.633   5.683 -0.3751 -0.4467 -0.3637
 5575SOL    HW128379   7.586   9.534   5.673 -1.9150 -0.1465 -3.1073
 5575SOL    HW228380   7.558   9.659   5.774  1.5400 -2.5224  0.9816
 5576SOL     OW28381   7.300   1.693   0.070  0.0709  0.4696 -0.9042
 5576SOL    HW128382   7.268   1.775   0.024  0.3682  0.5877 -0.9056
 5576SOL    HW228383   7.314   1.712   0.167 -2.3714 -0.2891 -0.3693
 5577SOL     OW28384   2.005   6.413   5.359  0.1825  0.1186  0.0817
 5577SOL    HW128385   1.993   6.421   5.458 -1.1577  1.1635 -0.1521
 5577SOL    HW228386   1.925   6.367   5.320  1.3094 -1.5284 -0.3739
 5578SOL     OW28387   9.884   5.375   8.115  0.6215  0.3784  0.0670
 5578SOL    HW128388   9.809   5.342   8.173  1.7507 -0.8240  0.8778
 5578SOL    HW228389   9.940   5.439   8.167  1.6356 -0.7045  0.3320
 5579SOL     OW28390   8.968   8.978   2.459  0.0208  0.0406 -0.1460
 5579SOL    HW128391   8.906   9.053   2.433 -0.0839 -0.1653 -0.4818
 5579SOL    HW228392   8.917   8.892   2.459  0.5226 -0.2558 -1.2673
 5580SOL     OW28393   6.612   1.436   0.103 -0.3442 -0.2547 -0.2230
 5580SOL    HW128394   6.588   1.343   0.130 -0.9386 -0.1385 -0.3456
 5580SOL    HW228395   6.703   1.459   0.139 -0.8729 -0.3008  1.1730
 5581SOL     OW28396   1.818   9.736   1.546  0.5565 -0.3361 -0.8871
 5581SOL    HW128397   1.767   9.809   1.593  1.1066 -0.5281  0.0170
 5581SOL    HW228398   1.754   9.681   1.492 -0.5187 -1.7757  1.7778
 5582SOL     OW28399   3.231   6.052   4.959  0.1538 -0.2313  0.2896
 5582SOL    HW128400   3.193   5.977   4.906 -0.2433  0.0086  0.2272
 5582SOL    HW228401   3.233   6.135   4.902  0.8231 -0.2541  0.2745
 5583SOL     OW28402   3.839   9.643   2.046 -0.0354 -0.0202  0.4798
 5583SOL    HW128403   3.896   9.724   2.048 -0.8010  0.5350  0.0931
 5583SOL    HW228404   3.752   9.662   2.092 -0.4287 -0.4574 -0.0694
 5584SOL     OW28405   8.385   8.489   1.936 -0.3252  0.5270 -0.3110
 5584SOL    HW128406   8.414   8.400   1.972  0.4411 -0.4750 -3.2033
 5584SOL    HW228407   8.450   8.560   1.963 -0.6035  0.0920  1.5049
 5585SOL     OW28408   8.310   8.058   4.670 -0.1783 -0.3325  0.5574
 5585SOL    HW128409   8.300   7.998   4.590 -0.6770 -0.1582  0.4842
 5585SOL    HW228410   8.358   8.141   4.643  0.7457 -0.8076  0.7169
 5586SOL     OW28411   7.612   3.965   1.576  0.2704 -0.1105  0.4251
 5586SOL    HW128412   7.662   3.964   1.490 -3.8940  1.2657 -2.2077
 5586SOL    HW228413   7.571   3.876   1.592 -2.7089  0.8308 -1.5076
 5587SOL     OW28414   2.616   4.542   6.771  0.0490  0.2975 -0.4484
 5587SOL    HW128415   2.695   4.580   6.819  0.3299  0.7749 -1.2879
 5587SOL    HW228416   2.549   4.614   6.755 -0.5396 -0.0951  0.2122
 5588SOL     OW28417   4.094   0.095   6.010  0.4228  0.4334  0.8222
 5588SOL    HW128418   4.151   0.033   6.064 -0.8507  0.5923  2.4040
 5588SOL    HW228419   4.017   0.126   6.066 -0.5573  1.1539 -0.8857
 5589SOL     OW28420   3.541   8.074   3.007 -0.0610  0.2194  0.0309
 5589SOL    HW128421   3.485   8.155   2.990 -0.1939  0.3497  1.0516
 5589SOL    HW228422   3.525   8.007   2.935  0.7945  1.4864 -1.3674
 5590SOL     OW28423   8.573   0.105   7.727 -0.0835  0.0749 -0.0076
 5590SOL    HW128424   8.549   0.201   7.713 -0.0439  0.3019  1.4530
 5590SOL    HW228425   8.538   0.051   7.650 -1.1537  1.0862 -0.2548
 5591SOL     OW28426   9.707   5.663   0.420  0.2468 -0.6480  0.2377
 5591SOL    HW128427   9.644   5.623   0.487 -2.1325  0.0840 -1.5120
 5591SOL    HW228428   9.781   5.599   0.402 -0.1064 -1.6420  2.1406
 5592SOL     OW28429   2.015   3.184   1.512 -0.3732  0.4591  0.7327
 5592SOL    HW128430   1.964   3.098   1.513 -0.9334  0.7418 -1.3257
 5592SOL    HW228431   1.966   3.251   1.456  2.1606  0.7920 -1.1284
 5593SOL     OW28432   3.060   1.919   6.080 -0.2851 -0.4655  0.4295
 5593SOL    HW128433   3.105   1.844   6.032  0.7465  1.2280 -1.3072
 5593SOL    HW228434   3.039   1.891   6.173 -0.1307 -2.9843 -0.2743
 5594SOL     OW28435   8.902   7.170   1.015  0.2299  0.3207  0.3725
 5594SOL    HW128436   8.966   7.236   1.055 -0.9674 -0.1388  3.1487
 5594SOL    HW228437   8.823   7.160   1.075 -1.0488 -1.3655 -1.5371
 5595SOL     OW28438   1.645   4.622   5.599 -0.0610 -0.0749  0.2053
 5595SOL    HW128439   1.659   4.525   5.578  0.6626  0.0416  0.1501
 5595SOL    HW228440   1.705   4.678   5.542 -0.6251  0.4215  0.0890
 5596SOL     OW28441   3.781   9.285   2.910  0.1146  0.1354  0.3848
 5596SOL    HW128442   3.801   9.285   3.008  1.5431  1.6961  0.1190
 5596SOL    HW228443   3.685   9.262   2.895  0.2031 -1.4262  2.0704
 5597SOL     OW28444   0.423   5.000   4.491  0.0133  0.4392 -0.3603
 5597SOL    HW128445   0.469   4.995   4.580 -0.3029  0.6527 -0.1851
 5597SOL    HW228446   0.488   5.031   4.422  0.2317  0.3805 -0.1833
 5598SOL     OW28447   8.809   6.958   6.468  0.2988  0.2106  0.0455
 5598SOL    HW128448   8.737   6.957   6.537  0.2873 -3.2891  0.0797
 5598SOL    HW228449   8.877   6.887   6.490  1.9671  1.1800 -1.8260
 5599SOL     OW28450   1.386   9.808   2.646  0.2417 -0.1455 -0.3545
 5599SOL    HW128451   1.468   9.840   2.693 -1.0255  2.8433 -0.1139
 5599SOL    HW228452   1.310   9.806   2.711 -0.6029  0.1491 -1.3290
 5600SOL     OW28453   9.117   0.654   4.621 -0.3953  0.2812  0.1107
 5600SOL    HW128454   9.129   0.613   4.711  2.2187 -1.3297 -0.9153
 5600SOL    HW228455   9.193   0.716   4.602  0.0676 -0.8167 -1.7127
 5601SOL     OW28456   7.188   5.053   6.815 -0.0886 -0.2358  0.1517
 5601SOL    HW128457   7.279   5.034   6.852  0.1497  0.0730 -0.2691
 5601SOL    HW228458   7.197   5.098   6.726 -0.6377  1.0717  0.7338
 5602SOL     OW28459   9.218   4.328   5.350  0.1872  0.6128  0.0604
 5602SOL    HW128460   9.218   4.423   5.380 -0.2832  0.3353  0.9844
 5602SOL    HW228461   9.311   4.297   5.333  0.4003  1.0218  0.4833
 5603SOL     OW28462   7.581   4.307   6.305 -0.5010  0.0122 -0.1092
 5603SOL    HW128463   7.638   4.273   6.230  1.3016  1.5767  0.5288
 5603SOL    HW228464   7.484   4.291   6.283  0.1026 -1.5770 -1.7402
 5604SOL     OW28465   0.362   9.715   0.066  0.7186  0.1218 -0.4465
 5604SOL    HW128466   0.288   9.674   0.119  1.1794 -1.6557 -1.1509
 5604SOL    HW228467   0.427   9.644   0.038  2.4853  1.5802 -0.1936
 5605SOL     OW28468   4.225   9.561   0.926  0.3648  0.2259 -0.3505
 5605SOL    HW128469   4.170   9.590   1.004 -1.7645  0.7404 -1.9945
 5605SOL    HW228470   4.290   9.632   0.903  0.1463  0.6050  0.1790
 5606SOL     OW28471   8.716   1.862   6.583 -0.7862  0.3088  0.0376
 5606SOL    HW128472   8.643   1.869   6.651 -0.4044 -0.6900  0.5671
 5606SOL    HW228473   8.677   1.868   6.491 -1.7064 -1.3988  0.2921
 5607SOL     OW28474   9.828   7.951   5.832 -0.1598 -0.0684  0.0691
 5607SOL    HW128475   9.880   7.989   5.908  0.9376 -0.1634 -0.6208
 5607SOL    HW228476   9.891   7.925   5.758 -1.0966 -1.1457 -0.3619
 5608SOL     OW28477   8.295   9.260   8.085  0.5931  0.0044  0.1547
 5608SOL    HW128478   8.261   9.267   8.179  0.4216 -1.0577  0.1882
 5608SOL    HW228479   8.383   9.307   8.077  1.4613 -1.3790  1.2890
 5609SOL     OW28480   2.928   3.774   2.110 -0.0627 -0.0639 -0.2024
 5609SOL    HW128481   2.874   3.794   2.028  1.2326  1.0176 -0.8192
 5609SOL    HW228482   2.874   3.794   2.192 -1.0199 -0.2034 -0.7896
 5610SOL     OW28483   0.686   4.133   2.013 -0.1677  0.0863  0.4081
 5610SOL    HW128484   0.679   4.123   1.914 -0.9651  1.4902  0.3058
 5610SOL    HW228485   0.594   4.143   2.052  0.1137 -0.8603  1.3397
 5611SOL     OW28486   1.657   1.621   2.926  0.6056 -0.0133 -0.1665
 5611SOL    HW128487   1.745   1.633   2.972  1.0742  1.6688 -1.4677
 5611SOL    HW228488   1.672   1.609   2.828 -0.5555 -0.9773 -0.2436
 5612SOL     OW28489   3.751   0.636   0.424  0.4827  0.1350 -0.6208
 5612SOL    HW128490   3.775   0.722   0.380  1.1507  1.3283  1.9452
 5612SOL    HW228491   3.718   0.655   0.517 -0.1859 -2.3073 -0.3361
 5613SOL     OW28492   9.765   7.005   5.657  0.3753 -0.3111  0.2947
 5613SOL    HW128493   9.787   7.016   5.560  0.8330 -1.5453  0.2488
 5613SOL    HW228494   9.674   7.041   5.675  0.3604  0.0860 -0.5598
 5614SOL     OW28495   6.876   3.355   1.352  0.3656  0.0169  0.0425
 5614SOL    HW128496   6.870   3.448   1.317  1.8030 -0.4877 -1.5989
 5614SOL    HW228497   6.969   3.337   1.384  0.2399 -1.0391 -0.1801
 5615SOL     OW28498   9.033   2.905   7.514  0.1754  0.3788 -1.0823
 5615SOL    HW128499   8.996   2.913   7.607 -0.1232 -2.5231 -0.8903
 5615SOL    HW228500   8.962   2.931   7.448 -1.0844 -1.6711 -0.5950
 5616SOL     OW28501   8.954   9.342   5.957 -0.0055 -0.2585 -0.3158
 5616SOL    HW128502   8.887   9.296   5.897 -1.8320  1.2034  0.5628
 5616SOL    HW228503   9.034   9.368   5.903 -0.2468 -1.7720 -1.4516
 5617SOL     OW28504   0.852   9.695   1.841 -0.1328 -0.1310  0.0867
 5617SOL    HW128505   0.775   9.725   1.898  0.3093 -0.4681  0.8673
 5617SOL    HW228506   0.934   9.689   1.898  0.6120  0.8380 -0.8730
 5618SOL     OW28507   6.168   2.965   1.104  0.0686  0.2804 -0.1670
 5618SOL    HW128508   6.079   2.960   1.149 -0.4972 -0.9300 -1.3758
 5618SOL    HW228509   6.231   2.900   1.147 -0.1067  0.0087 -0.3168
 5619SOL     OW28510   0.906   7.245   2.125 -0.1079  0.0114 -0.0706
 5619SOL    HW128511   1.002   7.273   2.137 -0.1757 -0.3416  1.3476
 5619SOL    HW228512   0.846   7.321   2.152 -0.2640 -0.8154  1.9866
 5620SOL     OW28513   8.239   1.309   2.454 -0.1913 -0.2133 -0.4943
 5620SOL    HW128514   8.223   1.351   2.365 -0.2792  0.3671 -0.2065
 5620SOL    HW228515   8.317   1.247   2.448  0.9419  1.1972 -0.5490
 5621SOL     OW28516   7.574   9.630   7.143  0.3708 -0.1275  0.3706
 5621SOL    HW128517   7.639   9.560   7.173 -0.2015 -0.8913 -0.1565
 5621SOL    HW228518   7.482   9.605   7.173  0.0570  0.0210 -0.4746
 5622SOL     OW28519   6.043   1.975   0.443 -0.2520 -0.6866 -0.0535
 5622SOL    HW128520   6.062   1.993   0.346 -0.3920  1.1192  0.2397
 5622SOL    HW228521   6.087   2.046   0.499 -3.6626  0.7321  0.9365
 5623SOL     OW28522   0.890   9.475   3.526 -0.1798 -0.1997  0.4049
 5623SOL    HW128523   0.971   9.441   3.479 -1.2072 -0.8482 -0.9415
 5623SOL    HW228524   0.872   9.418   3.606 -0.0014 -0.8086  0.0194
 5624SOL     OW28525   1.632   8.200   5.221  0.9069 -0.0951 -0.5298
 5624SOL    HW128526   1.669   8.205   5.314  1.1832  1.4108 -0.7113
 5624SOL    HW228527   1.707   8.187   5.156  0.6865 -1.4650 -0.5359
 5625SOL     OW28528   2.925   9.905   2.871  0.5054  0.0864  0.1331
 5625SOL    HW128529   2.896   9.981   2.813 -0.6167 -0.6385 -0.2795
 5625SOL    HW228530   2.900   9.924   2.966 -0.9961 -0.3521 -0.1610
 5626SOL     OW28531   9.856   1.174   5.331  0.6056 -0.1361  0.4174
 5626SOL    HW128532   9.855   1.076   5.351  1.4099 -0.2512 -0.1034
 5626SOL    HW228533   9.763   1.210   5.337  0.2427 -1.0252  0.1261
 5627SOL     OW28534   1.020   7.822   2.642  0.4180 -0.2783  0.0238
 5627SOL    HW128535   1.081   7.799   2.718  0.9409  0.1657 -0.2595
 5627SOL    HW228536   1.065   7.888   2.582 -0.1640 -0.2981 -0.4372
 5628SOL     OW28537   7.682   0.582   1.329 -0.3695  0.3756  0.5112
 5628SOL    HW128538   7.731   0.497   1.350 -0.9732  0.1205  0.8675
 5628SOL    HW228539   7.639   0.618   1.411 -0.8663  0.5557  0.1764
 5629SOL     OW28540   1.822   2.932   7.554  0.3341 -0.7813  0.0235
 5629SOL    HW128541   1.801   2.842   7.516 -1.0413  0.3330 -1.9585
 5629SOL    HW228542   1.780   2.941   7.644 -2.2840 -0.9839 -1.1305
 5630SOL     OW28543   1.437   5.460   2.966 -0.2942 -0.2661  0.7417
 5630SOL    HW128544   1.525   5.500   2.992  0.5338 -0.4994 -1.6321
 5630SOL    HW228545   1.447   5.362   2.952 -0.8015 -0.2019 -0.1024
 5631SOL     OW28546   0.703   4.412   3.614 -0.0592 -0.1815  0.1748
 5631SOL    HW128547   0.646   4.392   3.535  1.3738 -0.4449 -0.8172
 5631SOL    HW228548   0.693   4.508   3.639 -0.3662 -0.0499 -0.4450
 5632SOL     OW28549   9.482   2.389   7.979  0.3859  0.0325 -0.2594
 5632SOL    HW128550   9.550   2.462   7.986  0.0115  0.1928  1.7981
 5632SOL    HW228551   9.486   2.331   8.060 -1.4718 -0.3667 -0.4227
 5633SOL     OW28552   4.487   9.915   7.480 -0.0634 -0.3691  0.1433
 5633SOL    HW128553   4.491   9.977   7.559  0.7612 -0.0012 -0.1785
 5633SOL    HW228554   4.421   9.842   7.498 -0.5811  0.2519  0.7821
 5634SOL     OW28555   4.210   4.823   5.934 -0.1576 -0.4466 -0.3383
 5634SOL    HW128556   4.143   4.832   5.860 -0.8048 -2.3032  0.0017
 5634SOL    HW228557   4.162   4.831   6.022  0.7775  3.0141 -0.0738
 5635SOL     OW28558   0.159   1.835   5.229  0.0304 -0.1240  0.0182
 5635SOL    HW128559   0.168   1.742   5.192 -2.0199  0.2659 -1.5636
 5635SOL    HW228560   0.109   1.832   5.315  1.4219 -0.6347  0.8293
 5636SOL     OW28561   5.698   1.459   4.087  0.8980 -0.4650  0.3448
 5636SOL    HW128562   5.693   1.559   4.090  1.2813 -0.4592  1.0380
 5636SOL    HW228563   5.753   1.427   4.164  1.2356 -1.1821 -0.1967
 5637SOL     OW28564   9.030   3.189   5.562 -0.3146  0.0310 -0.1622
 5637SOL    HW128565   9.061   3.123   5.494 -3.7063 -0.2041 -1.5837
 5637SOL    HW228566   9.077   3.173   5.648  1.6419 -1.8024 -1.5228
 5638SOL     OW28567   3.911   8.481   0.207 -0.3613  0.4022  0.5770
 5638SOL    HW128568   3.916   8.489   0.307  0.0209  0.3636  0.5606
 5638SOL    HW228569   3.818   8.503   0.177 -0.4177  0.6386  0.9198
 5639SOL     OW28570   5.561   6.143   1.593  0.1341 -0.1913  0.1775
 5639SOL    HW128571   5.633   6.208   1.617  0.0696  0.7219 -2.0637
 5639SOL    HW228572   5.566   6.065   1.656  3.3913 -0.3785 -0.1960
 5640SOL     OW28573   1.499   4.132   8.071  0.6024  0.0140 -0.3105
 5640SOL    HW128574   1.431   4.200   8.045 -0.1357  0.0782  1.6887
 5640SOL    HW228575   1.587   4.177   8.084  0.2239  0.5265  0.5414
 5641SOL     OW28576   3.426   6.802   2.604  0.3173  0.5629 -0.3527
 5641SOL    HW128577   3.454   6.898   2.612 -0.1329  0.7210 -0.6961
 5641SOL    HW228578   3.371   6.790   2.521  0.1634  0.0581 -0.1765
 5642SOL     OW28579   4.163   4.475   3.048  0.0248  0.1094  0.1029
 5642SOL    HW128580   4.113   4.430   2.974  0.6525 -0.9484  0.3197
 5642SOL    HW228581   4.257   4.491   3.020 -0.1011  0.9868  0.1572
 5643SOL     OW28582   2.794   1.748   3.816 -0.4339 -0.1150  0.0878
 5643SOL    HW128583   2.832   1.772   3.905 -0.6405 -0.3025  0.2240
 5643SOL    HW228584   2.763   1.831   3.770  1.0208  0.1634 -0.4251
 5644SOL     OW28585   3.796   3.094   7.635 -0.1111  0.3196 -0.1280
 5644SOL    HW128586   3.713   3.059   7.678  0.3519 -0.4648  0.1508
 5644SOL    HW228587   3.819   3.183   7.674 -0.5874  0.3489  0.0917
 5645SOL     OW28588   2.762   8.931   1.903 -0.1148  0.4481 -0.0186
 5645SOL    HW128589   2.806   8.984   1.830  1.1888 -0.0468  0.3806
 5645SOL    HW228590   2.668   8.910   1.878  0.1539  0.7622 -1.3110
 5646SOL     OW28591   0.153   9.407   5.304 -0.1002  0.0585  0.4706
 5646SOL    HW128592   0.176   9.392   5.400 -1.1838  0.4683  0.8000
 5646SOL    HW228593   0.069   9.459   5.298  0.1866  0.3949 -0.7095
 5647SOL     OW28594   1.288   7.093   1.943 -0.0458  0.1303  0.2391
 5647SOL    HW128595   1.371   7.110   1.890 -0.4518  0.6910 -0.2282
 5647SOL    HW228596   1.224   7.039   1.888  0.4970 -1.3217  1.0418
 5648SOL     OW28597   5.020   8.572   5.706 -0.6994 -0.0384  0.0318
 5648SOL    HW128598   5.030   8.555   5.804 -3.7344  1.5028  0.6608
 5648SOL    HW228599   5.066   8.657   5.681  0.6033 -0.7438 -0.0354
 5649SOL     OW28600   1.212   7.397   7.741  0.2709  0.0624 -0.2257
 5649SOL    HW128601   1.174   7.451   7.816  2.1969  2.7342 -1.0934
 5649SOL    HW228602   1.186   7.301   7.752 -1.4097  0.7884  2.5610
 5650SOL     OW28603   9.831   7.921   1.857  0.9353 -0.1643  0.3102
 5650SOL    HW128604   9.736   7.935   1.884  1.2786  0.9082  0.9946
 5650SOL    HW228605   9.836   7.906   1.759  0.1026  0.2622  0.1996
 5651SOL     OW28606   9.208   3.414   7.440  0.4167 -0.3821  0.5579
 5651SOL    HW128607   9.289   3.413   7.382  2.0358 -2.6415  2.7363
 5651SOL    HW228608   9.200   3.503   7.484  1.1998  0.1709 -0.4075
 5652SOL     OW28609   7.717   1.488   0.935  0.0580  0.0484 -0.0914
 5652SOL    HW128610   7.793   1.463   0.994  0.5462 -0.4569 -0.9310
 5652SOL    HW228611   7.647   1.417   0.939 -0.1475  0.2678  0.2814
 5653SOL     OW28612   0.389   1.027   7.764  0.2532 -0.0850 -0.3591
 5653SOL    HW128613   0.483   1.023   7.798 -0.1054 -0.5039  0.6140
 5653SOL    HW228614   0.326   1.021   7.841 -0.5718  0.4711 -0.9851
 5654SOL     OW28615   4.028   2.098   4.929 -0.2051  0.4109  0.2737
 5654SOL    HW128616   4.037   2.129   4.834  0.4169  1.0252  0.5311
 5654SOL    HW228617   4.044   2.175   4.991  0.8854 -0.3232  0.9104
 5655SOL     OW28618   1.415   6.620   5.448 -0.0763  0.2056  0.2620
 5655SOL    HW128619   1.326   6.599   5.408 -0.1783  2.2238 -0.6527
 5655SOL    HW228620   1.425   6.719   5.457  2.0702  0.0109  0.3478
 5656SOL     OW28621   4.694   6.038   0.167  0.4232 -0.0929  0.5176
 5656SOL    HW128622   4.620   5.984   0.206  1.0644 -0.3160  1.4265
 5656SOL    HW228623   4.696   6.025   0.068 -0.7810 -0.0437  0.4784
 5657SOL     OW28624   3.734   7.591   1.766  0.1121 -0.1641 -0.2585
 5657SOL    HW128625   3.796   7.651   1.716 -0.4248  0.0610 -0.6517
 5657SOL    HW228626   3.648   7.582   1.717 -0.0264 -0.7964  0.0887
 5658SOL     OW28627   9.826   7.428   3.795 -0.0030  0.4640  0.6952
 5658SOL    HW128628   9.876   7.363   3.851 -1.1832 -0.3424  0.8436
 5658SOL    HW228629   9.876   7.514   3.789  1.9381 -0.6814 -0.0847
 5659SOL     OW28630   2.832   1.532   4.705  0.5235 -0.4772  0.6364
 5659SOL    HW128631   2.805   1.624   4.677  0.4935 -1.2946 -2.1604
 5659SOL    HW228632   2.908   1.537   4.769  0.3795  1.5014  0.6763
 5660SOL     OW28633   9.162   1.878   5.289 -0.5057 -0.3932 -0.3287
 5660SOL    HW128634   9.182   1.812   5.361 -0.1266 -0.1599 -0.2224
 5660SOL    HW228635   9.244   1.893   5.233 -0.9519 -1.0224 -1.1744
 5661SOL     OW28636   1.982   7.938   6.999 -0.1985  0.1911 -0.0547
 5661SOL    HW128637   2.050   7.865   6.997 -0.5727 -0.2118  1.0938
 5661SOL    HW228638   2.027   8.027   6.987  0.6428 -0.0125  1.4199
 5662SOL     OW28639   0.710   9.029   0.365  0.3105  0.1184 -0.6668
 5662SOL    HW128640   0.735   9.038   0.461 -1.0332 -3.1043  0.0470
 5662SOL    HW228641   0.666   9.114   0.334 -1.0901  0.4689  2.1324
 5663SOL     OW28642   0.279   4.177   2.489  0.3148  0.0227  0.2417
 5663SOL    HW128643   0.279   4.257   2.430 -3.7706 -0.6687 -0.8083
 5663SOL    HW228644   0.233   4.198   2.575 -0.6244 -1.1344  0.0304
 5664SOL     OW28645   3.359   7.450   3.370  0.5296 -0.7400 -0.0323
 5664SOL    HW128646   3.347   7.358   3.334  0.3330 -1.1987  1.1689
 5664SOL    HW228647   3.456   7.466   3.388  0.5071 -0.8908  0.2214
 5665SOL     OW28648   7.662   2.991   8.102  0.1183  0.4040  0.0800
 5665SOL    HW128649   7.665   2.894   8.077  1.4861  0.7670 -1.3029
 5665SOL    HW228650   7.740   3.013   8.160 -1.8029  0.0703  2.8606
 5666SOL     OW28651   8.591   8.594   7.158  0.0522  1.0085 -0.3145
 5666SOL    HW128652   8.531   8.611   7.236  0.9744  0.0958  0.5967
 5666SOL    HW228653   8.562   8.652   7.081 -3.3758 -0.9943 -0.6278
 5667SOL     OW28654   2.986   4.424   4.677  0.1496 -0.1327  0.1096
 5667SOL    HW128655   2.988   4.478   4.593  0.7351 -2.5090 -1.4614
 5667SOL    HW228656   2.900   4.373   4.681 -0.2379  0.5929  1.3955
 5668SOL     OW28657   7.265   4.225   7.652  0.2344 -0.0333 -0.0928
 5668SOL    HW128658   7.356   4.232   7.610  1.0918 -2.1301  1.3384
 5668SOL    HW228659   7.215   4.309   7.635  2.9896  1.7703  0.3343
 5669SOL     OW28660   4.850   1.465   1.739  0.3791  0.0510  0.3075
 5669SOL    HW128661   4.870   1.527   1.663  1.2625 -0.5292  0.0659
 5669SOL    HW228662   4.866   1.513   1.825 -0.8474  0.7853  0.1365
 5670SOL     OW28663   4.734   1.697   5.452 -0.0549  0.0475  0.0998
 5670SOL    HW128664   4.767   1.655   5.537 -0.6892  1.0346  0.8469
 5670SOL    HW228665   4.673   1.774   5.474  2.3300  2.4195 -1.1775
 5671SOL     OW28666   3.715   8.141   1.521  0.1893  0.7017 -0.2962
 5671SOL    HW128667   3.692   8.200   1.443  1.3418  2.5222  0.7090
 5671SOL    HW228668   3.701   8.191   1.606  0.8279 -0.6106  0.6033
 5672SOL     OW28669   4.907   7.273   1.797 -0.7018 -0.3794 -1.0083
 5672SOL    HW128670   4.923   7.207   1.869 -0.3114  0.0505 -0.6966
 5672SOL    HW228671   4.836   7.239   1.735 -1.7068 -0.3252  0.1050
 5673SOL     OW28672   2.185   5.954   4.748  0.2168  0.4059 -0.0566
 5673SOL    HW128673   2.190   5.866   4.796 -0.8838  0.2338 -0.2357
 5673SOL    HW228674   2.232   6.024   4.801 -1.7741  0.4151  1.7478
 5674SOL     OW28675   0.976   2.223   1.574  0.4376 -0.1830  0.8839
 5674SOL    HW128676   0.915   2.199   1.650  1.0331 -1.2731  1.0396
 5674SOL    HW228677   1.065   2.249   1.610 -0.0450  1.8044  0.6764
 5675SOL     OW28678   7.200   0.211   0.904 -0.3402 -0.1187 -1.0269
 5675SOL    HW128679   7.261   0.221   0.983 -0.5739 -0.7848 -0.7575
 5675SOL    HW228680   7.148   0.295   0.891 -1.1650 -0.3983  0.2706
 5676SOL     OW28681   7.583   9.272   5.901  0.3116 -0.4845 -0.3008
 5676SOL    HW128682   7.542   9.205   5.963 -1.7271 -0.3798 -1.4981
 5676SOL    HW228683   7.622   9.347   5.954 -0.6762 -0.8038  0.8971
 5677SOL     OW28684   1.556   6.588   7.862 -0.4583  0.2557 -0.7068
 5677SOL    HW128685   1.602   6.500   7.870 -0.1432  0.4290 -0.5886
 5677SOL    HW228686   1.556   6.618   7.767 -3.0573 -1.1954 -1.2070
 5678SOL     OW28687   1.717   0.408   2.478  0.1328  0.6675  0.2037
 5678SOL    HW128688   1.621   0.414   2.451  0.3046  0.1480 -0.5525
 5678SOL    HW228689   1.775   0.441   2.403  0.5650  0.3959  0.4115
 5679SOL     OW28690   8.951   7.334   2.282 -0.0715  0.2475  0.4589
 5679SOL    HW128691   8.884   7.322   2.209  0.7880  0.3728 -0.3562
 5679SOL    HW228692   8.999   7.420   2.269 -1.0319  1.0582  2.0902
 5680SOL     OW28693   0.882   5.353   6.190  0.0208  0.0382  0.1534
 5680SOL    HW128694   0.790   5.388   6.209 -0.1806 -0.7238  0.6034
 5680SOL    HW228695   0.930   5.416   6.130 -0.6985  0.5844  0.1504
 5681SOL     OW28696   2.355   8.741   0.813 -0.3157 -0.2510 -0.0438
 5681SOL    HW128697   2.326   8.828   0.853 -3.0403  0.4123 -3.2731
 5681SOL    HW228698   2.279   8.677   0.813  1.2042 -2.0875  0.7805
 5682SOL     OW28699   2.930   2.069   1.789  0.1564 -0.4477 -0.1109
 5682SOL    HW128700   2.868   2.046   1.714  0.1542 -1.5903  0.2299
 5682SOL    HW228701   3.023   2.039   1.767  0.2169 -0.5021  0.2102
 5683SOL     OW28702   4.640   6.509   1.175  0.1906 -0.0442  0.0363
 5683SOL    HW128703   4.592   6.427   1.146  0.5329 -0.5917  0.9842
 5683SOL    HW228704   4.678   6.494   1.266  0.7083  0.9781 -0.0102
 5684SOL     OW28705   7.235   1.267   8.080 -0.7431  0.4442  0.0298
 5684SOL    HW128706   7.156   1.283   8.020 -1.3630 -2.7026 -0.0378
 5684SOL    HW228707   7.293   1.349   8.080 -3.7590  2.6758 -0.2379
 5685SOL     OW28708   2.109   1.838   0.848 -0.0284  0.0612  0.4491
 5685SOL    HW128709   2.144   1.747   0.872  1.8327  0.1976 -1.6283
 5685SOL    HW228710   2.097   1.892   0.931  1.3075 -1.1995  1.4922
 5686SOL     OW28711   0.713   4.061   1.192  0.0389  0.4962 -0.1075
 5686SOL    HW128712   0.800   4.021   1.164 -0.3522 -0.5141  0.0921
 5686SOL    HW228713   0.715   4.081   1.290 -0.5055 -1.0170  0.2293
 5687SOL     OW28714   4.540   0.196   3.414 -0.2254 -0.2117 -0.6354
 5687SOL    HW128715   4.600   0.133   3.463  0.1780 -0.8072 -1.8681
 5687SOL    HW228716   4.462   0.220   3.472  0.1654 -1.0214  0.2362
 5688SOL     OW28717   1.837   1.552   0.141 -0.4773  0.1928  0.1378
 5688SOL    HW128718   1.819   1.453   0.142 -1.3132  0.3434  0.6489
 5688SOL    HW228719   1.915   1.573   0.200  0.8074 -0.3551 -1.3132
 5689SOL     OW28720   3.888   2.198   7.956 -0.2763 -0.2688 -0.1619
 5689SOL    HW128721   3.987   2.184   7.962 -0.4929 -2.1825 -0.7912
 5689SOL    HW228722   3.849   2.203   8.048  0.2657 -0.5736  0.0887
 5690SOL     OW28723   1.812   3.077   3.410  0.6234 -0.1031  0.0511
 5690SOL    HW128724   1.767   3.025   3.483  1.2336 -2.2032 -1.0078
 5690SOL    HW228725   1.782   3.172   3.413 -3.0844 -1.2064  0.0155
 5691SOL     OW28726   1.979   9.483   0.124 -0.5439  0.2291  0.1793
 5691SOL    HW128727   2.076   9.489   0.150 -0.4904 -1.4250  0.4692
 5691SOL    HW228728   1.972   9.472   0.025 -0.3277 -1.1269  0.2934
 5692SOL     OW28729   0.762   7.512   5.399  0.6090 -0.2257  0.0334
 5692SOL    HW128730   0.861   7.528   5.400  0.5889  0.0248 -1.6516
 5692SOL    HW228731   0.736   7.466   5.314 -1.0911  2.1180 -0.7700
 5693SOL     OW28732   2.241   2.278   7.076  0.2226  0.1039 -0.0992
 5693SOL    HW128733   2.308   2.345   7.045 -0.2853  0.5545 -0.2075
 5693SOL    HW228734   2.151   2.319   7.080  0.2065 -0.0593  1.5813
 5694SOL     OW28735   1.172   2.030   3.878  0.0508 -0.5631  0.1667
 5694SOL    HW128736   1.252   2.069   3.833  1.9984 -2.9752  1.3664
 5694SOL    HW228737   1.155   1.939   3.840 -2.5266  0.1809 -0.4995
 5695SOL     OW28738   2.522   4.223   2.948  0.7487  0.1257  0.2231
 5695SOL    HW128739   2.445   4.254   3.004  2.1153  2.0816  1.0725
 5695SOL    HW228740   2.535   4.286   2.872  0.9205 -0.7528 -0.4901
 5696SOL     OW28741   0.520   3.323   0.516 -0.1355 -0.1429  0.2289
 5696SOL    HW128742   0.475   3.235   0.502  1.6930 -1.5031  2.5223
 5696SOL    HW228743   0.584   3.340   0.441 -1.1933 -0.3334 -0.7125
 5697SOL     OW28744   8.336   6.028   3.500 -0.0597  0.2612  0.7335
 5697SOL    HW128745   8.333   6.126   3.522 -1.4570  0.8705 -1.9361
 5697SOL    HW228746   8.430   6.003   3.476  0.1211  1.2031  0.4102
 5698SOL     OW28747   0.513   2.045   2.666 -0.3442 -0.3772  0.1957
 5698SOL    HW128748   0.415   2.061   2.680 -0.0234  2.1253 -0.1910
 5698SOL    HW228749   0.562   2.060   2.752  0.3372  4.2889 -0.8409
 5699SOL     OW28750   4.236   1.916   6.021  0.1378 -0.1837 -0.2471
 5699SOL    HW128751   4.180   1.848   6.070 -0.0255 -0.3048 -0.5983
 5699SOL    HW228752   4.262   1.989   6.084 -0.4810 -0.0867 -0.0947
 5700SOL     OW28753   0.534   6.145   8.130  0.1323  0.0429 -0.9461
 5700SOL    HW128754   0.447   6.183   8.097  0.0109 -0.0345 -0.7172
 5700SOL    HW228755   0.609   6.184   8.077  0.0486  1.0004 -0.3591
 5701SOL     OW28756   3.992   2.906   8.058  0.4055  0.1719  0.3638
 5701SOL    HW128757   4.026   2.854   7.979 -1.2802  0.0027 -0.2653
 5701SOL    HW228758   3.962   2.997   8.028 -4.6108 -1.4810 -0.1238
 5702SOL     OW28759   4.477   5.320   4.178  0.0233 -0.2026  0.2268
 5702SOL    HW128760   4.462   5.228   4.144  0.1501  0.1152 -0.7072
 5702SOL    HW228761   4.394   5.374   4.167  0.2292  0.0548 -0.0908
 5703SOL     OW28762   0.873   3.991   0.463  0.0461  0.4817  0.4887
 5703SOL    HW128763   0.808   3.919   0.438 -0.2823  0.8218  0.3502
 5703SOL    HW228764   0.966   3.954   0.462 -0.1422 -0.0009  0.6617
 5704SOL     OW28765   0.485   5.735   6.341  0.5101  0.1166 -0.2454
 5704SOL    HW128766   0.489   5.832   6.319  1.2295  0.0161 -0.5945
 5704SOL    HW228767   0.524   5.720   6.432  2.6156 -0.1137 -1.1464
 5705SOL     OW28768   3.441   0.122   1.720 -0.2363  0.2728  0.1440
 5705SOL    HW128769   3.414   0.089   1.629  0.7096 -1.4350  0.4693
 5705SOL    HW228770   3.510   0.193   1.710  0.3165 -0.3416 -0.4543
 5706SOL     OW28771   0.564   0.303   5.617 -0.5298  0.2863  0.6459
 5706SOL    HW128772   0.495   0.328   5.685 -1.2206  0.3406 -0.0593
 5706SOL    HW228773   0.533   0.222   5.567 -0.3178  0.6008 -0.0039
 5707SOL     OW28774   3.629   1.730   3.626 -0.0297 -0.3292  0.1097
 5707SOL    HW128775   3.581   1.763   3.545 -1.2707 -0.6816  0.6987
 5707SOL    HW228776   3.723   1.765   3.625 -0.2400  0.2252 -1.1267
 5708SOL     OW28777   3.382   8.785   6.200  0.3606 -0.0870  0.5313
 5708SOL    HW128778   3.432   8.728   6.135 -0.5110  0.2456 -0.4515
 5708SOL    HW228779   3.369   8.734   6.285  2.8376  0.0491  1.0044
 5709SOL     OW28780   3.775   9.491   0.012 -0.6067 -0.4198 -0.4558
 5709SOL    HW128781   3.865   9.512  -0.026 -1.6361  1.1175 -2.1382
 5709SOL    HW228782   3.731   9.422  -0.044 -0.8772 -0.4283 -0.2320
 5710SOL     OW28783   6.507   7.316   5.137  0.1154  0.2058  0.1210
 5710SOL    HW128784   6.593   7.276   5.106  0.0372 -0.3427  0.5944
 5710SOL    HW228785   6.518   7.351   5.230  0.0351  0.8016 -0.0962
 5711SOL     OW28786   1.208   3.274   7.734  0.2637 -0.3340  0.1066
 5711SOL    HW128787   1.183   3.340   7.804 -2.2651  0.5478 -1.5679
 5711SOL    HW228788   1.226   3.322   7.648  0.0233 -1.6731 -0.7063
 5712SOL     OW28789   5.587   8.433   5.042 -0.5961  0.0706 -0.1410
 5712SOL    HW128790   5.684   8.451   5.030 -0.3577 -1.8345 -1.1841
 5712SOL    HW228791   5.572   8.336   5.056 -2.2138  0.5471  1.7227
 5713SOL     OW28792   2.114   8.173   0.682 -0.0044 -0.2494 -0.5776
 5713SOL    HW128793   2.070   8.087   0.710  0.8728 -0.8875 -1.1514
 5713SOL    HW228794   2.210   8.156   0.661  0.1740  0.8830 -0.6892
 5714SOL     OW28795   0.207   6.036   6.341 -0.1243 -0.2222  0.0861
 5714SOL    HW128796   0.207   6.136   6.340  1.4208 -0.1903  1.6255
 5714SOL    HW228797   0.134   6.003   6.400 -1.5138 -0.0373 -1.5028
 5715SOL     OW28798   0.756   2.438   1.594  0.6055 -0.3388 -0.0211
 5715SOL    HW128799   0.765   2.463   1.690 -0.0681 -1.1008  0.2448
 5715SOL    HW228800   0.831   2.377   1.569 -0.6716 -2.2638  0.7348
 5716SOL     OW28801   3.031   0.336   3.448 -0.3158 -0.1765  0.5615
 5716SOL    HW128802   3.036   0.344   3.548 -0.7159 -1.3164  0.6816
 5716SOL    HW228803   2.935   0.326   3.421 -0.3876  2.0790 -0.1075
 5717SOL     OW28804   8.646   5.121   2.210  0.5102 -0.1651  0.1466
 5717SOL    HW128805   8.567   5.095   2.265 -0.9820 -0.3698 -2.0268
 5717SOL    HW228806   8.717   5.052   2.219 -0.2328 -0.8553  0.7966
 5718SOL     OW28807   9.481   9.702   0.644  0.0470 -0.1878 -0.2960
 5718SOL    HW128808   9.552   9.634   0.663  0.7505  0.5374 -0.3112
 5718SOL    HW228809   9.462   9.754   0.728  0.3088  0.3443 -0.5649
 5719SOL     OW28810   9.577   0.477   1.383  0.6094  0.4576  0.0231
 5719SOL    HW128811   9.539   0.386   1.369  3.2124 -0.9448  1.7700
 5719SOL    HW228812   9.552   0.535   1.305 -1.8882 -1.4142 -0.6653
 5720SOL     OW28813   8.992   3.534   7.938 -0.4051  0.0894 -0.3953
 5720SOL    HW128814   9.041   3.538   8.025 -0.1286 -1.3735 -0.4601
 5720SOL    HW228815   9.046   3.581   7.868  0.0756  0.0209 -0.0804
 5721SOL     OW28816   2.189   2.810   2.794 -0.2216  0.2785  0.0685
 5721SOL    HW128817   2.157   2.770   2.880 -1.3735 -0.4044 -0.6640
 5721SOL    HW228818   2.230   2.899   2.812 -0.6089  0.2200  1.3019
 5722SOL     OW28819   4.886   0.017   6.236  0.2005  0.1978  0.1217
 5722SOL    HW128820   4.939  -0.068   6.228 -0.0595 -0.1062  1.5287
 5722SOL    HW228821   4.851   0.026   6.329  3.0656  3.5385  1.0096
 5723SOL     OW28822   9.362   5.732   6.718  0.3943 -0.2539 -0.1777
 5723SOL    HW128823   9.410   5.704   6.802  0.8562  0.6079 -0.1424
 5723SOL    HW228824   9.272   5.769   6.742  1.8767  3.2551  0.3247
 5724SOL     OW28825   8.861   0.896   4.275  0.1572 -0.3099 -0.1930
 5724SOL    HW128826   8.886   0.805   4.309 -0.4481  0.1317  1.4916
 5724SOL    HW228827   8.847   0.892   4.176  0.3956 -1.9900 -0.1726
 5725SOL     OW28828   0.642   3.882   6.941  0.7766 -0.1805  0.5119
 5725SOL    HW128829   0.612   3.908   6.849  0.7037 -1.5152  0.1455
 5725SOL    HW228830   0.573   3.822   6.982  1.1945 -0.2490  1.1148
 5726SOL     OW28831   8.165   2.804   2.318  0.3093  0.5374  0.7445
 5726SOL    HW128832   8.111   2.722   2.341  1.9639 -0.8024 -0.0486
 5726SOL    HW228833   8.106   2.869   2.269  0.1164 -2.3198 -3.1236
 5727SOL     OW28834   1.559   2.159   6.592 -0.3317  0.0984  0.3822
 5727SOL    HW128835   1.461   2.170   6.581 -0.4916  1.4042  2.7052
 5727SOL    HW228836   1.607   2.211   6.522 -1.2814  1.4087  0.6932
 5728SOL     OW28837   0.550   1.040   6.833 -0.3609 -0.0196  0.2085
 5728SOL    HW128838   0.592   1.129   6.814  2.6538 -0.4091  4.3483
 5728SOL    HW228839   0.597   0.969   6.781  0.4463  0.2181  0.6131
 5729SOL     OW28840   0.468   5.689   0.149  0.7485 -0.3630  0.0532
 5729SOL    HW128841   0.452   5.604   0.099  0.3729  0.8507 -1.9618
 5729SOL    HW228842   0.443   5.766   0.091  3.0065  1.2064  1.1072
 5730SOL     OW28843   7.001   8.148   4.153  0.1259 -0.2190  0.3192
 5730SOL    HW128844   7.018   8.110   4.244 -1.5488  0.8444  1.1005
 5730SOL    HW228845   6.911   8.191   4.151 -0.4786 -1.5110 -2.2888
 5731SOL     OW28846   8.163   0.660   7.264  0.1142  0.6899  0.0611
 5731SOL    HW128847   8.168   0.699   7.172  1.4690  1.9607  0.6485
 5731SOL    HW228848   8.153   0.561   7.258 -0.7148  0.8539 -1.4479
 5732SOL     OW28849   7.664   0.410   5.662  0.3778  0.1439  0.2653
 5732SOL    HW128850   7.726   0.371   5.729  0.5050  1.8881  1.2113
 5732SOL    HW228851   7.702   0.496   5.627 -1.2602  0.9957  0.5160
 5733SOL     OW28852   8.170   8.586   1.043 -0.4394 -0.2178  0.1905
 5733SOL    HW128853   8.249   8.568   1.102  0.4100  0.0327 -0.8480
 5733SOL    HW228854   8.196   8.572   0.947 -1.5293  0.3095 -0.1965
 5734SOL     OW28855   1.501   4.350   4.006  0.5248  0.0001  0.4135
 5734SOL    HW128856   1.591   4.392   3.991  0.1165  0.9932  0.7153
 5734SOL    HW228857   1.476   4.359   4.102  0.4610 -1.0080  0.4941
 5735SOL     OW28858   0.741   5.042   5.999 -0.6850 -0.0097 -0.5357
 5735SOL    HW128859   0.661   4.999   6.040 -0.7712  2.5482  2.1494
 5735SOL    HW228860   0.823   4.987   6.021 -0.9917  0.2893  1.5189
 5736SOL     OW28861   8.022   6.440   1.080 -0.3520  0.0301 -0.0305
 5736SOL    HW128862   8.016   6.403   0.987 -0.4010  1.1596 -0.4823
 5736SOL    HW228863   8.030   6.539   1.076 -1.2475  0.1602  1.2081
 5737SOL     OW28864   9.436   1.855   2.851  0.9600  0.0023 -0.1451
 5737SOL    HW128865   9.490   1.875   2.932  1.8959 -1.9682 -0.2613
 5737SOL    HW228866   9.490   1.871   2.769  0.9960 -0.8372 -0.2929
 5738SOL     OW28867   3.806   2.222   2.786  0.0443 -0.7080 -0.0344
 5738SOL    HW128868   3.760   2.300   2.742  0.8333 -0.3182 -0.1753
 5738SOL    HW228869   3.876   2.186   2.726 -0.0981 -1.3284  0.1686
 5739SOL     OW28870   8.739   0.203   6.614  0.0941 -0.0481  0.3146
 5739SOL    HW128871   8.685   0.204   6.698  1.1301 -0.1789  0.9961
 5739SOL    HW228872   8.715   0.123   6.560 -1.6591  0.8324 -0.2393
 5740SOL     OW28873   9.343   0.129   5.137  0.3049  0.0440 -0.0509
 5740SOL    HW128874   9.422   0.107   5.194 -0.1848 -1.2083  0.1584
 5740SOL    HW228875   9.277   0.182   5.191  0.4593  0.0642  0.1200
 5741SOL     OW28876   2.429   7.956   7.712 -0.4927  0.6507  0.2215
 5741SOL    HW128877   2.380   7.988   7.793  1.8821 -1.4085  2.5503
 5741SOL    HW228878   2.521   7.995   7.712  0.4621 -1.5542  0.0092
 5742SOL     OW28879   4.646   9.909   2.192  0.4239 -0.0631  0.0995
 5742SOL    HW128880   4.693   9.907   2.281  0.3250 -2.3168  0.1185
 5742SOL    HW228881   4.712   9.896   2.119  0.2403 -0.1866 -0.0457
 5743SOL     OW28882   3.344   4.808   3.371 -0.1432  0.1654 -0.8432
 5743SOL    HW128883   3.335   4.747   3.450 -0.5649  1.2316 -0.0677
 5743SOL    HW228884   3.441   4.823   3.351 -0.0014  1.5632  0.7744
 5744SOL     OW28885   2.887   5.521   2.231 -0.0350  0.5246 -0.0386
 5744SOL    HW128886   2.798   5.516   2.185 -0.1988  3.8471 -0.2598
 5744SOL    HW228887   2.874   5.516   2.330 -0.3875  0.1912 -0.1012
 5745SOL     OW28888   1.140   0.475   5.150  0.2290 -0.1073  0.5893
 5745SOL    HW128889   1.231   0.490   5.112 -0.1434  1.7097  0.3729
 5745SOL    HW228890   1.088   0.415   5.090  0.8290 -0.0855  0.0437
 5746SOL     OW28891   6.835   9.656   2.296  0.0904 -0.1791 -0.0002
 5746SOL    HW128892   6.928   9.620   2.302 -0.4841 -1.7371 -0.0647
 5746SOL    HW228893   6.820   9.723   2.368  1.1682 -0.1480  0.2057
 5747SOL     OW28894   3.035   1.091   5.427 -1.0091  0.7449 -0.0738
 5747SOL    HW128895   3.083   1.102   5.340  0.0410  2.8304  0.7509
 5747SOL    HW228896   3.094   1.119   5.502 -1.6009 -1.8150  1.4353
 5748SOL     OW28897   6.378   9.496   5.940  0.0490  0.4551  0.6065
 5748SOL    HW128898   6.432   9.425   5.985  3.7908  2.5653 -0.2590
 5748SOL    HW228899   6.366   9.573   6.003 -1.6877  0.1424  0.6653
 5749SOL     OW28900   7.899   3.867   3.764  0.3524 -0.2829 -0.4426
 5749SOL    HW128901   7.916   3.896   3.669  0.6866  0.2407 -0.2218
 5749SOL    HW228902   7.882   3.768   3.765  0.1903 -0.2667 -1.0699
 5750SOL     OW28903   2.570   6.840   4.602  0.2791  0.2349 -0.4991
 5750SOL    HW128904   2.562   6.936   4.629  1.4176 -0.1156  1.2004
 5750SOL    HW228905   2.489   6.812   4.552  0.4408  2.3944 -2.0176
 5751SOL     OW28906   1.380   4.501   5.916  0.4148  0.4541  0.0893
 5751SOL    HW128907   1.472   4.505   5.954  0.3028  0.3653  0.3699
 5751SOL    HW228908   1.316   4.467   5.985  0.6456 -2.2366 -0.9486
 5752SOL     OW28909   3.663   5.058   3.413  0.6555  0.1771  0.4521
 5752SOL    HW128910   3.724   5.034   3.337 -1.0708 -0.5983 -0.7400
 5752SOL    HW228911   3.659   4.982   3.478 -0.4803 -0.5804 -0.4606
 5753SOL     OW28912   4.393   0.184   2.211 -0.0398  0.3277  0.3675
 5753SOL    HW128913   4.352   0.103   2.253 -0.4779  0.0630 -0.5417
 5753SOL    HW228914   4.490   0.166   2.191 -0.1294  0.0302  0.1934
 5754SOL     OW28915   8.336   4.992   0.394 -0.6953 -0.0273  0.6593
 5754SOL    HW128916   8.404   4.936   0.442 -0.3583  0.2929  0.5552
 5754SOL    HW228917   8.302   5.063   0.454 -0.8072 -0.0763  0.6541
 5755SOL     OW28918   2.766   7.119   6.056  0.2777 -0.1908  0.1315
 5755SOL    HW128919   2.853   7.132   6.007 -0.7009  0.4355 -1.4949
 5755SOL    HW228920   2.743   7.021   6.057  0.2680 -0.2037 -0.7527
 5756SOL     OW28921   3.171   9.280   3.211  0.2739  0.1886 -0.2766
 5756SOL    HW128922   3.089   9.228   3.191  0.3561 -0.2067  0.3957
 5756SOL    HW228923   3.164   9.371   3.170 -0.9554  0.5257  0.6745
 5757SOL     OW28924   7.690   6.939   3.883  0.4440  0.2893  0.3437
 5757SOL    HW128925   7.776   6.931   3.832 -1.3294  0.6689 -2.8480
 5757SOL    HW228926   7.627   6.867   3.855 -1.6989  2.3447 -0.3910
 5758SOL     OW28927   2.216   0.440   5.282 -0.0254 -0.1843 -0.8712
 5758SOL    HW128928   2.283   0.512   5.303  0.9754 -1.3136 -0.1263
 5758SOL    HW228929   2.214   0.423   5.184  2.1700 -1.4552 -0.7176
 5759SOL     OW28930   3.971   2.238   7.173 -0.7738  0.1375 -0.4125
 5759SOL    HW128931   3.983   2.169   7.101 -1.3103 -2.0260  1.5334
 5759SOL    HW228932   3.874   2.250   7.192 -0.5365 -1.0675  1.6260
 5760SOL     OW28933   2.495   6.421   6.930 -0.1102  0.5430 -0.0433
 5760SOL    HW128934   2.552   6.474   6.867 -0.0328  0.7671  0.2133
 5760SOL    HW228935   2.540   6.414   7.019  0.8755 -1.7887 -0.6883
 5761SOL     OW28936   8.757   7.868   1.943  0.5783  0.3779  0.6531
 5761SOL    HW128937   8.778   7.923   2.023  1.6727  0.8412  0.0533
 5761SOL    HW228938   8.704   7.923   1.878  0.8697  0.4336  0.4619
 5762SOL     OW28939   0.971   7.472   4.784 -0.2297 -0.0998  0.0835
 5762SOL    HW128940   0.970   7.437   4.877 -0.7417  1.7850  0.7938
 5762SOL    HW228941   0.895   7.534   4.770  0.9780  1.1827 -0.9851
 5763SOL     OW28942   7.823   5.901   2.345 -0.2822  0.0190 -0.4553
 5763SOL    HW128943   7.776   5.978   2.301  1.1891  1.9871  1.3322
 5763SOL    HW228944   7.905   5.878   2.293 -0.5444 -0.1616 -0.8000
 5764SOL     OW28945   9.049   3.737   0.161 -0.2555 -0.3689  0.0730
 5764SOL    HW128946   9.124   3.720   0.097 -0.5036 -1.0510 -0.0391
 5764SOL    HW228947   8.979   3.792   0.116  1.0863  2.0422  0.7991
 5765SOL     OW28948   9.355   5.363   1.941 -0.3192 -0.0909 -0.0347
 5765SOL    HW128949   9.382   5.334   2.032 -0.3070  1.4245  0.4645
 5765SOL    HW228950   9.256   5.376   1.938 -0.0864  2.0701  0.4554
 5766SOL     OW28951   0.387   0.842   2.864  0.2126  0.1699 -0.0148
 5766SOL    HW128952   0.298   0.864   2.824  0.5367  3.7864  1.0862
 5766SOL    HW228953   0.377   0.768   2.930 -2.2387  1.3727  1.0188
 5767SOL     OW28954   0.312   1.256   0.795 -0.1454 -0.2417 -0.0439
 5767SOL    HW128955   0.335   1.202   0.875  0.4047 -1.1844 -0.8174
 5767SOL    HW228956   0.232   1.217   0.749 -0.4312  0.2634  0.0194
 5768SOL     OW28957   3.440   0.379   1.909 -0.0141  0.4452 -0.9018
 5768SOL    HW128958   3.516   0.334   1.862 -0.2820  0.1268 -1.0307
 5768SOL    HW228959   3.475   0.450   1.970  0.3926  0.1892 -0.8432
 5769SOL     OW28960   3.374   4.363   6.691 -0.0800  0.1115  0.3739
 5769SOL    HW128961   3.416   4.369   6.601 -0.2543  1.0665  0.3485
 5769SOL    HW228962   3.353   4.267   6.712 -0.6430 -0.0490 -0.8754
 5770SOL     OW28963   5.961   9.002   2.244  0.2420  0.4654  0.1426
 5770SOL    HW128964   6.048   9.049   2.258  1.4153 -0.4878 -3.3469
 5770SOL    HW228965   5.911   9.046   2.170 -0.1261 -1.7350 -0.9635
 5771SOL     OW28966   8.616   3.233   5.086  0.1405  0.0636  0.4254
 5771SOL    HW128967   8.697   3.282   5.054  0.7621 -0.1779  1.6255
 5771SOL    HW228968   8.544   3.300   5.106  0.6658  0.4214  1.1411
 5772SOL     OW28969   2.183   6.362   7.554  0.2475  0.0088 -0.8608
 5772SOL    HW128970   2.219   6.453   7.533 -0.1981  0.4119  0.1017
 5772SOL    HW228971   2.134   6.365   7.641  0.9352 -1.3343 -0.4179
 5773SOL     OW28972   8.021   5.410   4.800 -0.2272  0.4236  0.1114
 5773SOL    HW128973   8.100   5.469   4.816 -0.2715  0.4908  0.0908
 5773SOL    HW228974   8.044   5.316   4.824 -0.3717  0.5638  0.8019
 5774SOL     OW28975   5.582   0.288   4.774  0.1476 -0.0619 -0.1447
 5774SOL    HW128976   5.614   0.339   4.855 -1.7283  1.7346 -0.4913
 5774SOL    HW228977   5.609   0.192   4.782  0.8758  0.3079  2.1422
 5775SOL     OW28978   4.948   5.456   1.560 -0.6351  0.4505  0.2239
 5775SOL    HW128979   4.856   5.495   1.552 -0.2465  1.2023 -0.6416
 5775SOL    HW228980   4.991   5.489   1.644 -0.8472  0.7585  0.2135
 5776SOL     OW28981   4.763   4.962   3.626 -0.2827  0.2314 -0.0992
 5776SOL    HW128982   4.842   5.001   3.674 -0.4621  0.5767 -0.0811
 5776SOL    HW228983   4.689   4.948   3.692 -1.0469  2.1012 -0.5430
 5777SOL     OW28984   8.973   5.721   2.971  0.8014  0.6535 -0.4318
 5777SOL    HW128985   8.908   5.713   3.046  1.4610 -0.7876 -0.0103
 5777SOL    HW228986   9.054   5.770   3.002  1.2381 -0.2832 -0.1056
 5778SOL     OW28987   6.332   8.101   4.068 -0.3367  0.4616 -0.5026
 5778SOL    HW128988   6.364   8.177   4.011  1.2573  1.7815  2.0092
 5778SOL    HW228989   6.233   8.101   4.072 -0.4132  1.2336 -2.0654
 5779SOL     OW28990   7.188   0.613   0.343  0.0233 -0.8540 -0.4556
 5779SOL    HW128991   7.287   0.614   0.361 -0.1230 -2.0093  0.5496
 5779SOL    HW228992   7.155   0.706   0.331  1.5476 -0.5567 -2.6354
 5780SOL     OW28993   2.911   2.229   4.924  0.0394  0.2175 -0.5463
 5780SOL    HW128994   2.841   2.299   4.936 -0.8144 -0.5248 -1.1537
 5780SOL    HW228995   2.950   2.235   4.832 -0.9045 -0.8768 -1.0308
 5781SOL     OW28996   7.688   7.498   2.854 -0.0088  0.0838  0.0718
 5781SOL    HW128997   7.635   7.583   2.858 -0.2591 -0.0473 -0.3659
 5781SOL    HW228998   7.756   7.498   2.926  0.6097  1.0818 -0.4992
 5782SOL     OW28999   1.176   1.071   5.589 -0.5428 -0.2028  0.4476
 5782SOL    HW129000   1.261   1.122   5.597 -0.6606  0.0316  0.1857
 5782SOL    HW229001   1.181   0.990   5.648  0.7819 -1.4425 -1.3185
 5783SOL     OW29002   7.641   4.325   5.209 -0.2992  0.1804  0.0163
 5783SOL    HW129003   7.557   4.373   5.232 -0.2347  0.3898 -0.1844
 5783SOL    HW229004   7.718   4.389   5.211 -0.1835  0.0454 -0.0541
 5784SOL     OW29005   7.749   8.038   7.187  0.2548  0.0769  0.0194
 5784SOL    HW129006   7.786   8.090   7.110 -0.3870 -0.4847 -0.6763
 5784SOL    HW229007   7.703   7.956   7.153  1.1825 -0.9104  1.1022
 5785SOL     OW29008   9.314   5.965   7.348  0.5032  0.2028 -0.3402
 5785SOL    HW129009   9.263   5.884   7.377  1.3203  0.4422  1.8557
 5785SOL    HW229010   9.255   6.046   7.352  0.7677  0.3286  1.2791
 5786SOL     OW29011   0.804   1.127   5.089  0.0814  0.1998 -0.2315
 5786SOL    HW129012   0.742   1.078   5.150 -0.8868 -0.3932 -1.6495
 5786SOL    HW229013   0.769   1.219   5.073 -0.3354 -0.0650 -0.8672
 5787SOL     OW29014   9.163   4.073   1.439 -0.2442  0.1447 -0.2580
 5787SOL    HW129015   9.087   4.131   1.411  0.9253  1.1269 -1.4696
 5787SOL    HW229016   9.200   4.105   1.526 -1.9558 -1.0732  0.9606
 5788SOL     OW29017   2.724   8.982   6.543  0.0997 -0.2737  0.3904
 5788SOL    HW129018   2.644   8.931   6.514  0.3686 -0.2665 -0.3642
 5788SOL    HW229019   2.697   9.050   6.612 -0.5001 -0.4290  0.3101
 5789SOL     OW29020   0.399   9.366   0.376 -0.3779  0.7758 -0.1419
 5789SOL    HW129021   0.368   9.348   0.469 -0.2973  0.4666 -0.1737
 5789SOL    HW229022   0.330   9.333   0.311 -0.2772  0.6730 -0.1983
 5790SOL     OW29023   8.244   8.353   0.154  0.5046  0.0100  0.1265
 5790SOL    HW129024   8.285   8.309   0.234  1.6999 -1.1815 -1.1324
 5790SOL    HW229025   8.311   8.415   0.113 -0.1158  0.6288  0.0492
 5791SOL     OW29026   9.905   2.840   6.688  0.1033  0.3658 -0.2035
 5791SOL    HW129027   9.843   2.907   6.730  0.8908  0.7502  0.3484
 5791SOL    HW229028   9.947   2.880   6.607  0.2129  0.3805 -0.1403
 5792SOL     OW29029   9.333   6.860   5.115  0.2068 -0.9234 -0.6594
 5792SOL    HW129030   9.405   6.825   5.175  2.1734  1.3663 -1.5448
 5792SOL    HW229031   9.362   6.849   5.020 -1.9038 -2.5417 -1.1441
 5793SOL     OW29032   2.670   2.177   4.111  0.0248 -0.4350  0.5434
 5793SOL    HW129033   2.627   2.109   4.170  0.4873 -1.2765 -0.0870
 5793SOL    HW229034   2.714   2.132   4.034  0.4431  0.5667  0.1852
 5794SOL     OW29035   0.747   0.665   1.289 -0.9439 -0.3880  0.1361
 5794SOL    HW129036   0.650   0.686   1.281 -0.9030 -0.2612 -0.0409
 5794SOL    HW229037   0.789   0.665   1.198 -0.3488  1.6304  0.3846
 5795SOL     OW29038   6.106   9.979   2.545 -0.0241 -0.5717 -0.1217
 5795SOL    HW129039   6.024  10.026   2.575  1.0485  3.0185 -2.5065
 5795SOL    HW229040   6.186  10.017   2.592  0.6590 -1.4738 -0.5206
 5796SOL     OW29041   3.051   8.020   7.686 -0.2563  0.2631 -0.1110
 5796SOL    HW129042   3.064   7.921   7.691  0.8554  0.4588  1.1456
 5796SOL    HW229043   3.140   8.066   7.675 -0.8394  1.0775 -1.5807
 5797SOL     OW29044   9.710   4.325   8.081  0.2681  0.0329 -0.1367
 5797SOL    HW129045   9.689   4.266   8.159 -0.0999 -0.4407 -0.5855
 5797SOL    HW229046   9.686   4.420   8.104 -0.0831 -0.1419  0.2326
 5798SOL     OW29047   6.701   1.358   8.061 -0.4559 -0.0785 -0.1213
 5798SOL    HW129048   6.656   1.394   8.143  1.1631 -0.5552  1.0073
 5798SOL    HW229049   6.766   1.287   8.088 -2.3604 -2.7166 -2.1356
 5799SOL     OW29050   0.181   1.802   0.743  0.0167 -0.1527  0.1730
 5799SOL    HW129051   0.140   1.711   0.734 -0.0530 -0.1513  0.4736
 5799SOL    HW229052   0.165   1.837   0.835 -0.2139  0.2955 -0.0381
 5800SOL     OW29053   2.219   9.560   5.812 -0.1053  0.5460 -0.1001
 5800SOL    HW129054   2.280   9.593   5.884 -1.2309 -1.3405  1.7912
 5800SOL    HW229055   2.252   9.471   5.778 -0.6511  0.5166 -0.5642
 5801SOL     OW29056   3.661   7.621   4.498  0.2034  0.1250 -0.0124
 5801SOL    HW129057   3.738   7.682   4.517  0.2357  0.3961 -0.9868
 5801SOL    HW229058   3.673   7.579   4.408 -0.9613  0.4572 -0.3343
 5802SOL     OW29059   3.514   4.625   0.204 -0.2721 -0.0982  0.9324
 5802SOL    HW129060   3.593   4.565   0.215  0.3664  0.4754 -0.3332
 5802SOL    HW229061   3.446   4.605   0.274  0.3781 -1.5921  1.1551
 5803SOL     OW29062   2.395   3.219   6.550 -0.3302 -0.4170 -0.6745
 5803SOL    HW129063   2.376   3.300   6.606 -2.5633 -1.9774  0.9321
 5803SOL    HW229064   2.317   3.200   6.491  0.9342 -0.3504 -2.3824
 5804SOL     OW29065   0.587   5.130   2.464  0.0521  0.0018  0.2771
 5804SOL    HW129066   0.537   5.049   2.432 -0.4768  1.2866 -2.2388
 5804SOL    HW229067   0.657   5.155   2.398  0.4115  1.4446  1.1725
 5805SOL     OW29068   0.022   2.716   4.414 -0.1784  0.3006  0.3604
 5805SOL    HW129069  -0.032   2.796   4.387 -2.0318 -0.5513  1.4557
 5805SOL    HW229070  -0.033   2.633   4.406  0.5375 -0.4533  2.6301
 5806SOL     OW29071   9.140   8.017   0.380 -0.1537  0.2835  0.4833
 5806SOL    HW129072   9.156   8.023   0.479 -0.2832 -2.9232  0.7294
 5806SOL    HW229073   9.228   8.014   0.332 -0.0561 -1.3971  0.7437
 5807SOL     OW29074   2.390   1.638   6.714 -0.5931 -0.6012 -0.0317
 5807SOL    HW129075   2.336   1.665   6.794 -1.1462 -1.1579 -0.2151
 5807SOL    HW229076   2.370   1.544   6.690 -0.1770 -0.5434 -0.6317
 5808SOL     OW29077   8.081   2.118   0.765  0.5729  0.4550  0.6586
 5808SOL    HW129078   8.141   2.062   0.823 -0.3512 -1.3079 -0.0204
 5808SOL    HW229079   8.086   2.086   0.671 -1.8303 -0.1298  0.6793
 5809SOL     OW29080   2.938   8.613   8.089  0.3441  0.2063 -0.4877
 5809SOL    HW129081   2.912   8.706   8.065 -1.6628  0.1218  1.2379
 5809SOL    HW229082   2.889   8.548   8.030  1.5527  0.2247 -1.5231
 5810SOL     OW29083   2.883   1.354   0.155  0.1120 -0.2204 -0.4923
 5810SOL    HW129084   2.963   1.404   0.121  1.1804 -0.6931  1.2523
 5810SOL    HW229085   2.861   1.386   0.247 -0.9374 -0.9785 -0.4766
 5811SOL     OW29086   3.853   7.684   3.802 -0.2859 -0.5954  0.0639
 5811SOL    HW129087   3.931   7.731   3.843 -0.4873 -0.0212 -0.2163
 5811SOL    HW229088   3.859   7.586   3.822 -0.1187 -0.3863  1.0413
 5812SOL     OW29089   1.242   4.824   1.084  0.3588  0.0951  0.6040
 5812SOL    HW129090   1.326   4.872   1.060 -1.5120  1.8374 -2.8787
 5812SOL    HW229091   1.252   4.727   1.063  1.2424  0.4291 -0.5909
 5813SOL     OW29092   8.850   9.112   3.558 -0.2394  0.2033 -0.0516
 5813SOL    HW129093   8.841   9.210   3.538 -0.6952  0.2170  0.2069
 5813SOL    HW229094   8.889   9.065   3.478 -0.2829  0.5526 -0.2804
 5814SOL     OW29095   3.227   0.545   4.488 -0.2169 -0.3569  0.4289
 5814SOL    HW129096   3.179   0.466   4.448  0.5935 -0.3760 -0.5213
 5814SOL    HW229097   3.265   0.602   4.415  0.8836 -0.1362  1.1551
 5815SOL     OW29098   3.404   0.437   7.097 -0.2605  0.6280  0.0234
 5815SOL    HW129099   3.437   0.367   7.160 -0.7589  1.8054  1.6405
 5815SOL    HW229100   3.481   0.472   7.044  0.1354 -0.5098 -0.1645
 5816SOL     OW29101   3.812   0.865   5.589 -0.1167 -0.2831 -0.1020
 5816SOL    HW129102   3.743   0.912   5.534 -0.2767  0.5095  0.7634
 5816SOL    HW229103   3.863   0.802   5.531 -2.6082 -2.0522 -0.4647
 5817SOL     OW29104   4.064   3.821   4.528  0.6201 -0.5476 -0.4293
 5817SOL    HW129105   4.121   3.860   4.600  0.6903  1.6502 -1.6441
 5817SOL    HW229106   3.973   3.802   4.565  0.9530 -0.4052  0.4968
 5818SOL     OW29107   2.507   7.110   0.288 -0.0995  0.6377  0.4283
 5818SOL    HW129108   2.480   7.186   0.228 -0.9395 -1.7761 -2.3712
 5818SOL    HW229109   2.427   7.054   0.308  1.0603 -1.1645  0.0601
 5819SOL     OW29110   4.937   2.633   8.133  0.2108  0.1790 -0.0258
 5819SOL    HW129111   4.958   2.536   8.143 -0.4005 -0.1126 -1.3917
 5819SOL    HW229112   4.925   2.655   8.036 -1.5953  1.2151  0.3988
 5820SOL     OW29113   0.940   6.584   0.265 -0.2343  0.6290  0.2757
 5820SOL    HW129114   0.918   6.587   0.167  0.1934 -0.2488  0.1480
 5820SOL    HW229115   0.883   6.515   0.310  0.4971  0.0983  0.3996
 5821SOL     OW29116   4.814   8.993   0.006 -0.1591  0.0852  0.3393
 5821SOL    HW129117   4.867   9.046  -0.060 -0.8914 -0.3507 -0.6102
 5821SOL    HW229118   4.867   8.912   0.033 -0.9674 -1.2239 -1.8570
 5822SOL     OW29119   8.392   3.502   4.905  0.0307  0.5191  0.4170
 5822SOL    HW129120   8.479   3.501   4.855  0.8599  1.6955  1.7719
 5822SOL    HW229121   8.398   3.440   4.983  0.3735  2.0883  1.6519
 5823SOL     OW29122   3.673   3.832   0.095 -0.8260 -0.0913  0.0799
 5823SOL    HW129123   3.716   3.854   0.182 -0.5529  0.4095 -0.1780
 5823SOL    HW229124   3.585   3.787   0.111 -0.2454 -1.0578  0.6158
 5824SOL     OW29125   7.014   2.060   7.751 -0.4719  0.5273  0.2422
 5824SOL    HW129126   7.111   2.080   7.737 -0.3203 -0.7599 -0.5759
 5824SOL    HW229127   6.991   1.973   7.708 -1.9869  0.8055  0.4594
 5825SOL     OW29128   4.688   1.400   3.715 -0.4596  0.4315  0.0610
 5825SOL    HW129129   4.787   1.384   3.706 -0.6345 -0.4351 -0.3806
 5825SOL    HW229130   4.659   1.377   3.808 -0.3200  0.2629  0.0638
 5826SOL     OW29131   7.834   2.632   6.829 -0.0400 -0.5404  0.3949
 5826SOL    HW129132   7.892   2.619   6.748 -1.1169  0.1893 -0.5206
 5826SOL    HW229133   7.888   2.617   6.912  1.0620 -1.4068 -0.4586
 5827SOL     OW29134   1.198   2.910   3.900  0.0694 -0.3795  0.3518
 5827SOL    HW129135   1.222   2.825   3.853 -2.2577 -0.9213  0.0897
 5827SOL    HW229136   1.101   2.930   3.884  0.1038  1.2346  2.1141
 5828SOL     OW29137   2.761   9.077   6.946 -0.7517 -0.0328  0.0123
 5828SOL    HW129138   2.694   9.011   6.981 -0.6221 -0.7992 -1.1641
 5828SOL    HW229139   2.794   9.046   6.857 -1.4016  2.1244 -1.0037
 5829SOL     OW29140   2.333   1.616   5.712  0.2711  0.0383  0.1838
 5829SOL    HW129141   2.272   1.583   5.640 -0.1273  0.1711  0.4564
 5829SOL    HW229142   2.426   1.623   5.676 -0.0139  0.5860 -0.4687
 5830SOL     OW29143   1.946   9.210   8.146 -0.6807  0.0541  0.0812
 5830SOL    HW129144   2.025   9.209   8.207  0.3293 -0.0120 -1.1955
 5830SOL    HW229145   1.863   9.190   8.198  0.3621 -1.6513  1.1598
 5831SOL     OW29146   0.228   1.952   0.524 -0.0950  0.0488  0.1267
 5831SOL    HW129147   0.197   1.905   0.442  0.3528  1.0282 -0.6213
 5831SOL    HW229148   0.192   1.906   0.605  0.8468 -1.9443 -0.5531
 5832SOL     OW29149   1.749   1.057   1.752 -0.7080  0.1906 -0.0319
 5832SOL    HW129150   1.738   0.958   1.743  0.5151  0.2370 -2.2850
 5832SOL    HW229151   1.725   1.101   1.666  2.4363  1.5148 -0.3026
 5833SOL     OW29152   9.677   0.411   2.813  0.4695  0.4606  0.2300
 5833SOL    HW129153   9.777   0.409   2.808  0.5536  1.7193  1.0401
 5833SOL    HW229154   9.649   0.463   2.894 -0.8439 -2.8987  1.9866
 5834SOL     OW29155   3.649   0.060   5.217  0.3410 -0.2929  0.2087
 5834SOL    HW129156   3.676   0.027   5.126 -0.1612  2.1137 -0.8659
 5834SOL    HW229157   3.668  -0.011   5.285  4.2914 -0.7573 -1.2232
 5835SOL     OW29158   9.818   5.019   8.021 -0.2065  0.2686 -0.5031
 5835SOL    HW129159   9.864   5.096   7.976 -0.4618  0.5105 -0.3535
 5835SOL    HW229160   9.829   4.937   7.965  2.5672 -0.2692  0.7384
 5836SOL     OW29161   1.510   9.682   1.737  0.4346 -0.1901  0.2971
 5836SOL    HW129162   1.476   9.684   1.831 -0.7846  0.9081 -0.1579
 5836SOL    HW229163   1.595   9.735   1.731  0.0579  0.4595  0.6144
 5837SOL     OW29164   7.749   7.396   4.672  0.2000  0.1423  0.0245
 5837SOL    HW129165   7.767   7.490   4.701 -1.0180 -0.1139  1.6838
 5837SOL    HW229166   7.662   7.392   4.622  1.6854  0.3690 -2.6884
 5838SOL     OW29167   7.760   0.501   6.732 -0.5097 -0.0953 -0.1516
 5838SOL    HW129168   7.701   0.582   6.727 -0.3051  0.0622 -0.0154
 5838SOL    HW229169   7.791   0.476   6.641  1.2140  1.2943  0.0311
 5839SOL     OW29170   5.757   7.564   3.581  0.0600  0.0170 -0.2756
 5839SOL    HW129171   5.715   7.598   3.665 -1.6972  0.4747 -1.3109
 5839SOL    HW229172   5.809   7.637   3.538  0.0820  0.0837 -0.1363
 5840SOL     OW29173   0.827   7.445   1.905 -0.4374  0.3796 -0.3110
 5840SOL    HW129174   0.881   7.464   1.823 -0.2485  0.2261 -0.2246
 5840SOL    HW229175   0.889   7.426   1.981 -0.5923  1.8867  0.2052
 5841SOL     OW29176   8.810   5.182   1.086 -0.3032 -0.0824 -0.1758
 5841SOL    HW129177   8.766   5.189   1.175 -2.7940 -0.5984 -1.2999
 5841SOL    HW229178   8.780   5.097   1.041  0.2940  0.5535 -1.8057
 5842SOL     OW29179   5.315   4.805   1.029  0.0804  0.1943  0.0047
 5842SOL    HW129180   5.374   4.801   0.949 -0.0956  0.6031 -0.1467
 5842SOL    HW229181   5.371   4.813   1.111  0.2048  4.8012 -0.4035
 5843SOL     OW29182   2.959   2.878   0.310 -0.6992  0.4023 -0.3674
 5843SOL    HW129183   2.952   2.828   0.396 -0.5633 -0.5681 -0.9110
 5843SOL    HW229184   3.019   2.958   0.321 -0.2784 -0.0092  0.2990
 5844SOL     OW29185   9.681   8.410   0.091  0.1331 -0.3361 -0.1262
 5844SOL    HW129186   9.614   8.444   0.025 -0.7424 -0.5272  0.6558
 5844SOL    HW229187   9.763   8.378   0.042 -0.1473  0.3406 -1.0481
 5845SOL     OW29188   4.793   0.540   5.553  0.3218 -0.1149  0.4849
 5845SOL    HW129189   4.892   0.553   5.547  0.6356 -1.7582  1.6350
 5845SOL    HW229190   4.759   0.584   5.636  0.3784 -1.0451  1.0099
 5846SOL     OW29191   4.124   4.722   1.255 -0.1169 -0.1012  0.8737
 5846SOL    HW129192   4.097   4.654   1.323 -0.6612 -0.6220  0.1365
 5846SOL    HW229193   4.211   4.763   1.282 -0.0593 -0.6986  1.5972
 5847SOL     OW29194   9.007   1.984   6.645  0.3027  0.0893 -0.0766
 5847SOL    HW129195   8.951   1.906   6.617 -1.9450  1.5208  0.2834
 5847SOL    HW229196   8.995   2.058   6.579  0.0952  1.1708  1.1614
 5848SOL     OW29197   8.195   4.556   0.013 -0.1217 -0.6070 -0.1072
 5848SOL    HW129198   8.269   4.605   0.059 -0.3376 -0.7111  0.3475
 5848SOL    HW229199   8.109   4.573   0.061 -0.1675 -1.5804  0.1552
 5849SOL     OW29200   4.232   3.691   4.352  0.0973  0.2739 -0.1131
 5849SOL    HW129201   4.190   3.694   4.262 -0.6308 -0.0099  0.2146
 5849SOL    HW229202   4.166   3.718   4.422  0.5397  0.1171  0.3780
 5850SOL     OW29203   2.389   8.319   6.935 -0.3455  0.7883 -0.2193
 5850SOL    HW129204   2.412   8.299   6.840  2.0853  1.2848  0.2306
 5850SOL    HW229205   2.379   8.233   6.985  1.2667  0.5271 -0.2994
 5851SOL     OW29206   5.609   5.978   1.823  0.0268  0.3372 -0.5686
 5851SOL    HW129207   5.701   6.005   1.794 -0.4210  2.5117 -0.0887
 5851SOL    HW229208   5.595   6.006   1.919  0.1397 -3.2557  0.5621
 5852SOL     OW29209   5.844   7.413   6.152 -0.7501 -0.1494 -0.1372
 5852SOL    HW129210   5.767   7.368   6.107 -0.8888  0.9483 -1.0285
 5852SOL    HW229211   5.925   7.406   6.094 -0.6238  0.2234 -0.0111
 5853SOL     OW29212   8.622   2.309   0.665  0.4125 -0.0303 -0.1165
 5853SOL    HW129213   8.691   2.245   0.630 -0.2378 -0.7806 -0.0542
 5853SOL    HW229214   8.663   2.368   0.734  1.3580  0.5277 -1.1533
 5854SOL     OW29215   9.299   1.717   6.372  0.0597 -1.0181 -0.3209
 5854SOL    HW129216   9.339   1.731   6.463 -0.8500 -1.0332  0.0855
 5854SOL    HW229217   9.221   1.655   6.379 -0.3267 -0.6229 -1.0359
 5855SOL     OW29218   8.884   6.765   3.845  0.4375 -0.0149  0.4441
 5855SOL    HW129219   8.945   6.705   3.793 -0.7765  0.2631 -1.3257
 5855SOL    HW229220   8.789   6.743   3.824 -0.0729  0.5919  2.0215
 5856SOL     OW29221   7.492   9.462   7.796  0.7254 -0.4930  0.1299
 5856SOL    HW129222   7.521   9.371   7.827 -0.2816 -0.4321  1.2781
 5856SOL    HW229223   7.403   9.454   7.751  0.9595 -0.1705 -0.3940
 5857SOL     OW29224   3.837   2.912   5.742  0.1258  0.0848 -0.5604
 5857SOL    HW129225   3.880   2.985   5.688 -0.3156  0.7235 -0.0536
 5857SOL    HW229226   3.869   2.824   5.708 -3.0478  0.2854 -4.4046
 5858SOL     OW29227   1.394   6.977   2.445 -0.1238 -0.3934 -0.1418
 5858SOL    HW129228   1.424   6.943   2.356  3.8134 -0.5513  1.1505
 5858SOL    HW229229   1.393   7.077   2.444  1.7738 -0.3554  0.1654
 5859SOL     OW29230   2.587   5.836   1.576 -0.0271  0.2813 -0.1663
 5859SOL    HW129231   2.536   5.758   1.539  1.4471 -0.9469  0.3245
 5859SOL    HW229232   2.675   5.843   1.528  0.2224  1.1102  0.4090
 5860SOL     OW29233   2.410   8.272   3.984 -0.4576 -0.2658 -0.6801
 5860SOL    HW129234   2.502   8.290   4.018 -0.0464 -0.3267 -1.7556
 5860SOL    HW229235   2.344   8.296   4.055  0.3750 -0.1592  0.0752
 5861SOL     OW29236   9.819   7.493   1.056  0.3225  0.0462  0.2701
 5861SOL    HW129237   9.727   7.454   1.063  0.3996 -0.0010  1.1003
 5861SOL    HW229238   9.852   7.516   1.148  1.4058 -0.5394  0.0275
 5862SOL     OW29239   3.302   1.022   2.428 -0.0398 -0.0013 -0.1241
 5862SOL    HW129240   3.291   1.115   2.461  0.3600 -0.4148  1.2039
 5862SOL    HW229241   3.245   0.960   2.481  1.3835 -0.8223  0.4886
 5863SOL     OW29242   4.524   6.183   2.447 -0.8469 -0.3766 -0.0070
 5863SOL    HW129243   4.585   6.125   2.393 -1.9441  1.0281 -2.8487
 5863SOL    HW229244   4.429   6.167   2.420 -1.3744  0.7731  1.0861
 5864SOL     OW29245   3.269   1.202   1.568 -0.1978  0.0949  0.6695
 5864SOL    HW129246   3.172   1.182   1.583  0.1414 -1.1749  1.2527
 5864SOL    HW229247   3.303   1.147   1.492 -0.2040  1.3856 -0.2806
 5865SOL     OW29248   7.560   9.039   6.705 -0.0269  0.1613 -0.1351
 5865SOL    HW129249   7.561   8.995   6.615 -0.6649 -2.2648  0.9967
 5865SOL    HW229250   7.475   9.016   6.753  0.6112  0.8496  1.3647
 5866SOL     OW29251   3.920   6.042   1.436 -0.0717 -0.1179  0.1393
 5866SOL    HW129252   3.828   6.080   1.431  0.4424  0.9727 -1.2675
 5866SOL    HW229253   3.949   6.014   1.344  1.7916  1.4382  0.2357
 5867SOL     OW29254   0.501   6.862   2.480  0.7707  0.0018  0.7434
 5867SOL    HW129255   0.577   6.798   2.480  1.2596  0.5600  2.2346
 5867SOL    HW229256   0.457   6.862   2.390  3.6230  0.9863 -0.7136
 5868SOL     OW29257   7.327   1.783   4.968  0.1271  0.4811 -0.2022
 5868SOL    HW129258   7.237   1.825   4.981  0.6833  1.4379  0.5561
 5868SOL    HW229259   7.391   1.849   4.930  0.1616 -0.5949 -2.1019
 5869SOL     OW29260   7.577   3.646   0.973  0.1795  0.0664  0.2033
 5869SOL    HW129261   7.577   3.610   1.066  1.3001  0.4985  0.3774
 5869SOL    HW229262   7.619   3.579   0.912 -1.4278 -0.6258 -0.1636
 5870SOL     OW29263   8.087   3.303   6.916 -1.1222 -0.2856 -0.1726
 5870SOL    HW129264   8.025   3.283   6.992 -1.4105  0.1533 -0.2943
 5870SOL    HW229265   8.067   3.394   6.879  0.3777  0.3676  0.5728
 5871SOL     OW29266   4.476   5.352   7.318 -0.5182  0.4515 -0.6868
 5871SOL    HW129267   4.468   5.253   7.331  1.2973  0.3817  0.0392
 5871SOL    HW229268   4.545   5.371   7.248  0.3172  1.2250  0.3252
 5872SOL     OW29269   7.727   2.953   0.851  0.0768 -0.4085  0.3467
 5872SOL    HW129270   7.790   2.986   0.921  1.7509 -4.0760  0.7227
 5872SOL    HW229271   7.658   2.893   0.894 -0.4772 -0.5966 -0.7778
 5873SOL     OW29272   9.047   0.825   6.504 -0.2789 -0.2587 -0.0233
 5873SOL    HW129273   9.094   0.882   6.437  0.6251 -0.1133  0.7335
 5873SOL    HW229274   9.080   0.731   6.497 -2.4531 -0.9586 -1.9340
 5874SOL     OW29275   2.078   4.672   3.985  0.1380 -0.7848  0.5767
 5874SOL    HW129276   2.046   4.662   4.079 -0.3685 -0.7318  0.4125
 5874SOL    HW229277   2.028   4.747   3.941  0.0294 -1.1274  0.1172
 5875SOL     OW29278   4.214   1.413   3.618  0.4097  0.3100  0.1518
 5875SOL    HW129279   4.224   1.324   3.573 -0.5329  0.3287 -0.1135
 5875SOL    HW229280   4.222   1.401   3.717  1.6604  0.1427  0.0398
 5876SOL     OW29281   9.428   5.995   7.962 -0.5820 -1.1595 -0.3747
 5876SOL    HW129282   9.510   5.952   7.925 -0.3478 -0.7050 -0.3888
 5876SOL    HW229283   9.362   5.925   7.989 -0.8424 -1.5006 -1.8408
 5877SOL     OW29284   0.085   8.339   6.668  0.1601 -0.2840  0.5601
 5877SOL    HW129285   0.158   8.274   6.686 -0.1262 -0.7708 -0.0088
 5877SOL    HW229286   0.062   8.337   6.570  0.7368  1.2851  0.3668
 5878SOL     OW29287   3.015   2.746   3.827 -0.2869  0.4754  0.1470
 5878SOL    HW129288   3.114   2.745   3.816 -0.5177 -1.0491 -2.2521
 5878SOL    HW229289   2.971   2.745   3.737 -2.4748  0.6372  1.1668
 5879SOL     OW29290   1.657   4.667   4.500 -0.0438  0.2181  0.2528
 5879SOL    HW129291   1.616   4.725   4.429 -0.1862  1.0314  0.9940
 5879SOL    HW229292   1.753   4.649   4.476 -0.0988  0.4585 -0.1649
 5880SOL     OW29293   0.194   5.861   6.769  0.0604 -0.1130  0.3295
 5880SOL    HW129294   0.251   5.818   6.699 -0.7190 -1.7179  0.6583
 5880SOL    HW229295   0.180   5.958   6.746  1.6601 -0.0651 -0.5309
 5881SOL     OW29296   2.372   2.374   2.575  0.4124 -0.8405 -0.0595
 5881SOL    HW129297   2.370   2.434   2.495  0.1437 -1.5634 -0.6012
 5881SOL    HW229298   2.466   2.352   2.597  0.4868 -0.6487 -0.1793
 5882SOL     OW29299   8.836   1.691   0.242 -0.1206 -0.4267 -0.2910
 5882SOL    HW129300   8.860   1.749   0.164 -0.8011 -0.6546 -0.6786
 5882SOL    HW229301   8.812   1.600   0.209  1.2802 -1.0339  0.3503
 5883SOL     OW29302   7.629   4.388   1.217  0.6725  0.4603  0.2617
 5883SOL    HW129303   7.569   4.321   1.262  0.2359  0.1616 -0.7504
 5883SOL    HW229304   7.578   4.434   1.144  0.6059  2.7586  1.7070
 5884SOL     OW29305   6.229   8.554   6.086 -0.1974 -0.2925  0.1119
 5884SOL    HW129306   6.214   8.503   6.001 -2.1450 -0.1879  0.3543
 5884SOL    HW229307   6.211   8.651   6.069  2.1886  0.1350 -0.0306
 5885SOL     OW29308   3.193   7.011   2.469 -0.6983  0.9403 -0.2161
 5885SOL    HW129309   3.249   6.929   2.457 -0.0730  1.6330 -2.2337
 5885SOL    HW229310   3.166   7.046   2.380 -2.0634  2.2084  0.6623
 5886SOL     OW29311   9.569   6.810   6.158  0.2691  0.2599  0.0574
 5886SOL    HW129312   9.577   6.775   6.251 -0.5998 -0.2965 -0.0689
 5886SOL    HW229313   9.660   6.826   6.120  0.6103  1.6937  1.4439
 5887SOL     OW29314   7.932   9.221   5.283  0.0497  0.0379 -0.0733
 5887SOL    HW129315   8.009   9.283   5.295  0.2376 -0.1130 -0.4763
 5887SOL    HW229316   7.940   9.174   5.194 -0.1235 -0.5073  0.1940
 5888SOL     OW29317   3.431   1.937   1.066 -0.0668 -0.0361  0.8157
 5888SOL    HW129318   3.369   1.922   1.143  0.1400  1.1711  1.2351
 5888SOL    HW229319   3.396   2.010   1.008  1.4163  1.3425  1.5950
 5889SOL     OW29320   7.648   0.267   7.836 -0.5114  0.4109  0.0339
 5889SOL    HW129321   7.654   0.362   7.867 -0.9365  0.8565 -1.2133
 5889SOL    HW229322   7.692   0.259   7.747 -0.8807 -0.4695 -0.0695
 5890SOL     OW29323   8.217   0.306   3.920 -0.1768 -0.1952 -0.0897
 5890SOL    HW129324   8.190   0.398   3.893 -0.9375 -0.4167 -0.0758
 5890SOL    HW229325   8.208   0.297   4.020  0.8956  0.0435  0.0364
 5891SOL     OW29326   5.626   2.025   7.942  0.0410 -0.0884 -0.1160
 5891SOL    HW129327   5.597   2.113   7.978 -0.6806 -0.8170  1.1021
 5891SOL    HW229328   5.711   2.036   7.891 -0.1928  1.3511 -0.2087
 5892SOL     OW29329   4.074   1.596   2.996  0.5420 -0.9854  0.3522
 5892SOL    HW129330   3.990   1.588   3.049  0.3430 -1.7245 -0.0707
 5892SOL    HW229331   4.115   1.506   2.984  0.6627 -0.8069 -0.6104
 5893SOL     OW29332   8.969   6.567   6.264  0.1657 -0.2062 -0.6020
 5893SOL    HW129333   8.921   6.521   6.190  0.5696 -0.5226 -0.6685
 5893SOL    HW229334   9.067   6.549   6.257  0.0934 -1.1579  0.6577
 5894SOL     OW29335   8.526   4.548   3.372  0.2079  0.7113 -0.1573
 5894SOL    HW129336   8.480   4.587   3.292  0.3678  0.9705 -0.1203
 5894SOL    HW229337   8.507   4.605   3.453 -0.3802  0.1726  0.0970
 5895SOL     OW29338   3.296   2.723   3.783 -0.0423  0.0143  0.2130
 5895SOL    HW129339   3.325   2.663   3.857 -1.6518  0.2574  1.0686
 5895SOL    HW229340   3.327   2.686   3.695 -0.3259 -1.6309  0.7964
 5896SOL     OW29341   9.989   4.717   0.797 -0.3734 -0.5347 -0.1184
 5896SOL    HW129342   9.899   4.715   0.753  0.5166 -0.4026 -2.0134
 5896SOL    HW229343  10.049   4.651   0.753  0.2864 -1.0567  1.5451
 5897SOL     OW29344   4.421   4.445   0.457 -0.0712 -0.6126  0.1468
 5897SOL    HW129345   4.392   4.353   0.431  0.7778 -0.8036 -0.1395
 5897SOL    HW229346   4.460   4.443   0.549 -2.3783 -0.0719  1.1689
 5898SOL     OW29347   1.223   7.049   6.868  0.1940 -0.2448 -0.0531
 5898SOL    HW129348   1.273   7.119   6.920  0.2762 -1.1324  1.0803
 5898SOL    HW229349   1.129   7.080   6.852  0.3660  0.3261  0.0261
 5899SOL     OW29350   9.967   9.444   7.596  0.1452  0.5954  0.3241
 5899SOL    HW129351  10.054   9.447   7.644  2.0673 -0.6845 -2.9390
 5899SOL    HW229352   9.902   9.506   7.641  1.7584 -0.6218  4.5442
 5900SOL     OW29353   8.545   3.170   6.556 -0.1224  0.6863 -0.5568
 5900SOL    HW129354   8.616   3.123   6.503  1.6212 -0.1641  2.4477
 5900SOL    HW229355   8.584   3.248   6.604 -1.3107  0.4810  0.7806
 5901SOL     OW29356   3.154   6.852   0.367  0.3316 -0.3824  0.2172
 5901SOL    HW129357   3.141   6.891   0.276 -1.1272  0.0781  0.6209
 5901SOL    HW229358   3.117   6.759   0.369 -0.6301  0.0016  0.6376
 5902SOL     OW29359   8.871   1.210   1.121  0.3412 -0.3193  0.7344
 5902SOL    HW129360   8.914   1.152   1.052 -0.5271 -0.3516  0.2054
 5902SOL    HW229361   8.844   1.297   1.079 -0.6121 -0.5213  0.9119
 5903SOL     OW29362   9.978   1.911   1.906  0.0470 -0.3054  0.2087
 5903SOL    HW129363  10.063   1.952   1.940 -0.6389  1.7704 -0.5353
 5903SOL    HW229364  10.000   1.827   1.855  1.7130  0.5467 -0.5163
 5904SOL     OW29365   3.582   0.841   1.302 -0.1638 -0.4948  0.0803
 5904SOL    HW129366   3.682   0.840   1.292 -0.2239  1.7830 -1.3615
 5904SOL    HW229367   3.549   0.748   1.316  2.3400 -1.0839  2.7520
 5905SOL     OW29368   0.163   7.920   2.367 -0.1045 -0.1557  0.2954
 5905SOL    HW129369   0.202   8.004   2.405 -0.8886 -0.1921  1.2001
 5905SOL    HW229370   0.081   7.943   2.313 -0.8683 -0.4193  1.3246
 5906SOL     OW29371   1.299   0.204   3.097 -0.2280  0.4063 -0.0176
 5906SOL    HW129372   1.327   0.117   3.057  0.7714  1.1139 -0.9113
 5906SOL    HW229373   1.301   0.197   3.196 -0.2441 -0.6157 -0.0830
 5907SOL     OW29374   8.524   3.911   6.895 -0.1718 -0.3571 -0.4595
 5907SOL    HW129375   8.501   3.821   6.857  1.6508 -0.9403 -0.2013
 5907SOL    HW229376   8.488   3.918   6.988  1.2785 -1.5382  0.2046
 5908SOL     OW29377   3.376   0.940   7.054 -0.3594  0.5484  0.1469
 5908SOL    HW129378   3.430   0.903   7.129 -1.6891  1.1779  1.4408
 5908SOL    HW229379   3.326   1.022   7.085 -2.4381 -0.2925 -0.8400
 5909SOL     OW29380   9.923   1.987   4.164 -0.1416 -0.0909 -0.2820
 5909SOL    HW129381  10.015   1.981   4.127 -0.0998 -2.0291  0.0732
 5909SOL    HW229382   9.880   1.897   4.161 -1.5718  0.5372  0.6971
 5910SOL     OW29383   6.228   0.023   6.503 -0.3238 -0.2612  0.2561
 5910SOL    HW129384   6.141   0.071   6.504 -0.3873 -0.3650 -0.3531
 5910SOL    HW229385   6.215  -0.070   6.539 -0.9094 -1.0323 -1.8812
 5911SOL     OW29386   2.417   9.573   2.808 -0.3001 -0.0085 -0.5291
 5911SOL    HW129387   2.330   9.569   2.857 -0.3146 -3.0734 -0.7548
 5911SOL    HW229388   2.402   9.555   2.711  0.4884  0.2578 -0.7061
 5912SOL     OW29389   7.414   3.537   0.593  0.2438  0.6906 -0.0730
 5912SOL    HW129390   7.445   3.626   0.559  1.5686  0.6523  0.9877
 5912SOL    HW229391   7.489   3.493   0.643 -0.8963 -0.3378  0.7493
 5913SOL     OW29392   7.222   9.056   2.374  0.6192  0.3561 -0.0045
 5913SOL    HW129393   7.134   9.101   2.377  0.4740  0.2903 -2.1155
 5913SOL    HW229394   7.218   8.980   2.309  1.8592 -0.4582  0.8463
 5914SOL     OW29395   9.409   1.532   6.206 -0.0665 -0.0382 -0.0306
 5914SOL    HW129396   9.385   1.599   6.276  0.0307 -0.1592  0.1189
 5914SOL    HW229397   9.507   1.538   6.186  0.0973 -0.6786  0.5573
 5915SOL     OW29398   0.145   6.900   8.107 -0.0292 -0.6446  0.6035
 5915SOL    HW129399   0.123   6.992   8.140 -0.3618 -1.0532  1.5136
 5915SOL    HW229400   0.070   6.868   8.049  0.5418  0.0558 -0.5528
 5916SOL     OW29401   2.230   6.027   2.389  0.2447 -0.0422 -0.3553
 5916SOL    HW129402   2.240   5.967   2.469 -1.0410 -0.8429 -0.7815
 5916SOL    HW229403   2.135   6.055   2.381  0.4755  0.4658 -1.3024
 5917SOL     OW29404   1.508   0.964   0.886  0.4977  0.4432  0.2406
 5917SOL    HW129405   1.533   0.921   0.800  1.2677 -0.5122  0.9354
 5917SOL    HW229406   1.557   1.051   0.896  1.7813 -0.3113  0.5415
 5918SOL     OW29407   1.341   6.600   5.976  0.5764 -0.7662 -0.1313
 5918SOL    HW129408   1.351   6.669   5.904 -2.5180  0.2440  0.3330
 5918SOL    HW229409   1.372   6.638   6.063 -0.6754 -0.0793  0.0319
 5919SOL     OW29410   5.433   9.816   7.089 -0.2905 -0.6443 -0.1334
 5919SOL    HW129411   5.465   9.803   6.995  0.2861 -0.4709  0.0342
 5919SOL    HW229412   5.472   9.900   7.126 -0.2351 -0.8928  0.3778
 5920SOL     OW29413   0.819   5.733   5.947 -0.6873  0.3676 -0.0663
 5920SOL    HW129414   0.780   5.662   5.890 -1.0024  0.5764 -0.1136
 5920SOL    HW229415   0.907   5.762   5.910 -1.4338  1.3369 -1.1167
 5921SOL     OW29416   8.478   2.603   1.089 -0.4568 -0.4169  0.2169
 5921SOL    HW129417   8.534   2.675   1.050 -1.6792  1.4027  1.7365
 5921SOL    HW229418   8.533   2.546   1.150  0.4268 -0.5373 -0.6992
 5922SOL     OW29419   4.795   4.373   7.459 -0.2114  0.2731  0.0370
 5922SOL    HW129420   4.713   4.362   7.515  0.9003 -0.5695  1.5448
 5922SOL    HW229421   4.806   4.294   7.400 -0.5034  0.4158 -0.2137
 5923SOL     OW29422   7.940   4.092   5.839 -0.4588 -0.0508  0.5012
 5923SOL    HW129423   7.866   4.073   5.774  0.3253 -0.3545 -0.3102
 5923SOL    HW229424   7.908   4.070   5.931 -0.7280 -2.1267 -0.0528
 5924SOL     OW29425   3.519   6.540   6.370  0.3879  0.1240 -0.0054
 5924SOL    HW129426   3.440   6.515   6.314  2.0342 -1.0888 -1.8713
 5924SOL    HW229427   3.603   6.516   6.321  1.9236  1.5936  1.8367
 5925SOL     OW29428   2.695   3.665   1.936  0.4012  0.1702  0.3255
 5925SOL    HW129429   2.612   3.713   1.909  0.0973 -0.6609 -0.2303
 5925SOL    HW229430   2.765   3.676   1.865  0.4260  0.0265  0.3275
 5926SOL     OW29431   9.842   5.290   7.487 -0.4062 -0.7839  0.2209
 5926SOL    HW129432   9.854   5.348   7.407  1.5060 -1.4356  0.0192
 5926SOL    HW229433   9.913   5.309   7.555 -1.8174 -0.4633  1.6376
 5927SOL     OW29434   1.108   4.832   0.344  0.1366 -0.0647  0.3249
 5927SOL    HW129435   1.079   4.786   0.260  0.6304 -2.5479  1.4444
 5927SOL    HW229436   1.049   4.803   0.420  0.7548  0.7981  1.1490
 5928SOL     OW29437   6.263   1.832   4.349 -0.1675  0.4058 -0.3116
 5928SOL    HW129438   6.294   1.780   4.270 -1.0335  1.9405 -1.7064
 5928SOL    HW229439   6.309   1.920   4.351 -0.1405  0.3700  0.9085
 5929SOL     OW29440   1.577   6.918   0.058  0.1583  0.4536  0.4394
 5929SOL    HW129441   1.632   6.879  -0.016 -0.5349  1.0063 -0.3614
 5929SOL    HW229442   1.481   6.893   0.046  0.0016  0.7608  1.0170
 5930SOL     OW29443   8.541   5.385   1.815  0.1194 -0.2642 -0.0134
 5930SOL    HW129444   8.472   5.456   1.806  0.3898 -0.2642 -2.3363
 5930SOL    HW229445   8.504   5.298   1.780  0.5294 -0.7754  0.8059
 5931SOL     OW29446   0.761   0.551   4.568 -0.1943  0.2561 -0.2183
 5931SOL    HW129447   0.841   0.585   4.619  0.5668  0.6489 -1.6597
 5931SOL    HW229448   0.758   0.452   4.572  2.2821  0.0107 -2.9417
 5932SOL     OW29449   3.975   2.731   4.869 -0.0060 -0.5005  0.5764
 5932SOL    HW129450   3.954   2.800   4.938  1.8877 -0.9615  1.6479
 5932SOL    HW229451   4.000   2.645   4.915 -2.7885 -2.0618 -0.7348
 5933SOL     OW29452   7.195   9.968   1.423 -0.3538  0.3050 -0.3991
 5933SOL    HW129453   7.178   9.883   1.473 -2.2586  0.8731 -0.0428
 5933SOL    HW229454   7.191  10.046   1.486 -3.5989  1.1068 -1.5082
 5934SOL     OW29455   1.018   8.684   5.356  0.1756 -0.0026  0.2859
 5934SOL    HW129456   1.066   8.700   5.442  0.5969  0.4053 -0.0223
 5934SOL    HW229457   0.962   8.601   5.363  1.8490 -1.1487  0.2508
 5935SOL     OW29458   9.916   1.753   5.926  0.0890  0.6901  0.6085
 5935SOL    HW129459   9.824   1.757   5.964 -0.8875  0.2234 -1.6159
 5935SOL    HW229460   9.957   1.664   5.947  0.2359  1.0657  1.9858
 5936SOL     OW29461   5.489   4.237   7.612 -0.1874 -0.1175 -0.1364
 5936SOL    HW129462   5.525   4.282   7.531 -0.5537 -0.0402 -0.2596
 5936SOL    HW229463   5.435   4.303   7.665  1.7151  0.3884  1.2302
 5937SOL     OW29464   9.680   4.024   7.271 -0.6091 -0.1221  0.2269
 5937SOL    HW129465   9.762   4.021   7.330 -0.3345  1.0926 -0.0786
 5937SOL    HW229466   9.625   4.103   7.295 -0.9020 -0.0648 -0.6276
 5938SOL     OW29467   8.195   7.100   4.545  0.0110  0.3110 -0.4601
 5938SOL    HW129468   8.202   7.037   4.469  0.5693  0.8712 -0.8779
 5938SOL    HW229469   8.194   7.194   4.511 -1.3441  0.5213  0.1179
 5939SOL     OW29470   0.279   9.751   3.133 -1.0646 -0.0676 -0.3913
 5939SOL    HW129471   0.308   9.733   3.039 -0.3047  0.7465 -0.3174
 5939SOL    HW229472   0.342   9.706   3.196 -0.9089  0.3451 -0.2540
 5940SOL     OW29473   4.962   7.604   3.603  0.0904  0.4219 -0.1706
 5940SOL    HW129474   5.003   7.625   3.691 -1.5765  0.5803  0.5834
 5940SOL    HW229475   4.874   7.651   3.594  0.0036  0.0145 -1.7109
 5941SOL     OW29476   7.854   9.259   7.180  0.1196 -0.2293 -0.2449
 5941SOL    HW129477   7.863   9.357   7.159  0.2090 -0.0493  0.6415
 5941SOL    HW229478   7.814   9.212   7.100  0.1325  0.5151 -0.6980
 5942SOL     OW29479   9.961   1.514   5.156  0.5595 -0.1390  0.0118
 5942SOL    HW129480   9.922   1.475   5.072  1.7165  0.2088 -0.6929
 5942SOL    HW229481  10.060   1.502   5.155  0.3182 -3.1272  2.8695
 5943SOL     OW29482   6.209   7.551   5.239 -0.1116  0.3867 -0.3753
 5943SOL    HW129483   6.127   7.601   5.268  0.3535  0.2426  1.2718
 5943SOL    HW229484   6.291   7.602   5.268  0.3689  0.1356 -1.2941
 5944SOL     OW29485   6.937   1.685   0.958 -0.4481  0.1575 -0.2897
 5944SOL    HW129486   6.913   1.648   0.868  2.4142 -0.7870 -0.7075
 5944SOL    HW229487   6.999   1.763   0.946 -0.7713  0.6008  0.8525
 5945SOL     OW29488   0.340   5.656   0.922 -0.0245  0.1714  0.3985
 5945SOL    HW129489   0.312   5.738   0.872  0.0137 -0.4236 -0.6094
 5945SOL    HW229490   0.271   5.584   0.911 -0.7880  0.5299  2.4936
 5946SOL     OW29491   3.891   2.775   0.718  0.4142 -0.0036  0.2202
 5946SOL    HW129492   3.908   2.706   0.788 -0.4711 -1.3134 -0.8326
 5946SOL    HW229493   3.970   2.837   0.713  1.5455 -1.3689  0.6658
 5947SOL     OW29494   0.107   5.249   4.647  0.2700  0.7406  0.3761
 5947SOL    HW129495   0.046   5.311   4.696 -1.8042 -0.3993 -0.6623
 5947SOL    HW229496   0.165   5.302   4.585 -1.5988  1.6782 -0.6392
 5948SOL     OW29497   7.925   6.824   7.956 -0.4207 -0.3523  0.3226
 5948SOL    HW129498   8.020   6.845   7.976 -0.1317 -1.7214  0.4960
 5948SOL    HW229499   7.868   6.846   8.035  0.0442 -1.3562  0.9508
 5949SOL     OW29500   8.428   4.463   1.651  0.5197 -0.5869  0.1688
 5949SOL    HW129501   8.511   4.519   1.656 -0.8325  1.3641  1.5132
 5949SOL    HW229502   8.425   4.401   1.729  0.9273 -0.9929 -0.1329
 5950SOL     OW29503   2.781   8.859   2.935 -0.2327  0.0568 -0.1254
 5950SOL    HW129504   2.778   8.776   2.879 -0.0992  1.1447 -1.8150
 5950SOL    HW229505   2.842   8.845   3.013  0.5709 -1.1018 -0.9464
 5951SOL     OW29506   8.136   6.457   1.813  0.6043 -0.3490 -0.5299
 5951SOL    HW129507   8.181   6.371   1.837 -0.4424 -1.0244 -0.9833
 5951SOL    HW229508   8.180   6.496   1.732  1.2914 -0.2756 -0.1337
 5952SOL     OW29509   0.255   5.476   7.528  0.1400 -0.1537  0.2329
 5952SOL    HW129510   0.283   5.570   7.549 -1.3553  0.4006 -0.1923
 5952SOL    HW229511   0.334   5.416   7.534  1.0997  1.1228  0.6024
 5953SOL     OW29512   4.682   4.461   1.482 -0.1349  0.1080  0.0997
 5953SOL    HW129513   4.688   4.402   1.401  0.4326  1.8805 -1.1901
 5953SOL    HW229514   4.770   4.508   1.495 -1.3802  2.6686 -0.4799
 5954SOL     OW29515   8.279   6.987   3.477 -0.2594  0.3797  0.2618
 5954SOL    HW129516   8.276   6.970   3.378  0.2998  1.9744 -0.0502
 5954SOL    HW229517   8.284   7.085   3.493  0.1438  0.1049  1.8747
 5955SOL     OW29518   4.673   0.912   5.297 -0.2164 -0.6386  1.1011
 5955SOL    HW129519   4.653   0.841   5.365  0.6451  0.3658  2.4442
 5955SOL    HW229520   4.593   0.927   5.239 -0.9935 -1.4682  1.9480
 5956SOL     OW29521   3.848   0.856   0.315 -0.0982 -0.1849  0.1622
 5956SOL    HW129522   3.837   0.944   0.360  0.3034 -0.6261  1.1522
 5956SOL    HW229523   3.814   0.861   0.221  0.1012  1.0714  0.1499
 5957SOL     OW29524   0.457   6.801   6.138  0.4778  0.1333  0.1364
 5957SOL    HW129525   0.447   6.703   6.155  1.2244 -0.1632 -1.1011
 5957SOL    HW229526   0.492   6.845   6.220  0.6754 -0.7212  0.5177
 5958SOL     OW29527   3.046   3.241   5.300 -0.5375  0.0892 -0.5571
 5958SOL    HW129528   3.030   3.154   5.253  0.3159 -0.0544 -0.5985
 5958SOL    HW229529   3.134   3.237   5.347 -0.0458  1.2685 -1.3631
 5959SOL     OW29530   2.099   5.235   5.203 -0.1549  0.1316  0.3030
 5959SOL    HW129531   2.043   5.263   5.282 -1.1328 -0.5387 -0.1450
 5959SOL    HW229532   2.122   5.138   5.211 -0.2223  0.0722 -0.2134
 5960SOL     OW29533   1.029   9.972   0.053  0.2202 -0.9065  0.1649
 5960SOL    HW129534   0.960   9.997  -0.016 -1.0467 -0.4681  1.5576
 5960SOL    HW229535   1.040   9.873   0.054 -0.6955 -1.0134  0.1949
 5961SOL     OW29536   3.859   4.611   6.410  0.1340 -0.6509 -0.9435
 5961SOL    HW129537   3.799   4.637   6.485  2.4879  1.6288  0.2301
 5961SOL    HW229538   3.830   4.658   6.326  2.3119  3.3441  0.4119
 5962SOL     OW29539   5.092   8.108   5.805 -0.5640  0.1256  0.5333
 5962SOL    HW129540   5.178   8.114   5.855  0.1411  0.2756 -0.7038
 5962SOL    HW229541   5.026   8.172   5.844  0.0578  0.4073  1.1215
 5963SOL     OW29542   3.634   8.307   2.285  0.8230  0.2059  0.2919
 5963SOL    HW129543   3.608   8.216   2.252  0.7293  0.1093  0.6286
 5963SOL    HW229544   3.714   8.339   2.235 -1.0809  1.3391 -2.1638
 5964SOL     OW29545   4.536   0.552   6.479 -0.0874  0.2240 -0.5503
 5964SOL    HW129546   4.459   0.496   6.510 -1.2542  2.1554  0.1714
 5964SOL    HW229547   4.572   0.605   6.557  1.4989 -0.1127 -1.0368
 5965SOL     OW29548   8.665   5.997   3.270  0.5391  0.6110 -0.2547
 5965SOL    HW129549   8.569   5.990   3.244 -0.2327 -0.8616  2.7903
 5965SOL    HW229550   8.675   6.065   3.343  1.3298 -1.3684  1.5196
 5966SOL     OW29551   3.322   5.965   0.192  0.3991 -0.6550  0.3535
 5966SOL    HW129552   3.318   5.877   0.241  0.4292 -1.2017 -0.6040
 5966SOL    HW229553   3.341   5.948   0.096 -0.7186  0.3548 -0.0455
 5967SOL     OW29554   2.445   3.419   7.176  0.6303  0.4513  0.2295
 5967SOL    HW129555   2.495   3.505   7.167 -0.0897  0.9307  0.7590
 5967SOL    HW229556   2.351   3.438   7.204  0.5115 -0.5138  0.5017
 5968SOL     OW29557   0.071   0.565   4.865  0.0597  0.0100  0.2006
 5968SOL    HW129558   0.168   0.586   4.874  0.0483  0.4382 -0.6243
 5968SOL    HW229559   0.023   0.643   4.825 -0.8320  0.2378  1.6668
 5969SOL     OW29560   7.045   6.928   6.894 -0.2270 -0.0047  0.5090
 5969SOL    HW129561   7.052   6.969   6.984  1.0767 -3.4044  2.0522
 5969SOL    HW229562   7.131   6.940   6.845 -1.7018  3.9213 -1.3258
 5970SOL     OW29563   7.575   1.630   7.313 -0.2529 -0.4973 -0.4143
 5970SOL    HW129564   7.570   1.568   7.235  0.8544 -1.9127  0.6080
 5970SOL    HW229565   7.545   1.582   7.395 -1.1373  0.8882  0.0851
 5971SOL     OW29566   9.019   3.765   1.911 -0.7381  0.0733  0.0444
 5971SOL    HW129567   9.003   3.773   1.813 -0.2878  0.3103 -0.0100
 5971SOL    HW229568   9.110   3.800   1.933 -0.1225 -1.6245  0.2890
 5972SOL     OW29569   5.037   1.299   3.942  0.3685 -0.4793  0.1864
 5972SOL    HW129570   5.076   1.364   3.877  0.7686 -0.7317  0.1665
 5972SOL    HW229571   5.111   1.249   3.988  0.0616 -1.2975 -0.1876
 5973SOL     OW29572   2.935   6.111   2.444  0.2276 -0.7220  0.6011
 5973SOL    HW129573   2.874   6.183   2.409 -1.3962 -2.6216 -0.5645
 5973SOL    HW229574   2.935   6.114   2.544 -0.4598  0.3637  0.5847
 5974SOL     OW29575   2.522   2.625   4.828 -0.3292  0.8650  0.7066
 5974SOL    HW129576   2.461   2.652   4.753 -0.8246  1.3173  1.2701
 5974SOL    HW229577   2.601   2.686   4.831  0.0953  0.3510  0.0473
 5975SOL     OW29578   5.546   8.217   5.181  0.1717  0.2898  0.3661
 5975SOL    HW129579   5.545   8.266   5.268 -1.2384 -0.9610  1.0745
 5975SOL    HW229580   5.479   8.142   5.183  1.3224 -0.8365 -1.1661
 5976SOL     OW29581   1.476   2.519   3.328 -0.2546  0.8257 -0.1609
 5976SOL    HW129582   1.432   2.550   3.244  0.8560 -0.5182 -1.2678
 5976SOL    HW229583   1.529   2.594   3.367  2.0793  0.5552 -2.5967
 5977SOL     OW29584   1.874   7.790   1.981 -0.1133  0.6951 -0.7367
 5977SOL    HW129585   1.814   7.714   1.953  1.1632 -0.4356 -0.4757
 5977SOL    HW229586   1.939   7.757   2.049  0.9572  1.8535 -1.1873
 5978SOL     OW29587   3.911   2.041   1.460  0.1293 -0.0304  0.1505
 5978SOL    HW129588   3.851   2.043   1.379  1.4345 -0.1377 -0.8272
 5978SOL    HW229589   3.900   1.954   1.507 -0.5343 -0.0248  0.0112
 5979SOL     OW29590   2.524   7.806   0.351  0.1484 -0.1548 -0.1395
 5979SOL    HW129591   2.485   7.850   0.270  0.6293 -1.2308 -0.9714
 5979SOL    HW229592   2.459   7.739   0.387  0.9971 -1.5506 -1.1951
 5980SOL     OW29593   9.427   2.655   5.733  0.3766 -0.1653  0.1744
 5980SOL    HW129594   9.423   2.657   5.833 -5.1520  0.6302  0.0770
 5980SOL    HW229595   9.460   2.566   5.702  0.2141 -1.1086  2.6588
 5981SOL     OW29596   2.292   2.371   3.038 -0.3060 -0.3939 -0.1559
 5981SOL    HW129597   2.325   2.287   2.996 -2.4029 -0.2825 -2.1073
 5981SOL    HW229598   2.245   2.427   2.970  1.4880  2.6387  0.9657
 5982SOL     OW29599   2.233   6.796   0.095 -0.5819  0.8353 -0.2871
 5982SOL    HW129600   2.277   6.832   0.177  1.5312  1.4779 -1.6396
 5982SOL    HW229601   2.213   6.871   0.031  2.2918 -0.0887 -2.3947
 5983SOL     OW29602   0.630   4.336   4.467  0.5175  0.8816  0.4024
 5983SOL    HW129603   0.597   4.429   4.484 -3.4433  0.0910 -2.2838
 5983SOL    HW229604   0.681   4.334   4.381 -0.6725  0.3254 -0.3005
 5984SOL     OW29605   6.865   7.775   5.622 -0.0715  0.1826 -0.3878
 5984SOL    HW129606   6.939   7.805   5.683  0.6020 -0.3452 -0.9303
 5984SOL    HW229607   6.806   7.710   5.670  0.9159 -0.8448 -0.5302
 5985SOL     OW29608   7.655   7.143   4.048 -0.6382  0.5089  0.0613
 5985SOL    HW129609   7.686   7.065   3.994  0.7625  0.4759  0.9059
 5985SOL    HW229610   7.583   7.192   3.997  0.1182  0.0377 -1.4974
 5986SOL     OW29611   8.472   4.279   6.195 -0.0855  0.5476  0.3081
 5986SOL    HW129612   8.447   4.231   6.279 -1.7741 -1.3792 -1.2484
 5986SOL    HW229613   8.463   4.378   6.210  0.0867  0.2487  2.5281
 5987SOL     OW29614   2.812   5.924   3.015 -0.1964  0.5988  0.3009
 5987SOL    HW129615   2.797   5.985   3.094 -1.0024  1.3460 -0.4230
 5987SOL    HW229616   2.900   5.946   2.973  0.3623  0.0185  1.1464
 5988SOL     OW29617   7.235   6.479   7.513 -0.0957  0.3544  0.5105
 5988SOL    HW129618   7.307   6.437   7.457  0.2214  1.5402  0.0035
 5988SOL    HW229619   7.274   6.510   7.600  0.6773  3.4387 -0.8427
 5989SOL     OW29620   7.998   0.983   7.473 -0.4728 -0.5234 -0.0602
 5989SOL    HW129621   7.925   0.999   7.539 -0.9512 -1.3075 -0.3908
 5989SOL    HW229622   8.071   0.930   7.516 -0.7305 -0.9313 -0.1204
 5990SOL     OW29623   2.434   5.694   6.994  0.3510 -0.0159  0.0432
 5990SOL    HW129624   2.515   5.638   7.010 -0.1480 -0.6330  0.4484
 5990SOL    HW229625   2.435   5.773   7.056  1.5295  0.9459 -1.1813
 5991SOL     OW29626   9.306   9.500   0.531 -0.6973  0.5130  0.0242
 5991SOL    HW129627   9.289   9.427   0.597 -0.6064 -0.7578 -1.3482
 5991SOL    HW229628   9.380   9.559   0.566  0.2193 -0.8758  0.4898
 5992SOL     OW29629   7.840   5.044   6.210 -0.1348 -0.2116  0.5498
 5992SOL    HW129630   7.899   4.965   6.227  0.1327 -0.2376 -0.4587
 5992SOL    HW229631   7.784   5.027   6.129  1.1523  1.3021 -0.7114
 5993SOL     OW29632   3.065   6.113   4.001  0.2375  0.2453  0.3966
 5993SOL    HW129633   3.038   6.069   4.087 -0.8437 -1.7755 -0.9207
 5993SOL    HW229634   3.152   6.161   4.013  0.3774 -0.4936  2.4656
 5994SOL     OW29635   2.686   7.567   6.891  0.1265  0.8869 -0.1486
 5994SOL    HW129636   2.695   7.556   6.792 -1.8447  2.1780 -0.5036
 5994SOL    HW229637   2.632   7.492   6.928 -0.5394  1.2880 -0.3036
 5995SOL     OW29638   7.905   1.797   7.654  0.0827  0.2309  0.1587
 5995SOL    HW129639   7.927   1.887   7.691  1.9479 -0.2201  0.1940
 5995SOL    HW229640   7.988   1.754   7.620 -0.2324 -2.7839  2.9704
 5996SOL     OW29641   6.011   0.349   6.118 -0.5436  0.6265 -0.6580
 5996SOL    HW129642   6.034   0.446   6.130  0.3977  0.6404 -2.4661
 5996SOL    HW229643   6.076   0.293   6.169 -0.9570  0.9342  0.2144
 5997SOL     OW29644   5.520   1.208   2.399  0.5151 -0.0515 -0.5530
 5997SOL    HW129645   5.460   1.192   2.321 -0.1782  0.5846 -0.1571
 5997SOL    HW229646   5.600   1.148   2.393 -0.5460 -1.4619 -0.6652
 5998SOL     OW29647   6.835   6.967   5.347 -0.1923 -0.6602 -0.4472
 5998SOL    HW129648   6.755   6.915   5.318  0.0599 -0.4418 -1.5646
 5998SOL    HW229649   6.898   6.906   5.397 -0.7136 -0.9943 -0.1886
 5999SOL     OW29650   0.598   1.042   0.251 -0.3704  0.1696  0.7791
 5999SOL    HW129651   0.637   0.996   0.171 -1.5341  0.1292  0.2350
 5999SOL    HW229652   0.603   0.982   0.331  0.5352  0.1058  0.6829
 6000SOL     OW29653   1.150   4.368   6.534  0.3101  0.0328 -0.8541
 6000SOL    HW129654   1.143   4.361   6.634  0.7366  0.3110 -0.8046
 6000SOL    HW229655   1.215   4.299   6.501 -1.4972 -1.5482 -1.1615
 6001SOL     OW29656   0.284   6.021   2.426 -0.8492 -0.1132  0.7964
 6001SOL    HW129657   0.250   5.973   2.346  0.9894  0.4898 -0.3926
 6001SOL    HW229658   0.232   6.106   2.440 -0.2862  0.4706 -0.5897
 6002SOL     OW29659   4.474   3.407   0.217 -0.2460 -0.2161  0.3647
 6002SOL    HW129660   4.411   3.471   0.172  0.4305 -0.1898 -0.5552
 6002SOL    HW229661   4.434   3.376   0.303 -0.8285  1.0142  0.5435
 6003SOL     OW29662   0.335   3.058   0.586  0.5957 -0.1945  0.6801
 6003SOL    HW129663   0.412   2.995   0.598  0.6249  0.0335  1.7063
 6003SOL    HW229664   0.282   3.062   0.670  1.5051  2.3889  1.1904
 6004SOL     OW29665   1.537   0.131   6.989  0.1465  0.4068  0.4274
 6004SOL    HW129666   1.463   0.199   6.987  0.1522  0.3922 -1.5775
 6004SOL    HW229667   1.497   0.039   6.992  0.0914  0.4300  0.4143
 6005SOL     OW29668   1.840   2.092   4.254 -0.4480  0.1456  0.1043
 6005SOL    HW129669   1.905   2.023   4.286 -1.2719 -0.0160  1.5001
 6005SOL    HW229670   1.845   2.173   4.312  0.3196  1.1699 -1.3627
 6006SOL     OW29671   0.012   6.787   6.944  0.3356 -0.0164  0.7117
 6006SOL    HW129672  -0.060   6.785   7.014 -0.7515  0.9546 -0.3632
 6006SOL    HW229673   0.076   6.712   6.960 -0.5986 -0.5539  2.0119
 6007SOL     OW29674   2.113   0.473   0.137 -0.4122 -0.5192 -0.4033
 6007SOL    HW129675   2.086   0.382   0.169 -0.2529 -0.0775  0.9787
 6007SOL    HW229676   2.065   0.543   0.189  0.6043  0.2188 -0.4415
 6008SOL     OW29677   6.942   0.317   2.042  0.5975  0.3688 -0.0352
 6008SOL    HW129678   6.880   0.360   1.976 -0.0222  1.0293  0.9704
 6008SOL    HW229679   6.977   0.386   2.105 -1.8738 -0.8179  2.7734
 6009SOL     OW29680   7.997   5.749   5.569  0.5795 -0.1863  0.3325
 6009SOL    HW129681   8.022   5.844   5.586  0.1690 -0.0310  0.0935
 6009SOL    HW229682   8.008   5.696   5.653  0.7295  0.0905  0.4882
 6010SOL     OW29683   9.936   2.208   5.216 -0.0775  0.1697  0.2611
 6010SOL    HW129684   9.955   2.132   5.279 -0.0875  0.1088  0.1913
 6010SOL    HW229685   9.922   2.172   5.124  0.3548  0.2959  0.1461
 6011SOL     OW29686   1.669   6.362   1.578 -0.2315  0.0151 -0.0855
 6011SOL    HW129687   1.706   6.280   1.533  0.5874 -1.0150  2.3745
 6011SOL    HW229688   1.583   6.339   1.623 -0.3512  0.6843  0.0264
 6012SOL     OW29689   9.289   0.160   6.680  0.1041 -0.3156 -0.9199
 6012SOL    HW129690   9.229   0.175   6.601 -0.3487  0.3838 -0.4541
 6012SOL    HW229691   9.236   0.169   6.764  1.0653  1.4469 -0.4606
 6013SOL     OW29692   9.631   9.512   5.171  0.4170  0.7326 -0.1971
 6013SOL    HW129693   9.536   9.491   5.192  1.1047 -1.4789  0.8065
 6013SOL    HW229694   9.663   9.586   5.231  0.1388 -0.3963  1.3684
 6014SOL     OW29695   4.830   6.098   2.755 -0.1979 -1.0850 -0.4635
 6014SOL    HW129696   4.734   6.102   2.725 -0.6332 -1.0781  0.9263
 6014SOL    HW229697   4.836   6.120   2.852  1.3268 -0.1917 -0.7419
 6015SOL     OW29698   6.559   3.938   0.779 -0.3775 -0.0648  0.0210
 6015SOL    HW129699   6.516   4.018   0.819 -0.8559  0.5639 -1.6952
 6015SOL    HW229700   6.586   3.874   0.851 -2.8663  0.1780  1.2165
 6016SOL     OW29701   2.499   0.664   1.272  0.8966  0.6114  0.1693
 6016SOL    HW129702   2.574   0.709   1.223  0.8440  1.4265  0.8137
 6016SOL    HW229703   2.506   0.685   1.370  0.7444 -0.6216  0.4484
 6017SOL     OW29704   9.334   2.714   7.320 -0.2968  0.5828  0.5159
 6017SOL    HW129705   9.428   2.714   7.284 -0.1004 -1.8072  0.9533
 6017SOL    HW229706   9.336   2.685   7.416 -1.4451  1.0133  0.6698
 6018SOL     OW29707   0.480   6.013   6.333  0.7617  0.4598 -0.2359
 6018SOL    HW129708   0.501   6.089   6.396  0.9016  0.4567 -0.2807
 6018SOL    HW229709   0.381   5.999   6.331  0.8292 -0.2697  0.8388
 6019SOL     OW29710   0.533   8.288   4.474  0.0882 -0.2137  0.1892
 6019SOL    HW129711   0.579   8.274   4.562  0.5005 -1.5231 -0.2262
 6019SOL    HW229712   0.552   8.211   4.414 -0.0213  0.7747 -1.1319
 6020SOL     OW29713   6.010   1.066   5.175  0.1686 -0.4436 -0.0045
 6020SOL    HW129714   5.995   1.080   5.077  0.3367  0.5148  0.1066
 6020SOL    HW229715   5.947   1.124   5.226 -1.2136 -2.3063  0.4614
 6021SOL     OW29716   3.876   1.168   4.443 -0.3999 -0.4121 -0.0884
 6021SOL    HW129717   3.965   1.178   4.487 -1.0468  2.1344  0.7270
 6021SOL    HW229718   3.848   1.072   4.444  2.0226 -1.1239  0.2301
 6022SOL     OW29719   2.114   0.957   2.948 -0.2604 -0.5770  0.3253
 6022SOL    HW129720   2.113   0.858   2.935  0.7514 -0.4793 -0.5314
 6022SOL    HW229721   2.107   1.002   2.860  0.3761  0.1136  0.6268
 6023SOL     OW29722   6.859   0.334   6.125 -0.0535 -0.4441 -0.0625
 6023SOL    HW129723   6.878   0.299   6.033 -1.3321 -1.0552 -0.1060
 6023SOL    HW229724   6.825   0.260   6.182 -3.2198  0.7832 -0.2725
 6024SOL     OW29725   6.412   7.545   6.827 -0.1871 -0.2458  0.3871
 6024SOL    HW129726   6.353   7.522   6.905 -0.7557 -2.1031 -0.5436
 6024SOL    HW229727   6.356   7.580   6.752  0.2466  0.6380  0.4647
 6025SOL     OW29728   7.540   0.738   2.061 -0.0150  0.5492  0.1629
 6025SOL    HW129729   7.539   0.806   1.989  0.3424 -1.1925 -1.5238
 6025SOL    HW229730   7.459   0.679   2.054  1.5786 -1.6165 -0.8186
 6026SOL     OW29731   9.581   4.006   6.253  0.2563 -0.1787  0.2384
 6026SOL    HW129732   9.526   4.068   6.197  0.4419 -0.0390  0.2100
 6026SOL    HW229733   9.658   4.056   6.292  0.3942 -0.3857  0.2359
 6027SOL     OW29734   0.826   5.162   4.080 -0.5708 -0.3354  0.5519
 6027SOL    HW129735   0.916   5.152   4.038  0.0856  2.2380  1.3017
 6027SOL    HW229736   0.837   5.191   4.175 -2.1908 -1.1456  1.0049
 6028SOL     OW29737   9.971   2.288   2.053 -0.1882  0.3001  0.1100
 6028SOL    HW129738  10.064   2.270   2.022  0.2745  0.5429  1.3244
 6028SOL    HW229739   9.907   2.269   1.979  0.7004 -1.2717 -0.2750
 6029SOL     OW29740   0.848   3.488   0.485 -0.0339 -0.7875 -0.7190
 6029SOL    HW129741   0.821   3.397   0.517  0.8368 -1.0743 -0.7907
 6029SOL    HW229742   0.947   3.498   0.492 -0.0197 -0.1995 -1.6126
 6030SOL     OW29743   0.775   3.648   1.950  0.2965  0.9502 -0.4094
 6030SOL    HW129744   0.679   3.655   1.978  0.6245 -0.8377  1.2637
 6030SOL    HW229745   0.831   3.711   2.004  0.5286 -0.4529  1.0056
 6031SOL     OW29746   7.611   1.042   1.136  0.0765 -0.1558 -0.4579
 6031SOL    HW129747   7.613   1.009   1.230  0.0155  0.2880 -0.3021
 6031SOL    HW229748   7.614   0.963   1.074 -1.3631 -0.5226 -0.0881
 6032SOL     OW29749   2.553   1.758   0.138 -0.6136 -0.6660  0.3498
 6032SOL    HW129750   2.529   1.717   0.225 -0.2345 -2.5141 -0.4074
 6032SOL    HW229751   2.536   1.693   0.064  0.8799  0.1901 -0.7680
 6033SOL     OW29752   3.445   9.181   4.240 -0.1414 -0.3205  0.3761
 6033SOL    HW129753   3.509   9.120   4.193  0.8908  0.3279  0.9466
 6033SOL    HW229754   3.456   9.173   4.339 -0.6710  0.0897  0.4737
 6034SOL     OW29755   7.901   2.924   0.395 -0.3439  0.5671  0.4994
 6034SOL    HW129756   7.813   2.956   0.360  0.5359  1.8144 -0.6480
 6034SOL    HW229757   7.910   2.826   0.382 -0.4857  0.8398 -1.8353
 6035SOL     OW29758   5.091   1.363   2.892 -0.3835 -0.7059  0.0069
 6035SOL    HW129759   5.104   1.406   2.802  0.3005  0.0269  0.4475
 6035SOL    HW229760   5.058   1.270   2.880 -1.6642 -0.1374 -0.9784
 6036SOL     OW29761   1.343   2.559   4.293 -0.2468  0.0888  0.1178
 6036SOL    HW129762   1.308   2.637   4.241  1.4758 -0.3476 -1.7272
 6036SOL    HW229763   1.379   2.591   4.380 -0.1808  1.2663 -0.3327
 6037SOL     OW29764   9.134   7.592   4.579  0.1885 -0.7586 -0.1771
 6037SOL    HW129765   9.216   7.567   4.528  2.0183  0.1166  2.2069
 6037SOL    HW229766   9.136   7.690   4.599 -2.2246 -0.4205 -1.3658
 6038SOL     OW29767   0.806   9.489   4.138 -0.0561 -0.1317 -0.0386
 6038SOL    HW129768   0.880   9.456   4.197  0.6515 -0.7505 -1.2733
 6038SOL    HW229769   0.719   9.451   4.170  0.3501 -0.6435  0.4712
 6039SOL     OW29770   4.492   4.187   3.474 -0.2557  0.0062  0.0805
 6039SOL    HW129771   4.490   4.108   3.413  0.4565 -0.1155  0.2194
 6039SOL    HW229772   4.398   4.219   3.488 -0.6601 -1.5042  0.9287
 6040SOL     OW29773   0.031   8.141   4.844 -0.7399  0.0189 -0.4988
 6040SOL    HW129774   0.063   8.175   4.932 -1.4962 -1.0095  0.1863
 6040SOL    HW229775   0.102   8.154   4.775 -0.3849  1.3954  0.1252
 6041SOL     OW29776   7.653   3.182   3.214 -0.2630 -0.1491  0.5867
 6041SOL    HW129777   7.609   3.230   3.138  0.3295 -1.1856 -0.4249
 6041SOL    HW229778   7.584   3.156   3.281 -1.1009 -1.0579 -0.5965
 6042SOL     OW29779   7.309   9.667   7.513 -0.0902  0.3393  0.0614
 6042SOL    HW129780   7.404   9.696   7.510 -0.4377  1.7704  1.9839
 6042SOL    HW229781   7.249   9.747   7.522 -1.3249 -0.6974  1.3405
 6043SOL     OW29782   3.352   5.581   5.004 -0.1586  0.6586 -0.3815
 6043SOL    HW129783   3.278   5.632   4.960  0.0451  0.0869 -1.4085
 6043SOL    HW229784   3.434   5.638   5.009 -0.9172  1.6256  1.6092
 6044SOL     OW29785   5.105   4.534   7.252 -0.2950  0.1977 -0.4890
 6044SOL    HW129786   5.077   4.501   7.342  3.1250 -0.1005  0.5179
 6044SOL    HW229787   5.175   4.605   7.263  2.0483 -1.6644 -2.9307
 6045SOL     OW29788   7.898   7.980   7.412  0.0151  0.6433  0.1255
 6045SOL    HW129789   7.824   8.020   7.357 -0.4078  0.8260  0.8141
 6045SOL    HW229790   7.861   7.950   7.500  0.0199 -2.6917 -0.9600
 6046SOL     OW29791   9.292   7.981   5.198 -0.2626 -0.4258 -0.2594
 6046SOL    HW129792   9.253   7.891   5.220 -1.2640 -0.0228 -0.3411
 6046SOL    HW229793   9.275   8.002   5.102 -0.3150 -0.0123 -0.1596
 6047SOL     OW29794   3.443   0.048   3.390  0.6247 -0.3671 -0.2844
 6047SOL    HW129795   3.417  -0.009   3.468  0.9943 -3.0596 -2.0637
 6047SOL    HW229796   3.363   0.098   3.358  0.9679  2.6611  3.2339
 6048SOL     OW29797   5.062   0.611   5.526 -0.2236  0.6917 -0.1254
 6048SOL    HW129798   5.068   0.554   5.445 -0.1144  2.6726 -1.5429
 6048SOL    HW229799   5.124   0.576   5.596  1.2259  0.1690 -1.6377
 6049SOL     OW29800   0.518   9.005   8.106 -0.3953  0.5563 -0.0078
 6049SOL    HW129801   0.592   8.977   8.167  0.2868 -1.2439 -1.6560
 6049SOL    HW229802   0.552   9.072   8.040 -0.7615  1.3167  0.5619
 6050SOL     OW29803   2.552   4.138   6.410 -0.3493  0.0445 -0.2067
 6050SOL    HW129804   2.527   4.042   6.395 -0.3894  0.4012 -2.6125
 6050SOL    HW229805   2.650   4.144   6.426 -0.1327 -0.2633 -1.3981
 6051SOL     OW29806   8.839   7.653   3.331  0.4714 -0.0976 -0.7513
 6051SOL    HW129807   8.832   7.582   3.401 -2.5287 -0.1596 -1.0430
 6051SOL    HW229808   8.932   7.689   3.329  0.9735 -1.0885  2.2811
 6052SOL     OW29809   7.744   7.200   6.175 -0.5049 -0.1207  0.1804
 6052SOL    HW129810   7.686   7.183   6.096 -2.1740  3.8630  0.4305
 6052SOL    HW229811   7.694   7.176   6.259 -1.1819  1.6567  0.3059
 6053SOL     OW29812   6.200   2.378   0.314 -0.1118 -0.5668 -0.0847
 6053SOL    HW129813   6.154   2.340   0.394  0.1384 -1.4524 -0.3542
 6053SOL    HW229814   6.132   2.413   0.249 -0.3379 -0.3940  0.2472
 6054SOL     OW29815   9.739   6.052   1.873 -0.3500 -0.0678 -1.0254
 6054SOL    HW129816   9.728   5.961   1.913 -0.9292 -0.0513 -1.1433
 6054SOL    HW229817   9.708   6.050   1.779  1.6435 -0.2774 -1.7165
 6055SOL     OW29818   4.867   0.965   8.047 -0.1502  0.2310  0.0660
 6055SOL    HW129819   4.810   1.034   8.003  1.9826  0.4994 -2.4342
 6055SOL    HW229820   4.918   1.007   8.123  0.3967  1.2007 -0.8191
 6056SOL     OW29821   1.612   0.394   5.605  0.1225 -0.1242 -0.3813
 6056SOL    HW129822   1.644   0.306   5.570  0.6300  1.0450 -2.9738
 6056SOL    HW229823   1.536   0.427   5.549 -1.1035  0.3902  1.5160
 6057SOL     OW29824   1.720   1.917   5.785  0.1705  0.0054 -0.0688
 6057SOL    HW129825   1.669   1.928   5.870  0.8882 -0.5035  0.4321
 6057SOL    HW229826   1.783   1.839   5.793  0.1569 -0.1258 -1.1032
 6058SOL     OW29827   8.224   3.147   5.239  0.6513 -0.4336  0.7958
 6058SOL    HW129828   8.169   3.151   5.155  0.3417  0.1299  1.0200
 6058SOL    HW229829   8.164   3.162   5.318  1.3632  1.7618  0.9460
 6059SOL     OW29830   6.161   5.888   0.196 -0.6104  0.0115 -0.5176
 6059SOL    HW129831   6.136   5.915   0.289  0.3227 -2.3850  0.4840
 6059SOL    HW229832   6.118   5.949   0.130 -1.7074  1.4281  1.4757
 6060SOL     OW29833   1.296   7.000   5.666  0.1811 -0.4177  0.5959
 6060SOL    HW129834   1.293   6.947   5.751 -0.6178 -1.4334 -0.0517
 6060SOL    HW229835   1.350   6.950   5.598  1.7593  0.9229  0.8554
 6061SOL     OW29836   9.742   4.339   1.356  0.2959  0.2240  0.2289
 6061SOL    HW129837   9.673   4.400   1.318 -1.2058 -1.6097 -0.0190
 6061SOL    HW229838   9.765   4.268   1.290  2.4263  0.7986  0.3144
 6062SOL     OW29839   0.290   5.795   2.617 -0.1174  0.0897 -0.3666
 6062SOL    HW129840   0.281   5.867   2.549  0.1785 -1.4586 -2.0810
 6062SOL    HW229841   0.321   5.710   2.573  0.1514 -0.9305  1.6966
 6063SOL     OW29842   4.070   2.673   1.204 -0.4491  0.7452 -0.7704
 6063SOL    HW129843   4.139   2.685   1.133  0.3839 -0.7126 -0.2411
 6063SOL    HW229844   4.097   2.598   1.265 -1.7451  1.1596  0.3623
 6064SOL     OW29845   2.569   3.697   6.468 -0.0772 -0.0973 -0.0012
 6064SOL    HW129846   2.500   3.767   6.482  0.7557  0.7212  0.0696
 6064SOL    HW229847   2.534   3.627   6.406  0.4138  2.3863 -3.2249
 6065SOL     OW29848   5.212   7.842   6.295  0.2194 -0.0112 -0.0666
 6065SOL    HW129849   5.160   7.926   6.308  0.3939 -0.1897  2.0069
 6065SOL    HW229850   5.163   7.782   6.231 -0.7084  0.9868 -0.3078
 6066SOL     OW29851   7.174   6.661   6.477 -0.2232 -0.0024 -0.3201
 6066SOL    HW129852   7.232   6.738   6.503 -0.3128 -0.7362  2.1488
 6066SOL    HW229853   7.078   6.687   6.485 -0.2591 -0.5588  1.1604
 6067SOL     OW29854   5.166   9.106   1.626 -0.3942  0.2191 -0.3333
 6067SOL    HW129855   5.212   9.166   1.692  0.6688 -1.2208  0.2494
 6067SOL    HW229856   5.174   9.146   1.535  1.2871  0.4387 -0.1174
 6068SOL     OW29857   4.199   9.481   1.973  0.5461  0.1144 -0.2121
 6068SOL    HW129858   4.114   9.429   1.983  0.2603  0.4533 -0.8324
 6068SOL    HW229859   4.253   9.474   2.057  0.0416 -0.3417  0.0776
 6069SOL     OW29860   3.288   7.248   6.759 -0.6131  0.5526 -0.3933
 6069SOL    HW129861   3.233   7.323   6.795 -1.5493  0.4018 -1.4799
 6069SOL    HW229862   3.365   7.230   6.821  0.8370  3.7684 -1.1978
 6070SOL     OW29863   7.642   8.576   5.257 -0.3431 -0.3169  0.3141
 6070SOL    HW129864   7.726   8.595   5.207  0.6629  0.7442  2.3075
 6070SOL    HW229865   7.644   8.483   5.292 -1.3243 -1.2605 -2.0927
 6071SOL     OW29866   0.398   0.547   7.490 -0.8776 -0.3860 -0.5194
 6071SOL    HW129867   0.418   0.569   7.394 -1.3732  0.9825 -0.3205
 6071SOL    HW229868   0.469   0.486   7.526 -0.4395 -0.5335 -1.6151
 6072SOL     OW29869   9.492   8.354   4.079  0.0788  0.3035  0.4033
 6072SOL    HW129870   9.508   8.449   4.104 -0.8984  0.4277  0.5582
 6072SOL    HW229871   9.396   8.341   4.053  0.4949 -0.3644 -0.8483
 6073SOL     OW29872   0.747   3.229   5.324  0.2961 -0.8757 -0.3128
 6073SOL    HW129873   0.810   3.169   5.275 -1.6737 -2.9050 -0.4233
 6073SOL    HW229874   0.656   3.223   5.282 -0.2731  1.0780  0.5985
 6074SOL     OW29875   1.216   0.493   2.732  0.2060 -0.1541  1.0319
 6074SOL    HW129876   1.292   0.438   2.697  1.1450  1.3325  0.6695
 6074SOL    HW229877   1.130   0.447   2.712  0.8386 -0.4168 -1.2919
 6075SOL     OW29878   0.858   3.932   7.101  0.1144  0.1251 -0.4979
 6075SOL    HW129879   0.857   4.032   7.110  0.6235  0.1824 -1.0497
 6075SOL    HW229880   0.782   3.903   7.044  1.2159  0.3852 -2.1393
 6076SOL     OW29881   9.931   5.143   4.918 -0.2176  0.0872 -0.3121
 6076SOL    HW129882   9.937   5.240   4.896  0.0201  0.4307  1.1935
 6076SOL    HW229883  10.019   5.099   4.897  0.3177  0.6004  0.8269
 6077SOL     OW29884   4.276   9.394   7.361 -0.3201  0.0598  0.3829
 6077SOL    HW129885   4.348   9.443   7.312  0.5354 -0.7336  0.8021
 6077SOL    HW229886   4.310   9.368   7.452 -0.7836 -1.1768  0.2216
 6078SOL     OW29887   6.762   2.058   5.467  0.0591  0.2723  0.2257
 6078SOL    HW129888   6.717   1.995   5.404 -0.1604  0.9163 -0.2672
 6078SOL    HW229889   6.712   2.058   5.554 -0.2632  0.1689  0.0435
 6079SOL     OW29890   4.384   3.839   1.667  0.4053 -0.2454  0.3167
 6079SOL    HW129891   4.474   3.878   1.648  0.9250 -0.3641  2.4407
 6079SOL    HW229892   4.380   3.809   1.762 -1.6872 -0.7894  0.0780
 6080SOL     OW29893   0.191   9.734   0.506  0.0647  0.2642  0.0163
 6080SOL    HW129894   0.121   9.670   0.475 -0.4822  1.1311 -0.5788
 6080SOL    HW229895   0.223   9.707   0.596 -0.8997 -0.2624  0.2091
 6081SOL     OW29896   1.428   7.166   1.253 -0.1323  0.3116  0.1153
 6081SOL    HW129897   1.396   7.114   1.332 -0.0158 -0.2114 -0.1780
 6081SOL    HW229898   1.464   7.254   1.284 -1.0939  0.5638  0.5270
 6082SOL     OW29899   4.283   9.747   7.180 -0.4649  0.6660  0.1756
 6082SOL    HW129900   4.215   9.673   7.175  0.4150 -0.0831 -0.9056
 6082SOL    HW229901   4.281   9.798   7.094  2.1277 -0.9747 -0.9144
 6083SOL     OW29902   0.987   4.039   1.945  0.1211  0.5323  0.0701
 6083SOL    HW129903   1.039   4.120   1.971 -0.4705  1.4999 -1.6868
 6083SOL    HW229904   0.890   4.054   1.966 -0.0579  0.4893 -0.7194
 6084SOL     OW29905   4.645   0.594   5.808  0.1237  0.2065  0.7993
 6084SOL    HW129906   4.573   0.530   5.782 -0.3333 -0.0587  2.5912
 6084SOL    HW229907   4.616   0.644   5.890  2.1933 -0.3041  1.8841
 6085SOL     OW29908   9.712   6.281   2.667 -0.1887  0.3178 -0.5407
 6085SOL    HW129909   9.706   6.186   2.698  3.3469 -0.3487 -1.6922
 6085SOL    HW229910   9.687   6.343   2.741 -0.9580 -1.4542  0.7014
 6086SOL     OW29911   9.562   6.052   7.404 -0.1169 -0.3107 -0.4676
 6086SOL    HW129912   9.640   5.989   7.402 -0.6926 -1.0685  0.4344
 6086SOL    HW229913   9.480   6.003   7.375 -0.3996  0.2789 -0.6592
 6087SOL     OW29914   4.965   5.526   2.515  0.2533 -0.0552 -0.4429
 6087SOL    HW129915   4.909   5.609   2.522 -1.2077 -0.9763 -0.9231
 6087SOL    HW229916   4.968   5.496   2.419  0.3957 -0.8125 -0.2023
 6088SOL     OW29917   0.017   0.141   6.552 -0.5830 -1.0878  0.0875
 6088SOL    HW129918  -0.031   0.154   6.638  1.0698  0.0196  0.8718
 6088SOL    HW229919   0.114   0.165   6.564 -0.4652 -0.2495 -2.2316
 6089SOL     OW29920   2.591   0.062   2.788  0.2510 -0.1855 -0.5594
 6089SOL    HW129921   2.587   0.139   2.724 -0.7096 -0.1668 -0.4835
 6089SOL    HW229922   2.686   0.030   2.796  0.5742  0.6538 -0.9844
 6090SOL     OW29923   7.605   5.805   7.402  0.4534  0.6250  0.6266
 6090SOL    HW129924   7.530   5.739   7.408  0.2030  1.0362  2.5129
 6090SOL    HW229925   7.692   5.755   7.391 -0.0252  0.1240 -0.9656
 6091SOL     OW29926   0.758   8.505   5.094  0.1229  0.6074 -0.3489
 6091SOL    HW129927   0.729   8.483   5.000 -1.5072  0.9912  0.0538
 6091SOL    HW229928   0.736   8.601   5.113  0.1361  0.4287  0.5428
 6092SOL     OW29929   1.832   7.805   1.168 -0.3450 -0.2192  0.0322
 6092SOL    HW129930   1.863   7.892   1.206 -3.3800  1.5059 -1.2297
 6092SOL    HW229931   1.755   7.772   1.221  0.9647 -2.3194  0.6630
 6093SOL     OW29932   0.410   1.130   2.859 -0.1616  0.5450  0.3176
 6093SOL    HW129933   0.397   1.224   2.890  1.3233  1.2810 -1.2122
 6093SOL    HW229934   0.336   1.073   2.895 -0.8964  2.2167  1.5373
 6094SOL     OW29935   9.927   6.414   3.818  0.4405 -0.1722 -0.3701
 6094SOL    HW129936   9.984   6.377   3.745 -1.0212 -1.4167 -0.9082
 6094SOL    HW229937   9.831   6.413   3.789 -0.0915 -0.1329  1.3534
 6095SOL     OW29938   8.702   6.072   0.259  0.2793  0.3938 -0.3861
 6095SOL    HW129939   8.784   6.032   0.299  0.0023  1.1506  0.9692
 6095SOL    HW229940   8.630   6.077   0.329 -0.6158  0.6090 -1.3061
 6096SOL     OW29941   8.543   3.578   3.175  0.2281 -0.6232 -0.3718
 6096SOL    HW129942   8.589   3.568   3.087  0.3521 -1.1998 -0.2439
 6096SOL    HW229943   8.611   3.572   3.249  0.4900  2.2419 -0.3058
 6097SOL     OW29944   8.005   9.352   3.069  0.2708 -0.3502  0.0356
 6097SOL    HW129945   7.912   9.355   3.104 -0.6623 -1.0865 -2.2981
 6097SOL    HW229946   8.041   9.445   3.062 -0.3881 -0.0431  0.6498
 6098SOL     OW29947   0.752   1.397   1.763  0.0924 -0.3804 -0.1947
 6098SOL    HW129948   0.812   1.475   1.747  0.2693 -0.2626  0.9856
 6098SOL    HW229949   0.710   1.405   1.854  0.1568 -1.6714 -0.0390
 6099SOL     OW29950   9.960   8.741   8.146  0.3810  0.7575 -0.1202
 6099SOL    HW129951  10.007   8.683   8.079  0.3208  0.2703  0.2519
 6099SOL    HW229952   9.895   8.801   8.099  1.1196  1.1854 -0.6025
 6100SOL     OW29953   8.914   9.369   2.067 -0.3320  0.4911  0.1097
 6100SOL    HW129954   8.900   9.467   2.081 -0.7444  0.5087 -0.4245
 6100SOL    HW229955   8.997   9.354   2.014 -2.0399  0.7190 -2.7067
 6101SOL     OW29956   5.704   0.412   1.629  0.1541  0.4356 -0.4773
 6101SOL    HW129957   5.635   0.483   1.615  0.8683  1.3199  0.3479
 6101SOL    HW229958   5.737   0.416   1.724 -0.4691 -1.6206 -0.1628
 6102SOL     OW29959   0.568   3.470   0.736 -0.3131 -0.2001  0.3448
 6102SOL    HW129960   0.532   3.416   0.660 -1.8203  0.7447  0.3565
 6102SOL    HW229961   0.537   3.431   0.823  1.9850 -1.6895  0.5354
 6103SOL     OW29962   9.104   3.944   6.648  0.0894  0.8380  0.9169
 6103SOL    HW129963   9.128   3.953   6.551  2.5117  0.5848  1.4565
 6103SOL    HW229964   9.060   4.028   6.679 -1.1017  0.7587 -0.5024
 6104SOL     OW29965   0.082   1.584   3.006 -0.3970 -0.1174  0.5615
 6104SOL    HW129966   0.127   1.647   2.944  0.9093  0.2714  1.8825
 6104SOL    HW229967   0.107   1.606   3.100 -1.8345 -1.1011  1.1971
 6105SOL     OW29968   5.349   5.307   1.882  0.5550  0.1745 -0.0501
 6105SOL    HW129969   5.419   5.368   1.918  0.2469  0.2907  0.3520
 6105SOL    HW229970   5.360   5.299   1.783  1.4453 -0.2006  0.0720
 6106SOL     OW29971   3.134   0.220   1.163  0.0175 -0.6269 -0.1743
 6106SOL    HW129972   3.162   0.127   1.141  0.3316 -0.3346 -1.0256
 6106SOL    HW229973   3.035   0.229   1.151 -0.0373 -0.8918  0.0701
 6107SOL     OW29974   7.322   2.017   3.825  0.1126  0.1740  0.2358
 6107SOL    HW129975   7.243   2.061   3.866  0.6710  0.1059  1.4072
 6107SOL    HW229976   7.357   1.947   3.887  0.5942 -0.3659 -0.6298
 6108SOL     OW29977   5.920   3.408   0.158 -0.5347 -0.6596 -0.6630
 6108SOL    HW129978   5.856   3.331   0.155 -0.5881 -0.7366  1.6632
 6108SOL    HW229979   5.870   3.492   0.178 -0.0428 -0.5872  0.3046
 6109SOL     OW29980   4.431   6.243   3.493  0.1489  0.3818 -0.2559
 6109SOL    HW129981   4.385   6.235   3.405  1.4509  0.7078 -0.9770
 6109SOL    HW229982   4.456   6.338   3.509  3.9703 -0.3103 -1.6650
 6110SOL     OW29983   7.383   8.608   5.369 -0.0486 -0.0128 -0.4578
 6110SOL    HW129984   7.308   8.615   5.304 -0.5258 -1.7785 -0.1095
 6110SOL    HW229985   7.469   8.631   5.323 -0.3183 -1.6517 -1.8299
 6111SOL     OW29986   9.455   7.100   4.378 -0.0481 -0.5477  0.0029
 6111SOL    HW129987   9.365   7.132   4.405 -0.0247 -1.1677  0.8269
 6111SOL    HW229988   9.447   7.039   4.299 -0.2750 -0.0519 -0.3600
 6112SOL     OW29989   2.319   7.756   1.645  0.0819 -0.2230 -0.1950
 6112SOL    HW129990   2.289   7.847   1.618 -1.1422 -0.2092  1.1950
 6112SOL    HW229991   2.298   7.740   1.741  0.3342 -1.9555 -0.3989
 6113SOL     OW29992   5.338   8.286   2.359 -0.0364 -0.2290  0.0868
 6113SOL    HW129993   5.327   8.262   2.262 -2.9280  0.4086  0.2097
 6113SOL    HW229994   5.253   8.266   2.408  1.1742  0.0865  2.3637
 6114SOL     OW29995   3.873   0.906   3.470  0.1570  0.0541 -0.4285
 6114SOL    HW129996   3.879   0.983   3.533  1.7140  0.6182 -1.2274
 6114SOL    HW229997   3.964   0.866   3.457 -0.3970 -1.0187 -1.1251
 6115SOL     OW29998   9.772   4.048   7.703  0.3095 -0.2401  0.5265
 6115SOL    HW129999   9.800   4.013   7.792 -2.0504  0.4768  1.5900
 6115SOL    HW230000   9.674   4.034   7.691  0.3206  1.0419 -1.3389
 6116SOL     OW30001   2.485   8.215   6.703  0.2707  0.0338  0.5884
 6116SOL    HW130002   2.555   8.214   6.775  0.1089 -2.3234  0.7676
 6116SOL    HW230003   2.495   8.134   6.646 -1.7736  0.0974  0.0930
 6117SOL     OW30004   3.668   0.159   3.673  0.4287  0.4880 -0.2974
 6117SOL    HW130005   3.646   0.121   3.583 -0.2915  0.3617 -0.0732
 6117SOL    HW230006   3.606   0.235   3.694 -0.3255 -0.3749  0.6781
 6118SOL     OW30007   4.431   1.455   5.470 -0.2113 -0.5636  0.0093
 6118SOL    HW130008   4.407   1.364   5.436  0.9386 -0.9791  0.2926
 6118SOL    HW230009   4.473   1.447   5.561  2.0745  0.0374 -0.9657
 6119SOL     OW30010   7.177   7.710   4.162  0.6728  0.2517  0.0544
 6119SOL    HW130011   7.184   7.809   4.150  0.2035  0.2954  0.1220
 6119SOL    HW230012   7.090   7.688   4.205  0.1020 -0.3028 -1.3449
 6120SOL     OW30013   4.500   1.602   6.570  0.1506 -0.0538  0.2775
 6120SOL    HW130014   4.595   1.587   6.541 -0.0673 -0.6283 -0.1342
 6120SOL    HW230015   4.477   1.539   6.643  0.8136  1.6332  2.0032
 6121SOL     OW30016   2.804   1.682   1.912  0.1971  0.5092  0.2356
 6121SOL    HW130017   2.874   1.723   1.853 -0.7148  1.0843 -0.4687
 6121SOL    HW230018   2.766   1.752   1.972 -0.3487  0.3820  0.0394
 6122SOL     OW30019   7.284   0.565   2.546 -0.1674 -0.5097 -0.2869
 6122SOL    HW130020   7.200   0.530   2.586 -0.5157  1.1013  0.4336
 6122SOL    HW230021   7.264   0.649   2.494  1.2038  0.7769  1.1865
 6123SOL     OW30022   0.319   7.111   1.129  0.2900 -0.1020 -0.5655
 6123SOL    HW130023   0.346   7.192   1.079  0.6126  0.2588  0.1776
 6123SOL    HW230024   0.234   7.075   1.092  0.5589  0.1261 -1.3980
 6124SOL     OW30025   7.524   1.531   4.340  0.6321  0.2569 -0.2537
 6124SOL    HW130026   7.568   1.542   4.430  0.4181  0.4942 -0.1747
 6124SOL    HW230027   7.437   1.483   4.351  0.7353  0.0455 -0.3702
 6125SOL     OW30028   9.119   1.054   2.322 -0.0765 -0.0359  0.1629
 6125SOL    HW130029   9.160   0.969   2.290  0.8549  0.2323  0.6119
 6125SOL    HW230030   9.173   1.132   2.290  0.7470  0.2484  2.1302
 6126SOL     OW30031   1.140   9.987   1.179  0.0372  0.0892  0.1331
 6126SOL    HW130032   1.212   9.976   1.111  0.1175  0.4566  0.1536
 6126SOL    HW230033   1.051   9.962   1.140  0.2444 -0.8631  0.2669
 6127SOL     OW30034   8.388   2.107   5.497  0.3824 -0.4298  0.2590
 6127SOL    HW130035   8.487   2.095   5.499  0.2947 -0.9576  2.0420
 6127SOL    HW230036   8.356   2.105   5.402  2.3444  2.0642 -0.5054
 6128SOL     OW30037   3.382   1.458   3.935 -0.4121 -0.1770  0.1375
 6128SOL    HW130038   3.350   1.517   3.861 -0.6972 -0.1670  0.2694
 6128SOL    HW230039   3.362   1.363   3.912  0.9459 -0.3228 -0.5399
 6129SOL     OW30040   7.359   8.213   2.857  0.2667 -0.5204  0.6554
 6129SOL    HW130041   7.426   8.253   2.920 -0.3196  0.1476  0.8652
 6129SOL    HW230042   7.397   8.130   2.817  0.8017 -0.7460  1.6003
 6130SOL     OW30043   2.769   3.426   4.972  0.0843  0.8509  0.1926
 6130SOL    HW130044   2.701   3.469   4.912  0.3120 -0.9152 -1.3559
 6130SOL    HW230045   2.794   3.337   4.936  4.5412  2.1826 -0.2024
 6131SOL     OW30046   4.233   0.891   5.607 -0.1043 -0.3204 -0.2648
 6131SOL    HW130047   4.262   0.797   5.589  0.9524 -0.2768  1.1241
 6131SOL    HW230048   4.211   0.936   5.520  0.8706 -1.3817 -1.0777
 6132SOL     OW30049   8.709   8.853   7.305 -0.1770  0.2834  0.2414
 6132SOL    HW130050   8.626   8.810   7.342  0.2391 -0.6361  0.1280
 6132SOL    HW230051   8.789   8.803   7.338  0.2546  0.1985 -0.9396
 6133SOL     OW30052   4.586   5.891   2.088  0.3226 -0.0991  0.2375
 6133SOL    HW130053   4.495   5.867   2.055  0.4906 -0.8562  0.3109
 6133SOL    HW230054   4.655   5.864   2.020  0.4183  1.4387 -0.2888
 6134SOL     OW30055   4.770   4.271   3.059  0.4439 -0.1148 -0.5037
 6134SOL    HW130056   4.692   4.234   3.008 -1.7089  0.6534  2.1241
 6134SOL    HW230057   4.818   4.197   3.106 -0.8459 -0.1855  0.7196
 6135SOL     OW30058   3.660   5.359   7.522  0.1725  0.1726 -0.0562
 6135SOL    HW130059   3.646   5.343   7.424  1.4523  0.0158 -0.2153
 6135SOL    HW230060   3.666   5.271   7.569  0.8428  0.2454 -0.0141
 6136SOL     OW30061   3.055   0.838   4.087  0.0092  0.2319  0.3016
 6136SOL    HW130062   3.087   0.778   4.013 -0.4461  0.5061 -0.1195
 6136SOL    HW230063   2.992   0.787   4.145 -0.5095  0.3453 -0.1545
 6137SOL     OW30064   3.979   4.083   7.243  0.6254 -0.1283  0.2665
 6137SOL    HW130065   3.992   4.179   7.218  1.4409 -0.1096  0.7333
 6137SOL    HW230066   3.985   4.026   7.161  1.3359  0.1139  0.1431
 6138SOL     OW30067   0.789   6.305   1.919 -0.2221  0.1694  0.2506
 6138SOL    HW130068   0.697   6.299   1.883  0.3318 -2.6393 -0.7896
 6138SOL    HW230069   0.844   6.367   1.862 -1.0229  0.5959 -0.0557
 6139SOL     OW30070   6.101   0.734   1.117 -0.1706  0.2954  0.0951
 6139SOL    HW130071   6.102   0.692   1.027 -1.0214 -0.9531  0.6476
 6139SOL    HW230072   6.124   0.666   1.187  0.1427  1.1586  0.8546
 6140SOL     OW30073   8.763   2.212   0.269 -0.0188 -0.2625  0.3156
 6140SOL    HW130074   8.763   2.252   0.361 -0.6304 -1.3477  0.7914
 6140SOL    HW230075   8.669   2.188   0.243  0.1141  0.2959 -0.7139
 6141SOL     OW30076   8.142   6.030   3.837 -0.0928  0.3117 -0.2088
 6141SOL    HW130077   8.167   5.940   3.873  1.5293  0.2238 -1.4757
 6141SOL    HW230078   8.083   6.018   3.757  1.3817  0.2995 -1.3186
 6142SOL     OW30079   0.219   1.582   5.148 -0.4205  0.1826 -0.0673
 6142SOL    HW130080   0.226   1.525   5.230  1.3802  0.5534  0.0645
 6142SOL    HW230081   0.307   1.580   5.099 -0.5039  2.3885 -0.3476
 6143SOL     OW30082   9.729   9.268   4.647 -0.1026  0.1171 -0.2920
 6143SOL    HW130083   9.779   9.198   4.595 -0.5010  1.0581 -1.9677
 6143SOL    HW230084   9.754   9.359   4.613 -0.7666  0.7225  0.8263
 6144SOL     OW30085   0.408   5.171   7.429 -0.2609 -0.0311  0.2478
 6144SOL    HW130086   0.471   5.094   7.429 -1.8833 -1.4108 -1.2498
 6144SOL    HW230087   0.349   5.167   7.510 -2.0117 -1.8155 -1.0772
 6145SOL     OW30088   3.539   5.630   3.769  0.2428 -0.7444 -0.1258
 6145SOL    HW130089   3.449   5.604   3.802  0.5074 -0.4401  0.8451
 6145SOL    HW230090   3.572   5.562   3.703 -0.0765 -1.6069  0.6017
 6146SOL     OW30091   9.084   4.712   6.186  0.3662  0.4829 -0.0828
 6146SOL    HW130092   9.055   4.636   6.245  0.5985  1.0840  0.8191
 6146SOL    HW230093   9.131   4.675   6.106  0.9994 -0.3107  0.6393
 6147SOL     OW30094   1.134   4.945   3.344  0.1943 -0.0071  0.2428
 6147SOL    HW130095   1.156   4.902   3.431 -1.4247 -1.1636  0.1037
 6147SOL    HW230096   1.124   5.044   3.357  0.4684 -0.1128  1.2555
 6148SOL     OW30097   7.202   1.851   5.718  0.0150 -0.0442  0.0159
 6148SOL    HW130098   7.148   1.918   5.668 -1.0603 -1.0967 -0.2539
 6148SOL    HW230099   7.233   1.890   5.805 -0.5488  0.8092 -0.1686
 6149SOL     OW30100   8.515   1.766   0.980  0.5503 -0.4559  0.0654
 6149SOL    HW130101   8.565   1.741   0.897  1.3842 -0.2306  0.4959
 6149SOL    HW230102   8.576   1.814   1.043 -0.5408  0.9954  0.0476
 6150SOL     OW30103   8.120   3.315   0.535  0.2062  0.5071  0.3545
 6150SOL    HW130104   8.128   3.238   0.470  0.1792  1.0571 -0.3090
 6150SOL    HW230105   8.110   3.279   0.628  0.3822 -0.2937  0.0730
 6151SOL     OW30106   4.087   9.174   6.010 -0.1658 -0.3137  0.2919
 6151SOL    HW130107   4.055   9.241   5.943 -0.3725  0.0358  0.7335
 6151SOL    HW230108   4.150   9.110   5.966 -1.2819 -0.8634 -0.5347
 6152SOL     OW30109   0.255   4.340   6.142 -0.2436 -0.0826  0.9793
 6152SOL    HW130110   0.301   4.331   6.054  2.1825  0.5265  2.1394
 6152SOL    HW230111   0.189   4.265   6.153 -0.1366 -0.4966 -1.0860
 6153SOL     OW30112   7.895   4.616   6.023  0.5357  0.1502 -0.2886
 6153SOL    HW130113   7.827   4.689   6.012 -0.2734 -0.4140  0.8726
 6153SOL    HW230114   7.970   4.630   5.959  0.4542  2.0793  0.0319
 6154SOL     OW30115   8.788   4.675   2.561  0.3931  0.1412 -0.1133
 6154SOL    HW130116   8.706   4.705   2.512  0.7694  2.1047  0.4112
 6154SOL    HW230117   8.774   4.582   2.597 -1.3768  0.2491 -0.5087
 6155SOL     OW30118   2.030   5.106   4.604  0.3469  0.3131  0.3635
 6155SOL    HW130119   2.009   5.068   4.695 -3.4375  0.6789 -0.2680
 6155SOL    HW230120   1.948   5.149   4.567  2.1545  1.1386 -2.8072
 6156SOL     OW30121   3.603   5.247   3.128  0.2596 -0.4744  0.2568
 6156SOL    HW130122   3.572   5.164   3.176  1.5489 -0.0035  1.9768
 6156SOL    HW230123   3.595   5.325   3.190  0.7809  0.3743 -0.7406
 6157SOL     OW30124   0.927   9.338   6.263  0.3675 -0.7007 -0.3857
 6157SOL    HW130125   1.025   9.349   6.276  0.4020 -2.7910  1.4638
 6157SOL    HW230126   0.878   9.382   6.339 -0.0645 -0.4918 -0.7846
 6158SOL     OW30127   0.909   9.448   6.754 -0.9171  0.0671 -0.4584
 6158SOL    HW130128   0.991   9.472   6.806 -0.3389  0.6317 -1.6098
 6158SOL    HW230129   0.908   9.350   6.737 -0.3204  0.1010 -0.6982
 6159SOL     OW30130   3.272   8.571   0.656  0.4859 -0.3958 -0.0827
 6159SOL    HW130131   3.244   8.493   0.711 -0.1014  0.6880  1.1780
 6159SOL    HW230132   3.243   8.558   0.562  1.0044 -2.0099 -0.0284
 6160SOL     OW30133   0.894   7.805   4.162  0.2959  0.4003  0.0269
 6160SOL    HW130134   0.903   7.705   4.166 -1.7814  0.1975  0.8377
 6160SOL    HW230135   0.853   7.831   4.075 -0.9507  0.3347  0.5677
 6161SOL     OW30136   2.265   3.028   7.773 -0.2151 -0.3403  0.7986
 6161SOL    HW130137   2.323   3.080   7.835 -1.0191 -0.0893  1.3485
 6161SOL    HW230138   2.322   2.983   7.704  0.5127  0.9702  0.5243
 6162SOL     OW30139   8.784   2.503   1.365 -0.6028  0.1409 -0.1453
 6162SOL    HW130140   8.703   2.552   1.397 -1.3447 -1.7378  0.9120
 6162SOL    HW230141   8.796   2.419   1.418  0.8046 -0.7077 -1.7459
 6163SOL     OW30142   2.578   3.227   4.829 -0.5627 -0.2669  0.4859
 6163SOL    HW130143   2.547   3.256   4.920  0.4010  0.4011  0.6080
 6163SOL    HW230144   2.664   3.177   4.838 -0.4341 -0.1480 -0.0669
 6164SOL     OW30145   5.436   0.608   2.030 -0.0344  0.2312  0.5009
 6164SOL    HW130146   5.368   0.681   2.041 -1.0425 -0.6336  0.1110
 6164SOL    HW230147   5.487   0.596   2.115 -0.7757  0.5014  0.9861
 6165SOL     OW30148   8.621   5.077   3.038  0.0681 -0.2582  0.0733
 6165SOL    HW130149   8.539   5.105   3.088  0.9972  1.6337  0.5693
 6165SOL    HW230150   8.698   5.070   3.100  0.5603 -0.9175 -0.5918
 6166SOL     OW30151   8.666   8.265   7.443  0.1080  0.3424  0.2289
 6166SOL    HW130152   8.660   8.256   7.542  1.5728 -2.1273  0.1246
 6166SOL    HW230153   8.594   8.211   7.400  1.2330 -0.9259 -0.1018
 6167SOL     OW30154   1.120   7.706   6.351  0.0914 -0.4215 -0.1996
 6167SOL    HW130155   1.143   7.663   6.264  2.0058  0.0975  0.0293
 6167SOL    HW230156   1.112   7.805   6.338  0.1232 -0.3710  0.1654
 6168SOL     OW30157   5.940   8.994   6.736 -0.0124  0.0516  0.2263
 6168SOL    HW130158   6.036   8.967   6.742  0.1463  0.9179  2.1678
 6168SOL    HW230159   5.933   9.092   6.723 -0.6422 -0.2082 -1.5801
 6169SOL     OW30160   0.786   0.185   1.013 -0.2283 -0.6423 -0.4792
 6169SOL    HW130161   0.732   0.197   1.096 -1.9985  0.7322 -1.7824
 6169SOL    HW230162   0.749   0.108   0.961 -1.7059  0.9939 -1.9193
 6170SOL     OW30163   9.739   6.258   6.822  0.2781  0.5636 -0.0302
 6170SOL    HW130164   9.755   6.184   6.887  0.8857  1.7374  1.1842
 6170SOL    HW230165   9.750   6.346   6.868 -0.2387  1.4207 -1.4977
 6171SOL     OW30166   2.038   4.474   7.412  0.3781  0.2828  0.1947
 6171SOL    HW130167   2.134   4.498   7.399  0.0179  0.9399 -1.3358
 6171SOL    HW230168   2.005   4.423   7.333 -0.1150 -1.3577  1.4158
 6172SOL     OW30169   7.021   2.981   0.676 -0.2640  0.1442 -0.4525
 6172SOL    HW130170   6.958   2.922   0.726  1.0699 -0.0159  1.0626
 6172SOL    HW230171   7.047   2.937   0.591 -0.3965 -0.8157 -0.0059
 6173SOL     OW30172   2.023   8.937   4.356  0.0597  0.0957  0.3063
 6173SOL    HW130173   1.988   8.867   4.294  0.8716  0.3217 -0.4219
 6173SOL    HW230174   1.951   8.964   4.420 -1.0732  0.5139 -1.1264
 6174SOL     OW30175   9.116   0.916   2.848  0.2838 -0.0976 -0.6923
 6174SOL    HW130176   9.169   0.835   2.824  1.8051  1.0433 -1.2169
 6174SOL    HW230177   9.133   0.989   2.781  0.6983  1.4185  1.0231
 6175SOL     OW30178   0.952   4.463   7.304  0.1986 -0.2425  0.0594
 6175SOL    HW130179   0.905   4.502   7.383  0.8473 -0.7704  0.7144
 6175SOL    HW230180   1.032   4.520   7.282  0.4012 -0.4690  0.2054
 6176SOL     OW30181   7.081   0.871   0.403 -0.2247  0.5010 -0.5016
 6176SOL    HW130182   7.103   0.902   0.495  1.2072  1.5562 -1.1787
 6176SOL    HW230183   7.090   0.947   0.339 -1.9669 -0.0370 -1.4104
 6177SOL     OW30184   3.593   3.822   1.114 -0.4825  0.0756 -0.3944
 6177SOL    HW130185   3.494   3.809   1.117 -0.4895  0.1454 -0.3172
 6177SOL    HW230186   3.616   3.887   1.043 -0.6529  1.5461  0.8646
 6178SOL     OW30187   2.812   3.942   1.867 -0.4738  0.5612  0.1831
 6178SOL    HW130188   2.910   3.957   1.850 -0.0324 -1.3393  0.8934
 6178SOL    HW230189   2.768   4.029   1.887  1.5994  1.1550  2.3961
 6179SOL     OW30190   1.732   4.764   3.449  0.1998 -0.4473 -0.1265
 6179SOL    HW130191   1.799   4.814   3.393  0.9006 -0.5130  0.6444
 6179SOL    HW230192   1.711   4.677   3.404 -0.5192  0.2454 -1.1335
 6180SOL     OW30193   7.822   8.588   5.022  0.1592  0.0502  0.1286
 6180SOL    HW130194   7.756   8.622   4.956 -0.4443 -0.8359  0.2698
 6180SOL    HW230195   7.864   8.504   4.987  1.3200  0.6740 -0.0274
 6181SOL     OW30196   8.409   0.855   0.157 -0.1342  0.4144 -0.1349
 6181SOL    HW130197   8.442   0.941   0.118 -0.3360  0.7672  0.4595
 6181SOL    HW230198   8.484   0.809   0.204 -0.2662  0.7932  0.4657
 6182SOL     OW30199   9.674   9.787   5.819  0.0353 -0.2103 -0.0177
 6182SOL    HW130200   9.763   9.828   5.836 -0.2009 -0.5678  2.2457
 6182SOL    HW230201   9.631   9.831   5.740  1.2282  1.5265  0.2875
 6183SOL     OW30202   6.596   0.059   2.770 -0.4623  0.1795 -0.1858
 6183SOL    HW130203   6.562   0.071   2.863 -1.0881  1.0706 -0.5176
 6183SOL    HW230204   6.588  -0.037   2.743 -0.8982  0.0370  0.4413
 6184SOL     OW30205   0.349   4.545   4.215 -0.3523 -0.0294 -0.1655
 6184SOL    HW130206   0.363   4.629   4.163  1.0819  0.0048  0.2540
 6184SOL    HW230207   0.421   4.537   4.284  0.2636 -2.2418 -1.0385
 6185SOL     OW30208   0.278   4.097   6.595 -0.4043 -0.3066  0.0729
 6185SOL    HW130209   0.272   4.095   6.495  1.9284  2.3359 -0.2011
 6185SOL    HW230210   0.209   4.159   6.632  1.2948  1.8507 -0.2607
 6186SOL     OW30211   0.675   7.617   6.543  0.3611 -0.0661  0.1148
 6186SOL    HW130212   0.689   7.716   6.537  3.3641 -0.5000 -1.0572
 6186SOL    HW230213   0.689   7.576   6.453  0.4748 -1.7061  0.8624
 6187SOL     OW30214   1.778   2.905   7.005 -0.4278  0.5666 -0.2579
 6187SOL    HW130215   1.852   2.838   7.015  0.6118  1.5496 -1.2476
 6187SOL    HW230216   1.721   2.879   6.927 -2.1217 -1.0873  1.4687
 6188SOL     OW30217   5.673   0.912   1.423 -0.3266 -0.2380  0.1315
 6188SOL    HW130218   5.695   0.957   1.509 -0.8292  1.1772 -0.4619
 6188SOL    HW230219   5.735   0.835   1.408  0.4243  0.1437  1.2463
 6189SOL     OW30220   7.504   9.630   1.824  0.3708 -0.2965  0.8995
 6189SOL    HW130221   7.425   9.675   1.783  0.3950 -0.3370  0.8114
 6189SOL    HW230222   7.526   9.675   1.911  0.3792 -0.1565  0.8247
 6190SOL     OW30223   8.285   3.273   6.603 -0.3014  0.0533 -0.0916
 6190SOL    HW130224   8.225   3.208   6.651  0.6871 -1.5989 -1.0582
 6190SOL    HW230225   8.374   3.231   6.588  0.8850  2.2236  0.6484
 6191SOL     OW30226   3.592   3.617   1.333  0.4499  0.0224  0.0958
 6191SOL    HW130227   3.686   3.638   1.361  0.7365  0.0984 -0.8909
 6191SOL    HW230228   3.572   3.665   1.247 -0.6346  0.3454  0.5251
 6192SOL     OW30229   9.860   7.271   7.786 -0.0208  0.2447  0.3314
 6192SOL    HW130230   9.829   7.365   7.796 -0.2019  0.0463  1.8244
 6192SOL    HW230231   9.831   7.218   7.866  1.0087 -0.8129  0.0195
 6193SOL     OW30232   0.732   3.524   5.222  0.2190  0.3027  0.1065
 6193SOL    HW130233   0.729   3.428   5.248 -0.7964  0.5433  0.8745
 6193SOL    HW230234   0.759   3.580   5.301 -0.9172  0.8273  0.1321
 6194SOL     OW30235   9.629   2.389   1.019  0.4091  0.0394 -0.6550
 6194SOL    HW130236   9.699   2.446   1.063 -0.1453  0.0510  0.2195
 6194SOL    HW230237   9.673   2.320   0.963  1.1523 -0.3364  0.3697
 6195SOL     OW30238   5.121   0.795   0.128  0.1654 -0.4475 -0.4493
 6195SOL    HW130239   5.199   0.737   0.102  0.1534 -0.0601 -1.3900
 6195SOL    HW230240   5.036   0.746   0.107  0.1553 -0.1171 -1.1942
 6196SOL     OW30241   8.628   4.439   3.797  0.2809 -0.2417  0.5736
 6196SOL    HW130242   8.553   4.374   3.793  0.9034 -0.9634  0.4136
 6196SOL    HW230243   8.598   4.529   3.764 -0.3457 -0.6758 -0.0364
 6197SOL     OW30244   2.705   1.203   4.363 -0.0464  0.1797 -0.3577
 6197SOL    HW130245   2.764   1.282   4.379  0.1535 -0.2950  1.3572
 6197SOL    HW230246   2.713   1.173   4.268  2.4950  0.1111 -0.1494
 6198SOL     OW30247   0.246   6.505   8.028 -0.0388 -0.2642 -0.1753
 6198SOL    HW130248   0.201   6.469   7.946  1.8711 -1.8448 -0.5681
 6198SOL    HW230249   0.181   6.561   8.080 -1.4768  0.1731 -2.3851
 6199SOL     OW30250   2.326   8.821   0.548 -0.0518 -0.0645 -0.0020
 6199SOL    HW130251   2.334   8.772   0.635  0.2098 -1.7884 -0.9727
 6199SOL    HW230252   2.284   8.761   0.480  0.9950  0.7930 -1.4415
 6200SOL     OW30253   2.179   3.086   0.503 -0.1677 -0.5426  0.1851
 6200SOL    HW130254   2.127   3.026   0.563 -0.9169  1.4342  1.5356
 6200SOL    HW230255   2.277   3.075   0.522 -0.3471 -0.7321  1.0115
 6201SOL     OW30256   3.546   9.434   1.888 -0.3740 -0.1885 -0.1692
 6201SOL    HW130257   3.561   9.369   1.814  0.1550 -0.4197  0.1397
 6201SOL    HW230258   3.593   9.403   1.971 -1.2791 -0.1343  0.3730
 6202SOL     OW30259   2.890   3.349   1.206 -0.8467 -0.2436 -0.2965
 6202SOL    HW130260   2.861   3.398   1.287 -1.0894 -1.1824  0.1923
 6202SOL    HW230261   2.824   3.363   1.132  0.3134  2.1266 -0.9518
 6203SOL     OW30262   8.426   5.291   6.461  0.8458  0.0414 -0.6398
 6203SOL    HW130263   8.481   5.209   6.481 -1.5857 -1.6092 -0.4511
 6203SOL    HW230264   8.382   5.281   6.372 -1.4355  0.0045  0.4560
 6204SOL     OW30265   4.744   8.011   6.631  0.1076  0.9330 -0.1268
 6204SOL    HW130266   4.842   7.994   6.616 -0.1923 -0.0118 -1.0640
 6204SOL    HW230267   4.723   8.106   6.607  0.5692  0.7982 -1.0780
 6205SOL     OW30268   9.866   4.471   5.230  0.4334  0.1966 -0.3583
 6205SOL    HW130269   9.811   4.475   5.314  5.4071 -0.2588  3.0796
 6205SOL    HW230270   9.890   4.564   5.202  0.9236  0.2281  0.1791
 6206SOL     OW30271   1.484   4.049   7.469 -0.3352 -0.2017  0.4532
 6206SOL    HW130272   1.412   4.014   7.409 -0.2940  0.1470  0.2024
 6206SOL    HW230273   1.444   4.111   7.537 -0.4204 -0.7957  0.9508
 6207SOL     OW30274   0.994   8.186   3.446  0.3352  0.1435  0.2765
 6207SOL    HW130275   0.995   8.167   3.544  1.6557 -0.5283  0.1447
 6207SOL    HW230276   0.900   8.199   3.416 -0.2845 -1.8345  1.2325
 6208SOL     OW30277   1.199   1.564   2.315  0.1928  0.6505 -0.2531
 6208SOL    HW130278   1.269   1.494   2.332 -0.0517  0.6660  0.8937
 6208SOL    HW230279   1.121   1.522   2.269  0.6163  0.4595 -0.8008
 6209SOL     OW30280   5.152   8.853   2.896  0.1919  0.0886 -0.0558
 6209SOL    HW130281   5.220   8.894   2.836 -1.2381  0.6025 -1.3423
 6209SOL    HW230282   5.097   8.787   2.845 -2.2505  1.8852  0.2017
 6210SOL     OW30283   8.555   7.236   5.629 -0.8053  0.5487 -0.2159
 6210SOL    HW130284   8.528   7.140   5.633 -0.8974  0.5971  0.4300
 6210SOL    HW230285   8.624   7.249   5.557 -0.6897 -0.0249 -0.2089
 6211SOL     OW30286   7.556   6.289   6.510 -0.6794 -0.3046 -0.0756
 6211SOL    HW130287   7.500   6.235   6.448 -1.3671  0.3516 -0.0315
 6211SOL    HW230288   7.539   6.387   6.494 -2.1463 -0.1312  2.3001
 6212SOL     OW30289   4.305   7.954   5.497 -0.5113  0.5848 -0.2836
 6212SOL    HW130290   4.339   8.031   5.442  0.8599  0.9254  1.0004
 6212SOL    HW230291   4.214   7.976   5.533 -1.1515  0.6191 -1.8727
 6213SOL     OW30292   9.313   4.309   2.158  0.3212  0.0911  0.2014
 6213SOL    HW130293   9.239   4.267   2.106  1.1865 -1.0899 -0.0975
 6213SOL    HW230294   9.285   4.319   2.254 -0.2341 -0.3137  0.0847
 6214SOL     OW30295   9.102   9.990   1.543  0.1186 -0.3446 -0.1447
 6214SOL    HW130296   9.065   9.940   1.621  1.5894 -2.7940 -0.9560
 6214SOL    HW230297   9.123   9.925   1.469  2.0059  1.5003 -1.2781
 6215SOL     OW30298   4.413   4.509   3.415  0.0838  0.2806  0.4802
 6215SOL    HW130299   4.320   4.497   3.381  0.5264  1.0148 -1.0460
 6215SOL    HW230300   4.424   4.603   3.448  0.5545  0.4768 -0.2260
 6216SOL     OW30301   8.464   7.767   3.506  0.6530  0.0033 -0.2889
 6216SOL    HW130302   8.391   7.833   3.487  1.3844  0.7967 -0.3164
 6216SOL    HW230303   8.478   7.709   3.425  2.8306  2.4989 -1.7415
 6217SOL     OW30304   2.380   7.835   3.555 -0.6144 -0.4130  0.5623
 6217SOL    HW130305   2.449   7.882   3.610 -0.2584  0.3958 -0.5694
 6217SOL    HW230306   2.293   7.883   3.562 -0.0946  0.8144 -1.1032
 6218SOL     OW30307   3.976   0.066   0.150 -0.4616 -0.3302  0.2116
 6218SOL    HW130308   3.980  -0.021   0.100 -1.4752  0.3787 -1.1568
 6218SOL    HW230309   4.004   0.140   0.088  2.9374  0.0615  2.0989
 6219SOL     OW30310   2.161   2.044   6.539  0.6048  0.1786  0.2507
 6219SOL    HW130311   2.138   1.952   6.508 -0.3037  0.3796  0.3340
 6219SOL    HW230312   2.258   2.062   6.521  0.6559 -0.5969 -0.2437
 6220SOL     OW30313   7.364   5.963   5.778 -0.0574  0.2013 -0.2928
 6220SOL    HW130314   7.269   5.940   5.757  0.6872 -1.8649 -1.5871
 6220SOL    HW230315   7.393   5.915   5.862 -0.1667  0.8202  0.0955
 6221SOL     OW30316   8.740   2.117   1.255 -0.0373  0.3111 -0.2366
 6221SOL    HW130317   8.818   2.160   1.209 -0.6109  2.1654  0.4653
 6221SOL    HW230318   8.752   2.124   1.354 -1.0498  0.5096 -0.1251
 6222SOL     OW30319   3.006   1.598   2.354  0.6435 -0.0227  0.4673
 6222SOL    HW130320   3.087   1.539   2.357  0.5156 -0.2469 -0.5402
 6222SOL    HW230321   3.021   1.673   2.291  0.4488  0.5137  1.0537
 6223SOL     OW30322   6.750   7.970   6.819 -0.0803 -0.1387  1.1993
 6223SOL    HW130323   6.662   7.986   6.775 -0.8853 -2.1985  1.9898
 6223SOL    HW230324   6.765   8.038   6.891 -0.9819  0.2897  0.9815
 6224SOL     OW30325   4.775   1.302   1.538 -0.0948 -0.0180  0.4923
 6224SOL    HW130326   4.726   1.361   1.474  0.8042 -0.5742 -0.7176
 6224SOL    HW230327   4.817   1.359   1.609 -0.1567  0.6978 -0.0318
 6225SOL     OW30328   3.196   0.203   5.214  0.0529 -0.3456  0.0495
 6225SOL    HW130329   3.190   0.108   5.182  2.0144 -0.4937  0.0242
 6225SOL    HW230330   3.230   0.260   5.140  2.3381 -0.2696  1.1136
 6226SOL     OW30331   3.159   6.696   1.218 -0.1538  0.0817 -0.2816
 6226SOL    HW130332   3.088   6.722   1.152  0.4614  0.5703 -0.7632
 6226SOL    HW230333   3.234   6.652   1.170  0.2587  0.3545  0.1115
 6227SOL     OW30334   0.194   9.766   7.149 -0.2938 -0.3148  0.3248
 6227SOL    HW130335   0.194   9.675   7.106 -0.2145  0.5507 -1.5480
 6227SOL    HW230336   0.261   9.768   7.223  0.0559 -1.6424  0.0584
 6228SOL     OW30337   8.153   9.538   7.805  0.0619  0.0240  0.3611
 6228SOL    HW130338   8.199   9.618   7.766  1.6761 -1.5174 -0.9920
 6228SOL    HW230339   8.064   9.527   7.762  0.6493 -0.0275 -0.8494
 6229SOL     OW30340   8.693   4.986   8.038 -0.2222 -0.5213 -0.3958
 6229SOL    HW130341   8.762   5.038   8.087 -0.6420 -0.2707 -0.0753
 6229SOL    HW230342   8.703   4.889   8.060 -1.3198 -0.2607  1.2973
 6230SOL     OW30343   1.221   5.686   3.765 -0.3020 -0.0763  0.2109
 6230SOL    HW130344   1.288   5.758   3.782 -0.8040  0.2778  0.7240
 6230SOL    HW230345   1.155   5.716   3.696 -0.9816  0.2722  1.0005
 6231SOL     OW30346   3.207   9.119   4.145 -0.3564 -0.0265  0.2601
 6231SOL    HW130347   3.287   9.162   4.188 -0.8735 -0.0491  1.2496
 6231SOL    HW230348   3.219   9.119   4.046  0.1923  1.3323  0.3156
 6232SOL     OW30349   3.857   9.950   4.170 -0.3796  0.7287 -0.2320
 6232SOL    HW130350   3.924   9.959   4.096  0.2946  1.2532  0.4326
 6232SOL    HW230351   3.809  10.037   4.182 -0.6642  0.5694 -0.2268
 6233SOL     OW30352   9.976   0.727   7.471 -0.6429 -0.1004  0.0102
 6233SOL    HW130353   9.976   0.777   7.557 -0.9476 -0.3769  0.1703
 6233SOL    HW230354   9.913   0.771   7.407  0.9466  1.1814 -0.6978
 6234SOL     OW30355   9.640   7.300   4.153  0.0188 -0.1907 -0.1747
 6234SOL    HW130356   9.544   7.313   4.127  0.2891  0.6137 -0.8268
 6234SOL    HW230357   9.674   7.384   4.195  0.6918 -0.1368 -0.8101
 6235SOL     OW30358   6.523   2.025   0.380  0.0136 -0.4182  0.1216
 6235SOL    HW130359   6.480   1.962   0.444 -0.2343  0.6807  1.0672
 6235SOL    HW230360   6.521   1.987   0.288 -0.1164 -1.7818  0.6810
 6236SOL     OW30361   5.604   1.323   4.946  0.0608  0.2697 -0.5294
 6236SOL    HW130362   5.535   1.311   5.017  1.6262 -0.5618  0.8854
 6236SOL    HW230363   5.571   1.282   4.861 -0.3797 -1.9707  0.6682
 6237SOL     OW30364   1.754   1.221   3.464 -0.0710  0.0643  0.4239
 6237SOL    HW130365   1.695   1.142   3.481 -2.5985  1.9184  0.3746
 6237SOL    HW230366   1.728   1.265   3.378 -0.0143  2.1346  1.4331
 6238SOL     OW30367   4.497   6.807   2.939 -0.2152  0.0749  0.6250
 6238SOL    HW130368   4.486   6.891   2.992  0.3380  1.4959 -1.4320
 6238SOL    HW230369   4.590   6.771   2.952  0.2416  0.9657 -0.1372
 6239SOL     OW30370   9.408   0.745   2.165 -0.6810 -0.3479 -0.7133
 6239SOL    HW130371   9.388   0.649   2.143  0.1727 -0.3066 -1.6915
 6239SOL    HW230372   9.345   0.804   2.116 -0.5868 -0.3730 -0.8662
 6240SOL     OW30373   9.230   2.080   7.064  0.1623  0.3468  0.1896
 6240SOL    HW130374   9.209   1.995   7.113  0.2437 -0.0522 -0.4726
 6240SOL    HW230375   9.181   2.156   7.107 -0.0117 -0.0535  0.7022
 6241SOL     OW30376   8.718   9.461   7.018  1.2212  0.6939 -0.6020
 6241SOL    HW130377   8.639   9.520   7.001  1.0289  0.9925  1.2083
 6241SOL    HW230378   8.690   9.365   7.010  1.6386  0.7862 -3.9932
 6242SOL     OW30379   7.316   1.032   1.004  0.3097 -0.5420 -0.0145
 6242SOL    HW130380   7.351   1.125   0.993 -0.4148 -0.0717  1.5101
 6242SOL    HW230381   7.246   1.031   1.075  0.8355 -2.3919  0.5051
 6243SOL     OW30382   6.940   1.332   3.804  0.2414  0.1408  0.0298
 6243SOL    HW130383   6.914   1.336   3.708 -0.1378 -0.6768  0.0965
 6243SOL    HW230384   6.873   1.278   3.855  0.6339  0.2658  0.6827
 6244SOL     OW30385   2.125   5.831   2.864 -0.3397  0.1030  0.1435
 6244SOL    HW130386   2.077   5.848   2.950  0.3263 -1.0442  0.7413
 6244SOL    HW230387   2.174   5.914   2.837 -0.9939  0.6385  0.5825
 6245SOL     OW30388   3.664   0.439   2.473  0.1136 -0.7083 -0.2715
 6245SOL    HW130389   3.573   0.416   2.438 -0.5079 -0.8598  1.3783
 6245SOL    HW230390   3.709   0.356   2.506 -0.2982 -0.2466  1.5058
 6246SOL     OW30391   0.025   6.759   2.613 -0.3555  0.1913 -0.0371
 6246SOL    HW130392   0.016   6.803   2.524  0.3801  0.9669  0.2612
 6246SOL    HW230393   0.083   6.678   2.605  0.0005  0.4621 -0.2040
 6247SOL     OW30394   3.084   3.550   3.034 -0.0978  0.0635  0.2296
 6247SOL    HW130395   3.045   3.462   3.008 -0.6113  0.3331  0.0753
 6247SOL    HW230396   3.121   3.596   2.954 -1.0560  0.5862  0.0735
 6248SOL     OW30397   0.377   8.647   7.560  0.1932  0.1734  0.2112
 6248SOL    HW130398   0.423   8.704   7.628 -1.2618  0.4422  0.9805
 6248SOL    HW230399   0.286   8.622   7.593 -0.7283  0.7216 -1.8513
 6249SOL     OW30400   4.572   3.759   0.784  0.5835  0.2564 -0.2201
 6249SOL    HW130401   4.575   3.781   0.687  2.1502 -0.3862 -0.3270
 6249SOL    HW230402   4.621   3.674   0.801 -3.0309 -1.7774  0.5871
 6250SOL     OW30403   0.348   1.847   1.731  0.1488  0.4291  0.4968
 6250SOL    HW130404   0.357   1.756   1.691 -0.5445  1.3367 -1.8198
 6250SOL    HW230405   0.399   1.913   1.677 -1.9168  1.9155  0.2850
 6251SOL     OW30406   2.775   1.649   5.394 -0.7592  0.0268 -0.2484
 6251SOL    HW130407   2.824   1.573   5.353  0.1712  0.6939 -0.3962
 6251SOL    HW230408   2.684   1.657   5.353 -0.5210 -0.4477 -0.8662
 6252SOL     OW30409   4.600   9.557   2.160  0.0898  0.4580  0.0528
 6252SOL    HW130410   4.621   9.607   2.244  1.5728  0.5508 -0.3596
 6252SOL    HW230411   4.617   9.460   2.174 -0.8098  0.3225  0.2212
 6253SOL     OW30412   3.520   4.267   4.259  0.0774 -0.4411 -0.2886
 6253SOL    HW130413   3.599   4.269   4.320  0.4398 -0.9888 -0.7359
 6253SOL    HW230414   3.533   4.333   4.185 -0.3528  0.2082  0.1991
 6254SOL     OW30415   9.156   5.396   5.592  0.2427 -0.4666  0.3109
 6254SOL    HW130416   9.248   5.372   5.624  2.1027  1.6215 -3.1050
 6254SOL    HW230417   9.131   5.336   5.516 -1.5070 -1.3729  1.5659
 6255SOL     OW30418   2.120   8.725   5.949 -0.0983 -0.0398 -0.0696
 6255SOL    HW130419   2.059   8.797   5.917  0.5639  0.7280  0.3982
 6255SOL    HW230420   2.072   8.669   6.017 -0.7415 -0.2879 -0.7223
 6256SOL     OW30421   2.687   6.469   0.289 -0.8948  0.8212 -0.2868
 6256SOL    HW130422   2.665   6.507   0.379 -3.2811 -0.2145 -0.3922
 6256SOL    HW230423   2.748   6.391   0.301 -2.5709 -0.3931  0.6224
 6257SOL     OW30424   9.168   7.228   7.099 -0.3754  0.2836 -0.5228
 6257SOL    HW130425   9.117   7.262   7.019  0.0133  0.7341 -0.5829
 6257SOL    HW230426   9.263   7.259   7.093 -0.4764  0.7850  0.3882
 6258SOL     OW30427   3.408   5.024   0.752  0.1549 -0.4531  0.4264
 6258SOL    HW130428   3.328   5.081   0.772  1.0701 -0.0631  3.1727
 6258SOL    HW230429   3.395   4.933   0.791  1.0198 -0.4225  0.7895
 6259SOL     OW30430   6.941   2.897   2.526  0.1350 -1.0859  0.3127
 6259SOL    HW130431   6.936   2.798   2.511  0.7335 -1.2648  1.2330
 6259SOL    HW230432   7.037   2.925   2.524  0.0353 -0.6989  1.1568
 6260SOL     OW30433   8.303   4.843   4.496 -0.2160 -0.1990 -0.2932
 6260SOL    HW130434   8.283   4.804   4.586 -0.8633 -3.9275 -1.9565
 6260SOL    HW230435   8.379   4.793   4.454  0.5890  2.0031 -1.5123
 6261SOL     OW30436   8.379   0.733   7.092 -0.0909 -0.3715  0.1926
 6261SOL    HW130437   8.388   0.669   7.169 -1.8791 -0.5562  0.2626
 6261SOL    HW230438   8.387   0.682   7.006 -1.7469 -0.7263  0.2474
 6262SOL     OW30439   9.541   8.061   4.055 -0.5781 -0.5725 -0.3547
 6262SOL    HW130440   9.583   8.009   4.129  0.2711  0.1364 -0.3302
 6262SOL    HW230441   9.497   8.144   4.092  1.8200  0.9754 -0.8862
 6263SOL     OW30442   5.334   4.408   7.794  0.5500  0.2653 -0.0319
 6263SOL    HW130443   5.342   4.503   7.823  1.1098  0.5270 -1.0374
 6263SOL    HW230444   5.273   4.402   7.716  1.0866 -0.1126 -0.4248
 6264SOL     OW30445   7.684   6.498   6.952  0.0063  0.3869  0.6261
 6264SOL    HW130446   7.717   6.408   6.922 -2.6102 -0.1552 -0.8546
 6264SOL    HW230447   7.685   6.502   7.052 -0.6470 -1.6650  0.7617
 6265SOL     OW30448   2.636   3.807   1.481  0.0300 -0.0685  0.0028
 6265SOL    HW130449   2.613   3.728   1.538 -1.4993 -0.0079 -0.5208
 6265SOL    HW230450   2.613   3.891   1.529  0.3589  0.0309 -0.0093
 6266SOL     OW30451   2.607   6.232   5.932 -0.9068  0.3000 -0.1555
 6266SOL    HW130452   2.559   6.302   5.880 -0.8921  0.3032 -0.1654
 6266SOL    HW230453   2.690   6.271   5.972 -0.9161  0.2968 -0.1330
 6267SOL     OW30454   9.167   9.258   0.400  0.1677  0.2286  0.4879
 6267SOL    HW130455   9.201   9.276   0.493  0.4914 -0.3081  0.4759
 6267SOL    HW230456   9.105   9.180   0.402  0.3016  0.1144  0.2278
 6268SOL     OW30457   0.085   4.600   6.735  0.0282 -0.0260 -0.6740
 6268SOL    HW130458   0.102   4.578   6.831 -2.3418  0.4731 -0.1149
 6268SOL    HW230459   0.160   4.564   6.679  0.0107 -2.9370  1.0377
 6269SOL     OW30460   0.915   6.702   4.953 -0.2880  0.5275 -0.3979
 6269SOL    HW130461   0.830   6.676   5.000  0.1648 -1.0874 -0.4553
 6269SOL    HW230462   0.901   6.790   4.907 -2.6440 -0.7446 -2.2322
 6270SOL     OW30463   9.400   0.749   3.631 -0.2706 -0.0460  0.4694
 6270SOL    HW130464   9.366   0.656   3.645 -1.5595  0.3379 -0.0407
 6270SOL    HW230465   9.496   0.746   3.603  0.0203 -1.1652  1.5650
 6271SOL     OW30466   8.487   6.243   2.553  0.0795 -0.1192  0.2387
 6271SOL    HW130467   8.449   6.151   2.541  1.6871 -0.7390 -0.1717
 6271SOL    HW230468   8.412   6.310   2.552 -0.8062 -1.0710 -3.2186
 6272SOL     OW30469   8.102   1.251   5.906 -0.1186 -0.3230 -0.5574
 6272SOL    HW130470   8.100   1.344   5.944 -0.5785  0.2325 -1.9149
 6272SOL    HW230471   8.098   1.185   5.981 -3.8489  0.7296  0.2790
 6273SOL     OW30472   4.741   8.435   1.722 -0.6392  0.3014 -0.3591
 6273SOL    HW130473   4.753   8.525   1.765 -0.5043  0.4287 -0.6667
 6273SOL    HW230474   4.741   8.445   1.623 -0.7509 -0.0245 -0.3929
 6274SOL     OW30475   1.323   0.278   6.051 -0.1177  0.0319 -0.6335
 6274SOL    HW130476   1.260   0.209   6.017  1.3087 -1.2011 -0.8051
 6274SOL    HW230477   1.382   0.311   5.977 -1.1370  1.8328 -0.6727
 6275SOL     OW30478   7.953   5.975   7.587  0.2723  0.1567  0.0390
 6275SOL    HW130479   8.048   6.007   7.581  0.4151 -0.3206 -0.3413
 6275SOL    HW230480   7.949   5.893   7.643  0.1978 -0.2414 -0.5400
 6276SOL     OW30481   0.403   3.678   0.496  0.1710  0.1195 -0.5869
 6276SOL    HW130482   0.394   3.581   0.473 -2.1672 -0.5055  2.6106
 6276SOL    HW230483   0.484   3.692   0.553 -0.2122 -0.1646  0.0263
 6277SOL     OW30484   0.957   2.654   7.377  0.0585 -0.0850  0.0569
 6277SOL    HW130485   0.860   2.637   7.396 -0.2309  1.5352  0.1691
 6277SOL    HW230486   0.993   2.583   7.317 -0.3112 -2.5782  2.6941
 6278SOL     OW30487   4.773   9.958   0.036  0.8114  0.5523 -0.4369
 6278SOL    HW130488   4.707   9.966  -0.038 -0.2690 -0.5857  0.3830
 6278SOL    HW230489   4.734   9.995   0.120  0.6192 -1.4323  0.3903
 6279SOL     OW30490   1.495   3.095   4.294  0.1388 -0.0839  0.3640
 6279SOL    HW130491   1.574   3.141   4.333 -0.8163  0.1982  2.0354
 6279SOL    HW230492   1.525   3.025   4.230  1.7761 -0.5871  1.6364
 6280SOL     OW30493   9.914   8.890   6.452 -0.2767  0.4025 -0.1586
 6280SOL    HW130494   9.889   8.840   6.535 -0.3101  1.8892  0.7585
 6280SOL    HW230495  10.013   8.891   6.442 -0.2715  0.2330 -0.1287
 6281SOL     OW30496   1.353   6.744   1.783  0.8438 -0.1979 -0.7629
 6281SOL    HW130497   1.271   6.797   1.762  1.4323  1.0247 -0.0158
 6281SOL    HW230498   1.354   6.723   1.880  1.6597  0.2150 -0.6800
 6282SOL     OW30499   5.638   8.067   5.979 -0.2613  1.0475  0.1488
 6282SOL    HW130500   5.678   8.133   6.043 -0.1384  0.0444  1.1321
 6282SOL    HW230501   5.544   8.049   6.006 -0.0507  0.2395  0.3575
 6283SOL     OW30502   3.615   9.201   2.307 -0.4247  0.3445 -0.3335
 6283SOL    HW130503   3.706   9.159   2.310 -0.1680  0.9844  1.4857
 6283SOL    HW230504   3.547   9.132   2.286  0.0835 -0.8660  1.8649
 6284SOL     OW30505   1.323   7.603   2.388  0.6984  0.2963 -0.1534
 6284SOL    HW130506   1.376   7.587   2.471 -0.0273  0.2104  0.2957
 6284SOL    HW230507   1.226   7.595   2.408  0.5713 -2.4399 -1.5636
 6285SOL     OW30508   0.722   9.138   5.750 -0.1639 -0.1245 -0.5830
 6285SOL    HW130509   0.781   9.202   5.701 -0.4049  0.5512  0.0053
 6285SOL    HW230510   0.651   9.188   5.800  0.0709 -0.7870  0.4517
 6286SOL     OW30511   6.859   9.808   3.969 -0.4194 -0.6066 -0.2075
 6286SOL    HW130512   6.847   9.749   3.889 -0.3262 -1.6713  0.5533
 6286SOL    HW230513   6.948   9.790   4.011 -0.7488 -0.5373  0.5277
 6287SOL     OW30514   1.430   5.174   1.946 -0.2732 -0.0795 -0.0659
 6287SOL    HW130515   1.349   5.149   2.000  0.3843 -0.5304  0.7292
 6287SOL    HW230516   1.403   5.235   1.872 -1.3671 -0.3398  0.1040
 6288SOL     OW30517   9.538   2.845   4.598  0.7942  0.3993 -0.1028
 6288SOL    HW130518   9.588   2.821   4.681  0.0740 -1.8632 -0.2881
 6288SOL    HW230519   9.602   2.855   4.522  1.2685  0.6162  0.3196
 6289SOL     OW30520   4.396   1.216   2.924  0.2270 -0.1621 -0.1468
 6289SOL    HW130521   4.302   1.195   2.953 -0.8102  1.9996 -1.7732
 6289SOL    HW230522   4.430   1.293   2.978  0.4674  0.0835 -0.6464
 6290SOL     OW30523   7.558   5.665   6.770  0.4083 -0.4010 -0.4342
 6290SOL    HW130524   7.611   5.580   6.777 -0.8133 -1.0447  1.5355
 6290SOL    HW230525   7.614   5.742   6.800  0.9278 -0.7676 -0.4528
 6291SOL     OW30526   0.515   1.793   5.361  0.5680 -0.1421 -0.4574
 6291SOL    HW130527   0.509   1.878   5.309 -1.9222 -0.5519 -0.9025
 6291SOL    HW230528   0.495   1.811   5.457 -0.0111 -0.2065 -0.5603
 6292SOL     OW30529   8.865   6.319   7.478  0.2667  0.5394 -0.0029
 6292SOL    HW130530   8.927   6.397   7.478 -2.7444  3.0557 -1.4308
 6292SOL    HW230531   8.883   6.262   7.397  0.2140  1.7003 -0.8469
 6293SOL     OW30532   7.151   8.557   2.797  0.0762  0.4833 -0.2998
 6293SOL    HW130533   7.194   8.556   2.888  0.5678  1.0284 -0.5273
 6293SOL    HW230534   7.130   8.463   2.769  0.2574  0.2875  0.2141
 6294SOL     OW30535   9.930   3.984   6.228  0.1077 -0.2235 -0.1789
 6294SOL    HW130536   9.969   3.897   6.256 -1.0023  0.5527  4.0188
 6294SOL    HW230537   9.864   3.968   6.154 -0.7322 -3.0628  1.1001
 6295SOL     OW30538   8.951   3.932   2.402 -0.3009  0.1434 -0.1809
 6295SOL    HW130539   8.899   3.988   2.468  1.2020  0.7942  0.4692
 6295SOL    HW230540   9.040   3.909   2.441 -1.0655 -3.1967 -0.2111
 6296SOL     OW30541   3.922   4.664   7.241  0.5562 -0.0504 -0.7606
 6296SOL    HW130542   3.915   4.715   7.326  3.5607  2.8674 -2.1600
 6296SOL    HW230543   3.961   4.574   7.259 -1.3466 -0.4883  1.2640
 6297SOL     OW30544   7.054   2.021   3.276  0.4478  0.2460 -0.2423
 6297SOL    HW130545   7.087   2.075   3.353  1.2171 -0.4950 -0.0430
 6297SOL    HW230546   7.128   2.009   3.209  0.5144 -1.1737  0.0643
 6298SOL     OW30547   8.187   9.745   6.197  0.1202  0.1044  0.4530
 6298SOL    HW130548   8.135   9.830   6.203 -0.8374 -0.5190  1.0563
 6298SOL    HW230549   8.126   9.667   6.207  1.3527 -0.6180  2.7229
 6299SOL     OW30550   3.201   9.527   0.609  0.1863  0.2112  0.2560
 6299SOL    HW130551   3.118   9.480   0.578  0.5767 -0.7053  0.5843
 6299SOL    HW230552   3.275   9.460   0.619 -0.2176  0.2979  4.2868
 6300SOL     OW30553   1.171   0.639   5.648 -0.0547  0.4797 -0.0011
 6300SOL    HW130554   1.169   0.731   5.684 -0.7608 -0.0810  1.3969
 6300SOL    HW230555   1.128   0.637   5.557 -0.8956  1.3336  0.3781
 6301SOL     OW30556   0.752   0.597   4.234  0.0948  0.5560  0.0236
 6301SOL    HW130557   0.737   0.689   4.269  1.0546  0.8138 -0.2442
 6301SOL    HW230558   0.837   0.560   4.271  0.9120  0.6800 -1.7074
 6302SOL     OW30559   2.527   2.478   1.954  0.1992 -0.0909 -0.3500
 6302SOL    HW130560   2.611   2.522   1.921 -0.1467  0.4912 -0.4533
 6302SOL    HW230561   2.469   2.546   1.998  0.0629 -0.6142  0.2907
 6303SOL     OW30562   9.664   4.601   4.878 -0.7599  0.1865  0.0200
 6303SOL    HW130563   9.735   4.655   4.832 -0.0664  0.8438  1.8156
 6303SOL    HW230564   9.684   4.504   4.866 -0.6167  0.3413 -1.0941
 6304SOL     OW30565   2.523   6.377   1.941 -0.2234  0.1317  0.1811
 6304SOL    HW130566   2.480   6.455   1.988  0.8719  0.0521  1.3600
 6304SOL    HW230567   2.543   6.305   2.008  3.0125  0.7439 -0.0758
 6305SOL     OW30568   3.680   8.048   8.033 -0.6200 -0.1790  0.5190
 6305SOL    HW130569   3.754   8.049   7.965  0.9598  1.2590  2.2012
 6305SOL    HW230570   3.711   7.999   8.115 -2.5347 -1.9705  0.2057
 6306SOL     OW30571   9.379   2.365   2.883 -0.3415  0.0220  0.2576
 6306SOL    HW130572   9.450   2.295   2.875  0.2051  0.3928  1.6939
 6306SOL    HW230573   9.345   2.388   2.792  1.9559  0.4138 -0.5332
 6307SOL     OW30574   1.541   2.924   1.648 -0.4862 -0.7992 -0.1782
 6307SOL    HW130575   1.553   2.899   1.745 -3.1216 -0.9502  0.1375
 6307SOL    HW230576   1.508   2.844   1.598  2.4684 -1.2152 -1.6038
 6308SOL     OW30577   7.368   1.799   3.975 -0.3786 -0.4020 -0.2123
 6308SOL    HW130578   7.445   1.752   3.931  1.3857  1.3785  0.8874
 6308SOL    HW230579   7.317   1.733   4.031 -0.9114 -2.0394 -2.5451
 6309SOL     OW30580   4.009   1.111   6.619  0.0182 -0.1397  0.2579
 6309SOL    HW130581   4.096   1.135   6.575 -0.5464 -0.2977 -0.9498
 6309SOL    HW230582   3.971   1.030   6.575 -0.9958  0.2290  0.4556
 6310SOL     OW30583   0.839   5.187   2.376 -0.1765 -0.0090  0.5777
 6310SOL    HW130584   0.910   5.235   2.325 -1.1989  1.1106  0.2020
 6310SOL    HW230585   0.882   5.123   2.440  1.1254 -0.7200 -0.9883
 6311SOL     OW30586   6.085   4.563   1.148 -0.0088  0.4231 -0.5822
 6311SOL    HW130587   5.996   4.521   1.132 -0.0875  0.2833  0.1936
 6311SOL    HW230588   6.074   4.648   1.199  0.2522  0.7585 -1.0750
 6312SOL     OW30589   0.345   0.625   4.209 -0.6064 -0.2073  0.7271
 6312SOL    HW130590   0.422   0.568   4.237 -1.3238 -0.8219  1.5190
 6312SOL    HW230591   0.262   0.568   4.206 -1.8261  1.2546  3.8926
 6313SOL     OW30592   2.173   6.609   2.297  0.0838 -0.9318  0.3024
 6313SOL    HW130593   2.273   6.608   2.291 -0.0073 -0.7336 -1.4040
 6313SOL    HW230594   2.137   6.519   2.274 -0.1886 -0.6839 -0.2486
 6314SOL     OW30595   8.846   1.931   6.070  0.6291  0.6588  0.1627
 6314SOL    HW130596   8.777   1.967   6.007  2.6683  1.0825 -1.8647
 6314SOL    HW230597   8.855   1.994   6.148 -0.1169  1.4213 -0.3613
 6315SOL     OW30598   8.657   7.694   0.650  1.1903 -0.2514  0.2244
 6315SOL    HW130599   8.689   7.788   0.643  0.9165 -0.3010 -1.9471
 6315SOL    HW230600   8.707   7.636   0.585 -1.5804 -0.7702 -1.5347
 6316SOL     OW30601   3.121   6.862   3.810 -0.3542  0.0281  0.5438
 6316SOL    HW130602   3.131   6.956   3.777 -3.4391  1.2956  2.9082
 6316SOL    HW230603   3.200   6.838   3.866  1.3551  0.4770 -1.5768
 6317SOL     OW30604   6.800   7.694   6.755  0.1159 -0.1476  0.0731
 6317SOL    HW130605   6.785   7.786   6.793  0.5949 -0.8419  1.9904
 6317SOL    HW230606   6.831   7.633   6.827  0.9090 -1.5601 -1.4381
 6318SOL     OW30607   5.960   0.932   2.698 -0.0152  0.6770 -0.2788
 6318SOL    HW130608   5.864   0.934   2.727  0.2316  1.0819  0.5485
 6318SOL    HW230609   6.019   0.926   2.779  0.7271  2.3844 -0.6590
 6319SOL     OW30610   9.358   3.095   2.186  0.7744 -0.6779 -0.4488
 6319SOL    HW130611   9.410   3.180   2.193  2.7715 -1.8079 -1.1973
 6319SOL    HW230612   9.320   3.072   2.275  0.8423  0.6034 -0.0770
 6320SOL     OW30613   4.403   8.424   7.283  0.2042  0.6663 -0.1608
 6320SOL    HW130614   4.426   8.405   7.378  2.1453  2.6080 -0.2095
 6320SOL    HW230615   4.371   8.518   7.275 -1.5011  0.0245 -1.1880
 6321SOL     OW30616   3.935   5.212   1.372  0.0732  0.0337  0.1804
 6321SOL    HW130617   4.017   5.260   1.343 -1.2101  0.9785 -2.0261
 6321SOL    HW230618   3.933   5.207   1.472  1.9207  1.5582  0.3301
 6322SOL     OW30619   0.816   7.329   7.473  0.2259  0.4085 -0.9354
 6322SOL    HW130620   0.901   7.379   7.489  0.3416  0.0173 -0.3074
 6322SOL    HW230621   0.752   7.349   7.547  0.3505 -0.5285 -0.5650
 6323SOL     OW30622   0.975   9.265   0.892  0.3126 -0.6613  0.4152
 6323SOL    HW130623   0.958   9.238   0.798  0.0295  0.4559  0.1351
 6323SOL    HW230624   1.010   9.358   0.894 -0.6506 -0.3055  1.4757
 6324SOL     OW30625   1.196   5.817   2.098  0.1472 -0.3169 -0.1313
 6324SOL    HW130626   1.293   5.829   2.076  0.6167 -1.5277  1.2028
 6324SOL    HW230627   1.148   5.777   2.020  0.7070  0.2876 -0.7939
 6325SOL     OW30628   6.776   2.470   2.689 -0.0317  0.0170 -0.2543
 6325SOL    HW130629   6.775   2.518   2.777 -0.7014 -1.0039  0.3063
 6325SOL    HW230630   6.696   2.411   2.683 -0.5991  0.9497 -2.0484
 6326SOL     OW30631   7.159   0.215   1.576 -0.2563 -0.0536  0.2539
 6326SOL    HW130632   7.084   0.227   1.510 -1.4541 -0.4497  1.5103
 6326SOL    HW230633   7.153   0.287   1.646 -0.9069 -1.4767  1.6864
 6327SOL     OW30634   7.784   7.746   0.050 -0.6223  0.0678  0.6450
 6327SOL    HW130635   7.770   7.649   0.068  1.9988 -0.2956  0.8892
 6327SOL    HW230636   7.761   7.798   0.132 -0.0971 -0.5379  1.1832
 6328SOL     OW30637   4.627   8.427   4.690  0.9058 -0.6564  0.5825
 6328SOL    HW130638   4.710   8.389   4.649  1.7615  0.8234  0.8971
 6328SOL    HW230639   4.547   8.389   4.644  1.7708 -1.8146  0.0174
 6329SOL     OW30640   9.424   8.520   4.987 -0.0151  0.0033 -0.1368
 6329SOL    HW130641   9.338   8.515   4.935  0.9000 -1.0133 -1.5920
 6329SOL    HW230642   9.439   8.613   5.018 -2.2123 -0.0319  1.1117
 6330SOL     OW30643   9.555   9.601   7.183  0.3421  0.2370  0.1928
 6330SOL    HW130644   9.646   9.562   7.190 -0.1901 -0.7250  1.9955
 6330SOL    HW230645   9.560   9.700   7.201  1.1756  0.3921 -0.8509
 6331SOL     OW30646   3.144   4.747   3.088  0.0626  0.0600  0.4224
 6331SOL    HW130647   3.151   4.648   3.076 -0.8393 -0.0237  0.5729
 6331SOL    HW230648   3.135   4.767   3.185 -1.0983  0.2067  0.2859
 6332SOL     OW30649   9.560   1.177   3.263 -0.6051 -0.2524  0.2177
 6332SOL    HW130650   9.520   1.260   3.224  1.0416  0.2175 -0.5166
 6332SOL    HW230651   9.660   1.186   3.264 -0.4642 -1.8333  1.0323
 6333SOL     OW30652   8.713   4.089   4.748  0.0353 -0.0167  0.2079
 6333SOL    HW130653   8.742   4.012   4.806 -0.6019 -1.2990 -1.1328
 6333SOL    HW230654   8.614   4.097   4.752 -0.0798 -0.5904 -1.2680
 6334SOL     OW30655   3.459   1.351   0.750  0.2296  0.1443  0.1632
 6334SOL    HW130656   3.433   1.293   0.827 -0.0048 -1.6520 -1.2308
 6334SOL    HW230657   3.402   1.434   0.750 -1.0256 -0.6944  0.8716
 6335SOL     OW30658   4.492   8.416   4.357  0.3622 -0.5122  0.2273
 6335SOL    HW130659   4.584   8.438   4.324  0.4380 -0.6544  0.3420
 6335SOL    HW230660   4.451   8.347   4.297  0.0561  0.0599 -0.2306
 6336SOL     OW30661   9.095   0.493   1.049  0.0573  0.3986  0.0354
 6336SOL    HW130662   9.186   0.491   1.006  0.7964  1.0163  1.5336
 6336SOL    HW230663   9.037   0.422   1.008  0.8609  0.7061 -1.6891
 6337SOL     OW30664   0.354   5.043   0.420  0.3147 -0.5046  0.3162
 6337SOL    HW130665   0.409   5.126   0.434  0.7970 -1.0374  1.6807
 6337SOL    HW230666   0.413   4.963   0.424 -0.4285 -1.0329  0.8752
 6338SOL     OW30667   0.247   7.239   6.742  0.0162  0.1420  0.3229
 6338SOL    HW130668   0.185   7.165   6.770 -1.9049  1.3090 -0.6972
 6338SOL    HW230669   0.207   7.288   6.665  1.2030  2.3131  1.0313
 6339SOL     OW30670   1.909   5.422   2.876 -0.0758 -0.1754 -0.2958
 6339SOL    HW130671   1.925   5.333   2.920  1.3613 -0.2101 -0.8445
 6339SOL    HW230672   1.944   5.420   2.783 -0.4429  0.8307 -0.4621
 6340SOL     OW30673   9.463   5.678   5.113  0.2625 -0.0414 -0.2654
 6340SOL    HW130674   9.511   5.761   5.143 -3.0930  1.1524  2.1969
 6340SOL    HW230675   9.526   5.619   5.062  3.7146  2.3388  1.0400
 6341SOL     OW30676   7.776   4.468   2.215 -0.3444 -0.1938 -0.5765
 6341SOL    HW130677   7.786   4.522   2.298 -1.4261  0.0093 -0.5717
 6341SOL    HW230678   7.756   4.373   2.239 -0.9337 -0.0779 -0.6051
 6342SOL     OW30679   2.905   6.670   5.112  0.5955  0.0972  0.3653
 6342SOL    HW130680   2.834   6.739   5.097 -0.5761 -0.8324  1.5036
 6342SOL    HW230681   2.907   6.606   5.036  0.8771  0.6930 -0.1301
 6343SOL     OW30682   8.804   9.956   7.779 -0.4932  0.1749 -0.2473
 6343SOL    HW130683   8.767   9.863   7.783  0.2501 -0.0939  0.4386
 6343SOL    HW230684   8.731  10.020   7.753 -1.1763 -0.4927  0.0154
 6344SOL     OW30685   8.604   9.608   2.962 -0.2460  0.0006 -0.1176
 6344SOL    HW130686   8.558   9.638   2.878  0.0455 -0.4818 -0.4505
 6344SOL    HW230687   8.677   9.673   2.985  0.2623 -0.3530 -0.7342
 6345SOL     OW30688   2.707   3.399   4.191 -0.0146  0.0054 -1.0601
 6345SOL    HW130689   2.744   3.491   4.182 -0.8263  0.3172 -1.2519
 6345SOL    HW230690   2.771   3.333   4.150  0.5661  0.4760 -0.9237
 6346SOL     OW30691   4.021   2.949   6.811  0.1625  0.2053 -0.3500
 6346SOL    HW130692   4.103   2.977   6.760  0.1757  0.2288 -0.3164
 6346SOL    HW230693   4.045   2.934   6.907  0.6025 -1.8985 -0.7558
 6347SOL     OW30694   3.986   9.376   5.847  0.1038 -0.2919  0.6839
 6347SOL    HW130695   3.900   9.354   5.893  0.0574 -0.0953  0.6924
 6347SOL    HW230696   4.006   9.474   5.857 -1.1623  0.2766 -1.8107
 6348SOL     OW30697   4.400   5.642   3.668  0.0421 -0.1468  0.7190
 6348SOL    HW130698   4.441   5.710   3.607  1.4556 -0.6049  1.1301
 6348SOL    HW230699   4.384   5.557   3.617 -1.5618  0.4298  0.2491
 6349SOL     OW30700   8.390   6.177   7.152 -0.5168  0.4624 -0.0695
 6349SOL    HW130701   8.369   6.252   7.090  0.7930  1.2906  0.4703
 6349SOL    HW230702   8.477   6.136   7.127 -0.4114  0.2178  0.6807
 6350SOL     OW30703   0.936   4.258   3.662 -0.0289 -0.7329 -0.1556
 6350SOL    HW130704   0.896   4.171   3.691 -1.5293  0.1027  0.3546
 6350SOL    HW230705   0.863   4.321   3.635  1.0469  0.3083 -0.6966
 6351SOL     OW30706   3.047   1.996   7.097 -0.4739  0.5498  0.1637
 6351SOL    HW130707   2.961   1.949   7.117 -0.5725  1.0572  0.9714
 6351SOL    HW230708   3.070   2.057   7.173  1.4308 -0.8032  0.7107
 6352SOL     OW30709   0.668   8.372   6.354  0.2555 -0.6438 -0.0453
 6352SOL    HW130710   0.701   8.356   6.261 -1.6860  0.5733 -0.9585
 6352SOL    HW230711   0.731   8.433   6.402  1.4976 -1.6345 -0.3722
 6353SOL     OW30712   4.612   0.450   7.662 -0.2287 -0.5336  0.4456
 6353SOL    HW130713   4.641   0.357   7.685  0.0036 -0.4874  0.3359
 6353SOL    HW230714   4.678   0.492   7.600  0.1892  0.0537  1.2587
 6354SOL     OW30715   1.371   4.731   2.517 -0.4370  0.1489 -0.2823
 6354SOL    HW130716   1.470   4.727   2.533 -0.5185 -2.5072 -0.1263
 6354SOL    HW230717   1.353   4.778   2.431  0.9102  1.3490  0.0711
 6355SOL     OW30718   9.354   9.195   7.612 -0.1516 -0.3837  0.1344
 6355SOL    HW130719   9.416   9.263   7.651 -0.1109  0.5035 -1.4304
 6355SOL    HW230720   9.336   9.218   7.516 -0.9678 -2.0009 -0.1088
 6356SOL     OW30721   9.891   1.951   7.578  0.0863 -0.3851  0.1179
 6356SOL    HW130722   9.863   1.865   7.536 -0.9369  0.2489 -0.5395
 6356SOL    HW230723   9.863   1.953   7.674  2.1820 -1.7227  0.7887
 6357SOL     OW30724   7.394   7.449   5.531 -0.3419 -0.0606 -0.2597
 6357SOL    HW130725   7.350   7.420   5.616  1.1164 -1.1547  0.1485
 6357SOL    HW230726   7.469   7.386   5.509 -0.6543  0.2404 -2.3245
 6358SOL     OW30727   7.061   3.659   0.919  0.7558  0.1005 -0.1194
 6358SOL    HW130728   7.149   3.706   0.911  0.3946  0.6157 -1.2573
 6358SOL    HW230729   7.017   3.655   0.829 -0.1302 -0.6510  0.3321
 6359SOL     OW30730   2.910   5.895   1.786  0.2464  0.1081  0.2453
 6359SOL    HW130731   2.899   5.799   1.814  0.7418  0.3201  1.2034
 6359SOL    HW230732   2.944   5.948   1.864  1.1346  0.8311 -0.6255
 6360SOL     OW30733   2.121   7.984   7.636  0.0039  0.0899  0.7104
 6360SOL    HW130734   2.195   8.021   7.580 -0.4697  2.0804  1.3622
 6360SOL    HW230735   2.145   7.994   7.733 -0.9477  0.3802  0.9175
 6361SOL     OW30736   0.990   6.867   8.034  0.4312 -0.3225 -0.8764
 6361SOL    HW130737   0.920   6.797   8.021  0.9476 -1.1092  0.4528
 6361SOL    HW230738   1.048   6.872   7.952 -0.6176 -0.2881 -1.6272
 6362SOL     OW30739   4.693   4.117   3.698 -0.1621  0.7443 -0.2970
 6362SOL    HW130740   4.776   4.169   3.681 -0.6966  1.5006 -0.5802
 6362SOL    HW230741   4.638   4.113   3.615 -0.1551 -0.2205 -0.2606
 6363SOL     OW30742   2.286   4.177   0.605  0.5071  0.2689  0.2553
 6363SOL    HW130743   2.224   4.162   0.682 -0.5625 -0.7958 -0.7924
 6363SOL    HW230744   2.295   4.093   0.552  1.4605  0.9090 -0.6271
 6364SOL     OW30745   0.791   6.404   7.742  0.1498  0.2263 -0.5615
 6364SOL    HW130746   0.781   6.500   7.768 -0.2491  0.2838 -0.9222
 6364SOL    HW230747   0.863   6.395   7.674  1.9047 -0.0509  1.2673
 6365SOL     OW30748   9.628   2.061   5.349 -0.2903  0.0517 -0.2132
 6365SOL    HW130749   9.635   1.962   5.364  1.5492  0.3501  1.2223
 6365SOL    HW230750   9.659   2.109   5.432  0.0867  1.8362 -1.3614
 6366SOL     OW30751   6.927   8.735   4.946  0.2408  0.3825  0.2574
 6366SOL    HW130752   7.019   8.749   4.910 -0.0298  0.4990 -0.3901
 6366SOL    HW230753   6.923   8.765   5.041  1.1901 -0.7546  0.6561
 6367SOL     OW30754   7.386   9.833   4.174 -0.1746  0.6739  0.3004
 6367SOL    HW130755   7.461   9.827   4.240  0.7878  2.0160 -0.6232
 6367SOL    HW230756   7.390   9.922   4.129 -0.3909 -0.4808 -2.0561
 6368SOL     OW30757   0.978   1.433   5.369  0.2139 -0.5518 -0.0660
 6368SOL    HW130758   0.884   1.405   5.388  0.1458 -1.2581 -1.3599
 6368SOL    HW230759   1.029   1.441   5.454  0.0004 -3.8032  0.4025
 6369SOL     OW30760   3.699   9.863   5.417 -0.3160  0.5266 -0.2314
 6369SOL    HW130761   3.663   9.915   5.495 -0.9305 -1.2998  0.7370
 6369SOL    HW230762   3.799   9.867   5.418 -0.2574 -0.7410  1.5604
 6370SOL     OW30763   1.155   7.383   6.539  0.1488  0.4004 -0.2406
 6370SOL    HW130764   1.160   7.441   6.621  1.2592  0.5147 -0.3706
 6370SOL    HW230765   1.095   7.306   6.556 -0.0732  0.7331  0.4963
 6371SOL     OW30766   4.288   6.623   3.261 -0.3194 -0.1888 -0.8824
 6371SOL    HW130767   4.217   6.622   3.331 -0.0963  0.1846 -0.6518
 6371SOL    HW230768   4.335   6.711   3.262 -0.2591 -0.2140 -1.4431
 6372SOL     OW30769   7.979   4.510   5.360 -0.0496  0.1250  0.2045
 6372SOL    HW130770   7.978   4.449   5.440  0.4529  3.9244  3.2696
 6372SOL    HW230771   8.074   4.537   5.341 -0.1560 -0.8418 -1.8179
 6373SOL     OW30772   6.073   9.551   6.637 -0.2429  0.2646 -0.6644
 6373SOL    HW130773   6.141   9.482   6.609 -0.0959  0.6190 -1.1902
 6373SOL    HW230774   6.103   9.641   6.607  0.6444  0.8799  1.9323
 6374SOL     OW30775   4.872   0.501   5.871  0.6526 -0.0371 -0.2469
 6374SOL    HW130776   4.784   0.543   5.850  1.9643  2.2881 -1.3192
 6374SOL    HW230777   4.891   0.511   5.969  0.0801  0.1331 -0.1516
 6375SOL     OW30778   0.266   8.379   3.415 -0.0420  0.0334  0.4743
 6375SOL    HW130779   0.312   8.461   3.449 -1.7913  0.4959  1.7776
 6375SOL    HW230780   0.324   8.299   3.431  0.8928  0.7849  0.8677
 6376SOL     OW30781   8.340   0.858   5.438  0.0438  0.2968  0.4243
 6376SOL    HW130782   8.389   0.771   5.429 -1.5492 -0.4195 -1.9039
 6376SOL    HW230783   8.365   0.919   5.362  0.6925  1.6664  1.7089
 6377SOL     OW30784   3.598   4.475   6.807  0.3762 -0.2899  0.4831
 6377SOL    HW130785   3.504   4.463   6.775  0.4880 -0.0421  0.0464
 6377SOL    HW230786   3.648   4.389   6.796 -0.0439 -0.6796  1.5652
 6378SOL     OW30787   6.741   4.221   0.467 -0.0104  0.2130 -0.9875
 6378SOL    HW130788   6.645   4.245   0.452 -1.6272 -3.4613  2.5291
 6378SOL    HW230789   6.779   4.180   0.384 -2.0727 -0.0388 -1.8193
 6379SOL     OW30790   1.672   1.040   7.790  0.9078  0.3008  0.3695
 6379SOL    HW130791   1.659   1.083   7.700  0.5233 -0.1770  0.1890
 6379SOL    HW230792   1.754   1.076   7.833  0.4778  1.3616  0.3095
 6380SOL     OW30793   9.712   8.429   4.593 -0.3592  0.1542 -0.1517
 6380SOL    HW130794   9.692   8.392   4.684  1.2067 -2.7865 -0.9133
 6380SOL    HW230795   9.631   8.423   4.536 -0.5042 -0.8844  0.1547
 6381SOL     OW30796   5.669   7.383   3.394  0.0771  0.2602  0.2625
 6381SOL    HW130797   5.588   7.334   3.428 -0.0537 -0.5237 -1.1458
 6381SOL    HW230798   5.707   7.440   3.467 -1.8589  0.7826  0.8784
 6382SOL     OW30799   4.973   0.532   2.022  0.0830 -0.2719  0.1877
 6382SOL    HW130800   4.950   0.444   2.064 -0.3486  0.1523  0.8572
 6382SOL    HW230801   4.913   0.548   1.943  0.5124 -0.8171 -0.2434
 6383SOL     OW30802   8.645   7.361   4.689 -0.4361  0.0337 -0.0486
 6383SOL    HW130803   8.672   7.331   4.781 -0.9068  0.3858  0.2079
 6383SOL    HW230804   8.724   7.402   4.643 -0.3766  0.4903  0.4616
 6384SOL     OW30805   0.312   4.399   4.640  0.7419 -0.1700 -0.4896
 6384SOL    HW130806   0.249   4.352   4.703 -0.3907  1.2801 -0.5148
 6384SOL    HW230807   0.351   4.333   4.576  0.3604 -1.3272  0.4596
 6385SOL     OW30808   4.124   1.046   0.147 -0.5601  0.1831 -0.5344
 6385SOL    HW130809   4.216   1.009   0.160 -0.5954  0.5106  0.6801
 6385SOL    HW230810   4.129   1.146   0.143 -0.7899  0.1751 -1.1457
 6386SOL     OW30811   1.315   7.529   3.744  0.1427 -0.0354  0.7308
 6386SOL    HW130812   1.281   7.544   3.837  0.1464  1.4955  0.4890
 6386SOL    HW230813   1.240   7.541   3.679  0.6519  1.2224  0.3608
 6387SOL     OW30814   3.543   8.926   1.785 -0.1619  0.2579  0.2313
 6387SOL    HW130815   3.606   8.994   1.823  0.6673 -1.0256  1.1894
 6387SOL    HW230816   3.477   8.898   1.855 -0.9129  0.5406 -0.3514
 6388SOL     OW30817   3.668   1.080   4.813 -0.0508  0.2948  0.0944
 6388SOL    HW130818   3.728   1.058   4.890 -0.3639 -0.8516  0.0220
 6388SOL    HW230819   3.584   1.121   4.848 -0.7149 -1.3352  0.4902
 6389SOL     OW30820   4.304   5.337   6.061  0.2995  0.7212 -0.3503
 6389SOL    HW130821   4.384   5.397   6.061  0.6139  0.2986  0.5588
 6389SOL    HW230822   4.314   5.267   6.131 -0.7541  0.5098 -0.4027
 6390SOL     OW30823   7.895   1.032   1.283 -0.0417 -0.3681 -0.1811
 6390SOL    HW130824   7.909   0.934   1.272 -0.4917 -0.2961 -1.4439
 6390SOL    HW230825   7.801   1.048   1.314  0.3515 -0.3862  1.0735
 6391SOL     OW30826   1.920   1.710   0.402  0.0121 -0.7509  0.0644
 6391SOL    HW130827   1.919   1.808   0.422 -1.1639 -1.0765  1.7010
 6391SOL    HW230828   1.845   1.665   0.449  0.7626 -2.5214 -0.3572
 6392SOL     OW30829   8.085   6.264   1.531  0.0688 -0.5216  0.4950
 6392SOL    HW130830   7.989   6.263   1.501 -0.2818  2.8990  1.2510
 6392SOL    HW230831   8.092   6.225   1.622 -0.3690 -2.0270 -0.0955
 6393SOL     OW30832   3.787   7.100   0.560  0.3364 -0.1213 -0.4946
 6393SOL    HW130833   3.735   7.174   0.601 -0.1555 -1.5609  1.5753
 6393SOL    HW230834   3.883   7.108   0.587  0.4532  0.3171 -1.0572
 6394SOL     OW30835   5.263   0.694   3.038 -0.2356  0.0882 -0.4053
 6394SOL    HW130836   5.290   0.661   3.129  0.8927 -1.5828 -1.3175
 6394SOL    HW230837   5.173   0.659   3.015 -1.4628  2.2672  0.9292
 6395SOL     OW30838   9.995   1.330   6.949  0.4292 -0.4804  0.5936
 6395SOL    HW130839   9.968   1.245   6.904  1.1168 -0.0256 -0.6920
 6395SOL    HW230840   9.969   1.408   6.892  1.4036  0.0996  0.9354
 6396SOL     OW30841   6.389   9.233   3.159  0.1110  0.7485 -0.2391
 6396SOL    HW130842   6.314   9.293   3.186  0.5181  0.1765  2.3076
 6396SOL    HW230843   6.458   9.232   3.231  2.3133  0.8101 -2.2804
 6397SOL     OW30844   5.725   0.708   2.996  0.1194 -0.1816 -0.1182
 6397SOL    HW130845   5.671   0.791   2.981  0.5747  0.1096 -0.1469
 6397SOL    HW230846   5.667   0.638   3.036  0.6512  1.3944  3.6063
 6398SOL     OW30847   6.511   1.909   5.442 -0.3189 -0.3796 -0.6135
 6398SOL    HW130848   6.422   1.862   5.441 -0.7738  0.4271  0.5820
 6398SOL    HW230849   6.508   1.987   5.379 -0.9851  0.5606  0.5569
 6399SOL     OW30850   0.122   8.837   5.538  0.5655  0.0634 -0.2102
 6399SOL    HW130851   0.169   8.799   5.617 -1.5160 -0.1160  0.9816
 6399SOL    HW230852   0.040   8.886   5.568 -0.7802 -0.8310 -2.3131
 6400SOL     OW30853   4.044   4.537   5.185 -0.0457  0.3235  0.4161
 6400SOL    HW130854   4.048   4.447   5.140  0.9219 -0.2304  1.5946
 6400SOL    HW230855   4.122   4.592   5.157  0.0626  0.3159  0.7021
 6401SOL     OW30856   7.853   8.338   1.510 -0.6158  0.3991 -0.5283
 6401SOL    HW130857   7.786   8.307   1.577  0.7974  0.0279  0.7427
 6401SOL    HW230858   7.890   8.426   1.539 -1.3274  1.1296 -1.7872
 6402SOL     OW30859   5.964   1.102   6.565  0.2789  0.0685 -0.2837
 6402SOL    HW130860   5.920   1.013   6.579  0.6188 -0.0917 -0.2111
 6402SOL    HW230861   5.896   1.170   6.539 -0.0552 -0.0967  0.1592
 6403SOL     OW30862   7.497   3.320   3.014  0.3586  0.3003  0.5350
 6403SOL    HW130863   7.503   3.228   2.976 -0.3458  0.9786 -1.2494
 6403SOL    HW230864   7.401   3.345   3.027  0.4834  1.4686 -0.7057
 6404SOL     OW30865   9.954   9.547   6.851  0.4573 -0.6185 -0.6632
 6404SOL    HW130866   9.980   9.451   6.850 -1.4759 -1.1919  0.7416
 6404SOL    HW230867   9.855   9.555   6.863  0.6038  1.5405 -0.6198
 6405SOL     OW30868   3.372   4.122   1.832 -0.1824 -0.1775  0.2475
 6405SOL    HW130869   3.357   4.031   1.871  1.8359  0.0455  1.6237
 6405SOL    HW230870   3.468   4.132   1.806 -0.5536  1.2810 -0.6384
 6406SOL     OW30871   0.515   8.250   6.085  0.4228  0.0637  0.2918
 6406SOL    HW130872   0.571   8.168   6.073  0.0652 -0.0193 -0.8923
 6406SOL    HW230873   0.574   8.330   6.097  0.7965 -0.0238 -0.9228
 6407SOL     OW30874   4.694   9.004   0.832  0.3015 -0.3344 -0.6844
 6407SOL    HW130875   4.692   9.036   0.927 -0.6195  1.6440 -1.3247
 6407SOL    HW230876   4.715   9.081   0.772  2.1159 -1.8177 -2.0061
 6408SOL     OW30877   2.026   6.865   6.016 -0.4547  0.2174 -0.3759
 6408SOL    HW130878   2.009   6.803   5.941 -1.4564 -0.5693  0.4953
 6408SOL    HW230879   2.101   6.927   5.992  1.3979 -2.1235 -0.7856
 6409SOL     OW30880   6.894   4.629   1.368  0.1458 -0.7106  0.0796
 6409SOL    HW130881   6.987   4.629   1.404 -0.0517  1.1243  0.6616
 6409SOL    HW230882   6.891   4.682   1.282 -0.4169 -0.4522  0.2519
 6410SOL     OW30883   4.072   5.471   5.984  0.7135 -0.2757 -0.7062
 6410SOL    HW130884   4.151   5.416   6.007  0.1637 -0.2145  1.4169
 6410SOL    HW230885   4.097   5.568   5.986  0.1646 -0.1599  1.8086
 6411SOL     OW30886   9.958   8.050   2.208 -0.3219 -0.4695  0.0386
 6411SOL    HW130887   9.861   8.026   2.206 -1.6216  4.3979 -1.1754
 6411SOL    HW230888   9.993   8.056   2.115  1.4915 -3.1093  0.4891
 6412SOL     OW30889   2.347   7.248   8.010 -0.7347  0.0161  0.1392
 6412SOL    HW130890   2.386   7.309   7.941 -0.5502 -1.5036 -1.1192
 6412SOL    HW230891   2.249   7.266   8.019 -0.5693  0.8979  0.2010
 6413SOL     OW30892   4.607   5.658   8.042  0.1844 -0.1510 -0.3069
 6413SOL    HW130893   4.653   5.739   8.004 -0.7460  0.6220  0.1942
 6413SOL    HW230894   4.513   5.654   8.008  0.7453 -2.0159 -1.7414
 6414SOL     OW30895   8.687   0.714   3.706  0.2556  0.0464  0.3309
 6414SOL    HW130896   8.693   0.630   3.651  1.5171  2.0533 -2.7454
 6414SOL    HW230897   8.769   0.724   3.761  0.2960 -0.5430  0.3829
 6415SOL     OW30898   3.034   2.654   3.323  0.7650 -0.0655 -0.2649
 6415SOL    HW130899   3.029   2.576   3.261  0.8731 -1.7377  1.7755
 6415SOL    HW230900   3.115   2.645   3.382  1.5931  2.3440 -0.9669
 6416SOL     OW30901   8.090   4.263   6.789  0.3373 -0.4849 -0.7829
 6416SOL    HW130902   8.143   4.209   6.853  0.6793 -0.7681 -1.3011
 6416SOL    HW230903   8.075   4.355   6.827 -0.1977 -0.9198  0.0690
 6417SOL     OW30904   0.727   4.066   1.484 -0.2159  0.5473 -0.3180
 6417SOL    HW130905   0.756   3.982   1.528 -2.2761 -0.0189 -0.0048
 6417SOL    HW230906   0.803   4.131   1.483  1.0721 -0.9255  0.3551
 6418SOL     OW30907   0.696   3.458   3.910 -0.0178  0.7766  0.4194
 6418SOL    HW130908   0.636   3.446   3.988 -3.4256  0.8039 -2.1012
 6418SOL    HW230909   0.678   3.546   3.866  1.3728  0.4845 -0.8118
 6419SOL     OW30910   6.063   9.743   4.216 -0.6382 -0.6732 -0.0147
 6419SOL    HW130911   6.085   9.699   4.129 -0.4723  1.5065 -1.1053
 6419SOL    HW230912   5.966   9.732   4.235 -0.8064 -0.6018 -0.8030
 6420SOL     OW30913   4.888   0.150   4.030  0.1703  0.1902 -0.3182
 6420SOL    HW130914   4.902   0.093   4.111  1.0689 -0.7343 -1.1076
 6420SOL    HW230915   4.797   0.133   3.993  0.0485  0.0289  0.0490
 6421SOL     OW30916   9.453   5.114   3.134 -0.0550  0.2289  0.4883
 6421SOL    HW130917   9.479   5.045   3.067  1.7801  0.0857  1.3054
 6421SOL    HW230918   9.456   5.205   3.092 -3.6777 -0.2376 -0.9263
 6422SOL     OW30919   8.595   4.053   7.945  0.3177 -0.4420 -0.1150
 6422SOL    HW130920   8.663   4.020   7.879 -0.0634 -3.4967  0.9343
 6422SOL    HW230921   8.638   4.116   8.009  0.9297  1.7309 -2.5843
 6423SOL     OW30922   9.257   2.714   2.428  0.0587  0.3182  0.2424
 6423SOL    HW130923   9.302   2.725   2.516 -0.6693 -1.6882  0.8983
 6423SOL    HW230924   9.325   2.713   2.355  0.6961  1.6063  0.8144
 6424SOL     OW30925   6.579   9.836   7.381 -0.1786  0.0838  0.1397
 6424SOL    HW130926   6.494   9.803   7.341 -0.7768  1.6757  0.0506
 6424SOL    HW230927   6.579   9.936   7.382  0.6647  0.0871  2.3753
 6425SOL     OW30928   0.080   2.219   6.623  0.7927  0.1289  0.4625
 6425SOL    HW130929   0.068   2.184   6.716  2.4717 -0.9379  0.3182
 6425SOL    HW230930   0.088   2.142   6.559 -0.6139  0.8539 -0.6153
 6426SOL     OW30931   4.672   4.483   8.081 -0.4657 -0.4709  0.1050
 6426SOL    HW130932   4.742   4.555   8.081  0.0251 -0.9528  0.9361
 6426SOL    HW230933   4.666   4.443   7.989  1.0012 -1.0675  0.2604
 6427SOL     OW30934   7.533   7.715   3.796  0.5511 -0.0072 -0.3169
 6427SOL    HW130935   7.598   7.785   3.765  1.5642 -1.4456 -1.4974
 6427SOL    HW230936   7.515   7.728   3.894  1.0050  1.6765 -0.4432
 6428SOL     OW30937   0.546   2.228   2.462  0.0605 -0.2324  0.2684
 6428SOL    HW130938   0.557   2.159   2.534 -0.0094 -0.3574  0.1599
 6428SOL    HW230939   0.449   2.250   2.452 -0.0183 -0.8496 -0.3771
 6429SOL     OW30940   1.690   1.516   2.267 -0.0510  0.3249 -0.1552
 6429SOL    HW130941   1.753   1.506   2.189 -0.1482 -0.7069 -0.1149
 6429SOL    HW230942   1.742   1.529   2.351  0.0719  0.8765 -0.3190
 6430SOL     OW30943   2.116   8.163   6.990  0.9852  0.3771  0.3286
 6430SOL    HW130944   2.185   8.109   7.037  0.1541  1.2368  2.5825
 6430SOL    HW230945   2.120   8.258   7.021 -1.1282  0.4647  0.4248
 6431SOL     OW30946   9.062   0.296   6.890  0.2872 -0.1285  0.1155
 6431SOL    HW130947   8.990   0.342   6.839 -0.4970 -0.3348  1.0296
 6431SOL    HW230948   9.118   0.364   6.938  1.7856  0.1552 -1.9790
 6432SOL     OW30949   5.030   6.017   2.132  0.4974 -0.5168 -0.4240
 6432SOL    HW130950   5.028   6.095   2.195  1.4648 -0.0975 -0.9091
 6432SOL    HW230951   5.112   5.963   2.149 -0.2935 -1.5690  0.0728
 6433SOL     OW30952   5.640   0.899   2.077 -0.7108  0.2264  0.1470
 6433SOL    HW130953   5.648   0.988   2.033  0.9716  1.4499  2.8323
 6433SOL    HW230954   5.731   0.861   2.094 -1.3945 -1.6045 -0.1239
 6434SOL     OW30955   2.277   4.117   5.205  0.3919  0.0991  0.6917
 6434SOL    HW130956   2.283   4.217   5.215 -1.9743  0.2888  0.3686
 6434SOL    HW230957   2.258   4.095   5.109 -0.0040 -0.6245  0.9393
 6435SOL     OW30958   8.834   7.489   0.285 -0.2078  0.2047 -0.4134
 6435SOL    HW130959   8.793   7.422   0.346 -2.0466 -0.6611 -2.5432
 6435SOL    HW230960   8.931   7.467   0.271 -0.7186 -1.8952 -0.8809
 6436SOL     OW30961   3.663   0.295   7.514  0.3829 -0.2370  0.7315
 6436SOL    HW130962   3.636   0.390   7.500 -0.7560 -0.5726  0.5243
 6436SOL    HW230963   3.754   0.279   7.477  0.0458  0.4558 -0.4093
 6437SOL     OW30964   5.072   1.710   2.741 -0.6084 -0.6752 -0.6620
 6437SOL    HW130965   5.171   1.714   2.730 -0.8097 -0.0269 -2.3658
 6437SOL    HW230966   5.045   1.770   2.816  0.1904  0.0117 -0.9117
 6438SOL     OW30967   0.692   1.172   6.239 -0.2017  0.3606  0.4296
 6438SOL    HW130968   0.763   1.226   6.193 -0.7881  0.9272  0.1816
 6438SOL    HW230969   0.659   1.222   6.319 -1.7140  1.0270 -0.5678
 6439SOL     OW30970   2.781   8.060   5.093  0.0445  0.2452  0.3505
 6439SOL    HW130971   2.816   8.114   5.170  0.6913 -0.1286  0.3268
 6439SOL    HW230972   2.725   8.118   5.035 -0.7506  0.4420  1.2991
 6440SOL     OW30973   8.151   4.036   0.165  0.5389  0.3802  0.0359
 6440SOL    HW130974   8.144   4.021   0.066  0.6182 -0.4446  0.1492
 6440SOL    HW230975   8.202   3.960   0.207  1.3929  1.2279  0.5776
 6441SOL     OW30976   4.510   8.681   3.285  0.1474 -0.1447 -0.8363
 6441SOL    HW130977   4.581   8.725   3.340 -0.8704 -0.4933  0.7724
 6441SOL    HW230978   4.480   8.743   3.213 -0.3630  1.3135  0.6026
 6442SOL     OW30979   2.223   9.082   0.218 -0.2606  0.2356 -0.2448
 6442SOL    HW130980   2.241   9.137   0.137  0.4527 -2.0640 -1.6920
 6442SOL    HW230981   2.241   8.986   0.198 -0.2191 -0.4051  2.6004
 6443SOL     OW30982   9.849   9.618   2.966  0.2011  0.3325  0.3063
 6443SOL    HW130983   9.936   9.627   3.015  0.4939 -0.7178 -0.0016
 6443SOL    HW230984   9.818   9.523   2.970 -2.1333  1.1479  2.3950
 6444SOL     OW30985   2.884   5.319   0.215  0.3720 -0.2918 -0.0033
 6444SOL    HW130986   2.904   5.409   0.175  0.9111 -0.8014 -0.8856
 6444SOL    HW230987   2.805   5.279   0.168  1.2793 -1.0851 -0.8583
 6445SOL     OW30988   0.090   0.975   1.924 -0.0824 -0.3643  0.2411
 6445SOL    HW130989   0.076   0.900   1.859 -1.6711  0.9613 -0.9668
 6445SOL    HW230990   0.168   1.030   1.894 -1.5019  0.9012 -1.1898
 6446SOL     OW30991   7.950   3.566   2.844  0.2953 -0.5475 -0.5372
 6446SOL    HW130992   8.047   3.542   2.846  0.3509 -0.4372 -1.8743
 6446SOL    HW230993   7.897   3.490   2.808  0.1335  0.2063 -1.8950
 6447SOL     OW30994   8.039   0.766   7.001 -0.3101 -0.1725 -0.3161
 6447SOL    HW130995   8.097   0.825   6.945 -1.3152  1.0939 -0.0517
 6447SOL    HW230996   7.983   0.822   7.062 -0.9317 -1.4248  0.2849
 6448SOL     OW30997   9.459   7.119   1.516  0.0060  0.7705 -0.4043
 6448SOL    HW130998   9.434   7.209   1.481  1.4969  1.7116  0.8568
 6448SOL    HW230999   9.557   7.104   1.501  0.3358  0.5201  1.8569
 6449SOL     OW31000   1.994   0.671   0.280  0.0417 -0.7070  0.0365
 6449SOL    HW131001   1.952   0.646   0.367 -0.9011  1.9122  0.3835
 6449SOL    HW231002   1.928   0.720   0.224  1.6290  0.5466 -0.7856
 6450SOL     OW31003   0.648   0.001   1.875  0.1051 -0.1613 -0.2832
 6450SOL    HW131004   0.578   0.043   1.817  0.4352 -0.6231 -1.0309
 6450SOL    HW231005   0.611  -0.014   1.967 -1.0660 -1.1747 -0.8974
 6451SOL     OW31006   8.085   6.983   2.329  0.2991  0.1366  0.1852
 6451SOL    HW131007   8.087   6.963   2.427 -1.7037  1.7110  0.5751
 6451SOL    HW231008   8.062   6.900   2.279 -0.2911 -0.3105  1.1799
 6452SOL     OW31009   9.217   7.378   3.084 -0.1035  0.4403 -0.4603
 6452SOL    HW131010   9.164   7.452   3.042 -1.2224 -0.4369 -0.5905
 6452SOL    HW231011   9.157   7.320   3.139  0.9864  0.3172  0.6222
 6453SOL     OW31012   8.684   5.131   6.769 -0.0094 -0.3446  0.0445
 6453SOL    HW131013   8.639   5.219   6.759  1.6551  0.4760 -0.4975
 6453SOL    HW231014   8.783   5.143   6.761  0.1999 -2.3684 -0.8796
 6454SOL     OW31015   9.559   3.491   0.224  0.5984 -0.6368  0.0842
 6454SOL    HW131016   9.594   3.503   0.317 -0.7746  0.4059  0.4986
 6454SOL    HW231017   9.500   3.410   0.222 -0.8567  0.3874  0.5978
 6455SOL     OW31018   5.763   0.675   1.019  0.1852 -0.0333  0.4151
 6455SOL    HW131019   5.780   0.722   0.932  0.8767 -1.0106  0.0089
 6455SOL    HW231020   5.666   0.681   1.042 -0.2312 -0.8228 -1.0703
 6456SOL     OW31021   1.914   8.270   4.192 -0.1818 -0.2502 -0.0670
 6456SOL    HW131022   1.901   8.297   4.288  0.1754  0.3081 -0.1725
 6456SOL    HW231023   1.828   8.236   4.155 -0.6637  0.8016  0.0607
 6457SOL     OW31024   0.827   6.323   6.103  0.7074 -0.1040  0.6010
 6457SOL    HW131025   0.903   6.300   6.043  0.3352 -2.5274  0.9963
 6457SOL    HW231026   0.811   6.421   6.101  2.9211  0.2599 -0.5769
 6458SOL     OW31027   9.125   4.182   2.705  0.0239  0.2751  0.2388
 6458SOL    HW131028   9.065   4.131   2.767 -0.2715  0.8588  0.4306
 6458SOL    HW231029   9.074   4.211   2.625  0.3917 -0.4288 -0.2608
 6459SOL     OW31030   8.095   0.685   4.559 -0.4315  0.0314 -0.0879
 6459SOL    HW131031   8.022   0.659   4.623  1.7815  2.6086  3.6707
 6459SOL    HW231032   8.164   0.613   4.557 -0.3679  0.0736  0.6495
 6460SOL     OW31033   7.871   1.737   2.568  0.2378  0.1476 -0.2707
 6460SOL    HW131034   7.773   1.737   2.590 -0.1388  2.2193 -1.7988
 6460SOL    HW231035   7.917   1.807   2.623  0.4049  0.9017 -1.3491
 6461SOL     OW31036   4.320   9.935   6.150  0.2578 -0.8634  0.9145
 6461SOL    HW131037   4.307  10.019   6.203  0.7200  0.3639 -0.8673
 6461SOL    HW231038   4.410   9.897   6.169 -0.0357 -1.0759  1.8878
 6462SOL     OW31039   2.445   7.578   0.542 -0.3544  0.0280  0.5936
 6462SOL    HW131040   2.497   7.518   0.481  1.2104  2.4288 -0.5447
 6462SOL    HW231041   2.495   7.590   0.628  0.4779  1.4329 -0.0587
 6463SOL     OW31042   4.733   1.669   2.742  0.0416 -0.4362  1.0058
 6463SOL    HW131043   4.656   1.605   2.740 -1.6659  1.6171  0.2812
 6463SOL    HW231044   4.770   1.673   2.835 -0.0940 -2.1306  1.1578
 6464SOL     OW31045   8.157   7.521   3.622  0.0063 -0.2585 -0.3088
 6464SOL    HW131046   8.214   7.496   3.700  0.8184 -1.8526 -1.3879
 6464SOL    HW231047   8.061   7.507   3.646  0.3013 -1.7682  0.0607
 6465SOL     OW31048   9.747   5.735   5.286  0.3661  0.5353 -0.3505
 6465SOL    HW131049   9.783   5.642   5.277 -0.4015  0.2667 -0.6163
 6465SOL    HW231050   9.681   5.738   5.361  0.5509  0.9204 -0.1999
 6466SOL     OW31051   3.750   6.389   1.516  0.5085  0.4902 -0.1393
 6466SOL    HW131052   3.721   6.296   1.493 -1.0427  0.6807  0.9965
 6466SOL    HW231053   3.675   6.453   1.496  0.1560  1.0046  2.7287
 6467SOL     OW31054   7.134   2.216   3.922 -0.0847  0.4337  0.5578
 6467SOL    HW131055   7.160   2.308   3.894  1.1087 -0.7147 -2.3018
 6467SOL    HW231056   7.055   2.186   3.868 -2.1388  0.6886  3.2834
 6468SOL     OW31057   4.795   4.405   0.146  0.3309 -0.4198  0.6254
 6468SOL    HW131058   4.766   4.428   0.053 -0.9367  2.6925  1.7518
 6468SOL    HW231059   4.734   4.335   0.184  0.2508 -0.9666 -0.4902
 6469SOL     OW31060   3.671   2.996   6.828 -0.0851  0.0953  0.0549
 6469SOL    HW131061   3.710   2.950   6.749 -2.6763  0.5434 -1.5337
 6469SOL    HW231062   3.594   2.943   6.863 -1.1807  1.6841  0.0921
 6470SOL     OW31063   1.553   5.710   3.276 -0.0979  0.6585  0.2689
 6470SOL    HW131064   1.623   5.763   3.229 -0.2023 -0.6636 -1.4205
 6470SOL    HW231065   1.474   5.769   3.295 -0.2866  1.0938 -1.7279
 6471SOL     OW31066   0.503   8.954   5.006  0.4597 -0.0312  0.0330
 6471SOL    HW131067   0.416   8.923   4.967  0.5497  1.7107 -1.6317
 6471SOL    HW231068   0.508   9.054   4.999  3.1158 -0.2186 -0.9636
 6472SOL     OW31069   2.542   9.723   7.467  0.0400 -0.2745 -0.4917
 6472SOL    HW131070   2.537   9.775   7.553  2.2651 -0.8589  0.0228
 6472SOL    HW231071   2.460   9.740   7.413 -1.3121  0.2665  1.6653
 6473SOL     OW31072   4.361   3.302   2.725 -0.5935  0.0133  0.6579
 6473SOL    HW131073   4.450   3.307   2.769  0.1016 -1.2860 -0.5555
 6473SOL    HW231074   4.321   3.394   2.719  1.3119  0.8144 -0.0849
 6474SOL     OW31075   1.774   0.609   3.900 -0.0491  0.1157  0.2084
 6474SOL    HW131076   1.839   0.633   3.828 -2.5531  1.8585 -1.5561
 6474SOL    HW231077   1.699   0.555   3.861 -0.9920  0.3192  1.6897
 6475SOL     OW31078   2.677   9.015   1.073  0.5643  0.2331  0.1291
 6475SOL    HW131079   2.723   9.002   1.161 -0.3388 -0.9308  0.4465
 6475SOL    HW231080   2.690   8.933   1.017  0.1318  0.5012 -0.3664
 6476SOL     OW31081   1.443   9.674   0.921  0.7634 -0.3116 -0.2197
 6476SOL    HW131082   1.495   9.588   0.915 -0.2563 -0.8597 -1.3791
 6476SOL    HW231083   1.397   9.678   1.010  2.2935 -0.0892  0.5881
 6477SOL     OW31084   5.879   8.823   2.752  0.4776  0.1271 -0.2054
 6477SOL    HW131085   5.976   8.842   2.765  1.0864 -3.0697  0.5167
 6477SOL    HW231086   5.868   8.730   2.717 -2.3310  0.4812 -0.4050
 6478SOL     OW31087   1.762   2.678   4.986  0.1735 -0.2329 -0.0788
 6478SOL    HW131088   1.718   2.638   5.066 -2.0708 -0.8248 -1.5413
 6478SOL    HW231089   1.765   2.611   4.912  0.2798  0.9299 -1.1599
 6479SOL     OW31090   6.185   4.810   7.763 -0.0891  0.2247 -0.2707
 6479SOL    HW131091   6.176   4.723   7.715 -2.3270  0.3772 -0.2177
 6479SOL    HW231092   6.168   4.885   7.700  4.9907  0.8434 -1.0745
 6480SOL     OW31093   8.921   1.618   1.439 -0.0479 -0.1892 -0.1616
 6480SOL    HW131094   8.963   1.610   1.529 -2.3046 -1.3744  0.8337
 6480SOL    HW231095   8.968   1.558   1.374  0.6250 -0.4871  0.5980
 6481SOL     OW31096   9.227   7.399   4.272 -0.2335 -0.2339  0.0596
 6481SOL    HW131097   9.137   7.358   4.287  0.9330 -2.1516  2.0711
 6481SOL    HW231098   9.263   7.432   4.359  0.4415  1.8373 -0.9624
 6482SOL     OW31099   2.169   7.831   2.129  0.2376 -0.3611 -0.2134
 6482SOL    HW131100   2.232   7.907   2.144  1.6268 -1.7954  1.3520
 6482SOL    HW231101   2.178   7.798   2.035  2.8275 -1.4448  0.3832
 6483SOL     OW31102   2.889   6.311   5.998  0.0018 -0.4935  0.0362
 6483SOL    HW131103   2.917   6.231   6.052  0.5699 -0.4062 -0.1248
 6483SOL    HW231104   2.950   6.388   6.019 -1.6072  0.4209  1.4930
 6484SOL     OW31105   7.608   8.111   7.618  0.0550  0.5028  0.3890
 6484SOL    HW131106   7.659   8.039   7.665  0.1743 -1.0901 -2.0471
 6484SOL    HW231107   7.511   8.103   7.639  0.3392  1.0415  1.9072
 6485SOL     OW31108   8.983   0.620   5.414  0.1220 -0.2147  0.1801
 6485SOL    HW131109   8.933   0.542   5.452  0.0063 -0.2804 -0.1052
 6485SOL    HW231110   8.959   0.703   5.466 -0.1034 -0.2880  0.1927
 6486SOL     OW31111   0.631   4.463   0.792 -0.2501 -0.3949 -0.0590
 6486SOL    HW131112   0.637   4.483   0.889 -0.1335 -0.5186 -0.0409
 6486SOL    HW231113   0.571   4.384   0.777 -1.6260  0.6600 -0.2176
 6487SOL     OW31114   5.405   8.914   4.367 -0.3441 -0.2743 -0.1603
 6487SOL    HW131115   5.330   8.891   4.430 -0.9726 -0.8809 -1.1245
 6487SOL    HW231116   5.401   8.853   4.288 -0.2418  1.2316 -1.3415
 6488SOL     OW31117   0.872   8.039   6.350 -0.3275  0.5200  0.4340
 6488SOL    HW131118   0.831   8.069   6.264  0.0712 -0.7446 -0.2066
 6488SOL    HW231119   0.966   8.009   6.333 -0.8153 -1.4178  0.9603
 6489SOL     OW31120   6.160   0.585   4.051  0.5755  0.4257 -0.1654
 6489SOL    HW131121   6.063   0.590   4.075  0.4248 -0.8267 -0.5222
 6489SOL    HW231122   6.210   0.657   4.100 -0.3252  0.2646  1.0126
 6490SOL     OW31123   1.087   0.625   5.400  0.2447  0.3998  0.2245
 6490SOL    HW131124   1.079   0.717   5.363  1.0207 -0.3964 -1.9675
 6490SOL    HW231125   1.101   0.559   5.326 -0.5906 -1.5328  1.7295
 6491SOL     OW31126   8.302   6.474   7.192  0.2424 -0.3772 -0.0361
 6491SOL    HW131127   8.228   6.408   7.203 -0.4638  0.4379  0.2356
 6491SOL    HW231128   8.290   6.523   7.105 -0.1124  0.4631  0.4852
 6492SOL     OW31129   4.371   6.029   0.107 -0.0294  0.3520 -0.1646
 6492SOL    HW131130   4.293   5.977   0.072 -0.1092  0.6274 -0.3889
 6492SOL    HW231131   4.339   6.100   0.170  0.0900  0.0496  0.2428
 6493SOL     OW31132   7.550   7.448   7.317  0.4591  0.1670  0.1778
 6493SOL    HW131133   7.640   7.480   7.284  0.9488 -0.7626  0.6046
 6493SOL    HW231134   7.549   7.451   7.417 -0.1675  0.6392  0.1589
 6494SOL     OW31135   2.921   8.138   1.598 -0.4657 -0.4181  0.1736
 6494SOL    HW131136   2.983   8.079   1.650  0.3839  1.0404  0.8465
 6494SOL    HW231137   2.960   8.155   1.508 -0.2631 -0.1224  0.3179
 6495SOL     OW31138   3.317   7.037   6.596  0.5043 -0.1950  0.3267
 6495SOL    HW131139   3.310   7.101   6.673 -0.1528 -0.4335  0.4733
 6495SOL    HW231140   3.388   7.067   6.533 -0.0961  0.9183  0.1764
 6496SOL     OW31141   5.166   8.480   7.466  0.1266 -0.3764  0.0755
 6496SOL    HW131142   5.152   8.576   7.488 -2.8112 -0.9872  1.2390
 6496SOL    HW231143   5.081   8.429   7.485  2.1831 -3.5077  1.2784
 6497SOL     OW31144   9.381   4.082   0.090  0.0629  0.2134 -0.0379
 6497SOL    HW131145   9.384   3.984   0.110 -1.1285 -0.0361 -1.0506
 6497SOL    HW231146   9.288   4.116   0.103  0.4995  1.2476  0.4517
 6498SOL     OW31147   9.164   5.024   2.028  0.4586 -0.6550  0.0128
 6498SOL    HW131148   9.179   5.032   2.127 -0.6605  0.6753  0.0849
 6498SOL    HW231149   9.249   5.048   1.980  1.1785 -1.8556  0.6509
 6499SOL     OW31150   6.241   0.040   2.178  0.2309  0.2524 -0.4130
 6499SOL    HW131151   6.230   0.110   2.249 -2.2153 -2.2305  1.7996
 6499SOL    HW231152   6.186   0.065   2.098 -1.5929  0.3337  0.8236
 6500SOL     OW31153   7.561   0.657   1.587 -0.4060  0.1455 -0.2928
 6500SOL    HW131154   7.633   0.709   1.632  0.6941 -0.5883 -1.1707
 6500SOL    HW231155   7.480   0.715   1.575  0.3038  1.2105  0.0019
 6501SOL     OW31156   7.793   7.649   5.913  0.0845 -0.2093 -0.1979
 6501SOL    HW131157   7.878   7.614   5.951  0.3285  0.3292 -0.2413
 6501SOL    HW231158   7.772   7.737   5.954 -0.2919 -0.1970 -0.4132
 6502SOL     OW31159   0.511   3.718   0.012  0.2887  0.3319  0.1819
 6502SOL    HW131160   0.576   3.711   0.088  1.6800  1.3513 -0.8809
 6502SOL    HW231161   0.485   3.626  -0.018  0.6992 -0.0804  1.0595
 6503SOL     OW31162   8.415   3.781   0.907  0.9496 -0.7330 -0.2583
 6503SOL    HW131163   8.336   3.827   0.949  1.4783  0.0128 -0.0785
 6503SOL    HW231164   8.398   3.683   0.904  1.0432 -0.8326  1.9727
 6504SOL     OW31165   3.695   9.773   8.054  0.3958 -0.2794  0.1928
 6504SOL    HW131166   3.683   9.688   8.106 -2.5184  0.5957  1.0465
 6504SOL    HW231167   3.725   9.846   8.115 -0.1723  0.0501  0.0807
 6505SOL     OW31168   0.352   2.923   1.291  0.1405 -0.2768  0.5031
 6505SOL    HW131169   0.335   2.840   1.344  1.5281 -0.2671  0.9996
 6505SOL    HW231170   0.425   2.975   1.335 -0.5384  1.0775  0.0505
 6506SOL     OW31171   3.265   9.193   3.844  0.3728 -0.0303  0.8929
 6506SOL    HW131172   3.182   9.243   3.871  0.8548  0.2788  1.7935
 6506SOL    HW231173   3.346   9.247   3.867  0.9037 -1.2023  1.8430
 6507SOL     OW31174   9.931   9.951   4.674  0.6980  0.2474  0.0494
 6507SOL    HW131175   9.920   9.852   4.681  1.2096  0.2406  0.7525
 6507SOL    HW231176  10.024   9.972   4.645  0.7860  0.5525  0.5598
 6508SOL     OW31177   8.228   5.290   0.118 -0.1670  0.1335 -0.3157
 6508SOL    HW131178   8.276   5.202   0.123 -1.7293 -0.6988  0.2633
 6508SOL    HW231179   8.189   5.300   0.027 -0.9210 -0.2818 -0.0444
 6509SOL     OW31180   9.231   3.748   1.054 -0.5773 -0.1355  0.2202
 6509SOL    HW131181   9.279   3.708   1.132  0.2808 -1.0499 -0.7570
 6509SOL    HW231182   9.159   3.685   1.024  1.4666 -1.5242 -1.9931
 6510SOL     OW31183   2.012   3.853   7.424 -0.9540  0.0595  0.1126
 6510SOL    HW131184   1.957   3.904   7.357  0.2737  0.4964 -0.5942
 6510SOL    HW231185   2.007   3.899   7.513 -1.5876  0.1940  0.0105
 6511SOL     OW31186   8.788   6.962   6.053 -0.0829  0.0805  0.0381
 6511SOL    HW131187   8.870   6.976   6.108 -0.4140 -0.3936  0.6583
 6511SOL    HW231188   8.789   7.025   5.975 -0.1909  1.6003  1.2376
 6512SOL     OW31189   7.178   9.919   3.158  0.1264 -0.1924  0.3121
 6512SOL    HW131190   7.277   9.909   3.167 -0.2089 -1.1324  3.1595
 6512SOL    HW231191   7.158  10.003   3.107  2.3728 -0.0976 -0.4701
 6513SOL     OW31192   5.526   4.001   8.042 -0.0330  0.0619 -0.2345
 6513SOL    HW131193   5.442   4.041   8.007  0.2919  0.3307 -0.7222
 6513SOL    HW231194   5.586   3.977   7.966  0.5707  0.4064  0.1257
 6514SOL     OW31195   3.428   3.019   7.198  0.5722  0.4491 -0.6015
 6514SOL    HW131196   3.417   3.104   7.147  0.0518  1.1599  0.6569
 6514SOL    HW231197   3.514   3.021   7.249  0.7649  0.0355 -0.9075
 6515SOL     OW31198   8.635   9.714   6.839  0.0058 -0.6091  0.0576
 6515SOL    HW131199   8.600   9.802   6.805 -0.6609 -0.1027  1.9646
 6515SOL    HW231200   8.647   9.651   6.762 -1.6470  0.4169 -1.0953
 6516SOL     OW31201   9.767   4.108   1.666  0.6913 -0.0922  0.2390
 6516SOL    HW131202   9.741   4.012   1.667 -0.2203  0.1472 -0.0117
 6516SOL    HW231203   9.863   4.117   1.641  0.5112 -0.8723 -0.7235
 6517SOL     OW31204   3.900   6.554   0.314  0.0751 -0.6128  0.6498
 6517SOL    HW131205   3.914   6.650   0.291 -1.7812 -0.3379  0.6415
 6517SOL    HW231206   3.805   6.539   0.341  0.1695 -2.5896 -0.0354
 6518SOL     OW31207   0.947   2.401   2.765 -0.5223 -0.1375  0.2781
 6518SOL    HW131208   0.868   2.408   2.704  0.0078  2.4416 -0.1811
 6518SOL    HW231209   0.916   2.402   2.860 -1.0822  0.6969  0.0980
 6519SOL     OW31210   9.108   5.523   4.761  0.1254  0.1253 -0.6686
 6519SOL    HW131211   9.102   5.620   4.739  0.0917  0.3197  0.1690
 6519SOL    HW231212   9.166   5.510   4.842 -0.8345 -0.4303 -0.0538
 6520SOL     OW31213   8.468   9.397   4.164  0.0442  0.1254  0.0604
 6520SOL    HW131214   8.431   9.334   4.233 -0.8080  0.2235 -0.2983
 6520SOL    HW231215   8.417   9.483   4.167 -0.5552 -0.1665 -1.2340
 6521SOL     OW31216   1.954   7.375   6.478  0.9855  0.0404  0.2927
 6521SOL    HW131217   1.942   7.408   6.572  1.4000  0.1269  0.3167
 6521SOL    HW231218   1.881   7.309   6.456  1.5707 -0.8984  1.0885
 6522SOL     OW31219   4.255   6.137   3.653  0.0147  0.0078  0.1574
 6522SOL    HW131220   4.347   6.157   3.620 -0.2231  1.5982  0.3971
 6522SOL    HW231221   4.192   6.134   3.576  0.1101 -0.1390  0.0852
 6523SOL     OW31222   6.263   2.872   8.111  0.2216  0.5909 -0.1142
 6523SOL    HW131223   6.333   2.803   8.095 -0.5785 -0.8458  2.3380
 6523SOL    HW231224   6.301   2.946   8.166 -0.2193 -0.3077  1.4250
 6524SOL     OW31225   4.003   0.133   5.500 -0.2796 -0.7002  0.1081
 6524SOL    HW131226   4.058   0.097   5.576 -3.5159 -1.8929  1.9581
 6524SOL    HW231227   3.983   0.059   5.435  0.5485 -0.1890 -0.7474
 6525SOL     OW31228   9.471   8.005   6.734 -0.1475 -0.0121  0.0880
 6525SOL    HW131229   9.509   7.976   6.646  0.8549 -1.1407  0.8645
 6525SOL    HW231230   9.449   7.924   6.788  0.2667  0.6737  1.2980
 6526SOL     OW31231   4.928   5.339   1.995  0.4438  0.1198  0.0522
 6526SOL    HW131232   5.005   5.275   2.006 -0.0040 -0.4290 -0.0060
 6526SOL    HW231233   4.871   5.309   1.918  0.4208  0.7809 -0.1906
 6527SOL     OW31234   8.384   1.099   6.069 -0.7242  0.3939  0.2824
 6527SOL    HW131235   8.427   1.117   5.980 -1.0588 -0.7599 -0.1133
 6527SOL    HW231236   8.386   1.001   6.089 -0.7856  0.6228  1.4863
 6528SOL     OW31237   9.725   7.280   2.145  0.2095 -0.3018  0.1592
 6528SOL    HW131238   9.705   7.186   2.169  0.4683 -0.6431 -0.9201
 6528SOL    HW231239   9.728   7.336   2.228 -1.6188 -0.9153  0.6547
 6529SOL     OW31240   8.122   3.481   4.862 -0.3961 -0.1804 -0.7435
 6529SOL    HW131241   8.213   3.510   4.889 -0.6633 -0.5501  0.6163
 6529SOL    HW231242   8.065   3.561   4.842  0.1309  0.0570 -1.3040
 6530SOL     OW31243   9.748   4.377   1.633  0.2026  0.2002  0.0440
 6530SOL    HW131244   9.724   4.366   1.537  0.5977 -0.9216  0.0731
 6530SOL    HW231245   9.747   4.289   1.679  2.1190  0.4227  0.5732
 6531SOL     OW31246   6.833   8.413   6.867  0.0564 -0.1780 -0.2499
 6531SOL    HW131247   6.787   8.401   6.779 -0.5825  0.2078  0.0281
 6531SOL    HW231248   6.904   8.343   6.877  0.8592  0.4437 -1.5318
 6532SOL     OW31249   2.573   5.235   1.387  0.3833  0.0178  0.3521
 6532SOL    HW131250   2.552   5.239   1.484  1.4127 -0.2002  0.5929
 6532SOL    HW231251   2.567   5.327   1.348  2.3974  0.5190  1.1590
 6533SOL     OW31252   8.189   2.936   4.714 -0.3743 -0.4112 -0.3329
 6533SOL    HW131253   8.158   2.967   4.804  2.2485 -0.0952  0.4820
 6533SOL    HW231254   8.109   2.909   4.659 -2.0961  0.6181  1.6055
 6534SOL     OW31255   5.176   9.942   3.423  0.4187 -0.2003 -0.2151
 6534SOL    HW131256   5.199   9.910   3.331  0.3851 -1.5256  0.2300
 6534SOL    HW231257   5.260   9.971   3.470  0.5070 -0.0500 -0.4669
 6535SOL     OW31258   4.191   9.898   0.400 -0.3720  0.2488 -0.6394
 6535SOL    HW131259   4.154   9.831   0.335 -0.2544  0.3810 -0.8424
 6535SOL    HW231260   4.178   9.864   0.493  1.3433 -0.9213 -0.8102
 6536SOL     OW31261   0.994   8.234   0.986  0.1033  0.4932 -0.5517
 6536SOL    HW131262   1.045   8.221   1.071  0.7137  1.3993 -0.7649
 6536SOL    HW231263   0.963   8.329   0.981 -1.1571  0.0699 -0.6747
 6537SOL     OW31264   7.460   0.284   4.544 -0.5791  0.0401  0.3179
 6537SOL    HW131265   7.548   0.264   4.502 -0.5293 -0.6472  0.7346
 6537SOL    HW231266   7.427   0.373   4.513  0.5628  0.5862  0.6420
 6538SOL     OW31267   0.100   7.732   3.509 -0.3700  0.7439  0.2493
 6538SOL    HW131268   0.142   7.675   3.438  0.1426  2.4989 -0.8668
 6538SOL    HW231269   0.019   7.778   3.472 -0.5408  1.0847  1.0282
 6539SOL     OW31270   0.107   2.123   6.869 -0.0974 -0.2438  0.0700
 6539SOL    HW131271   0.015   2.099   6.898 -0.5694  0.6182 -0.7013
 6539SOL    HW231272   0.164   2.041   6.868 -1.3473 -1.1087 -1.2843
 6540SOL     OW31273   2.971   1.861   0.599  0.2907 -0.2474 -0.1508
 6540SOL    HW131274   2.918   1.893   0.678  1.7043  2.0803 -0.1097
 6540SOL    HW231275   2.976   1.761   0.601  0.1083 -0.2386  2.5703
 6541SOL     OW31276   4.141   0.707   6.636 -0.4581 -0.0446  0.2498
 6541SOL    HW131277   4.186   0.702   6.548  1.8099 -0.4313  1.3989
 6541SOL    HW231278   4.185   0.777   6.693 -1.4186 -0.2980  1.3433
 6542SOL     OW31279   2.454   3.533   2.975 -0.1852  0.2354 -0.5314
 6542SOL    HW131280   2.468   3.570   3.067 -2.1935  0.4788 -0.2929
 6542SOL    HW231281   2.472   3.434   2.975 -1.3596  0.0111  0.4267
 6543SOL     OW31282   0.119   2.726   2.215 -0.0926  0.7200 -0.0732
 6543SOL    HW131283   0.088   2.816   2.248 -0.4571 -0.2024  2.1987
 6543SOL    HW231284   0.040   2.674   2.182  0.1718  1.3614 -1.7455
 6544SOL     OW31285   4.941   2.699   0.528  0.0097  0.0314 -0.2131
 6544SOL    HW131286   4.947   2.776   0.465  0.5742 -0.4234 -0.7222
 6544SOL    HW231287   4.866   2.714   0.593 -0.1157  0.8298 -0.5449
 6545SOL     OW31288   3.570   7.610   5.684  0.6212 -0.2872 -0.1004
 6545SOL    HW131289   3.562   7.707   5.664 -1.1422 -0.1754  0.9680
 6545SOL    HW231290   3.585   7.597   5.782 -1.3931 -1.1221  0.1364
 6546SOL     OW31291   5.276   4.127   8.180 -0.3373  0.5369  0.0416
 6546SOL    HW131292   5.290   4.152   8.085  0.7181  0.0685  0.0728
 6546SOL    HW231293   5.351   4.164   8.236  0.4995 -1.5203  0.2933
 6547SOL     OW31294   7.660   7.476   3.783  0.1587  0.0765 -0.2331
 6547SOL    HW131295   7.611   7.448   3.700  0.2225 -1.5409  0.2698
 6547SOL    HW231296   7.629   7.567   3.810 -1.3669 -0.2345 -0.8707
 6548SOL     OW31297   3.066   3.753   7.854  0.6069 -0.1269 -0.5448
 6548SOL    HW131298   2.980   3.767   7.902  0.8190 -1.0652  0.1302
 6548SOL    HW231299   3.051   3.696   7.773  0.2893  1.2495 -1.4544
 6549SOL     OW31300   2.148   3.513   0.352  0.1300  0.3718  0.2409
 6549SOL    HW131301   2.240   3.499   0.388 -0.0201  1.0223  0.8816
 6549SOL    HW231302   2.132   3.610   0.336 -1.4939  0.6186  3.0157
 6550SOL     OW31303   4.553   7.941   7.042  0.4121 -0.2296  0.6887
 6550SOL    HW131304   4.508   8.021   7.082  0.4109  0.9702 -1.6363
 6550SOL    HW231305   4.623   7.908   7.105 -0.4423  0.8322  2.2338
 6551SOL     OW31306   2.189   0.990   1.937 -0.2207  0.3486  1.1216
 6551SOL    HW131307   2.190   1.090   1.929  0.0885  0.3361  0.9882
 6551SOL    HW231308   2.278   0.958   1.970 -0.5511  0.1731  1.8715
 6552SOL     OW31309   0.319   8.931   5.840 -0.3260 -0.2296  0.0674
 6552SOL    HW131310   0.235   8.986   5.835 -0.4709 -0.2938  1.5435
 6552SOL    HW231311   0.357   8.937   5.932  1.3214 -0.1774 -0.6019
 6553SOL     OW31312   2.894   0.697   7.515  0.5132 -0.3429  0.3348
 6553SOL    HW131313   2.885   0.680   7.614 -0.0437  1.2533  0.5831
 6553SOL    HW231314   2.855   0.620   7.465 -0.8321 -0.3898  1.3914
 6554SOL     OW31315   8.166   8.916   6.345 -0.4245  0.4299  0.3607
 6554SOL    HW131316   8.080   8.898   6.392 -1.0223  1.0261 -0.4888
 6554SOL    HW231317   8.243   8.901   6.408 -1.1282 -0.4503  1.0142
 6555SOL     OW31318   8.976   3.513   5.373  0.0237  0.2954 -0.2494
 6555SOL    HW131319   8.975   3.606   5.408  0.5417  0.3299 -0.3191
 6555SOL    HW231320   9.068   3.474   5.384  0.4116  0.5816 -2.2937
 6556SOL     OW31321   4.112   0.902   0.693  0.0355  0.3954 -0.4801
 6556SOL    HW131322   4.200   0.917   0.738 -1.0993  0.7606  1.7513
 6556SOL    HW231323   4.125   0.857   0.605  2.3616 -0.4519  0.2710
 6557SOL     OW31324   4.044   2.876   3.108 -0.4624 -0.7733  0.0727
 6557SOL    HW131325   4.085   2.883   3.017 -1.2117 -1.5401 -0.3375
 6557SOL    HW231326   4.032   2.780   3.131  1.0934 -0.6152  1.6252
 6558SOL     OW31327   2.457   1.960   7.878  0.1630 -0.7849  0.2781
 6558SOL    HW131328   2.509   1.995   7.956  0.3564  0.5821 -0.4425
 6558SOL    HW231329   2.401   1.883   7.907 -0.5818  0.3812  2.0132
 6559SOL     OW31330   1.888   7.096   8.024  0.1963 -0.3356  0.2041
 6559SOL    HW131331   1.804   7.058   7.986 -0.2176  1.1542 -0.4304
 6559SOL    HW231332   1.895   7.071   8.121 -0.5891 -1.1124  0.0677
 6560SOL     OW31333   8.812   5.170   4.119 -0.5804 -0.7111  0.5016
 6560SOL    HW131334   8.860   5.196   4.036  0.1170  0.4803  1.2545
 6560SOL    HW231335   8.823   5.072   4.136  0.1484 -0.7570 -0.2457
 6561SOL     OW31336   0.968   5.601   6.726  0.5824  0.1337 -0.2114
 6561SOL    HW131337   1.039   5.542   6.766  0.4834  0.3773  0.3202
 6561SOL    HW231338   0.887   5.546   6.707  0.4461  0.1155  0.3990
 6562SOL     OW31339   7.336   0.510   4.520  0.1940 -0.0866 -0.0107
 6562SOL    HW131340   7.310   0.570   4.445 -0.0890 -0.4798 -0.2319
 6562SOL    HW231341   7.291   0.540   4.604  0.1515  0.0847 -0.0945
 6563SOL     OW31342   1.916   2.762   2.007  0.2527  0.7059 -0.6569
 6563SOL    HW131343   1.884   2.679   1.961 -1.2885  1.3440 -0.7539
 6563SOL    HW231344   1.961   2.822   1.941  0.6448  0.3202 -0.7447
 6564SOL     OW31345   3.854   7.404   3.513 -0.1758  0.4048 -0.3769
 6564SOL    HW131346   3.892   7.396   3.606  0.2221  0.1029 -0.5637
 6564SOL    HW231347   3.775   7.465   3.515 -2.0888 -2.0497  0.7303
 6565SOL     OW31348   9.022   7.729   7.864 -0.1525 -0.2267  0.0548
 6565SOL    HW131349   8.943   7.716   7.924  2.0616 -2.0251  2.7081
 6565SOL    HW231350   9.029   7.653   7.801  0.5324 -1.0855  1.1406
 6566SOL     OW31351   7.132   7.090   3.430 -0.0537 -0.3443 -0.0291
 6566SOL    HW131352   7.157   6.998   3.399  0.6461 -0.9749  2.2928
 6566SOL    HW231353   7.123   7.090   3.530  0.7845  2.3259  0.0862
 6567SOL     OW31354   4.245   7.972   5.869  0.1476 -0.0856  0.1163
 6567SOL    HW131355   4.318   7.946   5.807 -0.0331 -1.3326  0.4125
 6567SOL    HW231356   4.250   7.916   5.952 -2.4969 -1.7783 -0.8122
 6568SOL     OW31357   4.552   0.593   3.077  0.1577 -1.0304 -0.2863
 6568SOL    HW131358   4.458   0.557   3.083 -0.6508  0.5402 -2.7432
 6568SOL    HW231359   4.595   0.558   2.993  0.2762  1.5371 -1.3303
 6569SOL     OW31360   0.226   3.508   5.285 -0.3692 -0.2394 -0.8272
 6569SOL    HW131361   0.307   3.545   5.330  0.8942 -0.9918 -2.4071
 6569SOL    HW231362   0.147   3.565   5.306  0.5480  0.4659  0.7987
 6570SOL     OW31363   6.192   0.293   3.842 -0.2519 -0.3492  0.0318
 6570SOL    HW131364   6.256   0.238   3.896  0.1705 -0.5639 -0.6739
 6570SOL    HW231365   6.101   0.290   3.885  0.1470 -0.2456  0.9010
 6571SOL     OW31366   6.987   9.854   2.054 -0.1537  0.3727  0.5037
 6571SOL    HW131367   6.954   9.774   2.104 -1.5722  2.2222  2.6251
 6571SOL    HW231368   7.087   9.859   2.061 -0.1554 -0.5757  1.3498
 6572SOL     OW31369   3.012   1.767   4.409  0.3587  0.0749  0.2365
 6572SOL    HW131370   3.109   1.778   4.391  0.7307 -0.0602  2.0799
 6572SOL    HW231371   2.961   1.841   4.365  1.5416  1.5813  1.3428
 6573SOL     OW31372   2.644   9.647   7.204 -0.1196  0.3517 -0.2906
 6573SOL    HW131373   2.651   9.634   7.303  1.9197 -0.7776 -0.5389
 6573SOL    HW231374   2.700   9.725   7.177  1.3158 -0.8212 -0.8101
 6574SOL     OW31375   6.256   8.638   2.894 -0.0036 -0.2027 -0.5331
 6574SOL    HW131376   6.241   8.734   2.914 -0.4974 -0.1038 -1.3669
 6574SOL    HW231377   6.319   8.629   2.817  1.5045 -0.5761  0.7215
 6575SOL     OW31378   5.294  10.000   2.284 -0.3564 -0.2289 -0.0541
 6575SOL    HW131379   5.278   9.902   2.297 -0.0103 -0.3279 -0.3650
 6575SOL    HW231380   5.255  10.030   2.197 -1.9316  0.2641  0.8060
 6576SOL     OW31381   2.384   8.274   6.227  0.8270  0.3084  0.2330
 6576SOL    HW131382   2.338   8.228   6.303 -0.1723  0.5807 -0.1971
 6576SOL    HW231383   2.315   8.319   6.170  1.6121  0.4406 -0.6027
 6577SOL     OW31384   1.991   6.805   8.096 -0.2187  0.3049 -0.0649
 6577SOL    HW131385   1.955   6.716   8.122  0.5256  0.4354  1.4715
 6577SOL    HW231386   2.012   6.805   7.998  1.4276 -1.7939  0.2496
 6578SOL     OW31387   7.824   2.772   3.654  0.1554  0.5607  0.2062
 6578SOL    HW131388   7.850   2.770   3.557  0.0175 -1.8839  0.1896
 6578SOL    HW231389   7.897   2.731   3.709 -0.1390  1.1417  1.0411
 6579SOL     OW31390   4.792   9.088   4.799  0.0168 -0.3827 -0.3223
 6579SOL    HW131391   4.855   9.164   4.784  2.8571 -2.0369  2.5920
 6579SOL    HW231392   4.732   9.108   4.876 -1.4360  0.2210 -1.6018
 6580SOL     OW31393   2.770   3.039   1.759 -0.4892 -0.0341 -0.3563
 6580SOL    HW131394   2.785   3.038   1.660  1.2845  0.5301 -0.1090
 6580SOL    HW231395   2.676   3.009   1.778 -0.6415 -0.8291 -2.1597
 6581SOL     OW31396   5.193   1.875   1.641 -0.2149  0.3037 -0.1212
 6581SOL    HW131397   5.106   1.826   1.648 -0.2195  0.0266 -2.0063
 6581SOL    HW231398   5.175   1.973   1.632 -0.4013  0.1314 -1.8231
 6582SOL     OW31399   1.669   4.297   4.717  0.3110 -0.8912  0.7342
 6582SOL    HW131400   1.678   4.395   4.732 -0.2320 -0.8597  0.8566
 6582SOL    HW231401   1.676   4.277   4.620  0.5768 -0.7475  0.7245
 6583SOL     OW31402   0.369   1.565   1.921 -0.2267  0.1640  0.1047
 6583SOL    HW131403   0.278   1.524   1.931 -0.8743  1.8300  1.1024
 6583SOL    HW231404   0.388   1.578   1.823 -0.4233 -1.5558 -0.1829
 6584SOL     OW31405   1.908   6.313   3.806 -0.6520 -0.3821 -0.7247
 6584SOL    HW131406   1.986   6.251   3.799 -0.8558 -0.6897 -0.2826
 6584SOL    HW231407   1.823   6.263   3.789 -1.0867 -0.9356  2.7028
 6585SOL     OW31408   0.184   3.973   2.342  0.4557 -0.4331  0.0919
 6585SOL    HW131409   0.261   3.930   2.295  1.0245 -0.2086  0.8184
 6585SOL    HW231410   0.216   4.054   2.392 -0.7320  1.4204 -2.0198
 6586SOL     OW31411   5.046   9.165   3.700 -0.3125  0.1523  0.2563
 6586SOL    HW131412   5.047   9.200   3.607  0.7138 -0.5444 -0.0023
 6586SOL    HW231413   5.081   9.235   3.762  0.7506 -0.0289 -0.1262
 6587SOL     OW31414   9.943   3.146   2.513 -0.3083  0.7528 -0.0531
 6587SOL    HW131415   9.896   3.234   2.518  0.4269  1.0822  1.3069
 6587SOL    HW231416  10.013   3.142   2.584 -0.1556 -0.8295 -0.2835
 6588SOL     OW31417   6.270   1.651   1.768  0.1786  0.5487 -0.2993
 6588SOL    HW131418   6.205   1.664   1.693  1.4504 -0.8903 -1.6812
 6588SOL    HW231419   6.351   1.603   1.734  0.8089 -0.0510  1.9837
 6589SOL     OW31420   3.851   9.000   6.394 -0.2357 -0.2107 -0.1732
 6589SOL    HW131421   3.763   8.954   6.399  1.0062 -2.6936 -0.3208
 6589SOL    HW231422   3.843   9.082   6.337 -2.5449 -0.0811  0.2828
 6590SOL     OW31423   8.522   6.544   7.042  0.0409  0.1762  0.2747
 6590SOL    HW131424   8.463   6.509   7.115  0.8822  1.9430  1.8355
 6590SOL    HW231425   8.515   6.643   7.038  1.2424  0.2179 -0.9795
 6591SOL     OW31426   4.215   8.716   2.666  0.0803  0.2974 -0.1759
 6591SOL    HW131427   4.313   8.710   2.647 -0.0864 -1.0819 -0.6158
 6591SOL    HW231428   4.200   8.715   2.765  0.4295 -0.7059 -0.1329
 6592SOL     OW31429   3.931   3.120   4.017 -0.2427  0.5350 -0.1899
 6592SOL    HW131430   3.928   3.059   3.938 -2.0157 -0.9484  0.9797
 6592SOL    HW231431   3.859   3.188   4.009 -2.1309 -1.2355  1.3871
 6593SOL     OW31432   9.674   8.724   1.535  0.5279  0.2836 -0.3888
 6593SOL    HW131433   9.691   8.769   1.447  1.2700  0.7909  0.0076
 6593SOL    HW231434   9.760   8.717   1.586  0.0671  0.1562  0.3772
 6594SOL     OW31435   7.602   4.829   7.171 -0.3543  0.2111  0.3788
 6594SOL    HW131436   7.595   4.913   7.225 -0.9953  0.8562 -0.6898
 6594SOL    HW231437   7.684   4.833   7.114 -0.2003 -0.0495  0.5772
 6595SOL     OW31438   9.919   6.933   7.613 -0.8490 -0.3634 -0.5463
 6595SOL    HW131439   9.827   6.937   7.652  0.1486  3.2766  1.6076
 6595SOL    HW231440   9.929   7.005   7.544  1.2400  1.1436  1.2739
 6596SOL     OW31441   7.513   4.629   8.152 -0.1872 -0.1212 -0.0503
 6596SOL    HW131442   7.595   4.617   8.097 -0.3447  1.2233 -0.6111
 6596SOL    HW231443   7.495   4.546   8.205  0.8948 -0.8244 -0.7707
 6597SOL     OW31444   3.678   8.798   1.070  0.5557  0.0649 -0.4207
 6597SOL    HW131445   3.596   8.774   1.122  0.8030 -2.2785 -1.0994
 6597SOL    HW231446   3.696   8.729   1.000  2.0604  1.5188 -1.5259
 6598SOL     OW31447   9.536   0.832   4.694 -0.1421  0.3995 -0.6296
 6598SOL    HW131448   9.582   0.744   4.707  0.9900  1.1972  0.8753
 6598SOL    HW231449   9.516   0.872   4.783  1.2321  2.6570 -1.2982
 6599SOL     OW31450   1.499   4.938   1.115  0.1097 -0.2958  1.0968
 6599SOL    HW131451   1.562   4.938   1.192 -1.1856  2.8675  2.2377
 6599SOL    HW231452   1.550   4.956   1.031  1.0219  0.1802  1.7370
 6600SOL     OW31453   4.141   0.095   4.582  0.4038 -0.4608 -0.6819
 6600SOL    HW131454   4.160   0.042   4.664 -1.7102 -0.2030  0.0092
 6600SOL    HW231455   4.195   0.179   4.583  2.1004 -1.5254 -0.7071
 6601SOL     OW31456   4.303   3.749   0.867  0.1757  0.6577 -0.0417
 6601SOL    HW131457   4.401   3.761   0.854  0.2281  1.2146  0.8300
 6601SOL    HW231458   4.274   3.663   0.825  0.9758  0.6508 -0.5840
 6602SOL     OW31459   8.137   2.188   6.401  0.0713 -0.2644 -0.0710
 6602SOL    HW131460   8.139   2.269   6.459  0.1555 -0.4841  0.2353
 6602SOL    HW231461   8.042   2.164   6.380 -0.0905 -1.6672  2.0700
 6603SOL     OW31462   0.458   8.083   1.476 -0.2026 -0.4283 -0.1279
 6603SOL    HW131463   0.449   7.990   1.512  0.0535 -0.3550  0.1279
 6603SOL    HW231464   0.435   8.083   1.379 -0.3170 -0.7379 -0.1038
 6604SOL     OW31465   7.648   5.036   0.675  0.4774  0.1087 -0.2375
 6604SOL    HW131466   7.661   5.089   0.591 -1.5536  0.3384 -0.4395
 6604SOL    HW231467   7.723   4.970   0.685  1.8685  1.5317 -1.1040
 6605SOL     OW31468   2.690   0.519   4.939 -0.0660  0.2636 -0.1187
 6605SOL    HW131469   2.671   0.545   5.034  0.1605  1.4552 -0.3988
 6605SOL    HW231470   2.771   0.567   4.906  0.3699 -0.8074 -0.6467
 6606SOL     OW31471   6.851   6.898   6.506  0.6066  0.5434  0.2286
 6606SOL    HW131472   6.877   6.817   6.454  0.0953  0.8973 -0.5837
 6606SOL    HW231473   6.826   6.972   6.443  0.1503  1.0293  0.9722
 6607SOL     OW31474   8.427   1.165   1.828  0.5975  0.3411  0.2957
 6607SOL    HW131475   8.395   1.250   1.870  3.3027  1.5668 -0.0273
 6607SOL    HW231476   8.466   1.106   1.899  0.6414  0.2855  0.2242
 6608SOL     OW31477   9.287   0.640   3.074 -0.1349 -0.8512  0.4822
 6608SOL    HW131478   9.283   0.677   2.981 -0.4670 -2.8995 -0.3586
 6608SOL    HW231479   9.307   0.713   3.139  0.4676  0.5418 -1.2443
 6609SOL     OW31480   2.858   5.869   0.361 -0.1587  0.0863 -0.3211
 6609SOL    HW131481   2.940   5.922   0.339  0.6558  0.0512  2.3407
 6609SOL    HW231482   2.819   5.831   0.278  1.5529  1.5184 -1.8344
 6610SOL     OW31483   0.635   2.652   4.054  0.0749  0.5004 -0.1858
 6610SOL    HW131484   0.578   2.570   4.048  1.6740 -0.6369 -0.2344
 6610SOL    HW231485   0.580   2.733   4.034 -1.9163 -0.4024  1.5057
 6611SOL     OW31486   9.832   8.088   4.618 -0.1416  0.5211 -0.3389
 6611SOL    HW131487   9.915   8.093   4.673  0.3421  0.4529 -1.0584
 6611SOL    HW231488   9.775   8.013   4.651  0.6410 -0.2014 -0.6074
 6612SOL     OW31489   8.629   6.999   5.215 -0.6220 -0.0865  0.1322
 6612SOL    HW131490   8.726   7.013   5.195 -0.1628 -1.1804  1.5747
 6612SOL    HW231491   8.585   7.089   5.227  0.5016  0.3863  0.8243
 6613SOL     OW31492   3.578   4.241   1.178  0.0310 -0.0003 -0.1870
 6613SOL    HW131493   3.595   4.221   1.274  1.2483  2.7052  0.2168
 6613SOL    HW231494   3.501   4.305   1.171 -1.1555 -1.5010 -1.1399
 6614SOL     OW31495   7.290   1.678   2.742  0.0475  0.7837 -0.0455
 6614SOL    HW131496   7.315   1.587   2.775  0.4471  1.1159  0.5639
 6614SOL    HW231497   7.217   1.669   2.673 -0.3732  0.0464  0.4834
 6615SOL     OW31498   8.906   3.803   0.968 -0.1323  0.0663 -0.2768
 6615SOL    HW131499   8.935   3.709   0.986  1.4732  0.7176  0.6597
 6615SOL    HW231500   8.816   3.819   1.009 -1.1123 -1.4979 -1.7649
 6616SOL     OW31501   7.572   1.014   4.658  0.0971 -0.2072 -0.3933
 6616SOL    HW131502   7.513   0.935   4.670  2.9257 -2.5733 -1.5746
 6616SOL    HW231503   7.563   1.049   4.564 -0.0493 -0.0355 -0.3166
 6617SOL     OW31504   9.830   6.781   6.083 -0.3108 -0.2854  0.0594
 6617SOL    HW131505   9.876   6.821   6.003 -0.7281 -0.5797 -0.3272
 6617SOL    HW231506   9.867   6.690   6.101  2.8767  1.4019  2.8078
 6618SOL     OW31507   8.190   9.296   0.144 -0.0900 -0.1135  0.6089
 6618SOL    HW131508   8.161   9.375   0.091 -2.1567 -1.2890 -0.0728
 6618SOL    HW231509   8.144   9.297   0.233 -0.1354 -0.5331  0.5928
 6619SOL     OW31510   2.060   3.122   8.187 -0.4012  0.2083 -0.4022
 6619SOL    HW131511   2.031   3.206   8.232  0.0623 -0.8589  1.9937
 6619SOL    HW231512   2.087   3.142   8.093  0.0762  2.8005  0.2390
 6620SOL     OW31513   9.329   4.437   4.346 -0.4402 -0.6364  0.1592
 6620SOL    HW131514   9.303   4.526   4.309  1.3367 -1.3329 -2.8812
 6620SOL    HW231515   9.420   4.443   4.387  0.5926 -1.5010 -1.9352
 6621SOL     OW31516   1.960   3.485   5.734 -0.6600 -0.0640  0.4287
 6621SOL    HW131517   1.883   3.541   5.764 -0.4067  0.7966 -0.5194
 6621SOL    HW231518   1.925   3.404   5.687 -1.0004  1.0723 -1.3554
 6622SOL     OW31519   2.467   3.306   0.191 -0.7215  0.4299 -0.7976
 6622SOL    HW131520   2.540   3.302   0.122 -1.0311 -0.8049 -1.0490
 6622SOL    HW231521   2.421   3.218   0.196  0.1772  0.0642  1.9323
 6623SOL     OW31522   3.259   4.919   2.581  0.2951 -0.1328  0.3226
 6623SOL    HW131523   3.163   4.891   2.578  0.5492 -0.9067 -1.2370
 6623SOL    HW231524   3.267   5.013   2.550  0.0240 -0.0200  0.5896
 6624SOL     OW31525   3.142   4.992   3.780  0.1958  0.1874 -0.3717
 6624SOL    HW131526   3.235   4.958   3.794  0.4885  0.4511 -1.6868
 6624SOL    HW231527   3.145   5.087   3.748 -0.5447  0.4248  0.2377
 6625SOL     OW31528   7.307   7.125   4.642  0.3331 -0.0223  0.1459
 6625SOL    HW131529   7.319   7.055   4.713 -1.2556 -0.5662 -0.0971
 6625SOL    HW231530   7.238   7.094   4.576  0.9051  1.0122 -0.9560
 6626SOL     OW31531   3.362   2.297   7.885 -0.1454  0.2997 -0.3043
 6626SOL    HW131532   3.380   2.202   7.861  1.0158  0.5443 -0.4119
 6626SOL    HW231533   3.436   2.333   7.942 -0.4201  1.2257 -0.5130
 6627SOL     OW31534   4.274   9.740   3.375 -0.0274  0.6088  0.5266
 6627SOL    HW131535   4.302   9.836   3.366  0.0044  0.6754  1.3067
 6627SOL    HW231536   4.274   9.714   3.471  0.5513 -0.3664  0.2642
 6628SOL     OW31537   8.855   9.334   0.155 -0.4630 -0.0574 -0.6543
 6628SOL    HW131538   8.803   9.249   0.167  0.1834 -0.3511  0.1238
 6628SOL    HW231539   8.879   9.344   0.058  2.5687 -2.6627 -0.2761
 6629SOL     OW31540   8.693   3.152   7.817 -0.2416 -0.1402  0.1558
 6629SOL    HW131541   8.679   3.250   7.835  0.3211  0.3738 -2.0426
 6629SOL    HW231542   8.618   3.100   7.857 -1.1222  1.2905  0.4041
 6630SOL     OW31543   3.537   3.996   5.127  0.3456  0.1930  0.0703
 6630SOL    HW131544   3.443   3.962   5.135  0.1774  0.2260 -1.6571
 6630SOL    HW231545   3.534   4.094   5.107  0.7773  0.3667  0.8238
 6631SOL     OW31546   0.155   3.321   7.095  0.0653 -0.3780 -0.5154
 6631SOL    HW131547   0.104   3.335   7.010 -1.4640 -1.4257  0.1880
 6631SOL    HW231548   0.140   3.227   7.126 -0.9134  0.5521  1.8828
 6632SOL     OW31549   6.195   9.784   3.797  0.3914  0.1427 -0.4992
 6632SOL    HW131550   6.246   9.752   3.877  0.1061 -1.9778 -1.1384
 6632SOL    HW231551   6.239   9.750   3.714 -0.7813  0.1764 -1.1421
 6633SOL     OW31552   8.579   8.658   2.018 -0.4312 -0.9288  0.0243
 6633SOL    HW131553   8.649   8.595   2.053  1.1896  0.5501 -0.4434
 6633SOL    HW231554   8.615   8.703   1.936 -1.3550  1.0048  0.6835
 6634SOL     OW31555   7.430   5.836   1.062  0.1282  0.2633  0.1166
 6634SOL    HW131556   7.405   5.823   1.158 -1.9483 -0.2225 -0.4745
 6634SOL    HW231557   7.512   5.782   1.042  0.4816  0.2402  1.5663
 6635SOL     OW31558   0.267   0.985   0.194  0.0962  0.3270 -0.4463
 6635SOL    HW131559   0.335   1.000   0.123  1.8396 -0.4064  1.0233
 6635SOL    HW231560   0.266   1.064   0.256  0.3000 -0.0661  0.0678
 6636SOL     OW31561   0.195   3.372   6.081  0.3291 -0.1889 -0.0021
 6636SOL    HW131562   0.204   3.272   6.083 -0.7505 -0.2760  1.0450
 6636SOL    HW231563   0.286   3.413   6.077  0.7358 -1.2289 -1.9638
 6637SOL     OW31564   6.792   0.960   6.454 -0.0756  0.1938 -0.0900
 6637SOL    HW131565   6.753   1.049   6.479 -0.2285 -0.1144  0.7900
 6637SOL    HW231566   6.720   0.890   6.458  0.1047 -0.0172 -0.5150
 6638SOL     OW31567   8.414   2.442   3.691  0.0881  1.2455  0.0820
 6638SOL    HW131568   8.436   2.365   3.751  0.2817 -0.9980 -2.7956
 6638SOL    HW231569   8.315   2.454   3.687 -0.3248 -2.2677 -3.4447
 6639SOL     OW31570   2.401   1.284   6.740 -0.0061  0.3841 -0.1192
 6639SOL    HW131571   2.442   1.318   6.825 -0.8906 -2.8128  1.6505
 6639SOL    HW231572   2.474   1.259   6.676  0.7316 -0.4288  1.0227
 6640SOL     OW31573   8.175   9.765   5.335  0.0297  0.4525  0.4892
 6640SOL    HW131574   8.117   9.754   5.415 -0.7940  0.1982 -0.1294
 6640SOL    HW231575   8.123   9.809   5.262  0.3617 -0.5035 -0.3405
 6641SOL     OW31576   2.539   0.890   7.656  0.2577 -0.1993  0.5261
 6641SOL    HW131577   2.544   0.960   7.584 -1.7358 -0.3883  0.1904
 6641SOL    HW231578   2.590   0.809   7.627  2.2808  0.9647  0.7611
 6642SOL     OW31579   3.420   6.121   5.822  0.0405 -0.3648  0.3818
 6642SOL    HW131580   3.343   6.110   5.758  1.2628  0.7488 -1.3025
 6642SOL    HW231581   3.405   6.203   5.877 -0.3771 -0.6099  0.6413
 6643SOL     OW31582   4.796   2.942   1.535  0.1623 -0.8778 -0.0028
 6643SOL    HW131583   4.883   2.990   1.548 -0.9268  1.0983  0.2304
 6643SOL    HW231584   4.771   2.894   1.620 -0.0498  0.4091  0.6792
 6644SOL     OW31585   4.806   8.460   5.569  0.3234 -0.6001 -0.0381
 6644SOL    HW131586   4.878   8.524   5.597 -0.9497  1.4726 -1.3697
 6644SOL    HW231587   4.808   8.451   5.469 -1.3156 -0.4496 -0.0903
 6645SOL     OW31588   9.496   5.020   6.465  0.3445  0.1651 -0.0137
 6645SOL    HW131589   9.529   4.927   6.484 -0.5187  0.4201  3.0116
 6645SOL    HW231590   9.496   5.036   6.366  2.6833 -2.2301 -0.4501
 6646SOL     OW31591   3.079   5.592   6.583 -0.1843  0.4961 -0.7127
 6646SOL    HW131592   3.083   5.517   6.650  0.6182  0.8095 -0.4030
 6646SOL    HW231593   2.998   5.580   6.525 -1.6874  1.0088  1.2321
 6647SOL     OW31594   4.545   4.059   7.471 -0.3955  0.6780 -0.4949
 6647SOL    HW131595   4.495   4.004   7.538  1.7647 -1.8309 -0.8319
 6647SOL    HW231596   4.494   4.059   7.385 -0.3760 -0.9823 -0.5394
 6648SOL     OW31597   1.473   9.380   6.291  0.2792  0.0435 -0.0484
 6648SOL    HW131598   1.455   9.284   6.311 -0.1159 -0.0723 -0.9598
 6648SOL    HW231599   1.530   9.388   6.210 -0.0774  0.5879 -0.2536
 6649SOL     OW31600   6.523   9.792   2.705 -0.1584 -0.5292  0.4270
 6649SOL    HW131601   6.510   9.747   2.794  1.3105 -2.1789 -0.1771
 6649SOL    HW231602   6.500   9.727   2.632 -1.9535  1.0141 -0.4224
 6650SOL     OW31603   9.559   1.456   4.800  0.0269  0.3491 -0.6081
 6650SOL    HW131604   9.629   1.412   4.743 -0.0353  1.6616 -1.7158
 6650SOL    HW231605   9.600   1.531   4.852 -0.1235 -0.2342  0.3699
 6651SOL     OW31606   2.900   0.533   2.200 -0.2747 -0.4699 -0.1356
 6651SOL    HW131607   2.849   0.447   2.202 -0.6476 -0.2319  0.6185
 6651SOL    HW231608   2.935   0.549   2.108 -0.0572 -1.5186 -0.2411
 6652SOL     OW31609   2.917   5.325   6.175 -0.0648 -0.2458  0.4570
 6652SOL    HW131610   2.985   5.391   6.208 -1.0623  0.5856  0.8764
 6652SOL    HW231611   2.839   5.374   6.136 -0.3174 -1.1967 -0.2625
 6653SOL     OW31612   4.081   1.770   5.579  0.2287 -0.3694 -0.1533
 6653SOL    HW131613   4.138   1.811   5.651 -0.6931  1.3255 -0.3895
 6653SOL    HW231614   3.992   1.745   5.617 -0.0930  0.0953 -0.6090
 6654SOL     OW31615   9.154   3.261   8.154  0.0888 -0.6239  0.8253
 6654SOL    HW131616   9.122   3.226   8.242 -1.7068 -0.3898  0.2991
 6654SOL    HW231617   9.083   3.245   8.085  1.0046  0.2228 -0.3234
 6655SOL     OW31618   0.108   9.173   7.149  0.0271 -0.2550 -0.1232
 6655SOL    HW131619   0.102   9.231   7.068  0.5378 -1.5775 -1.1238
 6655SOL    HW231620   0.201   9.177   7.186  0.1122 -0.5684 -0.2997
 6656SOL     OW31621   1.161   5.872   2.587  0.0546  0.3476 -0.2955
 6656SOL    HW131622   1.132   5.954   2.637 -0.5711 -1.4574  2.3490
 6656SOL    HW231623   1.092   5.849   2.519  0.4357  2.2293 -1.3745
 6657SOL     OW31624   6.385   7.566   3.612 -0.1430  0.0105  0.1029
 6657SOL    HW131625   6.371   7.659   3.576 -3.2480 -1.2441 -2.2163
 6657SOL    HW231626   6.375   7.501   3.537 -0.3671 -2.3326  2.1368
 6658SOL     OW31627   2.005   9.813   2.748 -0.0256 -0.3105 -0.3616
 6658SOL    HW131628   2.080   9.878   2.763  0.2389  0.0243 -2.8758
 6658SOL    HW231629   1.995   9.754   2.828  0.6182  1.9285  1.4331
 6659SOL     OW31630   2.834   3.958   0.225  0.1913 -0.5058 -0.6138
 6659SOL    HW131631   2.899   3.891   0.189  1.1543 -0.3318  0.7668
 6659SOL    HW231632   2.880   4.045   0.238 -0.2460 -0.4337  0.5653
 6660SOL     OW31633   3.791   7.261   2.283  0.2229  0.1328  0.2210
 6660SOL    HW131634   3.815   7.181   2.228  0.0217 -0.3588  0.8523
 6660SOL    HW231635   3.864   7.279   2.349  0.0647  0.2144  0.3731
 6661SOL     OW31636   7.762   4.013   4.114 -0.1010 -0.0452  0.2747
 6661SOL    HW131637   7.704   4.079   4.161 -0.0349 -0.6499  1.2317
 6661SOL    HW231638   7.733   4.003   4.019 -1.4685 -0.2371  0.7079
 6662SOL     OW31639   2.694   1.738   2.676 -0.2861  0.2429 -0.2683
 6662SOL    HW131640   2.667   1.810   2.739 -0.4074 -0.1914  0.1821
 6662SOL    HW231641   2.731   1.778   2.592 -1.6220  0.8430 -0.5906
 6663SOL     OW31642   4.213   5.836   2.701  0.1850 -0.0648  0.3842
 6663SOL    HW131643   4.240   5.784   2.620  0.5963  2.1474 -0.9269
 6663SOL    HW231644   4.118   5.814   2.724 -0.3813  0.3130 -1.5257
 6664SOL     OW31645   2.366   7.976   1.854  0.2821  0.0744  0.9140
 6664SOL    HW131646   2.457   7.956   1.817  0.5332 -0.7516  1.9953
 6664SOL    HW231647   2.320   8.042   1.794  1.9051  1.1196  0.7978
 6665SOL     OW31648   9.258   0.307   2.830  0.6715 -0.3132  0.1998
 6665SOL    HW131649   9.173   0.312   2.778  0.7069  0.2560  0.2011
 6665SOL    HW231650   9.322   0.375   2.796  1.4374 -1.2948 -0.3622
 6666SOL     OW31651   0.303   7.149   4.704  0.1103  0.0013 -0.2194
 6666SOL    HW131652   0.352   7.205   4.637  0.8165 -0.0657  0.2318
 6666SOL    HW231653   0.343   7.164   4.795  0.0895 -0.9877 -0.0465
 6667SOL     OW31654   8.488   3.018   3.917  0.5821 -0.0630 -0.0103
 6667SOL    HW131655   8.494   3.107   3.962 -0.6008 -0.0170  0.0571
 6667SOL    HW231656   8.406   3.014   3.861  0.4281 -1.2480  0.2826
 6668SOL     OW31657   6.209   0.271   4.657  0.4530  0.0920 -0.3704
 6668SOL    HW131658   6.185   0.178   4.684  2.1665 -0.3115 -0.1953
 6668SOL    HW231659   6.192   0.333   4.734 -0.1613 -0.1552 -0.3019
 6669SOL     OW31660   2.258   9.114   0.637 -0.4552 -0.6436  0.7640
 6669SOL    HW131661   2.338   9.159   0.675 -0.4800  2.0162 -2.1289
 6669SOL    HW231662   2.286   9.033   0.586  0.2962 -0.1963  0.4653
 6670SOL     OW31663   8.517   8.518   5.013 -0.0854  0.0860  0.1984
 6670SOL    HW131664   8.425   8.511   5.049  0.7392 -1.5519  2.0172
 6670SOL    HW231665   8.578   8.455   5.060  2.1053  1.5004 -0.6047
 6671SOL     OW31666   9.592   8.333   7.113  0.2549 -0.1033  0.0924
 6671SOL    HW131667   9.503   8.365   7.081  0.0638  1.5379  2.0869
 6671SOL    HW231668   9.640   8.287   7.039 -1.6564  0.2782 -1.4270
 6672SOL     OW31669   0.957   3.356   4.597  0.1100 -0.0726 -0.0003
 6672SOL    HW131670   0.989   3.304   4.518 -0.0740  0.1239 -0.2076
 6672SOL    HW231671   1.027   3.356   4.668  0.6780  0.5743 -0.5499
 6673SOL     OW31672   0.002   8.744   2.248  0.0358  0.4776 -0.0698
 6673SOL    HW131673   0.076   8.687   2.212 -0.5268  0.5096 -1.2981
 6673SOL    HW231674  -0.073   8.684   2.279  0.1308  0.4891  0.1876
 6674SOL     OW31675   9.126   0.134   1.885  0.3390  0.2963  0.0617
 6674SOL    HW131676   9.037   0.139   1.930  0.2930  0.3810 -0.0408
 6674SOL    HW231677   9.190   0.086   1.945  0.5269  1.2338  0.6324
 6675SOL     OW31678   1.437   0.021   6.706 -0.0215  0.4812 -0.0535
 6675SOL    HW131679   1.462  -0.009   6.614 -0.4165  0.8502 -0.2877
 6675SOL    HW231680   1.473   0.113   6.722 -1.4837  1.1612 -0.5204
 6676SOL     OW31681   5.172   0.435   2.268 -0.6016 -0.2187  0.2257
 6676SOL    HW131682   5.105   0.377   2.221 -1.1157 -0.5060  1.3189
 6676SOL    HW231683   5.207   0.503   2.204 -1.3948 -0.5289 -0.5465
 6677SOL     OW31684   6.492   7.863   3.137 -0.0127 -0.3736 -0.1744
 6677SOL    HW131685   6.556   7.800   3.182 -1.2559 -0.2299  1.8570
 6677SOL    HW231686   6.532   7.954   3.133  0.4286 -0.5624 -0.0443
 6678SOL     OW31687   0.484   3.707   1.885  0.5060 -0.2077  0.5277
 6678SOL    HW131688   0.489   3.607   1.894 -2.5883 -0.3245  1.4638
 6678SOL    HW231689   0.527   3.735   1.799  1.1333 -2.3515  0.1075
 6679SOL     OW31690   5.723   8.445   5.589  0.7051  0.4202 -0.2669
 6679SOL    HW131691   5.757   8.371   5.647  1.4345  0.3049 -0.8318
 6679SOL    HW231692   5.760   8.532   5.622 -1.8785  0.8084  1.7181
 6680SOL     OW31693   2.250   3.130   2.436 -0.8115 -0.0538  0.4248
 6680SOL    HW131694   2.323   3.109   2.502 -2.0966 -1.1634  1.5057
 6680SOL    HW231695   2.169   3.076   2.457 -2.1643  1.5920 -0.4288
 6681SOL     OW31696   4.015   4.667   2.397  0.0157  0.5960  0.4426
 6681SOL    HW131697   4.101   4.617   2.407  0.1901  0.7740 -0.1478
 6681SOL    HW231698   4.020   4.725   2.315 -0.5677  0.8010  0.5542
 6682SOL     OW31699   7.363   0.675   5.472 -0.2592 -0.4061  0.2703
 6682SOL    HW131700   7.453   0.699   5.434 -0.9187  1.7726  0.0657
 6682SOL    HW231701   7.370   0.585   5.516  2.5759  0.6449  2.1519
 6683SOL     OW31702   4.700   5.562   3.335  0.0152 -0.5949  0.2254
 6683SOL    HW131703   4.683   5.636   3.399  0.3399 -0.0569 -0.3068
 6683SOL    HW231704   4.640   5.572   3.255  1.6851  0.4415 -0.9395
 6684SOL     OW31705   9.784   8.704   4.732  0.0275 -0.0045  0.3286
 6684SOL    HW131706   9.874   8.733   4.700  0.5125 -2.7422 -0.8974
 6684SOL    HW231707   9.761   8.616   4.692 -2.9649  0.3759  1.1108
 6685SOL     OW31708   6.453   7.729   6.153 -0.6225  0.0951  0.0382
 6685SOL    HW131709   6.408   7.809   6.194 -1.6686 -1.0706  1.2043
 6685SOL    HW231710   6.419   7.716   6.060 -2.0732 -0.2569  0.6030
 6686SOL     OW31711   2.859   6.853   4.568  0.1037  0.3929  0.2130
 6686SOL    HW131712   2.887   6.947   4.546 -0.2296  0.7130  1.1410
 6686SOL    HW231713   2.761   6.843   4.548  0.2375  0.1042 -0.3146
 6687SOL     OW31714   2.593   3.368   1.774 -0.7058  0.5441  0.5857
 6687SOL    HW131715   2.611   3.292   1.712 -0.5522  1.8230 -0.9522
 6687SOL    HW231716   2.535   3.336   1.849  1.0542 -1.5963  1.1013
 6688SOL     OW31717   9.736   8.009   6.116  0.1930  0.5175  0.2443
 6688SOL    HW131718   9.665   8.077   6.097 -0.7645 -0.0617  1.6932
 6688SOL    HW231719   9.767   7.968   6.030 -0.6706  1.3299 -0.4568
 6689SOL     OW31720   8.778   0.730   0.720  0.3214  0.6976 -0.0065
 6689SOL    HW131721   8.725   0.774   0.648  0.0474  1.2282  0.5213
 6689SOL    HW231722   8.778   0.631   0.705  0.4736  0.8204 -0.8730
 6690SOL     OW31723   4.133   7.764   3.416  0.7937 -0.1253 -0.4246
 6690SOL    HW131724   4.063   7.704   3.379  0.0016  0.9162 -0.6370
 6690SOL    HW231725   4.197   7.711   3.471 -0.7318 -0.9255  0.6015
 6691SOL     OW31726   7.779   5.427   0.550 -0.3296  0.2981 -0.0782
 6691SOL    HW131727   7.725   5.505   0.582  2.6056  1.1498  3.0522
 6691SOL    HW231728   7.734   5.342   0.577 -0.7684  0.9877  1.4177
 6692SOL     OW31729   0.311   9.343   5.514 -0.1731 -0.0389 -0.4158
 6692SOL    HW131730   0.310   9.243   5.519  1.2021  0.0218  1.5247
 6692SOL    HW231731   0.396   9.372   5.471  0.6154  0.3649  1.3889
 6693SOL     OW31732   2.305   3.595   1.544 -0.7109 -0.4100  0.0286
 6693SOL    HW131733   2.389   3.617   1.594 -1.0302  0.1292  0.3291
 6693SOL    HW231734   2.316   3.506   1.499  0.1892 -0.1472 -0.3018
 6694SOL     OW31735   3.507   0.501   1.000 -0.3743  0.4403  0.5800
 6694SOL    HW131736   3.538   0.589   0.964  2.0740 -1.4728 -2.2023
 6694SOL    HW231737   3.417   0.479   0.963 -0.8262  1.5246  0.9836
 6695SOL     OW31738   7.676   8.127   2.616 -0.3865  0.3203  0.1482
 6695SOL    HW131739   7.640   8.082   2.697 -1.1903 -1.0107 -0.9362
 6695SOL    HW231740   7.639   8.220   2.611 -2.9709 -0.6876 -0.4350
 6696SOL     OW31741   0.133   4.148   0.825 -0.4114 -0.5450  0.4636
 6696SOL    HW131742   0.079   4.214   0.878  0.7903 -0.2302  1.2915
 6696SOL    HW231743   0.214   4.122   0.876 -0.0960 -1.5165 -0.5204
 6697SOL     OW31744   7.591   6.897   2.005 -0.0753  0.2018 -0.5631
 6697SOL    HW131745   7.679   6.924   1.966 -0.1830  1.6338  0.1773
 6697SOL    HW231746   7.537   6.978   2.025 -0.1248 -0.4968  2.3855
 6698SOL     OW31747   4.160   8.929   4.928 -0.5662 -0.1647  0.4730
 6698SOL    HW131748   4.250   8.958   4.960  0.5877 -2.1686 -0.8266
 6698SOL    HW231749   4.098   8.918   5.006  0.8136 -0.3905  1.5454
 6699SOL     OW31750   5.979   4.889   0.839 -0.6908 -0.6665  0.1228
 6699SOL    HW131751   6.010   4.964   0.898 -0.0841 -0.1199 -0.8739
 6699SOL    HW231752   6.058   4.833   0.813 -0.6404  0.2426 -1.7565
 6700SOL     OW31753   7.275   2.361   1.384  0.1463  0.3948  0.2020
 6700SOL    HW131754   7.260   2.294   1.458 -0.8029  0.2129 -0.1485
 6700SOL    HW231755   7.357   2.415   1.404 -1.0234  1.4825  2.2330
 6701SOL     OW31756   0.611   8.877   1.928 -0.2999  0.9939 -0.2637
 6701SOL    HW131757   0.622   8.842   2.021 -1.5676  0.2357 -0.3869
 6701SOL    HW231758   0.683   8.840   1.869 -0.3144  0.3663  0.1125
 6702SOL     OW31759   8.191   0.488   3.602 -0.5615 -0.0373 -0.0344
 6702SOL    HW131760   8.181   0.518   3.697  1.3843  1.4008 -0.2472
 6702SOL    HW231761   8.199   0.568   3.542  1.2210 -0.9359 -1.0431
 6703SOL     OW31762   3.722   5.739   0.887 -0.1187  0.0065  0.5387
 6703SOL    HW131763   3.744   5.650   0.925  1.7030 -0.1939 -0.9513
 6703SOL    HW231764   3.635   5.771   0.926 -1.1212 -2.6720  0.6225
 6704SOL     OW31765   4.847   7.266   3.336  0.0302 -0.4459 -0.3365
 6704SOL    HW131766   4.810   7.252   3.427 -0.8071  0.6765 -0.5030
 6704SOL    HW231767   4.895   7.183   3.307 -0.0146 -0.9373  0.9659
 6705SOL     OW31768   0.026   4.200   5.202  0.7620  0.3643 -0.1144
 6705SOL    HW131769   0.121   4.200   5.232 -0.5965  1.1587  4.6927
 6705SOL    HW231770  -0.007   4.295   5.197 -0.3434  0.0045  0.2697
 6706SOL     OW31771   7.737   5.619   1.421 -0.5752  0.1273 -0.2709
 6706SOL    HW131772   7.792   5.663   1.350 -0.0260  2.2089  1.4224
 6706SOL    HW231773   7.778   5.531   1.445  1.5026  1.2680  0.3601
 6707SOL     OW31774   0.730   4.348   5.193 -0.4799  0.1777 -0.5792
 6707SOL    HW131775   0.643   4.337   5.147 -1.6967 -2.8739  2.2688
 6707SOL    HW231776   0.800   4.294   5.147 -0.9701 -0.3860 -0.6629
 6708SOL     OW31777   9.403   6.773   1.739  0.1036 -0.8284  0.4227
 6708SOL    HW131778   9.345   6.692   1.732  2.6910 -2.8740  1.6317
 6708SOL    HW231779   9.389   6.818   1.827  1.9873 -2.6933  1.7255
 6709SOL     OW31780   1.378   8.353   4.793 -0.1399 -0.0674 -0.0417
 6709SOL    HW131781   1.434   8.308   4.723 -0.9000  0.7284 -1.1994
 6709SOL    HW231782   1.292   8.383   4.751 -1.3786 -1.1611  1.6841
 6710SOL     OW31783   1.706   9.377   5.968  0.3894 -0.2820 -0.2768
 6710SOL    HW131784   1.637   9.449   5.976  1.9402  0.8969  3.3563
 6710SOL    HW231785   1.667   9.290   5.997 -0.1523 -0.0330 -0.2551
 6711SOL     OW31786   1.769   7.903   6.037 -0.1869 -0.2033 -0.3996
 6711SOL    HW131787   1.761   7.916   6.136 -2.5701  0.6264 -0.6777
 6711SOL    HW231788   1.713   7.824   6.010  0.9866 -0.8344 -1.0081
 6712SOL     OW31789   9.116   4.287   3.226  0.4150  0.8759  0.2675
 6712SOL    HW131790   9.038   4.299   3.288 -0.6060  1.5391 -1.1144
 6712SOL    HW231791   9.195   4.253   3.278 -1.3071 -1.5806  1.3729
 6713SOL     OW31792   0.616   8.153   0.323 -0.8683  0.0913  0.3687
 6713SOL    HW131793   0.542   8.169   0.258  0.8544  0.7622 -1.4728
 6713SOL    HW231794   0.624   8.231   0.385 -0.9227  0.5521 -0.2094
 6714SOL     OW31795   0.514   1.528   5.326 -0.3019  0.4269 -0.2949
 6714SOL    HW131796   0.600   1.484   5.354 -1.3677 -2.8303 -1.9965
 6714SOL    HW231797   0.524   1.627   5.336  2.6636 -0.0281  2.2681
 6715SOL     OW31798   2.145   4.028   2.867  0.2633  0.0185  0.2449
 6715SOL    HW131799   2.095   3.951   2.827 -1.1932  1.0937 -0.0610
 6715SOL    HW231800   2.184   4.084   2.794  0.4739  0.1106  0.4283
 6716SOL     OW31801   5.543   1.053   1.783 -0.7033 -0.7648  0.0532
 6716SOL    HW131802   5.622   1.088   1.732 -0.1502 -2.4328 -0.2550
 6716SOL    HW231803   5.495   1.130   1.825  1.1602  0.2710  0.3676
 6717SOL     OW31804   4.024   2.394   0.314  0.2447 -0.4355  0.9346
 6717SOL    HW131805   3.949   2.455   0.335  0.9289  0.1045  1.8500
 6717SOL    HW231806   4.099   2.446   0.272  0.7057 -0.6958  1.4292
 6718SOL     OW31807   9.261   9.030   7.883  0.5523 -0.3549 -0.0900
 6718SOL    HW131808   9.313   9.015   7.799 -1.7127  0.7514 -1.7437
 6718SOL    HW231809   9.259   9.127   7.904  0.5351 -0.5607  0.8734
 6719SOL     OW31810   4.063   8.147   6.158  0.2221 -0.2456 -0.0391
 6719SOL    HW131811   4.088   8.082   6.231 -1.9522 -2.0619 -0.8587
 6719SOL    HW231812   3.970   8.179   6.173  0.5296  1.0366 -0.8545
 6720SOL     OW31813   6.289   4.879   1.041  0.3257 -0.2160  0.2939
 6720SOL    HW131814   6.277   4.977   1.025  0.0623 -0.3709 -0.4709
 6720SOL    HW231815   6.269   4.858   1.137 -0.2704  0.3697  0.3007
 6721SOL     OW31816   0.095   5.952   5.970 -0.1401 -0.5405 -0.4557
 6721SOL    HW131817   0.134   5.935   5.880 -1.1381 -0.8060 -0.8445
 6721SOL    HW231818   0.146   5.901   6.039  0.3375 -0.6997 -0.9287
 6722SOL     OW31819   1.755   5.179   6.691 -0.9399 -0.6673 -0.2380
 6722SOL    HW131820   1.719   5.266   6.726 -0.8898 -0.6673 -0.1869
 6722SOL    HW231821   1.744   5.108   6.761 -0.7052 -0.6337 -0.1649
 6723SOL     OW31822   0.340   9.772   5.799 -0.7319  0.7688 -0.4456
 6723SOL    HW131823   0.407   9.710   5.840  1.0984  2.9513 -0.0068
 6723SOL    HW231824   0.248   9.746   5.828  0.0363 -1.3754  0.1589
 6724SOL     OW31825   9.538   5.282   5.077 -0.3918  0.3772  0.1671
 6724SOL    HW131826   9.598   5.222   5.131 -1.5759 -0.7989  0.2034
 6724SOL    HW231827   9.594   5.343   5.021  0.8394 -0.5933  0.3126
 6725SOL     OW31828   2.850   7.865   2.804  0.3152  0.2777  0.4241
 6725SOL    HW131829   2.874   7.774   2.837 -0.2369  0.0738  0.2724
 6725SOL    HW231830   2.763   7.861   2.755 -0.0013  0.9841  0.9093
 6726SOL     OW31831   1.585   4.475   0.495  0.1963  0.1439 -0.3783
 6726SOL    HW131832   1.614   4.408   0.564 -1.2285  0.1493  0.2342
 6726SOL    HW231833   1.595   4.435   0.404 -0.8186 -0.9872 -0.0103
 6727SOL     OW31834   9.129   0.559   6.523  0.4996 -0.2459 -0.0709
 6727SOL    HW131835   9.075   0.477   6.541 -0.0835  0.4490  1.4302
 6727SOL    HW231836   9.213   0.534   6.476 -0.7643 -1.4349 -1.7935
 6728SOL     OW31837   1.730   7.057   2.266  0.1861  0.5903 -0.0294
 6728SOL    HW131838   1.808   7.066   2.328  0.2439 -1.1532  0.1683
 6728SOL    HW231839   1.645   7.059   2.319  0.1442  1.2144 -0.1161
 6729SOL     OW31840   0.881   3.827   0.853  0.2037  0.1812  0.3195
 6729SOL    HW131841   0.917   3.867   0.937 -0.6906 -0.5105  1.0449
 6729SOL    HW231842   0.939   3.751   0.825  0.4289  0.3268  0.3892
 6730SOL     OW31843   2.994   1.102   0.590 -0.1404 -0.2105 -0.1734
 6730SOL    HW131844   2.950   1.191   0.600 -1.8003 -0.7523 -2.2688
 6730SOL    HW231845   2.924   1.031   0.582  1.1553 -1.5538  0.3129
 6731SOL     OW31846   6.165   1.774   3.722  0.4048 -0.2843 -0.1267
 6731SOL    HW131847   6.100   1.830   3.671  1.2923 -0.4738 -1.4908
 6731SOL    HW231848   6.195   1.698   3.665  1.3146 -0.5796  0.7315
 6732SOL     OW31849   3.252   4.631   5.362 -0.5205  0.1426  0.0835
 6732SOL    HW131850   3.316   4.657   5.434 -0.8463 -0.0518  0.4458
 6732SOL    HW231851   3.289   4.554   5.311  0.0115  0.7009 -0.3795
 6733SOL     OW31852   0.434   3.698   7.254  1.0186 -0.2006  0.0882
 6733SOL    HW131853   0.413   3.698   7.156 -0.4209 -0.1433  0.3774
 6733SOL    HW231854   0.349   3.712   7.306  1.7486 -0.3658  1.3460
 6734SOL     OW31855   0.534   1.495   1.316 -0.0713  0.0215 -0.0322
 6734SOL    HW131856   0.463   1.532   1.255  0.0237 -0.5617 -0.4989
 6734SOL    HW231857   0.522   1.396   1.325  0.8454 -0.1190 -0.3206
 6735SOL     OW31858   2.626   2.675   3.199  0.1044 -0.4420  0.0992
 6735SOL    HW131859   2.586   2.584   3.203  0.4316 -0.5328  2.0742
 6735SOL    HW231860   2.687   2.682   3.120  1.1060 -2.3935  0.6720
 6736SOL     OW31861   2.625   4.409   7.382 -0.2091  0.4261 -0.4589
 6736SOL    HW131862   2.650   4.314   7.397 -0.8789  0.3244  0.0785
 6736SOL    HW231863   2.634   4.432   7.286  1.4106  0.2483 -0.3513
 6737SOL     OW31864   4.968   3.640   1.264  0.1430 -0.2367 -0.5642
 6737SOL    HW131865   5.066   3.637   1.282 -0.0173 -0.7659  0.2468
 6737SOL    HW231866   4.938   3.551   1.228 -0.5117 -0.9571  1.7185
 6738SOL     OW31867   6.480   0.577   4.470 -0.1200  0.2370  1.0021
 6738SOL    HW131868   6.513   0.485   4.445 -0.3621  0.5285 -0.4276
 6738SOL    HW231869   6.559   0.637   4.485  0.0428  0.4433 -0.5682
 6739SOL     OW31870   7.876   3.317   1.897 -0.4275  0.3008 -0.4373
 6739SOL    HW131871   7.831   3.391   1.945 -0.6672  0.4204 -0.8474
 6739SOL    HW231872   7.888   3.341   1.801  0.6244  0.3249 -0.3032
 6740SOL     OW31873   2.459   5.501   8.089  0.2898  0.0256  0.0254
 6740SOL    HW131874   2.432   5.418   8.138  0.1986  0.0677  0.0448
 6740SOL    HW231875   2.558   5.513   8.098  0.4048 -0.4643 -0.5715
 6741SOL     OW31876   6.188   4.334   1.269 -0.4540 -0.2137 -0.1079
 6741SOL    HW131877   6.206   4.348   1.366 -0.1737 -0.8014 -0.0686
 6741SOL    HW231878   6.144   4.415   1.231  0.4734  0.4649  0.2498
 6742SOL     OW31879   2.048   0.988   7.956  0.6068 -0.2540 -0.5791
 6742SOL    HW131880   2.128   0.960   7.903 -0.3999 -1.0559 -1.7109
 6742SOL    HW231881   1.992   1.049   7.901 -0.6818 -1.4487 -0.6255
 6743SOL     OW31882   3.207   6.269   4.741  0.3163  0.6553  0.1123
 6743SOL    HW131883   3.229   6.203   4.669  0.0575  0.8750 -0.1653
 6743SOL    HW231884   3.250   6.357   4.721 -0.5918  1.0068 -0.2913
 6744SOL     OW31885   2.831   4.601   6.903  0.2317 -0.2981  0.1250
 6744SOL    HW131886   2.916   4.566   6.864  0.2222 -0.4420  0.2349
 6744SOL    HW231887   2.821   4.567   6.997 -1.1373 -2.2149 -0.6991
 6745SOL     OW31888   9.312   3.108   3.471  0.2310  0.0948  0.0736
 6745SOL    HW131889   9.214   3.090   3.467  0.3029 -0.2390 -0.2645
 6745SOL    HW231890   9.355   3.078   3.385  0.7070 -0.2676  0.4359
 6746SOL     OW31891   8.881   0.458   4.817  0.0729 -0.2812 -0.1831
 6746SOL    HW131892   8.827   0.378   4.792  0.0161 -0.3478  0.1561
 6746SOL    HW231893   8.979   0.436   4.810  0.0581 -0.5742  0.5343
 6747SOL     OW31894   0.267   1.405   5.702 -0.3802  0.6211  0.0180
 6747SOL    HW131895   0.217   1.486   5.671  0.6012  1.2584  0.0877
 6747SOL    HW231896   0.202   1.335   5.732 -1.2710  0.8465 -1.3605
 6748SOL     OW31897   6.800   2.364   4.283 -0.1385  0.0979 -1.1206
 6748SOL    HW131898   6.892   2.329   4.263 -0.9865 -1.6004 -2.1567
 6748SOL    HW231899   6.758   2.397   4.198 -0.0147  2.0634 -0.4409
 6749SOL     OW31900   0.705   2.961   3.467  0.5430  0.6557  0.4149
 6749SOL    HW131901   0.692   2.918   3.377 -1.4227  2.3967 -0.1936
 6749SOL    HW231902   0.637   2.925   3.531  1.8216 -0.4451  1.1809
 6750SOL     OW31903   0.421   0.196   6.302  0.9851 -0.8239 -0.2281
 6750SOL    HW131904   0.410   0.282   6.252  0.3267 -0.8680 -0.1628
 6750SOL    HW231905   0.485   0.138   6.252 -0.7689 -1.4549 -1.8266
 6751SOL     OW31906   0.376   5.955   4.146 -0.2353 -0.3278  0.4298
 6751SOL    HW131907   0.291   5.922   4.105 -0.4751  0.8866 -0.0825
 6751SOL    HW231908   0.402   6.042   4.102  1.5492 -0.9626  0.1976
 6752SOL     OW31909   0.414   7.306   7.892  0.6631  0.6766 -0.1430
 6752SOL    HW131910   0.447   7.254   7.971 -0.3714  0.3182  0.0647
 6752SOL    HW231911   0.417   7.248   7.810 -0.7230  0.1959  0.1351
 6753SOL     OW31912   9.628   9.195   5.512 -0.1116  0.5060  0.2997
 6753SOL    HW131913   9.686   9.226   5.437 -0.5986  0.6790 -0.0095
 6753SOL    HW231914   9.579   9.112   5.485 -2.1686  1.9425 -0.4907
 6754SOL     OW31915   4.602   2.787   4.619 -0.2070  0.1709  0.8546
 6754SOL    HW131916   4.556   2.811   4.704 -0.2625  1.8918  0.3471
 6754SOL    HW231917   4.689   2.837   4.612 -0.1239 -0.0860 -0.0255
 6755SOL     OW31918   9.814   8.158   3.473  0.3151  0.2520 -0.0020
 6755SOL    HW131919   9.896   8.191   3.427  1.0109 -0.7571  0.5228
 6755SOL    HW231920   9.839   8.112   3.558 -0.6027 -2.1128 -0.9781
 6756SOL     OW31921   8.719   6.328   2.441  0.1608 -0.0186 -0.0793
 6756SOL    HW131922   8.631   6.309   2.486 -1.1598  2.2734 -1.5970
 6756SOL    HW231923   8.727   6.270   2.359 -0.3333  0.3825 -0.4151
 6757SOL     OW31924   3.134   6.513   3.991  0.4401 -0.3464 -0.0791
 6757SOL    HW131925   3.129   6.576   4.068  0.7000 -1.7123  1.0931
 6757SOL    HW231926   3.042   6.481   3.968  0.4500 -0.6114  0.2447
 6758SOL     OW31927   4.539   3.758   3.518 -0.0841 -0.0703 -0.0037
 6758SOL    HW131928   4.585   3.732   3.433  0.8441 -1.2463  0.8450
 6758SOL    HW231929   4.489   3.679   3.554  0.1922  0.1844  0.9657
 6759SOL     OW31930   2.603   9.730   1.978 -0.2328  0.1701  0.1335
 6759SOL    HW131931   2.529   9.760   1.918  0.2391 -1.1798 -1.1515
 6759SOL    HW231932   2.614   9.631   1.970  1.1074  0.2395  1.0107
 6760SOL     OW31933   7.863   2.866   6.457 -0.0030 -0.3797  0.1864
 6760SOL    HW131934   7.888   2.770   6.444  1.6479  0.1277 -0.4787
 6760SOL    HW231935   7.837   2.906   6.369  0.6678  0.1596  0.2315
 6761SOL     OW31936   0.820   5.210   4.342  0.4183 -0.1666  0.2561
 6761SOL    HW131937   0.806   5.135   4.405  0.1688 -0.8645 -0.6122
 6761SOL    HW231938   0.783   5.294   4.381 -0.3472 -0.7208  0.7448
 6762SOL     OW31939   5.745   2.806   0.384 -0.2559 -0.2111 -0.1083
 6762SOL    HW131940   5.747   2.764   0.293  0.8198  0.7369 -0.5330
 6762SOL    HW231941   5.696   2.893   0.380  0.0377 -0.0323  0.1630
 6763SOL     OW31942   8.946   7.761   2.244  0.0519  0.1201 -0.3072
 6763SOL    HW131943   9.036   7.723   2.220  1.2266  2.2491  0.5165
 6763SOL    HW231944   8.923   7.833   2.179 -0.9667 -0.2522 -0.3648
 6764SOL     OW31945   7.449   6.400   3.665  0.8518 -0.2100 -0.1723
 6764SOL    HW131946   7.389   6.475   3.638 -0.7888 -1.3978  0.0760
 6764SOL    HW231947   7.442   6.385   3.764 -1.9945 -3.2921 -0.7451
 6765SOL     OW31948   2.252   4.372   4.193 -0.3777  0.4042  0.9137
 6765SOL    HW131949   2.313   4.353   4.116 -0.8270 -0.7247  0.8307
 6765SOL    HW231950   2.304   4.417   4.266  0.3866  0.1250  0.5482
 6766SOL     OW31951   2.322   6.144   5.905  0.5523 -0.0584 -0.0112
 6766SOL    HW131952   2.314   6.073   5.975 -0.1934 -0.2088 -0.2392
 6766SOL    HW231953   2.418   6.158   5.883  0.8627  0.6227  1.6821
 6767SOL     OW31954   3.397   5.283   7.665  0.1435 -0.1738 -0.0576
 6767SOL    HW131955   3.327   5.277   7.735  0.0536 -1.9149 -0.2635
 6767SOL    HW231956   3.479   5.235   7.696  0.8608  0.8966 -0.2695
 6768SOL     OW31957   2.884   3.015   7.476  0.4457 -0.1462 -0.5284
 6768SOL    HW131958   2.924   2.940   7.424  1.9665 -0.7907  1.4850
 6768SOL    HW231959   2.786   2.999   7.488  0.7005 -1.6581 -0.3904
 6769SOL     OW31960   7.277   3.951   6.213  0.7088  0.2172  0.5544
 6769SOL    HW131961   7.373   3.922   6.207  0.7025  0.6423 -2.0719
 6769SOL    HW231962   7.220   3.887   6.163 -0.2917  0.4513  1.3820
 6770SOL     OW31963   8.638   0.287   2.729  0.6774  0.4870 -0.2700
 6770SOL    HW131964   8.583   0.223   2.783  0.8479  0.0385 -0.6276
 6770SOL    HW231965   8.644   0.255   2.635  0.5449  1.1719 -0.5119
 6771SOL     OW31966   8.232   4.721   7.019  0.0315  0.4494  0.0617
 6771SOL    HW131967   8.216   4.789   7.090 -1.8052 -0.8641  0.9298
 6771SOL    HW231968   8.318   4.673   7.038  0.8770  1.8743 -0.0671
 6772SOL     OW31969   7.172   7.586   3.939  0.0878 -0.2492  0.0401
 6772SOL    HW131970   7.169   7.636   4.025 -1.0759  4.6916 -2.6648
 6772SOL    HW231971   7.079   7.566   3.909  0.3035  1.0198 -1.5758
 6773SOL     OW31972   3.017   5.131   7.063 -0.0566 -0.0046  0.5270
 6773SOL    HW131973   3.116   5.140   7.079 -0.0425 -0.7392  0.8905
 6773SOL    HW231974   2.986   5.043   7.099 -1.2667  1.1917  2.4572
 6774SOL     OW31975   1.938   9.786   0.024  0.4875  0.2028 -0.3997
 6774SOL    HW131976   1.901   9.875   0.047  0.8099  0.0012  0.9623
 6774SOL    HW231977   1.973   9.742   0.107 -0.2561 -1.4587 -0.9486
 6775SOL     OW31978   9.485   0.113   4.394  0.1696 -0.1549  0.3480
 6775SOL    HW131979   9.492   0.059   4.477  1.3811 -0.2853  0.1644
 6775SOL    HW231980   9.542   0.073   4.322 -1.2999 -0.3732 -0.7311
 6776SOL     OW31981   9.045   4.388   2.545  0.3029  0.1037  0.2720
 6776SOL    HW131982   9.077   4.457   2.611  0.5131  0.4314 -0.1678
 6776SOL    HW231983   8.946   4.397   2.533  0.6229  1.7481 -1.3776
 6777SOL     OW31984   8.145   7.452   5.805 -0.0464  0.7588 -0.0696
 6777SOL    HW131985   8.218   7.428   5.869  1.1013 -1.2317 -2.0962
 6777SOL    HW231986   8.148   7.551   5.787  3.3341  0.4555 -1.5115
 6778SOL     OW31987   7.883   7.823   2.404  0.5514 -0.9461 -0.2936
 6778SOL    HW131988   7.923   7.761   2.471  0.2808  0.6435  1.3528
 6778SOL    HW231989   7.934   7.909   2.403 -1.2998  0.1861  0.0940
 6779SOL     OW31990   5.057   7.691   6.115  0.0714  0.2761  0.4041
 6779SOL    HW131991   4.976   7.713   6.170  0.2753  3.6289 -0.5625
 6779SOL    HW231992   5.070   7.760   6.045  1.9460 -1.9873 -1.5704
 6780SOL     OW31993   3.902   8.386   2.458 -0.1139  0.1176  0.1802
 6780SOL    HW131994   3.814   8.409   2.418  0.0788  0.4325 -0.0597
 6780SOL    HW231995   3.946   8.469   2.492  0.9217  0.2215 -1.3667
 6781SOL     OW31996   1.995   7.447   6.970 -0.4588 -0.4087  0.4049
 6781SOL    HW131997   1.972   7.543   6.951 -1.1511 -1.0020 -1.8710
 6781SOL    HW231998   2.012   7.436   7.068  0.3878  2.1979  0.5890
 6782SOL     OW31999   9.679   4.015   2.495 -0.1565 -0.0329  0.1753
 6782SOL    HW132000   9.661   4.076   2.573  2.3942  0.2894  0.5441
 6782SOL    HW232001   9.694   4.070   2.413  1.5737 -0.1748  0.3888
 6783SOL     OW32002   4.132   5.064   0.522 -0.0768  0.0435  0.0851
 6783SOL    HW132003   4.034   5.081   0.508 -0.2545 -0.6697  0.4127
 6783SOL    HW232004   4.185   5.132   0.473 -0.7173 -0.4637 -1.3364
 6784SOL     OW32005   9.918   6.252   7.373  0.3541  0.2047  0.4227
 6784SOL    HW132006   9.823   6.234   7.345 -0.1403  3.6610 -0.3684
 6784SOL    HW232007   9.979   6.236   7.295  0.1948 -0.2369  0.3880
 6785SOL     OW32008   0.165   8.846   1.146  0.6072 -0.4257  0.3334
 6785SOL    HW132009   0.084   8.809   1.101  0.7412 -1.0077  0.5745
 6785SOL    HW232010   0.147   8.941   1.173  0.8100  0.2061 -1.6763
 6786SOL     OW32011   0.072   5.306   5.662  0.0050  0.3774  0.4198
 6786SOL    HW132012   0.009   5.314   5.586 -0.9376 -1.5181  0.9794
 6786SOL    HW232013   0.165   5.290   5.628 -0.7565 -2.7308 -0.3366
 6787SOL     OW32014   3.057   3.442   4.832 -0.1300 -0.0902 -0.3437
 6787SOL    HW132015   3.048   3.524   4.775 -2.4068 -0.2134 -0.2082
 6787SOL    HW232016   3.072   3.469   4.927 -1.7268  0.2013 -0.1646
 6788SOL     OW32017   4.433   3.949   4.083 -0.4109  0.2935  0.0716
 6788SOL    HW132018   4.407   3.859   4.049 -1.2918  0.7121 -0.3684
 6788SOL    HW232019   4.459   4.007   4.007 -1.1832  0.8396  0.2132
 6789SOL     OW32020   7.612   8.223   5.063 -0.7168 -0.2131  0.5429
 6789SOL    HW132021   7.670   8.187   4.990 -1.1172 -0.1477  0.1988
 6789SOL    HW232022   7.543   8.284   5.025  0.2034  1.2553  1.1611
 6790SOL     OW32023   5.947   8.707   4.445  0.1132 -0.3289  0.1168
 6790SOL    HW132024   5.970   8.616   4.481  0.1947 -0.3884 -0.0846
 6790SOL    HW232025   5.934   8.701   4.346 -1.5604 -0.4488  0.3294
 6791SOL     OW32026   0.574   2.207   3.531  0.1363 -0.0752  0.6075
 6791SOL    HW132027   0.478   2.205   3.558  0.2840  0.7133  1.2225
 6791SOL    HW232028   0.594   2.293   3.484  0.4453 -0.4177  0.1015
 6792SOL     OW32029   8.097   4.705   2.673 -0.0965 -0.3726 -0.2571
 6792SOL    HW132030   8.137   4.779   2.727 -0.3800 -1.0704  0.9346
 6792SOL    HW232031   8.167   4.636   2.654 -0.4222 -0.9731  0.7225
 6793SOL     OW32032   8.438   1.788   3.633  0.2322 -0.6017 -0.2273
 6793SOL    HW132033   8.436   1.787   3.533 -0.9021  0.3217 -0.2392
 6793SOL    HW232034   8.370   1.724   3.668  0.7813 -1.0840 -0.0456
 6794SOL     OW32035   0.607   8.897   4.608  0.0024  0.5421 -0.4897
 6794SOL    HW132036   0.568   8.988   4.624 -2.3882 -0.5515  0.0426
 6794SOL    HW232037   0.706   8.905   4.599  0.0162  2.9890  1.3058
 6795SOL     OW32038   0.553   0.482   3.180  0.2997 -0.1810 -0.0067
 6795SOL    HW132039   0.529   0.386   3.194 -1.2522  0.1565 -0.3192
 6795SOL    HW232040   0.475   0.531   3.142  1.1358  1.1821 -0.0027
 6796SOL     OW32041   2.767   4.771   5.650  0.3047  0.3418  0.2994
 6796SOL    HW132042   2.727   4.746   5.738 -1.6964  0.2748 -0.6040
 6796SOL    HW232043   2.849   4.716   5.633 -1.0880 -1.8802  0.6826
 6797SOL     OW32044   2.437   2.938   1.065 -0.0837  0.1427  0.0192
 6797SOL    HW132045   2.387   2.929   0.979  1.7564 -1.2716 -0.9167
 6797SOL    HW232046   2.496   2.858   1.079  0.6948  1.0113  1.9003
 6798SOL     OW32047   3.590   8.552   4.142  0.3506 -0.2828 -0.2371
 6798SOL    HW132048   3.681   8.593   4.146  0.6290 -0.8135 -1.0930
 6798SOL    HW232049   3.574   8.515   4.051  0.1015 -2.1163  0.5311
 6799SOL     OW32050   5.072   0.451   4.644  0.2901  0.2046  0.3453
 6799SOL    HW132051   5.052   0.356   4.624  0.5735  0.3492 -0.6384
 6799SOL    HW232052   5.165   0.459   4.680  0.4689  0.1692 -0.0999
 6800SOL     OW32053   9.055   9.375   4.559 -0.5765 -0.0362 -0.2283
 6800SOL    HW132054   9.012   9.413   4.477  0.3487  1.3874 -0.0539
 6800SOL    HW232055   9.149   9.407   4.566 -0.0572 -1.6352  0.4121
 6801SOL     OW32056   4.892   4.629   8.055 -0.1356  0.5009  0.2246
 6801SOL    HW132057   4.949   4.673   8.125  1.0556 -1.3459  0.4636
 6801SOL    HW232058   4.935   4.640   7.966 -0.9136  1.6126 -0.0169
 6802SOL     OW32059   0.465   2.203   4.855 -0.2266 -0.4302  0.0513
 6802SOL    HW132060   0.547   2.247   4.819 -1.1685  0.3960 -1.1339
 6802SOL    HW232061   0.441   2.124   4.798 -1.4279  0.5774 -0.8814
 6803SOL     OW32062   7.386   1.856   5.436  0.7906 -0.0330 -0.3360
 6803SOL    HW132063   7.295   1.832   5.402  0.3054  0.0848  0.8712
 6803SOL    HW232064   7.424   1.779   5.488  0.6233  0.5833  0.7056
 6804SOL     OW32065   1.883   4.883   4.829 -0.5052  0.7421  0.0314
 6804SOL    HW132066   1.920   4.794   4.800  0.6226  1.3896 -0.5414
 6804SOL    HW232067   1.956   4.938   4.869 -0.3535  2.7683 -2.8082
 6805SOL     OW32068   7.558   0.411   6.889  0.7855 -0.3966 -0.1980
 6805SOL    HW132069   7.581   0.407   6.986  0.2326  0.0759 -0.0419
 6805SOL    HW232070   7.627   0.465   6.841  2.4799 -2.7706 -0.5257
 6806SOL     OW32071   4.872   4.003   8.127 -0.5943 -0.0178  0.0487
 6806SOL    HW132072   4.774   3.984   8.132 -0.6410  0.1795 -0.0975
 6806SOL    HW232073   4.906   4.031   8.216 -0.1944 -2.3480  0.6781
 6807SOL     OW32074   0.142   1.168   4.679  0.5697  0.1976  0.1459
 6807SOL    HW132075   0.165   1.089   4.735 -2.2876  0.7114  2.1388
 6807SOL    HW232076   0.043   1.182   4.678  0.8576  2.6018 -1.7513
 6808SOL     OW32077   3.502   0.539   2.110  0.0437  1.0392  0.0491
 6808SOL    HW132078   3.409   0.551   2.146 -0.1134 -0.4961  0.1868
 6808SOL    HW232079   3.568   0.581   2.172 -0.4531  0.9071  0.6681
 6809SOL     OW32080   9.674   8.652   1.035 -0.2553 -0.3384 -0.1639
 6809SOL    HW132081   9.620   8.684   0.957 -0.4291  1.2747  0.6002
 6809SOL    HW232082   9.622   8.583   1.086 -1.1024  0.3441 -0.1070
 6810SOL     OW32083   2.383   6.704   4.427  0.1719 -0.1706  0.0367
 6810SOL    HW132084   2.301   6.673   4.474  1.6143 -2.3177  1.1943
 6810SOL    HW232085   2.358   6.742   4.338 -1.9195 -2.3481 -0.3389
 6811SOL     OW32086   0.500   7.350   3.874  0.1225 -0.2945 -0.2485
 6811SOL    HW132087   0.508   7.299   3.960 -1.0288  2.3543  1.4738
 6811SOL    HW232088   0.582   7.406   3.861 -1.6548  2.8980  1.5855
 6812SOL     OW32089   3.122   7.669   7.947 -0.0917 -0.1685 -0.5805
 6812SOL    HW132090   3.167   7.595   7.897  0.0912 -0.9418  0.6960
 6812SOL    HW232091   3.105   7.640   8.042 -0.7682  1.1227 -0.2893
 6813SOL     OW32092   1.230   3.196   7.078 -0.1121  0.1565 -0.8461
 6813SOL    HW132093   1.139   3.167   7.108 -0.5128  0.4453 -1.7391
 6813SOL    HW232094   1.244   3.293   7.099  0.7480 -0.3620  1.0308
 6814SOL     OW32095   2.305   6.150   1.225 -0.0940  0.0141 -0.1064
 6814SOL    HW132096   2.318   6.102   1.312 -1.7378 -0.2200  0.0145
 6814SOL    HW232097   2.328   6.088   1.150  0.7734  0.0321  0.1401
 6815SOL     OW32098   2.945   4.286   2.572 -0.0783 -0.1541 -0.1021
 6815SOL    HW132099   2.997   4.281   2.486 -0.3943  1.5034 -0.4068
 6815SOL    HW232100   2.911   4.379   2.585 -1.2103 -0.7256  1.1400
 6816SOL     OW32101   3.230   1.394   0.505 -0.3101 -0.0324  0.2629
 6816SOL    HW132102   3.315   1.445   0.504 -0.5746  0.4142  0.2636
 6816SOL    HW232103   3.212   1.360   0.598  0.3954 -1.0290  0.0384
 6817SOL     OW32104   8.304   9.867   7.223  0.4003 -0.3832  0.7124
 6817SOL    HW132105   8.268   9.960   7.221 -0.2365 -0.6470 -0.5713
 6817SOL    HW232106   8.352   9.848   7.137 -1.3385 -1.9442  0.0508
 6818SOL     OW32107   0.212   8.197   8.064 -0.1765  0.9204  0.5364
 6818SOL    HW132108   0.180   8.135   7.991  0.7092  0.5662  0.4360
 6818SOL    HW232109   0.149   8.192   8.142 -0.6279  0.6035  0.1570
 6819SOL     OW32110   7.564   5.718   7.827  0.6460  0.1042  1.1220
 6819SOL    HW132111   7.568   5.675   7.917 -1.4144  0.0847  1.2340
 6819SOL    HW232112   7.471   5.749   7.810  1.2931  1.1790 -0.5168
 6820SOL     OW32113   9.143   4.337   6.904  0.2432  0.3408  0.1993
 6820SOL    HW132114   9.114   4.257   6.956  0.6304 -1.0746 -1.6784
 6820SOL    HW232115   9.120   4.420   6.954  0.6826 -0.9572  2.6187
 6821SOL     OW32116   7.628   3.188   2.749 -0.2343  0.4572 -0.0513
 6821SOL    HW132117   7.584   3.120   2.808 -0.4323  0.4208 -0.2402
 6821SOL    HW232118   7.595   3.177   2.655 -0.2214  0.7726 -0.0932
 6822SOL     OW32119   0.888   8.069   0.341  0.1039  1.2128  0.5817
 6822SOL    HW132120   0.851   7.979   0.365  2.0502 -0.2130 -1.5083
 6822SOL    HW232121   0.814   8.130   0.315 -1.2200  0.1029  1.6875
 6823SOL     OW32122   4.013   4.992   6.649  0.3039  0.0702 -0.3396
 6823SOL    HW132123   4.050   4.938   6.725  0.0454 -0.4711 -0.5936
 6823SOL    HW232124   4.082   5.059   6.619  0.4100  0.2807  0.3618
 6824SOL     OW32125   0.865   8.193   0.660  0.4158 -0.2666  0.0503
 6824SOL    HW132126   0.783   8.189   0.717  1.1855 -0.2443  1.1739
 6824SOL    HW232127   0.894   8.099   0.637 -1.2373 -0.2426 -2.2915
 6825SOL     OW32128   4.667   4.198   4.701 -0.3217 -0.5431  0.0881
 6825SOL    HW132129   4.568   4.189   4.700 -0.4584  0.3740  2.2016
 6825SOL    HW232130   4.696   4.255   4.624 -1.3673 -1.1793 -0.7988
 6826SOL     OW32131   8.519   6.110   4.784  0.4128 -0.2999 -0.2519
 6826SOL    HW132132   8.563   6.196   4.758  0.5316 -0.3983 -0.3748
 6826SOL    HW232133   8.427   6.130   4.819  1.1135  0.0557  1.4719
 6827SOL     OW32134   4.948   2.349   0.850  0.2079  0.0747  0.1724
 6827SOL    HW132135   4.878   2.400   0.799 -0.1920 -0.0437  0.5952
 6827SOL    HW232136   5.037   2.361   0.806 -0.4062 -1.3602 -1.5079
 6828SOL     OW32137   0.720   0.422   7.309 -0.0184 -0.2730 -0.1970
 6828SOL    HW132138   0.716   0.503   7.249 -0.4341  0.6079  1.0073
 6828SOL    HW232139   0.746   0.342   7.254  0.7694  0.7362 -1.3396
 6829SOL     OW32140   3.132   5.577   7.468  0.3108 -0.0083  0.3788
 6829SOL    HW132141   3.216   5.596   7.520  1.0372 -0.5913 -0.5758
 6829SOL    HW232142   3.129   5.636   7.388  1.4205 -2.2151 -1.3307
 6830SOL     OW32143   6.975   3.746   1.809 -0.0249  0.6771  0.4308
 6830SOL    HW132144   6.907   3.712   1.744  0.3433 -0.0573  0.4272
 6830SOL    HW232145   6.948   3.720   1.902  0.3709  0.1774  0.4080
 6831SOL     OW32146   8.678   3.415   0.960 -0.0355 -0.5557  0.7230
 6831SOL    HW132147   8.675   3.476   1.039 -1.3698  1.0132 -0.5186
 6831SOL    HW232148   8.656   3.322   0.991 -0.2896 -0.0174  2.2404
 6832SOL     OW32149   1.336   0.967   1.221 -1.0094  0.3285 -0.1890
 6832SOL    HW132150   1.431   0.940   1.233 -1.4432 -0.0139  2.8175
 6832SOL    HW232151   1.327   1.065   1.240 -1.0824  0.5961 -1.5696
 6833SOL     OW32152   1.990   0.357   3.637 -0.5791  0.1518  0.3337
 6833SOL    HW132153   1.937   0.442   3.641 -0.7520  0.0320  0.5497
 6833SOL    HW232154   1.933   0.281   3.667  0.3205  0.2964  2.4793
 6834SOL     OW32155   8.440   4.354   4.420 -0.0705 -0.0588  0.1260
 6834SOL    HW132156   8.384   4.271   4.422  2.4133 -1.7700  1.0263
 6834SOL    HW232157   8.484   4.361   4.331 -0.2700  0.2979  0.0555
 6835SOL     OW32158   2.557   0.017   3.525  0.2947  0.2181 -0.1479
 6835SOL    HW132159   2.490  -0.036   3.472 -2.1285 -0.0339  3.0060
 6835SOL    HW232160   2.508   0.075   3.591  3.1086  2.5472 -0.0325
 6836SOL     OW32161   7.289   1.515   3.104 -0.1057 -0.4321  0.6425
 6836SOL    HW132162   7.374   1.481   3.064 -1.3350 -1.3587 -1.2329
 6836SOL    HW232163   7.261   1.599   3.058  0.2646  0.4136  1.9067
 6837SOL     OW32164   3.457   7.598   1.714 -0.4558 -0.5513  0.0745
 6837SOL    HW132165   3.431   7.674   1.773 -1.0676  0.0427 -0.9546
 6837SOL    HW232166   3.415   7.513   1.749 -1.7260 -0.0213 -0.1229
 6838SOL     OW32167   2.149   9.352   7.148  0.7594  0.3298 -0.4068
 6838SOL    HW132168   2.071   9.307   7.192  0.2990  1.6776  0.1837
 6838SOL    HW232169   2.234   9.320   7.191  0.4230  0.2221  0.1854
 6839SOL     OW32170   3.830   5.765   4.188  0.0790  0.0135 -0.2136
 6839SOL    HW132171   3.805   5.847   4.136 -0.8370 -0.7526 -0.9853
 6839SOL    HW232172   3.895   5.711   4.135 -0.4841 -0.5265 -0.3509
 6840SOL     OW32173   8.549   1.849   6.781  0.4443  0.7734  0.2945
 6840SOL    HW132174   8.503   1.767   6.747 -1.2676  2.1774 -0.8367
 6840SOL    HW232175   8.515   1.872   6.872  1.0801  0.1248  0.7021
 6841SOL     OW32176   1.946   3.112   6.859 -0.0688 -0.6965  0.1907
 6841SOL    HW132177   1.995   3.118   6.946  0.7389 -1.0529 -0.2410
 6841SOL    HW232178   1.856   3.155   6.869  0.7888  1.0231  0.6497
 6842SOL     OW32179   3.713   1.999   7.730 -0.0330  0.2075  0.1868
 6842SOL    HW132180   3.780   2.071   7.746  0.4113  0.1240 -1.2100
 6842SOL    HW232181   3.730   1.957   7.641 -0.6574 -1.2238  0.7239
 6843SOL     OW32182   8.352   7.872   0.237 -0.7651 -0.3235  1.0520
 6843SOL    HW132183   8.284   7.823   0.291 -0.6809  0.3545  1.7887
 6843SOL    HW232184   8.428   7.900   0.296 -0.2493 -0.3493  0.4051
 6844SOL     OW32185   6.703   0.343   1.558  0.0007  0.4882  0.0717
 6844SOL    HW132186   6.684   0.262   1.614  0.6418  0.0435 -0.3392
 6844SOL    HW232187   6.618   0.380   1.522 -0.1580 -1.1447 -1.3066
 6845SOL     OW32188   0.544   6.494   1.382 -0.2071  0.4177 -0.1050
 6845SOL    HW132189   0.630   6.451   1.412  0.7508  1.9016 -0.6417
 6845SOL    HW232190   0.484   6.425   1.343  1.3310 -0.4464 -1.0115
 6846SOL     OW32191   1.379   3.917   1.925  0.2891  0.0282  0.3852
 6846SOL    HW132192   1.320   3.930   2.005 -0.0394  0.2559  0.1050
 6846SOL    HW232193   1.442   3.995   1.918 -0.6313  0.7190 -0.3899
 6847SOL     OW32194   2.744   5.120   2.013 -0.8556 -0.4416 -0.1457
 6847SOL    HW132195   2.671   5.080   1.957 -1.7760 -1.5306  1.7746
 6847SOL    HW232196   2.733   5.089   2.108  0.9889  0.9293  0.5267
 6848SOL     OW32197   2.687   5.464   4.988  0.4207 -0.6454  0.6318
 6848SOL    HW132198   2.685   5.500   4.895  1.1759  1.0289  1.2327
 6848SOL    HW232199   2.731   5.374   4.989 -0.8278 -1.2838 -0.8099
 6849SOL     OW32200   9.599   7.634   1.366 -0.0045  0.6769  0.4736
 6849SOL    HW132201   9.582   7.671   1.457  1.7687  0.2704  0.9797
 6849SOL    HW232202   9.512   7.625   1.318 -1.2066 -0.8462  2.8079
 6850SOL     OW32203   3.581   3.903   3.189 -0.0794 -0.2421 -0.0894
 6850SOL    HW132204   3.620   3.851   3.265 -1.3902 -0.8004  0.1994
 6850SOL    HW232205   3.571   3.999   3.217 -2.7373 -0.8894  1.2674
 6851SOL     OW32206   2.191   9.812   3.376 -0.6155 -0.0406 -0.1754
 6851SOL    HW132207   2.149   9.871   3.307 -0.3618 -0.5578 -0.7815
 6851SOL    HW232208   2.165   9.843   3.467 -0.5575  0.9482 -0.4945
 6852SOL     OW32209   9.952   8.841   3.254  0.4864 -0.5847 -0.4650
 6852SOL    HW132210   9.961   8.880   3.163  0.2009 -0.1264 -0.2975
 6852SOL    HW232211   9.962   8.741   3.249  1.5861 -0.4642 -0.8380
 6853SOL     OW32212   4.719   6.374   0.756  0.1967  0.2645 -0.3040
 6853SOL    HW132213   4.747   6.461   0.795 -0.9563  0.7874 -0.6248
 6853SOL    HW232214   4.770   6.357   0.672  0.7067  0.4317 -0.0327
 6854SOL     OW32215   3.109   7.862   0.934  0.1547  0.5300 -0.2473
 6854SOL    HW132216   3.133   7.816   1.020  1.5574  0.0198 -0.8873
 6854SOL    HW232217   3.193   7.889   0.887 -0.4956 -1.3304 -2.5833
 6855SOL     OW32218   6.478   1.854   3.359 -0.5632  0.1078  0.4404
 6855SOL    HW132219   6.466   1.876   3.262 -0.7355 -0.6415  0.2897
 6855SOL    HW232220   6.532   1.771   3.368 -3.6004 -1.8886  0.8750
 6856SOL     OW32221   9.902   8.778   5.212 -0.0988  0.4813  0.0941
 6856SOL    HW132222   9.842   8.816   5.142  0.8369  1.6190 -0.1231
 6856SOL    HW232223   9.849   8.755   5.293 -1.0268  0.1825 -0.5939
 6857SOL     OW32224   4.158   2.176   8.168 -0.5473 -0.8945  0.6736
 6857SOL    HW132225   4.066   2.195   8.201 -0.6219  0.2257 -0.1326
 6857SOL    HW232226   4.225   2.200   8.238 -0.7582  0.4371  0.4264
 6858SOL     OW32227   3.248   0.382   0.947 -0.2852 -0.4032 -0.0225
 6858SOL    HW132228   3.298   0.325   0.881  0.1280 -1.5229  1.2452
 6858SOL    HW232229   3.209   0.324   1.018 -0.9974  0.7730  0.5563
 6859SOL     OW32230   8.564   0.215   5.482 -0.2405  0.3306  0.2025
 6859SOL    HW132231   8.656   0.190   5.452 -0.1958 -0.4306  0.9640
 6859SOL    HW232232   8.570   0.256   5.573 -0.6919  0.0265  0.3651
 6860SOL     OW32233   1.737   1.376   7.451 -0.0737  0.0643 -0.3145
 6860SOL    HW132234   1.731   1.474   7.436 -1.6974 -0.0763 -0.7040
 6860SOL    HW232235   1.812   1.356   7.513  0.7810  1.4778 -0.8771
 6861SOL     OW32236   0.469   8.171   7.002 -0.0951  0.4011 -0.0546
 6861SOL    HW132237   0.419   8.237   7.058  1.2131  0.6725  0.8176
 6861SOL    HW232238   0.558   8.208   6.978 -0.7005  0.3602 -2.5078
 6862SOL     OW32239   8.537   9.241   1.531  0.1631 -0.2168 -0.1380
 6862SOL    HW132240   8.448   9.206   1.501 -0.4079  2.7466 -2.1803
 6862SOL    HW232241   8.559   9.204   1.621 -2.5487 -1.9999 -0.1484
 6863SOL     OW32242   9.438   7.590   2.003  0.1219  0.8111 -0.5284
 6863SOL    HW132243   9.458   7.651   1.926  1.5113 -0.8861 -1.5418
 6863SOL    HW232244   9.464   7.497   1.980 -0.5137  0.0684  1.5957
 6864SOL     OW32245   0.700   4.736   5.253 -0.6077  0.2497 -0.6868
 6864SOL    HW132246   0.637   4.686   5.193 -0.3801  0.4170 -1.0690
 6864SOL    HW232247   0.791   4.735   5.212  0.3143 -2.5374  1.2969
 6865SOL     OW32248   2.564   3.642   1.686  0.2791 -0.3836 -0.4122
 6865SOL    HW132249   2.585   3.552   1.726  0.6923  0.4517  1.3022
 6865SOL    HW232250   2.520   3.699   1.755  3.5363  2.0611 -0.2274
 6866SOL     OW32251   8.293   8.545   7.353 -0.4654 -0.2878  0.0562
 6866SOL    HW132252   8.208   8.590   7.382 -0.3767 -0.4286  0.5323
 6866SOL    HW232253   8.278   8.447   7.344  0.0184 -0.5089  1.5475
 6867SOL     OW32254   9.298   2.711   4.551  0.1729  0.4638  0.9261
 6867SOL    HW132255   9.232   2.767   4.502  1.8045  0.2766 -1.5383
 6867SOL    HW232256   9.379   2.765   4.573  1.7297 -0.8151 -1.4127
 6868SOL     OW32257   4.861   5.161   8.118 -0.3337 -0.2790 -0.0532
 6868SOL    HW132258   4.825   5.253   8.099 -0.0769 -0.0506  0.5423
 6868SOL    HW232259   4.790   5.093   8.100  0.6114 -0.3177 -4.2178
 6869SOL     OW32260   1.461   9.662   6.652 -0.6790  0.2690  0.2770
 6869SOL    HW132261   1.510   9.732   6.601  0.4028 -0.7866 -0.1671
 6869SOL    HW232262   1.365   9.688   6.661 -0.7265  0.8575 -1.6155
 6870SOL     OW32263   1.889   9.666   0.833 -0.0109 -0.0634  0.3363
 6870SOL    HW132264   1.871   9.701   0.925 -1.3573  0.6473 -0.1882
 6870SOL    HW232265   1.856   9.731   0.765  0.2517 -0.9430 -0.6493
 6871SOL     OW32266   3.380   1.923   5.907 -0.1259  0.4330  0.2456
 6871SOL    HW132267   3.397   2.006   5.960 -0.2343  1.1452 -0.8288
 6871SOL    HW232268   3.349   1.850   5.969 -0.4184  1.3033  1.1357
 6872SOL     OW32269   2.568   1.203   6.240 -0.4384  0.1940  0.5398
 6872SOL    HW132270   2.652   1.257   6.248  1.5837 -2.5396 -1.2014
 6872SOL    HW232271   2.573   1.126   6.303 -1.5528 -0.1364  0.2230
 6873SOL     OW32272   2.117   1.378   6.460  0.1291  0.3112 -0.1047
 6873SOL    HW132273   2.108   1.416   6.552  1.2623 -3.4051  1.6569
 6873SOL    HW232274   2.205   1.405   6.421  0.2429  0.7625  0.4667
 6874SOL     OW32275   4.320   0.234   0.756 -0.3412  0.3983 -0.0702
 6874SOL    HW132276   4.355   0.208   0.846  0.1465  1.1424 -0.0441
 6874SOL    HW232277   4.228   0.273   0.766 -1.4290 -2.0109 -0.1898
 6875SOL     OW32278   0.750   5.735   7.652 -0.3855 -0.7129 -0.1158
 6875SOL    HW132279   0.837   5.747   7.603 -1.5230  0.1640 -2.0000
 6875SOL    HW232280   0.751   5.791   7.735  0.2108  0.6767 -1.0276
 6876SOL     OW32281   2.920   8.504   2.374 -0.0652  0.2745  0.8768
 6876SOL    HW132282   2.979   8.430   2.406  0.5052  0.3078 -0.0821
 6876SOL    HW232283   2.828   8.469   2.356  0.2564 -0.2528  0.2245
 6877SOL     OW32284   8.785   2.255   7.523  0.2746 -0.3317  0.0007
 6877SOL    HW132285   8.794   2.354   7.511  0.1157 -0.2870  0.2503
 6877SOL    HW232286   8.694   2.234   7.560 -0.4342 -0.7350 -1.9298
 6878SOL     OW32287   7.637   1.748   1.656 -0.6075 -0.2155 -0.0428
 6878SOL    HW132288   7.541   1.759   1.685 -0.6039  0.4168 -0.2698
 6878SOL    HW232289   7.641   1.745   1.556 -0.7693 -3.7505 -0.0124
 6879SOL     OW32290   9.969   6.363   0.857  0.1188 -0.3605 -0.2501
 6879SOL    HW132291   9.986   6.378   0.955  0.2275 -2.5574  0.0872
 6879SOL    HW232292  10.056   6.356   0.809  0.0680  1.4060 -0.6465
 6880SOL     OW32293   3.700   3.533   0.060 -0.2460 -0.5343 -0.4096
 6880SOL    HW132294   3.700   3.564  -0.035 -0.3100  0.4111 -0.1047
 6880SOL    HW232295   3.754   3.596   0.116  0.8394 -1.7588 -0.0249
 6881SOL     OW32296   5.696   9.200   5.392  0.1518  0.5950 -0.0940
 6881SOL    HW132297   5.656   9.109   5.394 -1.0416  1.1238  0.3365
 6881SOL    HW232298   5.633   9.264   5.349  0.4900  1.4566  0.6730
 6882SOL     OW32299   0.144   6.570   3.651 -0.6184 -0.1502 -0.1302
 6882SOL    HW132300   0.234   6.526   3.645 -0.1132  0.7090  0.9954
 6882SOL    HW232301   0.107   6.581   3.559  0.8622  0.3723 -0.6867
 6883SOL     OW32302   2.590   3.846   0.628 -0.4056  0.3780  0.3690
 6883SOL    HW132303   2.684   3.820   0.647  0.4590  1.8559 -1.8309
 6883SOL    HW232304   2.582   3.882   0.535 -3.0879  0.5273  0.6036
 6884SOL     OW32305   9.638   5.435   0.811 -0.5331  0.6516 -0.3114
 6884SOL    HW132306   9.693   5.485   0.878  1.3455  0.6105 -1.7595
 6884SOL    HW232307   9.623   5.342   0.843  0.1745  0.6898  0.1455
 6885SOL     OW32308   0.065   7.068   0.990  0.0385 -0.3857 -0.1887
 6885SOL    HW132309   0.098   7.058   0.896  2.1352 -0.8899  0.5908
 6885SOL    HW232310   0.008   6.989   1.014  0.0448 -0.5835 -0.8117
 6886SOL     OW32311   2.979   0.446   3.968  1.1167  0.0780 -0.2190
 6886SOL    HW132312   2.926   0.511   4.023 -0.6303 -1.7194  0.2834
 6886SOL    HW232313   3.070   0.437   4.006 -0.0996 -1.2234  2.5009
 6887SOL     OW32314   2.711   1.872   7.756 -0.2382 -1.0850 -0.4422
 6887SOL    HW132315   2.623   1.826   7.765 -0.5223 -0.5014 -0.1754
 6887SOL    HW232316   2.697   1.961   7.713 -0.1608  0.1527  1.9764
 6888SOL     OW32317   8.015   8.190   0.063  0.4234 -0.0271  0.1970
 6888SOL    HW132318   8.063   8.265   0.108 -1.1568  1.4027 -0.4524
 6888SOL    HW232319   8.043   8.185  -0.033  1.8876 -1.4504  0.6803
 6889SOL     OW32320   2.449   6.796   5.011 -0.4056 -0.2046 -0.2018
 6889SOL    HW132321   2.469   6.888   5.046 -0.2138  0.0058 -0.8541
 6889SOL    HW232322   2.524   6.766   4.952 -1.1585 -0.1658 -1.1910
 6890SOL     OW32323   4.126   6.701   0.762  0.4634  0.3672 -0.2103
 6890SOL    HW132324   4.064   6.737   0.692 -0.6039 -0.0792  0.4947
 6890SOL    HW232325   4.208   6.758   0.766 -0.5196  1.8068 -0.1821
 6891SOL     OW32326   9.749   4.443   6.398 -0.1852  0.2036 -0.2343
 6891SOL    HW132327   9.657   4.483   6.401  0.2690  1.3651 -1.1110
 6891SOL    HW232328   9.744   4.345   6.413 -1.6301  0.1954 -0.7204
 6892SOL     OW32329   1.464   2.475   5.415 -0.3335 -0.2812  0.2594
 6892SOL    HW132330   1.463   2.437   5.508 -0.2736  1.4876  1.0019
 6892SOL    HW232331   1.378   2.453   5.370 -1.0144  0.1898  1.3007
 6893SOL     OW32332   4.140   4.178   1.457  0.5385 -1.3111 -0.3585
 6893SOL    HW132333   4.232   4.214   1.442 -0.6503  1.7604 -0.5600
 6893SOL    HW232334   4.097   4.158   1.369  0.3954 -1.1205 -0.3328
 6894SOL     OW32335   0.651   2.423   2.634  0.1169 -0.3576 -0.2013
 6894SOL    HW132336   0.618   2.509   2.593 -1.0391 -0.5653  0.2754
 6894SOL    HW232337   0.636   2.348   2.570  1.7888 -0.1130 -0.9120
 6895SOL     OW32338   4.567   2.470   1.646 -0.3141 -0.3246  0.5467
 6895SOL    HW132339   4.530   2.547   1.698 -0.0621 -0.0770  0.3649
 6895SOL    HW232340   4.549   2.385   1.695 -0.8750 -0.1817  0.5939
 6896SOL     OW32341   5.224   0.578   7.725 -0.1369 -0.3642  0.3318
 6896SOL    HW132342   5.200   0.600   7.819  0.0330  0.8749  0.1047
 6896SOL    HW232343   5.305   0.631   7.698  0.2697 -1.2787 -0.2583
 6897SOL     OW32344   5.766   7.870   3.192 -0.2742  0.4717  0.0722
 6897SOL    HW132345   5.731   7.789   3.144  0.0237  1.4257 -1.8237
 6897SOL    HW232346   5.832   7.917   3.133 -1.7093  3.0364  0.4578
 6898SOL     OW32347   0.257   9.015   7.491 -0.1338 -0.2187 -0.2189
 6898SOL    HW132348   0.276   8.921   7.461 -1.9841 -0.2807 -1.2728
 6898SOL    HW232349   0.190   9.013   7.566  0.2317  0.2376  0.1217
 6899SOL     OW32350   5.875   2.656   4.472 -0.5636  0.0416 -0.3572
 6899SOL    HW132351   5.942   2.670   4.399  2.5167 -0.0235  2.3319
 6899SOL    HW232352   5.849   2.744   4.511 -1.0150 -0.0272 -0.4997
 6900SOL     OW32353   8.325   9.445   3.886  0.1869  0.3994 -0.2014
 6900SOL    HW132354   8.407   9.448   3.943 -0.6901 -2.3224  1.3128
 6900SOL    HW232355   8.245   9.459   3.944 -0.6655 -1.6242 -0.8658
 6901SOL     OW32356   7.159   9.264   2.813  0.1882 -0.0507 -0.1896
 6901SOL    HW132357   7.170   9.209   2.730 -0.2463 -0.6168  0.1190
 6901SOL    HW232358   7.223   9.232   2.883  0.5673  0.4384 -0.3114
 6902SOL     OW32359   9.138   8.957   3.896 -0.2445 -0.2901  0.2035
 6902SOL    HW132360   9.041   8.934   3.895 -0.3618  0.1151  1.5044
 6902SOL    HW232361   9.162   9.005   3.812 -1.8506  2.3976  1.2134
 6903SOL     OW32362   8.083   9.428   4.132 -0.0559  0.0927 -0.2319
 6903SOL    HW132363   8.121   9.336   4.120 -0.7018 -0.0984 -0.8282
 6903SOL    HW232364   8.158   9.493   4.144  0.4450 -0.3425 -0.9616
 6904SOL     OW32365   8.817   4.672   1.794  0.0283  0.5895 -0.0025
 6904SOL    HW132366   8.823   4.768   1.822 -1.4511  1.4601 -2.5117
 6904SOL    HW232367   8.904   4.627   1.812  1.0938  2.6762  0.2651
 6905SOL     OW32368   1.573   9.755   0.436  0.3846 -0.0321  0.1513
 6905SOL    HW132369   1.575   9.739   0.534 -1.2800  0.3186  0.2528
 6905SOL    HW232370   1.636   9.829   0.412  0.6952 -0.0367  0.9656
 6906SOL     OW32371   2.331   7.940   1.375 -0.0114  0.2302 -0.0788
 6906SOL    HW132372   2.262   7.917   1.307  0.0677  2.0285 -0.7662
 6906SOL    HW232373   2.299   8.015   1.433  0.3140 -0.6394  1.2647
 6907SOL     OW32374   6.516   3.020   0.256 -0.0066 -0.1938 -0.0216
 6907SOL    HW132375   6.491   3.051   0.347  0.8340  0.0128  0.1405
 6907SOL    HW232376   6.613   2.995   0.255 -0.5707 -2.4739 -0.2300
 6908SOL     OW32377   7.469   6.784   3.732  0.0924 -0.2769  0.1020
 6908SOL    HW132378   7.422   6.718   3.674  0.5515 -0.5803  0.0754
 6908SOL    HW232379   7.530   6.840   3.675 -0.7538  0.5922  0.0224
 6909SOL     OW32380   7.337   9.062   5.752 -0.3764 -0.4723  0.2309
 6909SOL    HW132381   7.400   9.052   5.675 -0.4114 -2.0093  0.3873
 6909SOL    HW232382   7.383   9.036   5.837 -0.6152  0.3349  0.6113
 6910SOL     OW32383   8.091   5.190   1.528  0.2054 -0.4267 -0.0222
 6910SOL    HW132384   8.161   5.121   1.508  0.2991  0.7241 -4.1361
 6910SOL    HW232385   8.001   5.153   1.505 -0.0875 -0.2763  0.8488
 6911SOL     OW32386   8.305   3.978   6.071  0.4627  0.4822 -0.4240
 6911SOL    HW132387   8.229   4.013   6.017 -1.5839  1.1029  2.7167
 6911SOL    HW232388   8.376   3.943   6.010 -2.4717 -0.4651 -3.4316
 6912SOL     OW32389   5.833   8.613   5.794  0.1490  0.7972  0.5605
 6912SOL    HW132390   5.910   8.673   5.817  0.1650  0.5944  1.0511
 6912SOL    HW232391   5.823   8.544   5.866  0.5215 -0.1591 -0.3105
 6913SOL     OW32392   0.314   8.319   7.170  0.3599  0.0541  0.2046
 6913SOL    HW132393   0.386   8.371   7.216  0.9233 -0.3142 -0.2447
 6913SOL    HW232394   0.261   8.380   7.112  0.2904  0.3341  0.5587
 6914SOL     OW32395   0.031   8.582   4.639  0.0429 -0.7150 -0.1791
 6914SOL    HW132396   0.026   8.634   4.724  2.6342  1.6209 -1.3935
 6914SOL    HW232397   0.114   8.525   4.640  0.7045  0.2145 -1.6101
 6915SOL     OW32398   9.247   8.966   1.023 -0.3934 -0.0968  0.2947
 6915SOL    HW132399   9.205   8.945   0.935 -2.1682 -3.2520  1.8305
 6915SOL    HW232400   9.218   9.057   1.052 -1.5366  0.0945 -1.3682
 6916SOL     OW32401   1.549   3.974   4.261  0.0455  0.6446  0.0054
 6916SOL    HW132402   1.480   3.901   4.260  0.0143  0.6802 -0.3922
 6916SOL    HW232403   1.635   3.937   4.296  0.1716  0.2815 -0.6719
 6917SOL     OW32404   3.166   8.143   2.799 -0.5747 -0.0396  0.2114
 6917SOL    HW132405   3.194   8.114   2.890  0.0305  1.1547  0.4131
 6917SOL    HW232406   3.246   8.167   2.745 -0.8837 -1.3423 -0.8631
 6918SOL     OW32407   9.107   5.628   6.144 -0.1639  0.0251 -0.1479
 6918SOL    HW132408   9.034   5.629   6.076  0.6722  0.5562 -1.0536
 6918SOL    HW232409   9.195   5.621   6.098  0.4734  1.5009  0.8115
 6919SOL     OW32410   8.410   9.694   6.418 -0.2330 -0.4781  0.1106
 6919SOL    HW132411   8.359   9.705   6.333  1.0101  1.0920 -0.4590
 6919SOL    HW232412   8.506   9.676   6.397  0.2136  0.6188  1.1769
 6920SOL     OW32413   7.761   4.665   5.288  0.7028  0.2740  0.2325
 6920SOL    HW132414   7.828   4.617   5.344  1.1073 -0.9949 -1.3370
 6920SOL    HW232415   7.798   4.681   5.197  0.7067  3.8479  0.7598
 6921SOL     OW32416   9.456   3.548   7.992 -0.4603 -0.2296 -0.3460
 6921SOL    HW132417   9.556   3.552   7.998 -0.4432  3.2057 -1.4487
 6921SOL    HW232418   9.429   3.528   7.897 -0.8153 -1.9688  0.1209
 6922SOL     OW32419   2.327   9.491   1.833 -0.2926  0.1761  0.0047
 6922SOL    HW132420   2.255   9.483   1.765 -0.4604  1.6080 -0.0086
 6922SOL    HW232421   2.299   9.447   1.918 -0.7908 -0.1025 -0.3070
 6923SOL     OW32422   8.200   8.494   4.589 -0.0425 -0.4142 -0.2663
 6923SOL    HW132423   8.208   8.419   4.524  2.8321  0.7799 -1.3629
 6923SOL    HW232424   8.186   8.457   4.681 -0.1695 -2.2306 -1.0040
 6924SOL     OW32425   4.542   8.343   5.268 -0.1614  0.1751 -0.1228
 6924SOL    HW132426   4.538   8.247   5.295 -1.3217 -0.7715 -3.4813
 6924SOL    HW232427   4.638   8.374   5.269  0.1532 -0.7974  1.5730
 6925SOL     OW32428   7.027   0.709   4.166  0.6886 -0.4457  0.3552
 6925SOL    HW132429   7.100   0.763   4.125  1.1529 -1.2397  0.1169
 6925SOL    HW232430   7.053   0.683   4.259  0.7073 -0.7123  0.2770
 6926SOL     OW32431   3.707   3.362   3.461  0.5347  0.7049  0.0525
 6926SOL    HW132432   3.627   3.375   3.402  0.0724  2.0628  0.9605
 6926SOL    HW232433   3.781   3.324   3.407 -0.9026 -1.1431 -0.6726
 6927SOL     OW32434   4.794   1.234   3.257  0.3622  0.2196  0.0824
 6927SOL    HW132435   4.821   1.150   3.209  0.6613 -0.1405  0.8814
 6927SOL    HW232436   4.778   1.214   3.353 -0.8741  0.8198  0.0118
 6928SOL     OW32437   1.006   6.686   2.093  0.0908  0.4519 -0.1331
 6928SOL    HW132438   0.928   6.637   2.052  1.5842 -0.8023 -1.5602
 6928SOL    HW232439   0.993   6.784   2.082 -1.4468  0.2710 -0.0561
 6929SOL     OW32440   3.497   8.408   5.654 -0.0053  0.1530  0.4481
 6929SOL    HW132441   3.533   8.316   5.670  0.4226  0.3846  0.8272
 6929SOL    HW232442   3.572   8.474   5.652 -0.1778  0.3013 -1.2970
 6930SOL     OW32443   2.291   3.560   4.827 -0.2569 -0.2344 -0.5634
 6930SOL    HW132444   2.235   3.626   4.878  0.7632 -0.5729  1.0319
 6930SOL    HW232445   2.232   3.490   4.788 -1.1364  0.4592 -0.4964
 6931SOL     OW32446   6.752   7.720   7.649 -0.7111 -0.3160  0.1693
 6931SOL    HW132447   6.768   7.703   7.552  1.9081  0.4131  0.4468
 6931SOL    HW232448   6.751   7.633   7.698 -0.7994 -0.6049 -0.3446
 6932SOL     OW32449   9.733   9.673   1.109 -0.2555 -0.2437  0.0524
 6932SOL    HW132450   9.729   9.605   1.182  0.7594  3.4106  3.6727
 6932SOL    HW232451   9.811   9.653   1.050 -0.9144 -3.0929  0.0658
 6933SOL     OW32452   3.823   2.101   5.237  0.7849  0.3183  0.1579
 6933SOL    HW132453   3.858   2.021   5.285  0.4095  0.0688  0.0111
 6933SOL    HW232454   3.728   2.086   5.211  0.9314  0.5236 -0.5084
 6934SOL     OW32455   1.378   0.485   1.962 -0.0923  0.0352 -0.0175
 6934SOL    HW132456   1.290   0.511   2.001 -0.8579 -2.3379 -0.1213
 6934SOL    HW232457   1.405   0.395   1.996  2.6052  0.9964  0.5078
 6935SOL     OW32458   5.626   9.137   6.501  0.3586  0.3503  0.1879
 6935SOL    HW132459   5.618   9.173   6.595  1.6329  1.3086 -0.0661
 6935SOL    HW232460   5.564   9.188   6.441  0.4925  0.6035  0.2642
 6936SOL     OW32461   0.133   5.943   8.150  0.0604  0.3958  0.1029
 6936SOL    HW132462   0.135   6.041   8.167  0.1730  0.2160  1.1620
 6936SOL    HW232463   0.040   5.914   8.130  0.0189  0.7042 -0.1587
 6937SOL     OW32464   2.397   1.144   3.387  0.7279 -0.0134  0.3431
 6937SOL    HW132465   2.404   1.235   3.346 -1.4152  1.9506  4.0490
 6937SOL    HW232466   2.309   1.103   3.364  0.3215  0.2906  1.2967
 6938SOL     OW32467   2.163   0.451   0.514  0.0146  0.4483 -0.1438
 6938SOL    HW132468   2.084   0.511   0.498  0.3264  1.7727  3.0109
 6938SOL    HW232469   2.245   0.494   0.476 -0.3116  0.4224 -0.8870
 6939SOL     OW32470   4.559   3.485   6.847 -0.3246 -0.3926  0.2490
 6939SOL    HW132471   4.470   3.492   6.891 -0.0819 -0.1239  0.7058
 6939SOL    HW232472   4.608   3.571   6.856 -0.3097 -0.3045 -0.6472
 6940SOL     OW32473   4.011   3.546   0.687  0.7408 -0.4407  0.5236
 6940SOL    HW132474   3.916   3.515   0.699  0.6919  0.3326  2.3026
 6940SOL    HW232475   4.046   3.514   0.599 -1.1504 -0.7942 -0.1194
 6941SOL     OW32476   3.697   1.168   2.696 -0.1097 -0.2675 -0.0552
 6941SOL    HW132477   3.723   1.085   2.745 -1.7059  0.5665  2.2913
 6941SOL    HW232478   3.651   1.143   2.611 -0.2803 -1.7680  0.4599
 6942SOL     OW32479   2.145   0.175   8.097  0.7763  0.3697 -0.0506
 6942SOL    HW132480   2.171   0.163   8.001  1.9985  1.3253  0.1343
 6942SOL    HW232481   2.226   0.203   8.149  0.0665  0.0754  1.2141
 6943SOL     OW32482   1.643   4.955   0.196 -0.4131  0.8120 -0.4622
 6943SOL    HW132483   1.618   4.876   0.252 -0.3983  1.2452  0.1682
 6943SOL    HW232484   1.687   4.924   0.112 -0.9429  0.1325 -0.4957
 6944SOL     OW32485   6.648   0.667   2.343  0.1944  0.1992  0.2738
 6944SOL    HW132486   6.716   0.735   2.315  1.0277 -0.5165  0.5452
 6944SOL    HW232487   6.556   0.707   2.335  0.7874  2.1211  2.5998
 6945SOL     OW32488   2.496   0.891   3.213 -0.3614  0.0177 -0.7210
 6945SOL    HW132489   2.525   0.845   3.297  0.4673  1.8196  0.0023
 6945SOL    HW232490   2.459   0.981   3.235  1.4620  1.2341 -2.4256
 6946SOL     OW32491   8.354   5.783   6.361  0.0828  0.0738  0.0745
 6946SOL    HW132492   8.330   5.775   6.264  1.3995 -0.4602 -0.2192
 6946SOL    HW232493   8.277   5.754   6.417  0.2648 -2.3610 -0.8594
 6947SOL     OW32494   4.295   4.784   2.559 -0.1462  0.2370  0.0554
 6947SOL    HW132495   4.304   4.881   2.584 -1.2488  0.6004 -0.8959
 6947SOL    HW232496   4.237   4.738   2.625  1.7916 -0.2015  1.5037
 6948SOL     OW32497   9.512   3.170   0.243 -0.1967  0.0391 -0.1010
 6948SOL    HW132498   9.433   3.120   0.279  0.1175 -0.0913  0.4001
 6948SOL    HW232499   9.500   3.183   0.144  0.3198 -2.1518 -0.4805
 6949SOL     OW32500   8.935   6.616   1.691 -0.1516  0.2474  0.1146
 6949SOL    HW132501   9.030   6.642   1.673  0.1092 -0.7954 -0.0516
 6949SOL    HW232502   8.874   6.688   1.658  0.5032  0.2043 -1.2083
 6950SOL     OW32503   3.542   2.521   5.910 -0.0349 -0.3636  0.4689
 6950SOL    HW132504   3.531   2.512   6.009 -0.9040  0.7252  0.4704
 6950SOL    HW232505   3.536   2.617   5.884 -1.7693 -0.8265 -0.8875
 6951SOL     OW32506   8.675   8.095   1.593 -0.4847  0.3613  0.0893
 6951SOL    HW132507   8.762   8.045   1.603 -0.4314  0.3929 -0.2103
 6951SOL    HW232508   8.683   8.184   1.638 -0.5459  0.1458  0.5321
 6952SOL     OW32509   4.699   6.750   0.532  0.2151 -0.3862 -0.3187
 6952SOL    HW132510   4.684   6.834   0.584 -0.2543 -1.1792  0.8402
 6952SOL    HW232511   4.611   6.706   0.514  0.6599 -2.1754  1.6865
 6953SOL     OW32512   2.300   0.625   1.880 -0.2124 -0.1915  0.6422
 6953SOL    HW132513   2.380   0.566   1.867  0.9903  1.4464  0.3266
 6953SOL    HW232514   2.259   0.646   1.792 -0.9522 -0.9833  0.8005
 6954SOL     OW32515   9.631   8.821   2.486 -0.0692  0.1232  0.2933
 6954SOL    HW132516   9.592   8.820   2.394 -2.7848 -1.9677  1.4124
 6954SOL    HW232517   9.558   8.816   2.554  1.8567  2.1722  2.6146
 6955SOL     OW32518   8.008   3.377   3.293  0.3092 -0.4904  0.4961
 6955SOL    HW132519   7.948   3.453   3.268  1.1676 -0.2618 -0.9460
 6955SOL    HW232520   8.082   3.411   3.352  2.1272  0.3513 -2.1544
 6956SOL     OW32521   7.114   7.855   4.920  0.6598 -0.6285 -0.1627
 6956SOL    HW132522   7.205   7.895   4.923  0.3659  0.1390 -1.1752
 6956SOL    HW232523   7.120   7.760   4.889  1.6751 -2.4265  5.0241
 6957SOL     OW32524   2.526   4.269   7.700  0.3298 -0.5049 -0.1316
 6957SOL    HW132525   2.435   4.251   7.663  1.1850 -0.3750 -2.4258
 6957SOL    HW232526   2.530   4.362   7.736 -0.7262 -0.8520  0.8923
 6958SOL     OW32527   7.723   6.183   2.205  0.0330 -0.7129  0.0164
 6958SOL    HW132528   7.688   6.268   2.168  0.6360  0.2709  1.6564
 6958SOL    HW232529   7.721   6.112   2.134  1.1159  1.0898 -1.8628
 6959SOL     OW32530   5.381   4.262   1.665  0.2229 -0.1769  0.4156
 6959SOL    HW132531   5.455   4.223   1.610  0.8434  0.3567  0.8594
 6959SOL    HW232532   5.417   4.338   1.719 -0.1024 -1.4100  2.4316
 6960SOL     OW32533   2.828   5.821   3.917  0.7702 -0.4543  0.1188
 6960SOL    HW132534   2.762   5.745   3.921  3.5216 -2.8791  0.8650
 6960SOL    HW232535   2.795   5.895   3.976  0.0485 -2.7777  2.7783
 6961SOL     OW32536   4.808   9.254   6.769  0.0622 -0.3073 -0.6114
 6961SOL    HW132537   4.796   9.157   6.786  0.3141 -0.7756 -2.9428
 6961SOL    HW232538   4.859   9.296   6.844  0.3810 -2.0555  0.1548
 6962SOL     OW32539   5.403   1.695   7.887  0.0803  0.2932  0.0119
 6962SOL    HW132540   5.343   1.677   7.965 -1.9766  0.0092 -1.5957
 6962SOL    HW232541   5.498   1.700   7.918 -0.6275 -0.5990  2.4010
 6963SOL     OW32542   8.349   6.873   3.211  0.5786  0.2730  0.3160
 6963SOL    HW132543   8.433   6.826   3.238  0.3255 -0.3314  0.0640
 6963SOL    HW232544   8.276   6.806   3.200  0.0516  0.8051  0.5754
 6964SOL     OW32545   2.016   0.760   2.302 -0.2788 -0.1972  0.2558
 6964SOL    HW132546   2.039   0.751   2.205 -0.0665  0.3513  0.2581
 6964SOL    HW232547   2.099   0.748   2.357 -0.3079  0.0220  0.3460
 6965SOL     OW32548   0.202   8.491   6.124  0.0653 -0.2667 -0.3452
 6965SOL    HW132549   0.239   8.398   6.115 -1.9355 -1.1257  0.0383
 6965SOL    HW232550   0.124   8.501   6.062  0.0747  1.0749 -0.1459
 6966SOL     OW32551   4.728   9.798   7.481 -0.3820  0.1978  0.2984
 6966SOL    HW132552   4.645   9.854   7.472 -0.2554  0.5601  1.3058
 6966SOL    HW232553   4.768   9.813   7.571 -0.7678 -2.0993  0.8735
 6967SOL     OW32554   4.796   3.058   3.575  0.4950 -0.0346  0.4913
 6967SOL    HW132555   4.769   3.140   3.525  1.9397  1.2833  1.7865
 6967SOL    HW232556   4.834   3.084   3.664  0.6697 -2.1321  1.0707
 6968SOL     OW32557   6.955   1.241   8.163  0.2239 -0.4646 -0.5786
 6968SOL    HW132558   6.921   1.186   8.239 -0.0929  0.7687  0.1847
 6968SOL    HW232559   7.049   1.213   8.141  1.1262  0.6184  1.6907
 6969SOL     OW32560   0.145   4.916   2.167 -0.1472  0.2219  0.0172
 6969SOL    HW132561   0.092   4.989   2.123  0.7071  0.6797 -0.2691
 6969SOL    HW232562   0.187   4.952   2.251 -0.1972 -0.1055  0.1818
 6970SOL     OW32563   4.492   4.218   8.124  0.2395  0.0031  0.1783
 6970SOL    HW132564   4.526   4.126   8.103  0.4866  0.3738 -1.0730
 6970SOL    HW232565   4.438   4.252   8.048 -0.7335  0.4880  1.0749
 6971SOL     OW32566   7.111   3.659   2.174 -0.0853 -0.4220 -0.1762
 6971SOL    HW132567   7.181   3.699   2.115  0.1688  0.3308  0.6358
 6971SOL    HW232568   7.022   3.699   2.150 -0.0920 -0.6359 -0.5211
 6972SOL     OW32569   0.107   6.660   0.760  0.2765  0.0521  0.2526
 6972SOL    HW132570   0.078   6.698   0.848  0.2071  0.8721 -0.1266
 6972SOL    HW232571   0.206   6.668   0.751  0.5872 -2.1904  1.2789
 6973SOL     OW32572   3.041   6.596   5.952 -0.3034 -0.0041 -0.5664
 6973SOL    HW132573   3.124   6.541   5.945 -0.9098 -1.0310  0.2018
 6973SOL    HW232574   3.034   6.635   6.043 -0.2456  0.7684 -0.8853
 6974SOL     OW32575   0.572   7.090   2.165 -0.0436 -0.2959 -0.4169
 6974SOL    HW132576   0.637   7.082   2.241 -0.6292 -0.1149  0.1110
 6974SOL    HW232577   0.527   7.179   2.169 -1.1885 -0.8824 -0.0702
 6975SOL     OW32578   5.232   8.930   2.408  0.2131  0.4046  0.5167
 6975SOL    HW132579   5.191   8.886   2.328  0.0846 -0.5158  1.0765
 6975SOL    HW232580   5.161   8.980   2.459  0.6565  2.6275 -0.9921
 6976SOL     OW32581   1.919   8.788   7.392 -0.3178  0.1132 -0.1440
 6976SOL    HW132582   2.013   8.823   7.395  0.3953 -1.6579 -0.8621
 6976SOL    HW232583   1.915   8.712   7.327 -2.0131 -0.5483  0.7171
 6977SOL     OW32584   2.202   6.720   0.673  0.0603  0.2209  0.3141
 6977SOL    HW132585   2.150   6.770   0.743 -0.4736  0.1727 -0.0412
 6977SOL    HW232586   2.140   6.695   0.598  0.9317  1.5776 -0.8768
 6978SOL     OW32587   9.737   7.823   4.716  0.8139 -0.2091  0.1439
 6978SOL    HW132588   9.649   7.860   4.745  0.8183 -0.6335  0.7049
 6978SOL    HW232589   9.725   7.731   4.680  0.9652 -0.0959 -0.2015
 6979SOL     OW32590   6.184   4.348   0.367 -0.0171  0.5255 -0.5580
 6979SOL    HW132591   6.161   4.251   0.357  0.1007  0.4993 -0.5701
 6979SOL    HW232592   6.101   4.400   0.388  0.0728  0.2791  0.4664
 6980SOL     OW32593   1.202   4.695   4.918 -0.1486  0.2619  0.0826
 6980SOL    HW132594   1.210   4.682   5.017 -1.8321 -2.4143 -0.0800
 6980SOL    HW232595   1.293   4.706   4.879  0.5343  1.3719  1.9242
 6981SOL     OW32596   6.973   7.488   6.891  0.3731 -0.3393 -0.6699
 6981SOL    HW132597   7.039   7.429   6.937 -0.8429 -0.1496  1.4129
 6981SOL    HW232598   6.941   7.444   6.808  2.0657 -1.0495 -0.9752
 6982SOL     OW32599   7.156   2.300   0.963 -0.3529  0.4123  0.0894
 6982SOL    HW132600   7.187   2.230   1.027  0.0590 -0.4855 -1.0725
 6982SOL    HW232601   7.230   2.325   0.901 -0.6756  1.4408  0.0995
 6983SOL     OW32602   2.689   8.867   2.402  0.7442 -0.2406 -0.1392
 6983SOL    HW132603   2.646   8.778   2.391 -0.3382  0.1057  1.2989
 6983SOL    HW232604   2.748   8.866   2.483  0.4721  0.4459  0.0703
 6984SOL     OW32605   3.121   6.796   7.311  0.4133  0.5203  0.0150
 6984SOL    HW132606   3.100   6.871   7.248 -1.6594  2.1708  2.5798
 6984SOL    HW232607   3.037   6.765   7.356  1.3448 -2.8322 -0.3581
 6985SOL     OW32608   1.478   0.096   1.881 -0.2655 -0.0701 -0.0498
 6985SOL    HW132609   1.525   0.158   1.818  0.5967  0.3214  0.9672
 6985SOL    HW232610   1.413   0.148   1.937  0.4308 -0.0880  0.7781
 6986SOL     OW32611   0.718   2.147   5.472  0.2929 -0.3781 -0.0541
 6986SOL    HW132612   0.719   2.196   5.385 -2.1050 -1.1987 -0.5764
 6986SOL    HW232613   0.780   2.069   5.467  0.4206 -0.2282 -0.8974
 6987SOL     OW32614   9.084   1.820   3.457  0.3514  0.2058  0.0570
 6987SOL    HW132615   9.036   1.903   3.430 -1.2771 -0.2421  1.4586
 6987SOL    HW232616   9.165   1.843   3.511  0.3066  0.9128 -0.1884
 6988SOL     OW32617   9.188   3.287   7.698  0.4866  0.0621 -0.2788
 6988SOL    HW132618   9.196   3.339   7.613 -0.0146  0.1668 -0.2627
 6988SOL    HW232619   9.266   3.225   7.707  1.0885  0.8246 -0.2898
 6989SOL     OW32620   2.873   6.123   3.538  0.2705 -0.3931  0.4728
 6989SOL    HW132621   2.836   6.207   3.578  0.4050  0.8944 -2.0258
 6989SOL    HW232622   2.923   6.072   3.608 -1.0909  0.8577  2.3870
 6990SOL     OW32623   5.482   8.783   2.515  0.1577  0.2825  0.5773
 6990SOL    HW132624   5.401   8.825   2.475  1.0828  0.6141 -0.9981
 6990SOL    HW232625   5.560   8.846   2.507  1.4511 -1.4547 -1.3961
 6991SOL     OW32626   9.880   4.460   6.661 -0.1373 -0.0575 -0.0227
 6991SOL    HW132627   9.881   4.476   6.563 -0.5025  2.5054  0.3533
 6991SOL    HW232628   9.952   4.515   6.704 -1.3905  0.5641  1.3444
 6992SOL     OW32629   8.918   6.559   2.983 -0.2946 -0.0344  0.0593
 6992SOL    HW132630   8.872   6.633   2.934  1.2859  1.1698  0.3563
 6992SOL    HW232631   8.855   6.520   3.051 -1.3221  0.6444 -0.4865
 6993SOL     OW32632   1.993   1.088   3.702 -0.1286 -0.0299 -0.3357
 6993SOL    HW132633   2.092   1.093   3.690 -0.0315  0.0502  0.4508
 6993SOL    HW232634   1.954   1.023   3.636  0.3535  0.4953 -1.1329
 6994SOL     OW32635   7.694   9.817   3.668  0.0310  0.0748  0.4648
 6994SOL    HW132636   7.667   9.872   3.589 -1.1800 -0.7211  0.3151
 6994SOL    HW232637   7.695   9.720   3.644  0.1238 -0.1372  1.2882
 6995SOL     OW32638   4.768   8.698   5.238  0.0092  0.1345  0.4978
 6995SOL    HW132639   4.825   8.741   5.309  0.6448 -0.9320  0.6436
 6995SOL    HW232640   4.772   8.599   5.248 -2.3454  0.0520  0.8649
 6996SOL     OW32641   0.615   3.247   1.179  0.1714  0.3358 -0.2086
 6996SOL    HW132642   0.708   3.282   1.172  0.3960 -0.2273 -0.0575
 6996SOL    HW232643   0.606   3.193   1.263 -0.4266  0.7961  0.0282
 6997SOL     OW32644   8.956   4.449   7.812  0.1993  0.6555 -0.2866
 6997SOL    HW132645   8.986   4.355   7.798  0.7304  0.8295 -0.3457
 6997SOL    HW232646   8.856   4.453   7.816  0.1752  0.1036 -0.3781
 6998SOL     OW32647   1.750   5.986   4.182  0.3475 -0.1794  0.5253
 6998SOL    HW132648   1.704   5.900   4.207  0.4979 -0.8261 -1.3173
 6998SOL    HW232649   1.770   5.985   4.084  0.3601  1.9699  0.4864
 6999SOL     OW32650   9.964   0.950   7.635  0.2738 -0.3971 -0.6727
 6999SOL    HW132651  10.005   1.001   7.560 -0.2263  1.1375  0.0722
 6999SOL    HW232652   9.883   0.999   7.668 -0.2656 -1.7194  0.0180
 7000SOL     OW32653   2.674   2.199   3.176  0.0722  0.1245  0.7733
 7000SOL    HW132654   2.663   2.268   3.104 -1.8409 -1.1543 -0.2196
 7000SOL    HW232655   2.594   2.201   3.237  1.0857  0.3405  2.0996
 7001SOL     OW32656   3.576   6.532   3.435 -0.4443  0.1451 -0.5755
 7001SOL    HW132657   3.574   6.483   3.523 -0.3746 -1.3928 -1.4215
 7001SOL    HW232658   3.514   6.487   3.371  1.5932 -0.4075 -2.1958
 7002SOL     OW32659   8.469   9.206   6.752  0.0914  0.5522 -0.0914
 7002SOL    HW132660   8.448   9.162   6.840 -1.4116  0.9601 -0.2321
 7002SOL    HW232661   8.453   9.142   6.678  2.3252 -0.1224 -0.0465
 7003SOL     OW32662   1.128   8.094   8.013 -0.1910 -0.8431  0.0824
 7003SOL    HW132663   1.115   8.102   8.112 -0.4550 -0.1031 -0.0049
 7003SOL    HW232664   1.100   8.003   7.983 -3.0180 -0.0916  0.2508
 7004SOL     OW32665   6.671   9.174   7.488  0.1795  0.3545 -0.3487
 7004SOL    HW132666   6.652   9.208   7.580 -0.6460  1.6390 -0.9765
 7004SOL    HW232667   6.661   9.248   7.422  2.1788 -0.2095 -1.3295
 7005SOL     OW32668   3.099   0.333   4.382 -0.3955 -0.5052 -0.6987
 7005SOL    HW132669   3.010   0.357   4.421  0.4965 -0.4247  1.3641
 7005SOL    HW232670   3.108   0.234   4.379 -0.1125 -0.5126  0.1803
 7006SOL     OW32671   3.989   8.729   6.706 -0.2863 -0.5781 -0.4984
 7006SOL    HW132672   3.921   8.791   6.746 -1.9105 -1.4752 -1.8120
 7006SOL    HW232673   4.062   8.712   6.772 -2.8293 -1.9239  2.0391
 7007SOL     OW32674   7.860   0.487   4.871  0.0332 -0.2566  0.0797
 7007SOL    HW132675   7.931   0.520   4.934 -1.3433  2.7932  0.1063
 7007SOL    HW232676   7.771   0.489   4.916 -0.8248  0.9793 -1.5846
 7008SOL     OW32677   7.271   9.251   6.016  0.0220  0.3740 -0.5394
 7008SOL    HW132678   7.318   9.238   5.929  2.0482 -0.4689  0.6335
 7008SOL    HW232679   7.247   9.348   6.027  0.2655  0.5796 -1.7740
 7009SOL     OW32680   9.221   4.517   5.995 -0.1755 -0.1347  0.2771
 7009SOL    HW132681   9.197   4.483   5.904  1.0914 -2.0042  0.5983
 7009SOL    HW232682   9.312   4.559   5.991 -0.1179 -0.2250  0.6715
 7010SOL     OW32683   2.558   8.579   5.946 -0.7189 -0.0707 -0.5289
 7010SOL    HW132684   2.478   8.605   5.892 -0.0738 -0.7176 -1.8195
 7010SOL    HW232685   2.632   8.643   5.929 -0.3518 -0.5631 -0.8084
 7011SOL     OW32686   0.889   0.193   4.557 -0.0202 -0.1936 -0.3934
 7011SOL    HW132687   0.972   0.187   4.501  0.1752  2.2163 -0.4023
 7011SOL    HW232688   0.842   0.105   4.556  0.7799 -0.6376 -3.1333
 7012SOL     OW32689   2.336   0.254   0.083 -0.6214  0.1417 -0.5580
 7012SOL    HW132690   2.325   0.348   0.115  1.2815  1.0852 -2.5050
 7012SOL    HW232691   2.379   0.200   0.155 -2.7448  0.4371  0.9944
 7013SOL     OW32692   9.510   8.896   3.265  0.0901  0.1239 -0.4914
 7013SOL    HW132693   9.572   8.929   3.335  0.7470  0.1628 -1.0937
 7013SOL    HW232694   9.556   8.827   3.209 -1.3328 -2.0306  0.9233
 7014SOL     OW32695   0.692   0.551   5.884 -0.0256  0.2869 -0.3833
 7014SOL    HW132696   0.754   0.563   5.807  1.9486 -0.5902  1.0217
 7014SOL    HW232697   0.718   0.612   5.959 -0.5270 -0.4731  0.4276
 7015SOL     OW32698   9.230   8.509   1.385  0.2407 -0.1097  0.0908
 7015SOL    HW132699   9.216   8.417   1.348  0.6722  0.4449 -1.4790
 7015SOL    HW232700   9.175   8.574   1.333  1.8070  0.8582 -0.3843
 7016SOL     OW32701   4.408   7.400   2.252  0.0977  0.2087  0.0800
 7016SOL    HW132702   4.393   7.454   2.169  1.3382 -0.2514 -0.4477
 7016SOL    HW232703   4.416   7.462   2.330 -1.8524  0.6142  0.0080
 7017SOL     OW32704   5.493   5.402   0.725 -0.2223  0.3435 -0.0226
 7017SOL    HW132705   5.475   5.429   0.819 -0.1670  0.9410 -0.1827
 7017SOL    HW232706   5.419   5.342   0.693  0.1203 -0.4388  0.6287
 7018SOL     OW32707   9.022   8.378   1.946 -0.0324 -0.1545 -0.0490
 7018SOL    HW132708   9.102   8.436   1.962  0.7290 -0.7650 -1.5022
 7018SOL    HW232709   8.963   8.422   1.878  0.8481 -1.3321 -1.6057
 7019SOL     OW32710   8.857   8.738   0.864 -0.3463 -0.0285  0.6680
 7019SOL    HW132711   8.840   8.660   0.803  0.5212  0.6715 -0.5047
 7019SOL    HW232712   8.785   8.744   0.932 -2.0402 -0.0804 -1.0834
 7020SOL     OW32713   9.821   1.385   2.242 -0.0560  0.1056 -0.8836
 7020SOL    HW132714   9.727   1.388   2.209  0.0135  0.2439 -1.0756
 7020SOL    HW232715   9.825   1.339   2.330 -0.4480  1.0361 -0.3743
 7021SOL     OW32716   3.664   4.083   0.941 -0.3026 -0.0992 -0.1192
 7021SOL    HW132717   3.763   4.094   0.928 -0.6665  1.2662 -1.8251
 7021SOL    HW232718   3.633   4.143   1.014  0.1170 -0.5363  0.4261
 7022SOL     OW32719   3.121   7.689   5.711 -0.3642 -0.2661  0.0479
 7022SOL    HW132720   3.124   7.789   5.707  0.1928 -0.1093  3.1298
 7022SOL    HW232721   3.028   7.657   5.691 -1.2107  1.0626  1.7641
 7023SOL     OW32722   8.809   1.852   7.420 -0.4999 -0.3557 -0.2984
 7023SOL    HW132723   8.900   1.840   7.458 -0.2536 -0.5619 -0.9390
 7023SOL    HW232724   8.816   1.899   7.332 -1.2119  1.8379  0.7703
 7024SOL     OW32725   0.395   2.763   2.838  0.9809  0.6076  0.1244
 7024SOL    HW132726   0.359   2.693   2.899  0.9744  1.0326  0.6125
 7024SOL    HW232727   0.332   2.776   2.761  0.7563  0.4083  0.2736
 7025SOL     OW32728   1.989   8.082   1.010 -0.1247  0.3954 -0.1037
 7025SOL    HW132729   1.985   8.010   0.942 -0.6644  0.0494  0.2913
 7025SOL    HW232730   2.010   8.169   0.966  2.4389 -0.3099 -0.3523
 7026SOL     OW32731   2.568   2.986   4.638  0.0177 -0.2550 -0.1653
 7026SOL    HW132732   2.567   3.062   4.703 -1.0270  0.4266 -0.9661
 7026SOL    HW232733   2.662   2.966   4.612  0.4237 -0.4193  1.4266
 7027SOL     OW32734   9.605   1.106   2.023 -0.2669 -0.1178 -0.2608
 7027SOL    HW132735   9.592   1.027   1.963 -0.6729  0.0334 -0.3769
 7027SOL    HW232736   9.697   1.103   2.063  0.5449  0.5758 -2.0473
 7028SOL     OW32737   7.067   9.496   5.546 -0.2342 -0.2129 -0.5068
 7028SOL    HW132738   7.045   9.505   5.643  0.9701  2.3593 -0.4220
 7028SOL    HW232739   7.157   9.453   5.536  0.1939  0.6457 -0.4183
 7029SOL     OW32740   1.575   2.714   0.891 -0.6951  0.1587 -0.1323
 7029SOL    HW132741   1.563   2.615   0.884 -1.6213  0.3567 -1.6636
 7029SOL    HW232742   1.509   2.752   0.956  0.4936 -0.3643  1.4100
 7030SOL     OW32743   8.715   2.417   0.907 -0.0081 -0.1716  0.1509
 7030SOL    HW132744   8.621   2.422   0.941  0.5195  1.3918  1.4238
 7030SOL    HW232745   8.768   2.355   0.965  0.2625  0.5549  0.6838
 7031SOL     OW32746   9.814   0.095   6.299  0.1831  0.1135 -0.2950
 7031SOL    HW132747   9.906   0.123   6.326  0.1021 -1.6752  2.0144
 7031SOL    HW232748   9.819   0.005   6.255 -0.5640 -0.3217  0.5260
 7032SOL     OW32749   3.286   1.264   4.651 -0.5264  0.0162 -0.4817
 7032SOL    HW132750   3.245   1.353   4.635 -1.4877 -0.3362  0.0200
 7032SOL    HW232751   3.329   1.231   4.567 -2.0116 -0.0061 -1.2368
 7033SOL     OW32752   3.181   7.893   7.182  0.4079 -0.3648  0.2915
 7033SOL    HW132753   3.192   7.940   7.270  1.1120  0.3500 -0.1663
 7033SOL    HW232754   3.144   7.957   7.115 -0.3072 -0.9646  0.1133
 7034SOL     OW32755   1.341   6.262   6.478  0.1779 -0.3249  0.8824
 7034SOL    HW132756   1.288   6.284   6.560 -1.2452 -0.1205 -0.0719
 7034SOL    HW232757   1.377   6.347   6.438 -2.2483 -0.0190 -0.7557
 7035SOL     OW32758   4.981   7.906   2.278 -0.0111  0.3504  0.6982
 7035SOL    HW132759   5.070   7.864   2.260 -0.2887 -0.3101  0.8376
 7035SOL    HW232760   4.934   7.923   2.192  0.6036  1.5001  0.5730
 7036SOL     OW32761   4.603   9.281   2.187  0.2693 -0.1780  0.1918
 7036SOL    HW132762   4.638   9.221   2.259  1.3878  0.6339  0.3311
 7036SOL    HW232763   4.579   9.225   2.107 -1.5846 -1.1640  1.3753
 7037SOL     OW32764   1.242   3.616   3.638 -0.7244  0.0918  0.6561
 7037SOL    HW132765   1.324   3.624   3.581 -0.2982 -1.4136  1.0353
 7037SOL    HW232766   1.243   3.528   3.686 -1.8256  0.6960  1.8190
 7038SOL     OW32767   1.730   4.041   5.301 -0.0803  0.1837  1.0046
 7038SOL    HW132768   1.661   4.112   5.319 -0.6503 -0.3543  0.9771
 7038SOL    HW232769   1.690   3.971   5.241  0.1183 -0.7192  1.9141
 7039SOL     OW32770   2.437   0.429   4.835 -1.0566  0.0076 -0.5048
 7039SOL    HW132771   2.520   0.467   4.877 -2.0355  0.1916  1.3146
 7039SOL    HW232772   2.434   0.455   4.738  1.3847 -0.6547 -0.7931
 7040SOL     OW32773   8.067   6.832   2.908 -0.7624  0.4862 -0.0336
 7040SOL    HW132774   8.081   6.882   2.823 -0.5927 -0.4944 -0.5881
 7040SOL    HW232775   8.002   6.757   2.893 -0.5695  0.1734  0.6495
 7041SOL     OW32776   9.990   1.770   5.036  0.1189  0.2475 -0.4198
 7041SOL    HW132777   9.958   1.695   5.094 -1.4080  1.9357  1.0068
 7041SOL    HW232778  10.069   1.814   5.079 -0.0052  0.4820 -0.4308
 7042SOL     OW32779   9.718   8.159   0.855 -0.3854 -0.3958 -0.1181
 7042SOL    HW132780   9.657   8.235   0.832  0.4511  0.0079 -1.0111
 7042SOL    HW232781   9.666   8.089   0.904 -0.8536  1.3908  2.0145
 7043SOL     OW32782   2.958   7.859   3.203 -0.5647  0.1130 -0.3246
 7043SOL    HW132783   3.038   7.815   3.163  0.2343 -0.3994  1.7668
 7043SOL    HW232784   2.927   7.934   3.143  2.8263  1.7800 -0.1210
 7044SOL     OW32785   7.567   2.504   4.765  1.0321  0.2142  0.2693
 7044SOL    HW132786   7.626   2.439   4.814  0.7670 -0.8655 -0.8244
 7044SOL    HW232787   7.601   2.515   4.672  0.5005  0.9100  0.1598
 7045SOL     OW32788   1.020   2.055   5.714 -0.1669 -0.4368  0.2254
 7045SOL    HW132789   0.990   1.967   5.678 -3.3040  0.9132 -0.6478
 7045SOL    HW232790   1.118   2.068   5.696 -0.0067 -3.0844 -0.9121
 7046SOL     OW32791   4.856   1.542   5.643 -0.0164 -0.5458  0.0894
 7046SOL    HW132792   4.943   1.536   5.693 -0.4992  0.8388  1.1338
 7046SOL    HW232793   4.791   1.476   5.680  0.6917 -1.8730 -0.9634
 7047SOL     OW32794   0.902   4.684   7.452  0.1249  0.2076 -0.0901
 7047SOL    HW132795   0.993   4.689   7.492  0.6349  0.3443 -1.2491
 7047SOL    HW232796   0.872   4.776   7.425 -0.5152  0.2162  0.6320
 7048SOL     OW32797   3.101   1.684   1.555 -0.3952 -0.0296  0.2554
 7048SOL    HW132798   3.012   1.729   1.548 -0.1174  0.4879  0.0471
 7048SOL    HW232799   3.090   1.597   1.603 -0.9823  0.1193  0.3980
 7049SOL     OW32800   8.687   4.543   2.012  0.1839  0.0337  0.0188
 7049SOL    HW132801   8.781   4.525   2.042  0.1920 -0.5018 -0.3322
 7049SOL    HW232802   8.687   4.615   1.943  0.2755  0.4546  0.4497
 7050SOL     OW32803   9.571   1.556   8.053 -0.0248  0.0911 -0.1264
 7050SOL    HW132804   9.605   1.470   8.090  0.5373  0.1258 -0.5555
 7050SOL    HW232805   9.481   1.575   8.091  0.3556 -0.0893  0.8847
 7051SOL     OW32806   9.336   9.816   5.424  0.5978  0.3092 -0.3406
 7051SOL    HW132807   9.393   9.752   5.476  0.6430  0.4193 -0.2524
 7051SOL    HW232808   9.379   9.836   5.336 -1.2344 -2.6909 -2.0014
 7052SOL     OW32809   1.547   4.421   2.999 -0.2417  0.0510 -0.5275
 7052SOL    HW132810   1.495   4.349   2.953 -0.9919 -0.5532  1.2297
 7052SOL    HW232811   1.644   4.397   2.998 -0.1650  0.3645 -2.3403
 7053SOL     OW32812   7.202   4.326   2.791  0.0837  0.0066  0.3325
 7053SOL    HW132813   7.105   4.306   2.805  0.1461  0.5505  1.6201
 7053SOL    HW232814   7.257   4.254   2.832  0.2451  0.5168  1.0188
 7054SOL     OW32815   9.778   6.814   7.347 -0.3629  0.1441  0.0395
 7054SOL    HW132816   9.766   6.882   7.420  3.0249  0.7919  0.0999
 7054SOL    HW232817   9.779   6.722   7.386 -3.3557  0.1321  0.1641
 7055SOL     OW32818   2.108   5.117   6.983 -0.3490  0.1796 -0.0242
 7055SOL    HW132819   2.092   5.054   6.907  3.0601 -1.1873  0.2928
 7055SOL    HW232820   2.177   5.184   6.956 -0.7780  1.0910  1.1028
 7056SOL     OW32821   5.922   1.614   5.737 -0.3166  0.1723  0.7061
 7056SOL    HW132822   5.838   1.615   5.792  1.4145  2.7278  3.4795
 7056SOL    HW232823   5.978   1.535   5.763 -0.1648  0.5691  1.6120
 7057SOL     OW32824   1.015   3.564   1.815 -0.2624 -0.0356  0.0819
 7057SOL    HW132825   1.047   3.658   1.813  0.4031 -0.1894  2.3604
 7057SOL    HW232826   0.918   3.561   1.839  0.2258 -0.0065  2.1635
 7058SOL     OW32827   0.177   7.923   5.279  0.3120  0.0933 -0.7259
 7058SOL    HW132828   0.240   7.845   5.274  1.2388  0.7327  0.7739
 7058SOL    HW232829   0.087   7.895   5.245  0.6473 -1.6231 -0.2617
 7059SOL     OW32830   2.015   8.423   5.480 -0.2297 -0.0995  0.2712
 7059SOL    HW132831   2.017   8.331   5.440  0.6785 -0.2774  0.7182
 7059SOL    HW232832   2.027   8.491   5.408 -0.4395 -0.3458  0.0021
 7060SOL     OW32833   1.206   7.596   6.043 -0.5585 -0.8441 -0.1518
 7060SOL    HW132834   1.290   7.543   6.057  1.5403  2.9573  2.5363
 7060SOL    HW232835   1.210   7.641   5.954  0.4996 -0.3092  0.1600
 7061SOL     OW32836   5.086   1.616   6.327 -0.4605  0.2579 -0.1563
 7061SOL    HW132837   5.126   1.704   6.302 -1.9247  1.7197  2.4149
 7061SOL    HW232838   5.101   1.599   6.425 -0.5506 -2.1606 -0.5359
 7062SOL     OW32839   2.271   1.873   0.617  0.2203 -0.4919  0.2629
 7062SOL    HW132840   2.238   1.810   0.547  0.1394 -0.1236 -0.0326
 7062SOL    HW232841   2.204   1.877   0.692 -2.1272  2.8229 -1.8793
 7063SOL     OW32842   1.522   7.321   6.254 -0.0860  0.0765 -0.2867
 7063SOL    HW132843   1.499   7.224   6.255  0.8586 -0.1727  1.6040
 7063SOL    HW232844   1.471   7.368   6.326  2.1721  0.2513  1.2672
 7064SOL     OW32845   3.756   1.101   7.659  0.0605  0.7296  0.5336
 7064SOL    HW132846   3.856   1.112   7.664  0.0683  0.0296  2.3930
 7064SOL    HW232847   3.713   1.164   7.724 -0.5959 -0.4164  1.2228
 7065SOL     OW32848   2.491   6.037   2.441  0.1753  0.1524 -0.6412
 7065SOL    HW132849   2.404   6.052   2.394 -0.0680 -0.6896 -0.4535
 7065SOL    HW232850   2.539   6.124   2.449 -0.7183  0.6514 -0.6046
 7066SOL     OW32851   7.136   0.762   1.835  0.1538 -0.5064  0.2203
 7066SOL    HW132852   7.129   0.761   1.735 -0.1613  2.9917  0.1449
 7066SOL    HW232853   7.047   0.787   1.874  1.0697  1.3272  1.1937
 7067SOL     OW32854   2.611   0.059   5.878  0.1070  0.4637 -0.2253
 7067SOL    HW132855   2.540  -0.007   5.903  0.2555  0.3220 -0.1765
 7067SOL    HW232856   2.611   0.071   5.779  0.5459 -0.1355 -0.2993
 7068SOL     OW32857   7.160   7.587   5.959  0.2626 -0.1684  0.2416
 7068SOL    HW132858   7.062   7.580   5.977  0.0174  0.9628 -0.6321
 7068SOL    HW232859   7.207   7.620   6.041 -0.3691  1.3684 -0.0078
 7069SOL     OW32860   4.952   8.745   2.414 -0.3242 -0.3255  0.2132
 7069SOL    HW132861   5.050   8.760   2.403 -0.7308  1.9116 -0.5103
 7069SOL    HW232862   4.917   8.697   2.333 -0.5990  2.9278 -1.7129
 7070SOL     OW32863   8.515   8.754   4.258  0.0856  0.4079 -0.2896
 7070SOL    HW132864   8.524   8.667   4.208  1.4706  0.6901 -0.5437
 7070SOL    HW232865   8.504   8.828   4.192  0.9285  0.6634 -0.1404
 7071SOL     OW32866   2.664   1.960   3.375 -0.1446  0.2648  0.4889
 7071SOL    HW132867   2.669   2.055   3.345 -0.6158  0.7654  1.9631
 7071SOL    HW232868   2.640   1.901   3.297 -1.8904  1.5977  0.0004
 7072SOL     OW32869   9.527   0.255   5.737  0.3242 -0.4823  0.6154
 7072SOL    HW132870   9.489   0.164   5.719  2.8401 -1.0711 -1.9751
 7072SOL    HW232871   9.605   0.246   5.799  0.9132 -0.1507 -0.0800
 7073SOL     OW32872   5.547   9.780   5.883  0.2650  0.4420 -1.1436
 7073SOL    HW132873   5.467   9.733   5.919  1.3614 -0.0436  0.7453
 7073SOL    HW232874   5.523   9.827   5.799 -2.0831  0.6097 -0.4153
 7074SOL     OW32875   8.494   1.905   2.190  0.1025  0.0047 -0.2926
 7074SOL    HW132876   8.544   1.982   2.231 -0.2195 -0.0466  0.1974
 7074SOL    HW232877   8.396   1.925   2.191 -0.1023 -1.0392  1.1660
 7075SOL     OW32878   2.637   4.161   5.017 -0.5772  0.9296  0.3450
 7075SOL    HW132879   2.684   4.104   4.949  0.0405 -1.0170  2.3324
 7075SOL    HW232880   2.650   4.257   4.994  0.4465  0.3331 -1.7418
 7076SOL     OW32881   4.271   9.487   0.184 -0.3955  0.2795 -0.5293
 7076SOL    HW132882   4.278   9.471   0.282 -0.1598 -0.3715 -0.6514
 7076SOL    HW232883   4.224   9.411   0.141  0.0724  0.2592 -1.0108
 7077SOL     OW32884   0.306   8.694   5.045 -0.0052  0.0895 -0.0912
 7077SOL    HW132885   0.273   8.600   5.034 -2.4936  0.7386  1.3794
 7077SOL    HW232886   0.251   8.740   5.115  1.2787  2.6057 -0.6935
 7078SOL     OW32887   4.549   0.719   4.263  0.3208  0.0587  0.2009
 7078SOL    HW132888   4.459   0.738   4.302  0.2329 -0.1237  0.0884
 7078SOL    HW232889   4.545   0.635   4.209  1.2768 -1.7102  2.7772
 7079SOL     OW32890   7.815   9.818   0.277  0.0393 -0.3022  0.5599
 7079SOL    HW132891   7.816   9.886   0.203  3.2431  1.2878  1.9759
 7079SOL    HW232892   7.879   9.745   0.255 -0.1835 -0.6380  1.0313
 7080SOL     OW32893   3.631   7.731   3.597  0.4193  0.4299  0.5366
 7080SOL    HW132894   3.545   7.738   3.647  0.8668 -0.0199  1.3681
 7080SOL    HW232895   3.707   7.749   3.659  0.9283  0.8642 -0.2050
 7081SOL     OW32896   2.381   9.344   5.736  0.4493  0.3413 -0.1934
 7081SOL    HW132897   2.400   9.246   5.744  1.4359  0.5755  0.4772
 7081SOL    HW232898   2.327   9.361   5.654 -1.5528 -1.0029  0.8056
 7082SOL     OW32899   4.577   1.520   5.240 -0.0313 -0.0197  0.0776
 7082SOL    HW132900   4.643   1.581   5.283 -1.6659  1.0073  1.1709
 7082SOL    HW232901   4.501   1.503   5.303 -1.0655 -0.7854 -1.3434
 7083SOL     OW32902   4.600   4.754   3.013 -0.2458  0.1114 -0.0800
 7083SOL    HW132903   4.584   4.790   3.105  0.6920  1.6101 -0.4877
 7083SOL    HW232904   4.689   4.785   2.980  0.2294 -1.9370 -0.7872
 7084SOL     OW32905   1.853   6.266   1.044  0.3161 -0.2270  0.5537
 7084SOL    HW132906   1.832   6.354   1.003 -0.4855 -1.1100 -0.9611
 7084SOL    HW232907   1.921   6.279   1.117  0.5645  1.5605  0.0326
 7085SOL     OW32908   8.923   4.341   1.547 -0.3757  0.0024  0.1188
 7085SOL    HW132909   8.848   4.336   1.613 -0.1979 -0.2736  0.3021
 7085SOL    HW232910   8.908   4.275   1.473  1.1583 -2.1673  1.6924
 7086SOL     OW32911   8.484   8.124   3.502  0.0969  0.2246 -0.4270
 7086SOL    HW132912   8.425   8.068   3.445  1.5187 -1.0453 -0.6864
 7086SOL    HW232913   8.542   8.181   3.444  0.7418 -0.2238 -0.2225
 7087SOL     OW32914   8.881   7.508   4.617 -0.2404  0.5889 -0.4719
 7087SOL    HW132915   8.865   7.588   4.674  0.1922 -0.4712  1.1474
 7087SOL    HW232916   8.968   7.519   4.568  1.9185 -0.6550  2.8984
 7088SOL     OW32917   9.401   3.945   5.501  0.1845 -0.3061  0.0550
 7088SOL    HW132918   9.305   3.938   5.474  0.7934 -0.6473 -2.1463
 7088SOL    HW232919   9.458   3.908   5.428  2.0300  0.5337  1.0554
 7089SOL     OW32920   6.841   7.536   5.169  0.5935  0.1323 -0.2613
 7089SOL    HW132921   6.810   7.481   5.092 -0.9500  1.8432 -0.8930
 7089SOL    HW232922   6.937   7.560   5.157  0.4428  0.1290 -1.4817
 7090SOL     OW32923   0.863   0.004   5.948  0.0060  0.0899  0.1931
 7090SOL    HW132924   0.775  -0.012   5.993 -1.1011 -1.3498 -2.4053
 7090SOL    HW232925   0.880   0.103   5.942 -0.7163  0.3397  2.0207
 7091SOL     OW32926   9.398   2.411   1.207  0.6367  0.1713  0.2570
 7091SOL    HW132927   9.349   2.491   1.238  0.9887  0.5861 -0.2481
 7091SOL    HW232928   9.447   2.432   1.122  1.7889 -0.1843  0.8140
 7092SOL     OW32929   4.445   8.120   3.741 -0.1665 -0.3122  0.7461
 7092SOL    HW132930   4.423   8.127   3.644 -0.5282  1.0532  0.9238
 7092SOL    HW232931   4.540   8.148   3.756 -0.2287 -0.1531  0.8425
 7093SOL     OW32932   3.196   0.653   2.131  0.3115  0.5280  0.3239
 7093SOL    HW132933   3.208   0.752   2.131 -2.3447  0.8646  1.4143
 7093SOL    HW232934   3.145   0.626   2.050 -0.5662  0.2484  0.9723
 7094SOL     OW32935   8.694   7.149   1.710  0.2298 -0.1163  0.8051
 7094SOL    HW132936   8.627   7.075   1.715 -1.4548  1.0695 -2.3728
 7094SOL    HW232937   8.651   7.234   1.741 -0.4331  1.0006 -2.8631
 7095SOL     OW32938   3.053   1.312   3.017  0.1964  0.9630  0.3078
 7095SOL    HW132939   3.121   1.248   3.051  1.2350  1.1656 -1.3524
 7095SOL    HW232940   3.039   1.385   3.084  1.8527  1.0887  0.5216
 7096SOL     OW32941   8.131   9.405   2.146 -0.2792 -0.2212 -0.1440
 7096SOL    HW132942   8.189   9.479   2.182 -1.4412  0.8905 -0.5150
 7096SOL    HW232943   8.142   9.401   2.046  1.1960 -1.7918  0.0619
 7097SOL     OW32944   6.524   2.888   5.330 -0.2893  0.4531 -0.3871
 7097SOL    HW132945   6.560   2.809   5.379 -0.5306 -0.2880 -1.4011
 7097SOL    HW232946   6.436   2.865   5.288 -0.5137  1.3530 -0.4171
 7098SOL     OW32947   6.026   2.527   0.190  0.5323  0.8022 -0.3037
 7098SOL    HW132948   6.056   2.622   0.179  0.5792  0.5362 -2.6419
 7098SOL    HW232949   5.979   2.496   0.108 -2.1798 -0.2730  1.5722
 7099SOL     OW32950   1.263   9.403   4.934 -0.0993  0.3403 -0.2228
 7099SOL    HW132951   1.258   9.306   4.957  2.6770  0.0274 -0.6784
 7099SOL    HW232952   1.247   9.458   5.016  0.3606 -0.5555  0.4777
 7100SOL     OW32953   9.153   0.379   3.096 -0.0975  0.0990 -0.2623
 7100SOL    HW132954   9.154   0.477   3.113  0.5245  0.2733 -1.2691
 7100SOL    HW232955   9.192   0.360   3.006 -3.2128 -0.8104 -1.4837
 7101SOL     OW32956   0.383   6.885   2.226  0.4026  0.1156  0.1481
 7101SOL    HW132957   0.377   6.822   2.149 -3.0190 -0.6328  0.9138
 7101SOL    HW232958   0.428   6.969   2.197  0.1127 -0.5575 -2.3725
 7102SOL     OW32959   7.730   4.081   5.234 -0.2208  0.1371 -0.5001
 7102SOL    HW132960   7.830   4.084   5.235 -0.1945 -0.7751 -0.0152
 7102SOL    HW232961   7.695   4.166   5.194  0.7383  0.5534 -0.4812
 7103SOL     OW32962   3.549   7.878   0.367  0.0247 -0.4365 -0.2659
 7103SOL    HW132963   3.635   7.888   0.418  0.0014 -0.0330 -0.3071
 7103SOL    HW232964   3.569   7.840   0.276  0.2237  0.1550 -0.4763
 7104SOL     OW32965   1.176   4.949   5.684  0.2967 -0.7836  0.1756
 7104SOL    HW132966   1.213   4.856   5.681  1.5132 -0.3127 -0.1563
 7104SOL    HW232967   1.087   4.952   5.639  1.0342 -1.4560 -1.3607
 7105SOL     OW32968   1.299   3.193   2.865 -0.3764 -0.0162  0.1009
 7105SOL    HW132969   1.236   3.136   2.917  0.1266 -0.5237  0.1706
 7105SOL    HW232970   1.267   3.200   2.770 -1.3891  1.0631  0.5186
 7106SOL     OW32971   3.870   5.345   2.134 -0.1924  0.0378 -0.1081
 7106SOL    HW132972   3.770   5.356   2.133 -0.0427  1.2574 -2.2276
 7106SOL    HW232973   3.913   5.420   2.085  1.8362 -0.1478  1.3225
 7107SOL     OW32974   1.952   5.906   0.707  0.0780 -0.2697  0.1867
 7107SOL    HW132975   2.014   5.831   0.726  1.2848  0.7165  0.2115
 7107SOL    HW232976   1.992   5.992   0.739 -1.3903  0.3590  0.4009
 7108SOL     OW32977   3.583   8.808   7.934 -0.4397  0.1247  0.0257
 7108SOL    HW132978   3.565   8.715   7.901  0.5288  0.2373 -0.8368
 7108SOL    HW232979   3.613   8.865   7.858  0.1317  0.8430  0.7829
 7109SOL     OW32980   1.400   4.839   0.588  0.1683  0.0982  0.2301
 7109SOL    HW132981   1.327   4.771   0.584 -1.0322  1.3811  0.2055
 7109SOL    HW232982   1.480   4.805   0.538 -1.4898 -0.0181 -2.4191
 7110SOL     OW32983   3.802   4.270   5.449 -0.5015  0.6222 -0.3260
 7110SOL    HW132984   3.795   4.193   5.386  0.1731  0.0597  0.2762
 7110SOL    HW232985   3.854   4.243   5.529  0.9739  2.1212 -0.7492
 7111SOL     OW32986   6.548   2.295   0.911 -0.0955  0.0531 -0.1824
 7111SOL    HW132987   6.530   2.269   1.006  0.5119  0.0061 -0.0782
 7111SOL    HW232988   6.608   2.227   0.869 -2.8449 -1.5861 -1.5406
 7112SOL     OW32989   0.485   2.445   4.159  0.0042  0.1776  0.4161
 7112SOL    HW132990   0.388   2.461   4.144  0.1848 -0.3597 -1.5916
 7112SOL    HW232991   0.504   2.347   4.153  0.9522  0.4372 -1.2897
 7113SOL     OW32992   4.171   9.242   5.182  0.2625  0.3076 -0.0425
 7113SOL    HW132993   4.195   9.328   5.226  0.2637 -0.3851  1.3569
 7113SOL    HW232994   4.104   9.193   5.239  1.4560 -1.3264  0.0067
 7114SOL     OW32995   5.851   4.591   0.040 -0.2223  0.1552 -0.5396
 7114SOL    HW132996   5.757   4.593   0.006 -0.6635  2.1061  0.7236
 7114SOL    HW232997   5.887   4.684   0.043 -0.4362  0.2124  4.8315
 7115SOL     OW32998   9.450   1.322   0.041  0.3420 -0.2591 -0.4233
 7115SOL    HW132999   9.391   1.310   0.121  1.4508 -1.5385  0.2258
 7115SOL    HW233000   9.543   1.342   0.071  1.1518 -2.4531 -1.3195
 7116SOL     OW33001   1.089   3.838   3.298 -0.0364  0.0610 -0.1375
 7116SOL    HW133002   1.084   3.822   3.199  2.0776 -4.0885  0.3348
 7116SOL    HW233003   1.185   3.848   3.325 -0.5908  1.1138  1.5462
 7117SOL     OW33004   7.701   7.237   7.742 -0.3109  0.1795  0.2492
 7117SOL    HW133005   7.772   7.303   7.720  0.4160 -0.0811  1.7507
 7117SOL    HW233006   7.732   7.179   7.817 -0.7879 -2.1158 -1.2925
 7118SOL     OW33007   0.719   7.332   5.909  0.7396 -0.5261  0.0309
 7118SOL    HW133008   0.623   7.309   5.893  1.0661 -1.2546 -0.9752
 7118SOL    HW233009   0.728   7.431   5.921 -0.2199 -0.5265  0.8270
 7119SOL     OW33010   7.298   3.036   8.072  0.3633 -0.1077  0.0959
 7119SOL    HW133011   7.367   2.989   8.128  0.9428  0.5636 -0.0432
 7119SOL    HW233012   7.337   3.055   7.982 -0.4439 -0.8630 -0.4171
 7120SOL     OW33013   8.262   5.173   2.565  0.3362  0.2441  0.4354
 7120SOL    HW133014   8.195   5.244   2.546  0.1759 -0.4814 -1.7858
 7120SOL    HW233015   8.275   5.165   2.664 -0.6048  2.4455  0.7532
 7121SOL     OW33016   7.971   3.042   5.881  0.5337  0.3869  0.5853
 7121SOL    HW133017   7.929   2.986   5.809  0.5059  2.1685 -0.8105
 7121SOL    HW233018   8.066   3.061   5.857  0.6696  0.5769  1.2643
 7122SOL     OW33019   3.145   5.870   7.821  0.2567 -0.3073  0.2145
 7122SOL    HW133020   3.117   5.961   7.853 -1.1372 -0.5875 -0.1365
 7122SOL    HW233021   3.065   5.823   7.783  0.5854 -2.3429  1.9282
 7123SOL     OW33022   0.873   8.313   2.683 -0.3912 -0.2932 -0.7829
 7123SOL    HW133023   0.843   8.219   2.697 -1.6236  0.1470 -0.4391
 7123SOL    HW233024   0.839   8.346   2.595  1.6035 -0.7722 -1.7775
 7124SOL     OW33025   3.706   6.095   8.063  0.2809  0.0432 -0.2651
 7124SOL    HW133026   3.709   6.028   7.989 -0.5583 -1.2030  0.7963
 7124SOL    HW233027   3.741   6.053   8.147 -0.7064  0.7672  0.5212
 7125SOL     OW33028   0.317   9.196   2.922  0.4324  0.0526  0.0709
 7125SOL    HW133029   0.372   9.231   2.846  0.4983  1.2816  0.6862
 7125SOL    HW233030   0.364   9.211   3.008 -0.5617  0.5170  0.5447
 7126SOL     OW33031   3.049   1.440   4.021  1.0409  0.1140  0.1833
 7126SOL    HW133032   2.984   1.473   4.089 -0.8810 -2.0245 -0.5616
 7126SOL    HW233033   3.059   1.509   3.949  0.7758  1.1031  1.0848
 7127SOL     OW33034   6.920   1.057   6.116 -0.6488  0.2041 -0.0506
 7127SOL    HW133035   6.941   1.132   6.179 -0.4525  1.0521 -1.1116
 7127SOL    HW233036   6.824   1.032   6.123 -0.4285 -0.3248  1.2386
 7128SOL     OW33037   9.131   1.184   3.880  0.2019  0.2000 -0.1145
 7128SOL    HW133038   9.062   1.249   3.910  0.4068  0.0696  0.6463
 7128SOL    HW233039   9.150   1.119   3.953  2.5893  1.4488  0.4406
 7129SOL     OW33040   1.591   2.281   3.148 -1.1197 -0.2001 -0.0857
 7129SOL    HW133041   1.666   2.279   3.082 -0.7234  0.3612  0.3402
 7129SOL    HW233042   1.618   2.231   3.230 -0.5558  1.4323  0.7449
 7130SOL     OW33043   6.981   8.541   4.553 -0.1540  0.0318 -0.1464
 7130SOL    HW133044   6.941   8.633   4.560  0.4725  0.3135 -0.1876
 7130SOL    HW233045   7.054   8.543   4.485 -1.8401 -1.1051 -2.0376
 7131SOL     OW33046   2.499   0.144   7.889  0.6384 -0.0616 -0.6651
 7131SOL    HW133047   2.559   0.076   7.847  0.8849  0.3448 -0.9805
 7131SOL    HW233048   2.548   0.194   7.960 -0.5594 -2.5562  1.9902
 7132SOL     OW33049   4.934   8.727   2.727  0.5607 -0.4280 -0.0853
 7132SOL    HW133050   4.958   8.731   2.630 -1.4446  0.4891 -0.5763
 7132SOL    HW233051   4.853   8.784   2.744  0.8737 -0.5872  2.1284
 7133SOL     OW33052   9.389   9.124   5.751 -0.3612 -0.5169 -0.1710
 7133SOL    HW133053   9.460   9.059   5.777  0.3200  0.6592  0.9904
 7133SOL    HW233054   9.368   9.114   5.653  1.9215 -0.4074 -0.6947
 7134SOL     OW33055   3.797   2.472   7.885 -1.2694  0.0416  0.1876
 7134SOL    HW133056   3.833   2.379   7.883  1.5564  1.1373 -1.4794
 7134SOL    HW233057   3.835   2.521   7.964 -1.2220  0.3872 -0.0473
 7135SOL     OW33058   7.805   0.431   6.493 -0.3632  0.2889 -0.4234
 7135SOL    HW133059   7.733   0.423   6.424  0.6948 -0.1476 -1.4946
 7135SOL    HW233060   7.871   0.357   6.481  0.3909  0.8156  0.3972
 7136SOL     OW33061   5.501   9.726   4.457 -0.7250 -0.0561 -0.1561
 7136SOL    HW133062   5.491   9.650   4.392 -0.0600  0.0908 -0.4330
 7136SOL    HW233063   5.575   9.786   4.427 -0.6197  0.1831  0.5791
 7137SOL     OW33064   9.070   6.892   3.178  0.3167 -0.0695 -0.1635
 7137SOL    HW133065   9.022   6.909   3.092  0.5335  1.5493  0.0264
 7137SOL    HW233066   9.149   6.833   3.161  2.0906  2.5982 -1.6261
 7138SOL     OW33067   8.585   1.557   0.569  0.8907 -0.3353  0.4804
 7138SOL    HW133068   8.616   1.577   0.662  0.8387  0.9867  0.2173
 7138SOL    HW233069   8.610   1.632   0.509 -1.6213  0.1302 -0.0184
 7139SOL     OW33070   6.918   9.933   6.687 -0.0187  0.3901 -0.3477
 7139SOL    HW133071   7.013   9.946   6.715 -0.4582 -1.3606  2.0513
 7139SOL    HW233072   6.856   9.958   6.761 -1.2462 -3.1407 -0.0385
 7140SOL     OW33073   1.398   7.868   3.021  0.1758  0.1961 -0.2275
 7140SOL    HW133074   1.433   7.897   3.110 -0.3877  2.1170 -0.6175
 7140SOL    HW233075   1.312   7.819   3.033  0.0432  0.5512  0.2881
 7141SOL     OW33076   3.717   9.188   3.891 -0.2551  0.0642 -0.1088
 7141SOL    HW133077   3.737   9.190   3.989  1.3866  0.7484 -0.4376
 7141SOL    HW233078   3.738   9.098   3.854 -2.4454 -0.7004  0.4684
 7142SOL     OW33079   2.746   4.863   0.866  0.3306 -0.1610  0.0219
 7142SOL    HW133080   2.706   4.793   0.925  0.2804 -0.2716 -0.1435
 7142SOL    HW233081   2.748   4.950   0.915 -0.3110 -0.1069 -0.0474
 7143SOL     OW33082   0.335   8.572   1.674 -0.0058  0.4861 -0.0481
 7143SOL    HW133083   0.390   8.525   1.743 -1.0531  0.6188  0.8782
 7143SOL    HW233084   0.321   8.511   1.595  0.3470 -0.0230  0.2807
 7144SOL     OW33085   5.166   0.820   4.037 -0.3894  0.3327 -0.4860
 7144SOL    HW133086   5.160   0.838   4.135  1.0951  0.6858 -0.4389
 7144SOL    HW233087   5.143   0.903   3.987  0.4376  0.6240 -0.3945
 7145SOL     OW33088   6.296   3.985   1.132  0.0090  0.1159  0.1873
 7145SOL    HW133089   6.216   4.042   1.115  0.4736  0.6551 -0.2268
 7145SOL    HW233090   6.329   4.000   1.225  0.9161  1.5182 -0.3545
 7146SOL     OW33091   9.840   9.096   0.223 -0.4939 -0.2200  0.5010
 7146SOL    HW133092   9.873   9.065   0.312  1.4563 -0.1707 -0.1775
 7146SOL    HW233093   9.918   9.116   0.164 -1.7603  0.6798 -0.9027
 7147SOL     OW33094   2.356   1.190   3.030  0.0428  0.3666 -0.3195
 7147SOL    HW133095   2.273   1.145   2.998  0.0802  0.6662 -0.8430
 7147SOL    HW233096   2.332   1.276   3.075 -0.0326 -0.1913  0.7229
 7148SOL     OW33097   4.913   4.288   5.991  0.1471 -0.0542  0.3585
 7148SOL    HW133098   4.856   4.207   5.983 -2.1460  1.5944 -0.5297
 7148SOL    HW233099   4.920   4.316   6.087 -1.9753  0.6958  0.3132
 7149SOL     OW33100   8.549   6.840   4.050  0.0846 -0.0483 -0.6945
 7149SOL    HW133101   8.555   6.765   4.116 -0.7812  2.1342  1.9470
 7149SOL    HW233102   8.559   6.804   3.957  0.2317 -3.3315  0.5445
 7150SOL     OW33103   1.013   2.879   1.113  0.1271  0.2674 -0.0661
 7150SOL    HW133104   1.061   2.827   1.042 -0.2703  1.6899 -1.4168
 7150SOL    HW233105   0.983   2.817   1.185  1.4668 -1.0592 -0.6189
 7151SOL     OW33106   5.217   6.398   1.549  0.3939 -0.0481 -0.3592
 7151SOL    HW133107   5.193   6.301   1.559 -0.0134 -0.0475 -1.2508
 7151SOL    HW233108   5.264   6.429   1.631  0.2150 -0.9135  0.0812
 7152SOL     OW33109   4.011   1.788   6.995  0.6327 -0.3736 -0.5719
 7152SOL    HW133110   4.073   1.824   6.925  1.4785 -0.6692  0.0149
 7152SOL    HW233111   3.918   1.786   6.959  0.6979  1.5666 -0.9329
 7153SOL     OW33112   6.787   3.553   2.245  0.4242 -0.5198  0.0720
 7153SOL    HW133113   6.843   3.518   2.320 -0.6125  0.6923  1.4321
 7153SOL    HW233114   6.765   3.478   2.182  1.6566 -1.4601  0.7346
 7154SOL     OW33115   8.491   7.914   1.781  0.5915 -0.4027  0.5109
 7154SOL    HW133116   8.477   7.939   1.685 -1.1846 -1.1027  0.5799
 7154SOL    HW233117   8.501   7.815   1.788 -1.8869 -0.6170  1.3418
 7155SOL     OW33118   5.245   7.820   4.229 -0.5876  0.4218 -0.7946
 7155SOL    HW133119   5.238   7.890   4.158  1.2071  0.6986 -0.7118
 7155SOL    HW233120   5.296   7.741   4.194 -1.0087 -0.0773 -0.3020
 7156SOL     OW33121   3.327   7.132   2.664  0.4430  0.3073  0.2674
 7156SOL    HW133122   3.278   7.092   2.587  0.1684 -0.3511  0.7758
 7156SOL    HW233123   3.423   7.146   2.638  0.0898  1.1901 -0.5800
 7157SOL     OW33124   3.089   8.266   1.884 -0.0345 -0.2694 -0.4108
 7157SOL    HW133125   3.187   8.267   1.904 -0.0945 -1.8459  0.0384
 7157SOL    HW233126   3.075   8.292   1.788  0.8301 -0.1484 -0.5130
 7158SOL     OW33127   1.583   5.318   0.543 -0.0791  0.3045 -0.1782
 7158SOL    HW133128   1.542   5.256   0.477 -2.6106  0.4337  1.2031
 7158SOL    HW233129   1.675   5.287   0.566 -0.6410 -1.9156 -0.8359
 7159SOL     OW33130   8.761   2.490   6.328 -0.1861  0.6043  0.0633
 7159SOL    HW133131   8.773   2.408   6.384  0.9986  0.7693  0.0644
 7159SOL    HW233132   8.682   2.477   6.267 -0.3013 -0.3368  0.4011
 7160SOL     OW33133   1.542   7.478   2.235 -0.2131 -0.2693 -0.2536
 7160SOL    HW133134   1.628   7.525   2.252 -0.5137 -0.2488  1.2525
 7160SOL    HW233135   1.466   7.542   2.246 -0.4092 -0.1758 -2.0177
 7161SOL     OW33136   0.022   6.361   4.709  0.1384 -0.2082  0.0505
 7161SOL    HW133137   0.087   6.427   4.672  0.4186 -0.4435  0.1187
 7161SOL    HW233138  -0.022   6.399   4.790  2.3777 -1.1721  1.7986
 7162SOL     OW33139   9.570   7.710   3.140  0.0129  0.2149  0.3945
 7162SOL    HW133140   9.592   7.737   3.046  0.3073 -0.0034  0.3995
 7162SOL    HW233141   9.523   7.622   3.139 -0.7436  0.6171  0.3934
 7163SOL     OW33142   0.518   0.488   6.770 -0.0525 -0.0729 -0.7975
 7163SOL    HW133143   0.617   0.470   6.771 -0.5440 -3.6657  4.1786
 7163SOL    HW233144   0.498   0.564   6.831 -0.5117 -1.1243  0.4017
 7164SOL     OW33145   5.050   0.922   5.528 -0.1135  0.2044  0.0023
 7164SOL    HW133146   5.002   0.891   5.446  2.5753 -1.3216 -1.0897
 7164SOL    HW233147   5.071   0.843   5.586  0.2086  0.9516  0.9150
 7165SOL     OW33148   1.753   8.381   3.087  0.3439 -0.0474 -0.2757
 7165SOL    HW133149   1.746   8.480   3.089 -0.2343 -0.0542 -1.6247
 7165SOL    HW233150   1.661   8.341   3.082  0.5407 -0.6676  0.9461
 7166SOL     OW33151   1.238   8.432   7.656 -0.3372  0.1733 -0.5114
 7166SOL    HW133152   1.167   8.380   7.704 -1.4972  0.7363 -1.6004
 7166SOL    HW233153   1.198   8.515   7.618  1.1128  0.9601 -0.3603
 7167SOL     OW33154   7.224   2.161   2.484 -0.6540  0.0622 -0.2223
 7167SOL    HW133155   7.190   2.137   2.575 -0.5325  1.1497  0.1173
 7167SOL    HW233156   7.153   2.146   2.416  0.0727 -3.3306 -0.3475
 7168SOL     OW33157   8.817   5.728   3.746 -0.2702 -0.0578 -0.0415
 7168SOL    HW133158   8.837   5.819   3.783  0.3369 -0.7523  1.3674
 7168SOL    HW233159   8.888   5.664   3.775 -1.2666 -1.2120 -0.1190
 7169SOL     OW33160   4.503   4.759   0.708  0.0925 -0.0034 -0.7648
 7169SOL    HW133161   4.422   4.703   0.724  1.1896 -1.0295  1.5774
 7169SOL    HW233162   4.476   4.854   0.691 -1.5502 -0.0389  1.4765
 7170SOL     OW33163   0.401   9.724   4.141  0.3408  0.1264 -0.3511
 7170SOL    HW133164   0.401   9.635   4.094  0.0971  0.2156 -0.5209
 7170SOL    HW233165   0.307   9.747   4.167  0.1057  1.3103 -2.1675
 7171SOL     OW33166   4.971   0.203   7.521  0.3268 -0.6156  0.8121
 7171SOL    HW133167   4.987   0.147   7.439  3.2903 -1.3879  1.8320
 7171SOL    HW233168   5.026   0.287   7.515 -0.6690  0.0709  1.2873
 7172SOL     OW33169   4.825   4.133   2.453 -0.3435 -0.9271  0.2593
 7172SOL    HW133170   4.899   4.098   2.395  0.2045  1.2288 -0.3593
 7172SOL    HW233171   4.760   4.185   2.397 -1.6603 -1.7235  1.0154
 7173SOL     OW33172   2.834   6.010   4.181  0.5465 -0.3907 -0.2048
 7173SOL    HW133173   2.755   5.964   4.139 -0.6153  0.6075  0.8259
 7173SOL    HW233174   2.872   5.952   4.253  1.8856 -1.6464 -1.8965
 7174SOL     OW33175   5.232   8.466   6.981  0.1285 -0.1799 -0.4079
 7174SOL    HW133176   5.169   8.391   7.003  0.3904 -0.0956  0.6624
 7174SOL    HW233177   5.184   8.553   6.990  0.2513 -0.1430 -0.1063
 7175SOL     OW33178   5.485   9.344   5.254 -0.2528 -0.2324  0.0832
 7175SOL    HW133179   5.516   9.439   5.249 -0.4059 -0.0710  1.8901
 7175SOL    HW233180   5.386   9.342   5.270 -0.1639 -0.6872  0.5889
 7176SOL     OW33181   4.369   3.407   2.131 -0.9285 -0.0509  0.1599
 7176SOL    HW133182   4.288   3.395   2.074  0.5410 -2.7180 -1.4853
 7176SOL    HW233183   4.372   3.334   2.200 -1.0627  1.3397  1.6608
 7177SOL     OW33184   8.970   6.369   4.886 -0.1321 -0.0149  0.7003
 7177SOL    HW133185   8.955   6.376   4.985  0.4958 -0.0227  0.7968
 7177SOL    HW233186   8.962   6.273   4.859 -1.8849  0.1743  0.4836
 7178SOL     OW33187   4.399   6.873   3.248  0.3239  0.0109 -0.0107
 7178SOL    HW133188   4.433   6.938   3.180  0.9467  0.3270  0.5932
 7178SOL    HW233189   4.427   6.903   3.339 -0.3758 -0.4944  0.3673
 7179SOL     OW33190   7.365   0.465   6.468  0.2170  0.0432  0.0211
 7179SOL    HW133191   7.353   0.483   6.565  0.8367  0.7445 -0.0257
 7179SOL    HW233192   7.291   0.406   6.435 -0.1069 -0.0231  0.8657
 7180SOL     OW33193   2.920   9.159   6.714 -0.6694  0.0553  0.4720
 7180SOL    HW133194   2.967   9.234   6.668  1.1422 -0.9250  0.6929
 7180SOL    HW233195   2.915   9.080   6.653 -1.9658  0.1122  0.4851
 7181SOL     OW33196   2.288   3.875   1.695 -0.2310 -0.1468 -0.5749
 7181SOL    HW133197   2.207   3.920   1.659  0.0595  0.4302 -0.5284
 7181SOL    HW233198   2.321   3.807   1.630 -2.1431 -2.1101  0.4554
 7182SOL     OW33199   4.647   0.763   6.701 -0.7748 -0.0085  0.0222
 7182SOL    HW133200   4.646   0.683   6.761 -0.7882 -0.4444 -0.5443
 7182SOL    HW233201   4.626   0.845   6.753 -0.9337 -0.4014  0.5795
 7183SOL     OW33202   0.132   6.217   2.584  0.1771  0.0004  0.1500
 7183SOL    HW133203   0.091   6.305   2.560  0.8110  0.1133 -0.5289
 7183SOL    HW233204   0.060   6.150   2.602 -0.3987  1.4718  3.8544
 7184SOL     OW33205   0.207   8.151   4.636 -0.1680  0.0983 -0.1172
 7184SOL    HW133206   0.190   8.121   4.542  0.6116  0.9335 -0.5224
 7184SOL    HW233207   0.248   8.242   4.636  1.7653 -0.7369  0.9410
 7185SOL     OW33208   6.190   0.180   6.256 -0.6294  0.1904  0.4661
 7185SOL    HW133209   6.173   0.116   6.331 -0.4336  0.0394  0.3817
 7185SOL    HW233210   6.243   0.134   6.185  0.4648  0.7699  0.8967
 7186SOL     OW33211   6.295   3.452   0.499 -1.0264 -0.0306 -0.2075
 7186SOL    HW133212   6.380   3.490   0.536 -0.1001 -1.7034 -0.6068
 7186SOL    HW233213   6.220   3.516   0.518  0.1257  1.0015  1.0222
 7187SOL     OW33214   3.700   0.293   5.329  0.2109  0.1947  0.0644
 7187SOL    HW133215   3.681   0.195   5.325  2.5841 -0.3367  1.2256
 7187SOL    HW233216   3.725   0.326   5.238  2.5017 -0.9413  0.2724
 7188SOL     OW33217   1.986   0.252   5.709 -0.1901  0.6429  0.2529
 7188SOL    HW133218   2.046   0.185   5.665 -0.0285 -0.6923  2.4412
 7188SOL    HW233219   1.991   0.338   5.658  1.3752 -0.2943 -1.2655
 7189SOL     OW33220   7.081   8.073   5.956 -0.0405 -0.2825 -0.0312
 7189SOL    HW133221   7.090   8.170   5.977  0.8984 -0.6547  1.3486
 7189SOL    HW233222   7.172   8.033   5.942 -0.5111 -0.5459 -2.6342
 7190SOL     OW33223   0.444   3.314   7.601 -0.2312 -0.4322  0.1116
 7190SOL    HW133224   0.500   3.240   7.636  0.9149 -0.0219 -0.8166
 7190SOL    HW233225   0.470   3.333   7.506 -0.9610  0.7091  0.1323
 7191SOL     OW33226   8.307   3.920   1.740 -0.0682 -0.4674  0.0842
 7191SOL    HW133227   8.331   3.823   1.743  1.6753 -0.1244 -1.8553
 7191SOL    HW233228   8.348   3.962   1.659 -1.1458  1.8045  0.6897
 7192SOL     OW33229   0.254   8.081   4.314  0.0030 -0.0017 -0.3691
 7192SOL    HW133230   0.266   8.092   4.216 -0.1586  1.4295 -0.2321
 7192SOL    HW233231   0.159   8.059   4.334  0.2758 -1.5283 -0.6145
 7193SOL     OW33232   7.287   4.354   0.781  0.1172  0.4170 -0.5002
 7193SOL    HW133233   7.360   4.380   0.719 -0.3974  1.1339 -0.8108
 7193SOL    HW233234   7.221   4.296   0.732  0.1164  0.3377 -0.4051
 7194SOL     OW33235   7.100   6.577   5.385  0.4149 -0.3247  0.2498
 7194SOL    HW133236   7.100   6.508   5.313  1.2781  0.5764 -0.6346
 7194SOL    HW233237   7.182   6.634   5.377  1.0148 -0.7982  2.5244
 7195SOL     OW33238   4.403   5.358   1.923  0.2968  0.1726 -0.7726
 7195SOL    HW133239   4.320   5.375   1.976  1.3471  2.4550  0.1777
 7195SOL    HW233240   4.463   5.296   1.974 -0.8365 -1.5789 -1.5153
 7196SOL     OW33241   9.315   7.696   2.824 -0.5285 -0.3201 -0.2444
 7196SOL    HW133242   9.359   7.643   2.752 -0.8548 -1.4534  0.3774
 7196SOL    HW233243   9.240   7.644   2.864  0.4556 -0.2504  1.7932
 7197SOL     OW33244   8.653   3.067   8.160  0.2049 -0.6261 -0.1868
 7197SOL    HW133245   8.684   3.162   8.160 -1.6226  0.0104  1.5874
 7197SOL    HW233246   8.583   3.055   8.090 -0.6319 -0.2734  0.5763
 7198SOL     OW33247   5.918   1.586   7.966  0.3015  0.3299  0.3162
 7198SOL    HW133248   5.822   1.608   7.982 -0.0874 -0.8705 -0.3112
 7198SOL    HW233249   5.929   1.549   7.873  1.4004  0.6657  0.3026
 7199SOL     OW33250   8.401   8.638   5.441  0.1646 -0.0294 -0.1920
 7199SOL    HW133251   8.367   8.729   5.466 -0.3303 -0.4820  0.8082
 7199SOL    HW233252   8.324   8.579   5.417  0.4885 -0.1906 -0.8554
 7200SOL     OW33253   7.223   2.929   5.298  0.3024 -1.0061  0.8712
 7200SOL    HW133254   7.304   2.949   5.352  0.2963 -1.5603  1.0887
 7200SOL    HW233255   7.248   2.873   5.218  0.4508  0.5527 -0.1953
 7201SOL     OW33256   3.687   6.053   4.461  0.6324 -0.0950  0.0835
 7201SOL    HW133257   3.689   6.106   4.377  0.9275  0.7449  0.6097
 7201SOL    HW233258   3.606   6.078   4.514 -0.9761 -2.5590 -1.1701
 7202SOL     OW33259   1.432   4.692   4.676 -0.0295 -0.4676 -0.0451
 7202SOL    HW133260   1.338   4.711   4.651  0.1345 -0.2207 -0.4687
 7202SOL    HW233261   1.490   4.695   4.595  0.1546 -1.8153  0.0306
 7203SOL     OW33262   3.353   3.249   0.149 -0.1076  0.7372  0.3921
 7203SOL    HW133263   3.324   3.287   0.061 -1.2269 -0.6033  0.1511
 7203SOL    HW233264   3.374   3.152   0.137  0.2494  0.6726  1.4920
 7204SOL     OW33265   2.085   1.607   7.380  0.4466  0.5012  0.2371
 7204SOL    HW133266   2.097   1.668   7.458 -0.9022  1.1859 -0.0733
 7204SOL    HW233267   2.099   1.512   7.409 -1.5589  0.6132  1.6696
 7205SOL     OW33268   0.234   4.011   4.300  0.0056 -0.3658 -0.1828
 7205SOL    HW133269   0.179   4.050   4.227 -0.6522  0.6797  0.8520
 7205SOL    HW233270   0.194   3.925   4.331 -2.1471  1.3204  1.8477
 7206SOL     OW33271   9.837   9.477   4.526 -0.0203 -0.2807 -0.1206
 7206SOL    HW133272   9.898   9.440   4.456  0.9515  0.8484  0.1123
 7206SOL    HW233273   9.763   9.528   4.482  0.8984  0.9002 -0.3328
 7207SOL     OW33274   9.260   9.123   5.278  0.2582  0.3303 -0.1351
 7207SOL    HW133275   9.217   9.071   5.204  0.9473 -0.1568 -0.1966
 7207SOL    HW233276   9.308   9.202   5.240  1.3910 -0.4251 -0.3246
 7208SOL     OW33277   2.772   3.665   2.623  0.3027 -0.4440  0.1608
 7208SOL    HW133278   2.786   3.607   2.542 -2.2264 -0.4306 -0.3195
 7208SOL    HW233279   2.720   3.614   2.692  1.2702  0.0079  1.2411
 7209SOL     OW33280   3.400   2.498   6.686 -0.5783  0.4023  0.0260
 7209SOL    HW133281   3.385   2.502   6.785 -0.8391 -0.6028  0.0392
 7209SOL    HW233282   3.393   2.403   6.655 -0.9362  0.7580 -1.0281
 7210SOL     OW33283   1.791   3.842   2.076 -0.1434  0.0801 -0.0550
 7210SOL    HW133284   1.888   3.859   2.093  0.3522 -1.2631 -1.4118
 7210SOL    HW233285   1.752   3.922   2.030  1.0331 -0.4728 -2.1032
 7211SOL     OW33286   3.327   4.366   1.168  0.0082  0.3306 -0.4634
 7211SOL    HW133287   3.241   4.343   1.122 -1.9081  2.3966  1.9515
 7211SOL    HW233288   3.332   4.465   1.183  0.6996 -0.2094  3.4039
 7212SOL     OW33289   8.960   4.051   8.080 -0.0204  0.1601 -0.2824
 7212SOL    HW133290   8.879   4.101   8.050 -0.1657  0.3681  0.4547
 7212SOL    HW233291   8.934   3.959   8.109  0.4310 -0.8571 -2.9522
 7213SOL     OW33292   8.255   6.426   2.345  0.0025  0.0465 -0.5548
 7213SOL    HW133293   8.269   6.431   2.444  1.2110  0.6007 -0.7458
 7213SOL    HW233294   8.178   6.366   2.325 -1.1194  1.0069  0.7859
 7214SOL     OW33295   7.511   2.628   6.685 -0.1873 -0.0705 -0.3306
 7214SOL    HW133296   7.523   2.588   6.776  1.4823 -1.2914 -1.0532
 7214SOL    HW233297   7.545   2.722   6.685 -1.2084  0.3017  0.5863
 7215SOL     OW33298   1.123   1.436   2.713 -0.1610  0.3224 -0.0753
 7215SOL    HW133299   1.160   1.509   2.771  0.8836 -0.9778  0.9401
 7215SOL    HW233300   1.105   1.355   2.770 -0.9849 -0.3225 -1.2411
 7216SOL     OW33301   2.113   5.026   0.644  0.2895 -0.2016  0.0603
 7216SOL    HW133302   2.141   5.001   0.551  0.7167 -1.5916  0.5575
 7216SOL    HW233303   2.194   5.057   0.695  0.4948 -1.8142  0.7266
 7217SOL     OW33304   5.322   0.519   6.972  1.0521 -0.0570  0.1620
 7217SOL    HW133305   5.321   0.504   6.873 -0.2474  0.4808  0.0829
 7217SOL    HW233306   5.257   0.456   7.016 -1.9129  2.8565  0.1642
 7218SOL     OW33307   8.674   7.281   7.259  0.0058 -0.3397 -0.1335
 7218SOL    HW133308   8.727   7.358   7.295  0.9105 -0.6216 -0.8581
 7218SOL    HW233309   8.578   7.293   7.284  0.4371  0.0355  1.4257
 7219SOL     OW33310   7.192   7.179   4.299  0.5592  0.1406  0.0226
 7219SOL    HW133311   7.192   7.096   4.355 -1.2678 -0.1710 -0.3971
 7219SOL    HW233312   7.213   7.155   4.204  0.7159  0.2453  0.0319
 7220SOL     OW33313   5.448   0.101   5.950  0.2517  0.7553  0.2662
 7220SOL    HW133314   5.469   0.175   6.013  1.3938  0.8409 -0.2069
 7220SOL    HW233315   5.444   0.137   5.856 -0.6097  0.4758  0.1881
 7221SOL     OW33316   7.115   1.330   3.152  0.0640 -0.1503  0.3321
 7221SOL    HW133317   7.133   1.286   3.240  2.7073 -1.5049 -0.8157
 7221SOL    HW233318   7.190   1.393   3.131  0.2233 -0.9549 -1.5925
 7222SOL     OW33319   3.783   9.743   5.844 -0.3666 -0.4014 -0.2969
 7222SOL    HW133320   3.724   9.677   5.796 -1.7611  0.7973 -0.2709
 7222SOL    HW233321   3.778   9.831   5.797 -2.0630  0.9063  2.2461
 7223SOL     OW33322   6.856   4.053   0.280  0.4148  0.2113 -0.0687
 7223SOL    HW133323   6.801   4.001   0.345  1.4898  0.2492  0.8938
 7223SOL    HW233324   6.821   4.038   0.187 -1.4898  0.6243  0.5710
 7224SOL     OW33325   4.736   1.193   3.536  0.5674  0.7343 -0.4034
 7224SOL    HW133326   4.683   1.259   3.589 -0.9755 -0.4476 -0.4305
 7224SOL    HW233327   4.707   1.100   3.559  1.9817  0.0863 -1.1227
 7225SOL     OW33328   2.679   9.210   3.692 -0.1471  0.4358 -0.4361
 7225SOL    HW133329   2.773   9.191   3.664  0.0062 -1.0436  1.0482
 7225SOL    HW233330   2.678   9.242   3.787 -1.0360  1.6323 -0.8299
 7226SOL     OW33331   4.530   1.055   7.724 -0.0276 -0.4286  0.1763
 7226SOL    HW133332   4.555   0.961   7.748 -1.6140 -0.8626  0.2503
 7226SOL    HW233333   4.432   1.068   7.740 -0.1606  0.7331 -1.4162
 7227SOL     OW33334   6.370   1.692   4.141 -0.1662 -0.0872 -0.0991
 7227SOL    HW133335   6.422   1.613   4.172  0.2997  0.5133  0.6832
 7227SOL    HW233336   6.354   1.685   4.043  1.5419 -0.1980 -0.3919
 7228SOL     OW33337   2.637   7.481   5.316  0.0610  0.1236  0.3192
 7228SOL    HW133338   2.680   7.477   5.226 -0.4324  1.2470  0.0277
 7228SOL    HW233339   2.553   7.536   5.311  1.1894  2.0719  1.9134
 7229SOL     OW33340   8.032   2.570   0.664  0.0013  0.1490 -0.0808
 7229SOL    HW133341   8.061   2.637   0.732 -1.1045  0.1179  0.4329
 7229SOL    HW233342   8.047   2.478   0.701 -2.1582  0.1312  0.8229
 7230SOL     OW33343   0.207   5.237   6.403  0.0991 -0.4715  0.2998
 7230SOL    HW133344   0.107   5.237   6.395  0.1973 -2.8357 -1.3862
 7230SOL    HW233345   0.245   5.161   6.351  2.7987  0.2914  1.0561
 7231SOL     OW33346   4.537   3.096   3.356 -0.4094  0.3326 -0.0220
 7231SOL    HW133347   4.473   3.155   3.406 -1.5354 -0.3065 -0.6796
 7231SOL    HW233348   4.530   3.002   3.390  0.1257  0.2451 -0.1490
 7232SOL     OW33349   2.808   2.407   6.610  0.3823 -0.1876  0.4115
 7232SOL    HW133350   2.752   2.325   6.617 -0.4440  0.4170  1.0422
 7232SOL    HW233351   2.748   2.487   6.603  1.1697  0.4268  0.6758
 7233SOL     OW33352   7.557   3.678   2.726 -0.0698  0.0563  0.4480
 7233SOL    HW133353   7.464   3.660   2.696  0.4576 -1.8035 -0.1833
 7233SOL    HW233354   7.566   3.653   2.822  0.1285 -1.2129  0.1180
 7234SOL     OW33355   4.275   1.388   1.835 -0.0512 -0.0133  0.5544
 7234SOL    HW133356   4.347   1.321   1.852 -0.7416 -0.9844 -0.3308
 7234SOL    HW233357   4.195   1.365   1.890 -0.7564 -0.6763 -0.7407
 7235SOL     OW33358   2.465   7.294   3.913  0.1711  0.1399  0.0290
 7235SOL    HW133359   2.466   7.198   3.940 -0.0191  0.0056 -0.4267
 7235SOL    HW233360   2.447   7.300   3.814 -2.3913  0.7318  0.4982
 7236SOL     OW33361   1.688   0.092   2.228  0.3472 -0.4199 -0.4049
 7236SOL    HW133362   1.661   0.049   2.314  0.1251 -0.0844 -0.3039
 7236SOL    HW233363   1.651   0.040   2.151 -0.3981 -0.0938 -0.2720
 7237SOL     OW33364   9.068   9.562   7.624 -0.1008  0.3613  0.1503
 7237SOL    HW133365   8.981   9.597   7.659  0.4943  0.4274  1.6133
 7237SOL    HW233366   9.097   9.485   7.680 -0.5069 -1.3657 -1.9385
 7238SOL     OW33367   9.993   1.048   7.361 -0.0919  0.0341  0.1255
 7238SOL    HW133368  10.008   1.144   7.387  0.8187  0.1029 -0.6179
 7238SOL    HW233369   9.985   1.043   7.261  0.9525 -0.8090  0.0821
 7239SOL     OW33370   0.066   9.125   5.232 -0.3159 -0.7651 -0.5326
 7239SOL    HW133371   0.075   9.223   5.245 -0.6015 -1.0287  1.8205
 7239SOL    HW233372   0.157   9.083   5.234  0.2144 -0.1972 -5.3088
 7240SOL     OW33373   9.058   3.052   3.460 -0.8073 -0.4166 -0.3432
 7240SOL    HW133374   9.069   3.028   3.364 -2.3652  0.5280 -0.7846
 7240SOL    HW233375   9.034   3.149   3.468 -1.8654 -0.7639  0.9074
 7241SOL     OW33376   0.619   1.925   0.370  0.0780  1.4649 -0.6024
 7241SOL    HW133377   0.542   1.983   0.345 -0.7544  0.4694 -0.3829
 7241SOL    HW233378   0.665   1.893   0.287 -0.8597  0.5879 -0.7930
 7242SOL     OW33379   8.832   5.210   5.355  0.6936  0.2399  0.2047
 7242SOL    HW133380   8.795   5.182   5.443  1.6242 -1.8699 -0.0250
 7242SOL    HW233381   8.759   5.216   5.288  0.4530 -1.9669  0.2182
 7243SOL     OW33382   8.419   6.836   7.567  0.0171  0.2754  0.0450
 7243SOL    HW133383   8.378   6.903   7.506  1.2327  1.7176  0.7779
 7243SOL    HW233384   8.358   6.820   7.644 -0.1289  0.7822  0.0386
 7244SOL     OW33385   1.219   2.445   1.139 -0.2936 -0.3425 -0.3198
 7244SOL    HW133386   1.251   2.381   1.069 -1.7196 -0.3180 -0.9954
 7244SOL    HW233387   1.138   2.409   1.184  0.0322  0.1012  0.6489
 7245SOL     OW33388   7.440   1.408   0.353 -0.2880 -0.1181  0.5899
 7245SOL    HW133389   7.475   1.368   0.437  0.6463 -0.5529  0.0048
 7245SOL    HW233390   7.360   1.465   0.373  0.2359  0.1783  1.8227
 7246SOL     OW33391   5.212   9.555   2.671  0.0138 -0.0815  0.0011
 7246SOL    HW133392   5.267   9.538   2.589  1.2656 -0.0302  0.8250
 7246SOL    HW233393   5.201   9.654   2.684 -0.8363 -0.1005 -0.5255
 7247SOL     OW33394   9.516   9.743   6.077 -0.2771  0.4359 -0.4712
 7247SOL    HW133395   9.539   9.777   5.986 -3.0977  0.1086 -1.3616
 7247SOL    HW233396   9.528   9.644   6.080 -0.8314  0.3567 -0.7210
 7248SOL     OW33397   2.690   0.274   6.022 -0.4782 -0.4613  0.0720
 7248SOL    HW133398   2.651   0.290   6.113 -1.4734 -0.1786 -0.4030
 7248SOL    HW233399   2.629   0.215   5.969  0.1570 -0.7204 -0.3849
 7249SOL     OW33400   9.308   2.937   2.853  0.4912  0.3160  0.3844
 7249SOL    HW133401   9.297   2.891   2.941  0.8328 -1.4098 -0.4383
 7249SOL    HW233402   9.367   3.017   2.863  1.2109 -0.3544  1.5733
 7250SOL     OW33403   0.958   2.246   4.934 -0.2541 -0.7358 -0.4389
 7250SOL    HW133404   1.040   2.276   4.886  0.1965 -0.7209  0.3514
 7250SOL    HW233405   0.894   2.323   4.943 -0.7584 -0.9598 -1.8601
 7251SOL     OW33406   2.036   9.311   3.728  0.3402 -0.0167  0.0088
 7251SOL    HW133407   2.109   9.343   3.667  0.5677  0.1751  0.3752
 7251SOL    HW233408   2.076   9.288   3.817 -0.3798  2.2166  0.9342
 7252SOL     OW33409   7.864   0.772   5.319 -0.1405 -0.1344  0.0661
 7252SOL    HW133410   7.936   0.833   5.286 -0.7935 -0.3203 -1.7940
 7252SOL    HW233411   7.778   0.822   5.325  0.0332 -0.0415  1.7870
 7253SOL     OW33412   4.905   5.363   0.746 -0.5087  0.1681  0.1441
 7253SOL    HW133413   4.847   5.378   0.825  0.5252 -0.0406  0.9521
 7253SOL    HW233414   4.913   5.265   0.728  0.9417  0.0946  1.0764
 7254SOL     OW33415   1.152   2.799   0.305 -0.2508 -0.0897  0.1763
 7254SOL    HW133416   1.188   2.890   0.323  0.5867 -0.4110  0.1702
 7254SOL    HW233417   1.145   2.784   0.207  0.6796 -0.4367  0.1595
 7255SOL     OW33418   7.407   6.324   6.895 -0.2977  0.0660  0.3006
 7255SOL    HW133419   7.467   6.267   6.951  0.8009  1.8540  0.9844
 7255SOL    HW233420   7.461   6.369   6.824 -0.8349  1.5800  0.8275
 7256SOL     OW33421   4.917   7.485   2.206  0.0080 -0.3790  0.0086
 7256SOL    HW133422   4.850   7.461   2.136 -1.2577  2.4106  0.1984
 7256SOL    HW233423   4.997   7.526   2.162  0.3761 -1.0983  0.0033
 7257SOL     OW33424   7.284   5.719   1.882  0.1055 -0.0347 -0.1697
 7257SOL    HW133425   7.380   5.702   1.902  0.1773  2.8564  2.2937
 7257SOL    HW233426   7.277   5.769   1.795  0.8643 -0.0065 -0.2187
 7258SOL     OW33427   4.087   4.349   4.960 -0.3235 -0.2242 -0.0992
 7258SOL    HW133428   4.074   4.287   4.882  0.5797 -1.3678  0.6281
 7258SOL    HW233429   4.079   4.443   4.929  0.3724 -0.6481 -1.6658
 7259SOL     OW33430   7.587   9.045   2.164 -0.1426  0.0323  0.2199
 7259SOL    HW133431   7.615   8.949   2.159 -0.0512 -0.1333  3.0153
 7259SOL    HW233432   7.607   9.091   2.077 -2.0289 -2.9476 -1.8870
 7260SOL     OW33433   2.061   1.213   4.665  0.2696 -0.5366 -0.1746
 7260SOL    HW133434   2.045   1.278   4.591  0.2032  1.2197  1.3635
 7260SOL    HW233435   1.975   1.169   4.691 -0.2888  1.2159  1.0185
 7261SOL     OW33436   2.736   8.600   5.660 -0.0229  0.7315 -0.0708
 7261SOL    HW133437   2.689   8.512   5.657 -0.9207  1.1887  0.5113
 7261SOL    HW233438   2.787   8.607   5.746 -0.9424  1.2851  0.4311
 7262SOL     OW33439   3.196   3.878   2.130  0.4046  0.1728 -0.4082
 7262SOL    HW133440   3.171   3.972   2.110  1.3326 -0.0286 -2.6868
 7262SOL    HW233441   3.114   3.821   2.131 -0.1588  0.9900  0.9867
 7263SOL     OW33442   3.312   5.244   1.538  0.2467  0.0561  0.2754
 7263SOL    HW133443   3.398   5.287   1.510 -0.5419  0.8688 -0.9445
 7263SOL    HW233444   3.325   5.145   1.544  0.9021  0.0266 -1.3612
 7264SOL     OW33445   0.795   7.497   2.203 -0.1319 -0.3212 -0.5877
 7264SOL    HW133446   0.817   7.594   2.193  0.4452 -0.4093 -0.1987
 7264SOL    HW233447   0.711   7.487   2.256  0.5302 -0.0713  0.5243
 7265SOL     OW33448   7.946   9.290   2.784 -0.0176  0.4514 -0.3615
 7265SOL    HW133449   8.006   9.212   2.768 -0.1603  0.0405  1.0593
 7265SOL    HW233450   7.941   9.309   2.882 -0.4634  1.8658 -0.6492
 7266SOL     OW33451   9.671   8.868   6.119 -0.4562 -0.0578 -0.3023
 7266SOL    HW133452   9.729   8.934   6.166  0.9363  0.4074 -2.6100
 7266SOL    HW233453   9.715   8.778   6.120 -0.1115  0.0909 -1.2357
 7267SOL     OW33454   2.915   0.101   2.403 -0.1983 -0.4203  0.2282
 7267SOL    HW133455   2.953   0.194   2.408  0.7581 -0.8860  2.2180
 7267SOL    HW233456   2.937   0.061   2.314 -1.2518  1.5058 -0.9400
 7268SOL     OW33457   2.488   8.552   7.114  0.5184 -0.0050  0.0692
 7268SOL    HW133458   2.469   8.573   7.018 -0.3354 -0.1875  0.1970
 7268SOL    HW233459   2.411   8.503   7.154  0.9365 -0.0729  0.8112
 7269SOL     OW33460   0.110   3.756   4.408  0.0682 -0.6662 -0.8125
 7269SOL    HW133461   0.069   3.699   4.479 -0.7452 -0.1328 -0.8447
 7269SOL    HW233462   0.208   3.737   4.402  0.2970 -0.0999  1.0202
 7270SOL     OW33463   0.561   9.749   4.412  0.2178  0.5379 -0.1272
 7270SOL    HW133464   0.543   9.654   4.386  0.0992  0.5350 -0.0321
 7270SOL    HW233465   0.543   9.809   4.333 -0.1291  0.5269 -0.0551
 7271SOL     OW33466   1.970   4.884   4.200 -0.1879  0.7468  0.2950
 7271SOL    HW133467   1.998   4.914   4.108 -1.7400  0.7581 -0.1838
 7271SOL    HW233468   1.966   4.964   4.261  1.2109  0.6878  0.4877
 7272SOL     OW33469   5.494   0.248   2.786  0.2100 -0.4101  0.2146
 7272SOL    HW133470   5.424   0.318   2.803 -0.1229 -1.1339  1.9603
 7272SOL    HW233471   5.463   0.187   2.713  0.2168  0.8431 -0.8713
 7273SOL     OW33472   9.533   5.860   1.475 -0.5145  0.0158 -0.2096
 7273SOL    HW133473   9.520   5.850   1.376 -0.6218  1.0700 -0.3102
 7273SOL    HW233474   9.453   5.823   1.522 -0.2581 -0.9274 -0.4834
 7274SOL     OW33475   4.029   1.507   1.649 -0.1918  0.4808  0.2756
 7274SOL    HW133476   4.039   1.408   1.639 -2.3020  0.1200  1.5112
 7274SOL    HW233477   4.112   1.545   1.691  0.4444 -0.8066  0.1997
 7275SOL     OW33478   6.190   2.797   4.983 -0.1660  0.6358 -0.1049
 7275SOL    HW133479   6.217   2.805   5.079 -2.0522  2.6310  0.2748
 7275SOL    HW233480   6.103   2.748   4.977  0.0728  0.2938 -0.8254
 7276SOL     OW33481   6.760   2.409   2.304  0.4725  0.3739  0.0655
 7276SOL    HW133482   6.699   2.461   2.244 -0.7560 -0.6484  0.4195
 7276SOL    HW233483   6.808   2.472   2.365 -2.4435  0.9991  1.8312
 7277SOL     OW33484   8.013   0.736   3.502 -0.2297 -0.4066  1.0538
 7277SOL    HW133485   7.973   0.818   3.544 -0.1132 -0.5532  1.4506
 7277SOL    HW233486   8.099   0.760   3.457  0.7650 -0.6720  2.7856
 7278SOL     OW33487   2.015   7.187   7.733 -0.0362 -0.1033  0.0227
 7278SOL    HW133488   1.957   7.165   7.812  0.7924 -0.6479  0.4867
 7278SOL    HW233489   2.054   7.278   7.745  0.2483 -0.2664  0.3333
 7279SOL     OW33490   3.253   1.908   1.293 -0.0880  0.2306  0.1330
 7279SOL    HW133491   3.302   1.830   1.331 -0.7144  0.2906  1.0679
 7279SOL    HW233492   3.192   1.947   1.362 -0.7505  0.7454 -0.7221
 7280SOL     OW33493   8.738   8.427   5.711 -0.1776 -0.2548  0.0708
 7280SOL    HW133494   8.777   8.414   5.802  0.7593  0.6976 -0.1916
 7280SOL    HW233495   8.678   8.507   5.712 -2.8923 -2.2087  0.7008
 7281SOL     OW33496   7.849   4.127   3.187 -0.1421 -0.2405 -0.9098
 7281SOL    HW133497   7.895   4.068   3.252 -1.6079  0.5283  0.8807
 7281SOL    HW233498   7.773   4.174   3.233 -0.3747  1.3285 -2.8418
 7282SOL     OW33499   4.208   8.003   3.347 -0.2043 -0.4760  0.2207
 7282SOL    HW133500   4.190   8.007   3.249 -0.7788  0.5043  0.3519
 7282SOL    HW233501   4.173   7.917   3.384  0.7063 -1.1829 -0.5589
 7283SOL     OW33502   4.139   9.288   0.046 -0.5514  0.3748 -0.2993
 7283SOL    HW133503   4.061   9.236   0.080  1.0564 -0.8125  1.6882
 7283SOL    HW233504   4.146   9.277  -0.053 -0.3363 -3.1827  0.0334
 7284SOL     OW33505   4.002   3.532   3.810  0.5862 -0.2944 -0.4597
 7284SOL    HW133506   3.972   3.461   3.745 -1.1996 -0.8740  0.9722
 7284SOL    HW233507   3.936   3.607   3.811  0.8195 -0.0937  0.3786
 7285SOL     OW33508   4.352   1.614   8.168 -0.4448  0.0003  0.0430
 7285SOL    HW133509   4.422   1.546   8.147 -0.3463  0.7471 -2.2138
 7285SOL    HW233510   4.266   1.568   8.189 -1.0675 -0.8463 -4.0040
 7286SOL     OW33511   1.746   7.320   7.246 -0.0804 -0.1700 -0.0981
 7286SOL    HW133512   1.841   7.325   7.277  0.2311  2.4223 -1.2765
 7286SOL    HW233513   1.686   7.363   7.313 -0.3488 -1.1695  0.3140
 7287SOL     OW33514   4.024   5.605   1.784 -0.3159  0.1667 -0.2989
 7287SOL    HW133515   3.935   5.608   1.738 -0.2797  0.8053 -0.3249
 7287SOL    HW233516   4.051   5.509   1.798 -1.6716 -0.0621  0.9689
 7288SOL     OW33517   1.964   9.324   0.361  0.0433 -0.3786 -0.5404
 7288SOL    HW133518   1.956   9.385   0.282  1.9486  0.0227 -0.4441
 7288SOL    HW233519   2.057   9.287   0.366 -0.5091 -1.6789  0.5922
 7289SOL     OW33520   7.784   6.607   6.317 -0.1872 -0.1540 -0.0264
 7289SOL    HW133521   7.741   6.550   6.248 -0.2659  1.9397 -1.7520
 7289SOL    HW233522   7.879   6.578   6.331 -0.4728 -1.2143 -0.2775
 7290SOL     OW33523   1.667   5.592   2.787 -0.0647 -0.5423 -0.0806
 7290SOL    HW133524   1.699   5.576   2.880 -0.4181  0.0666  0.1471
 7290SOL    HW233525   1.660   5.505   2.739 -0.7406 -0.9540  0.7423
 7291SOL     OW33526   2.520   0.130   6.226 -0.3705  0.1359 -0.1200
 7291SOL    HW133527   2.461   0.050   6.242  0.0973  0.0257  1.0933
 7291SOL    HW233528   2.465   0.213   6.235  0.2896  0.1746  4.2499
 7292SOL     OW33529   9.921   8.488   0.941  0.0631  0.0053  0.6019
 7292SOL    HW133530   9.974   8.570   0.916 -0.1152  0.1956  0.8472
 7292SOL    HW233531   9.831   8.515   0.975 -1.0051 -0.3959 -1.7749
 7293SOL     OW33532   9.523   3.449   3.995  0.1100 -0.4672  0.3752
 7293SOL    HW133533   9.430   3.475   4.020  0.0998  0.4017 -0.5607
 7293SOL    HW233534   9.520   3.364   3.943 -0.2556  0.1250 -0.5769
 7294SOL     OW33535   2.478   0.812   2.268  0.4116 -0.2625 -0.1884
 7294SOL    HW133536   2.570   0.779   2.288  0.5232  0.3419  0.3133
 7294SOL    HW233537   2.483   0.890   2.205  0.3607  0.8468  1.1548
 7295SOL     OW33538   4.607   8.382   3.930  0.5996  0.2354  0.3073
 7295SOL    HW133539   4.680   8.444   3.957  0.6598  0.0453  0.5757
 7295SOL    HW233540   4.643   8.313   3.867 -0.1971  2.6410 -2.9675
 7296SOL     OW33541   6.703   9.795   6.016 -0.6629 -0.5640 -0.1439
 7296SOL    HW133542   6.704   9.711   6.068  2.6435 -0.4558  0.0489
 7296SOL    HW233543   6.746   9.780   5.927 -2.6239  0.2357 -1.2591
 7297SOL     OW33544   2.576   9.806   5.087  0.1198  0.0518  0.0958
 7297SOL    HW133545   2.540   9.858   5.010 -3.3462  1.4250  2.4938
 7297SOL    HW233546   2.533   9.715   5.089 -1.9236  1.0027  1.8702
 7298SOL     OW33547   1.398   6.923   7.819 -0.0340 -0.1539 -0.2656
 7298SOL    HW133548   1.357   7.014   7.824  0.0302 -0.1662  0.5815
 7298SOL    HW233549   1.496   6.929   7.838  0.0867 -0.3190 -0.8211
 7299SOL     OW33550   4.614   6.451   2.453  0.1056  0.0782 -0.4291
 7299SOL    HW133551   4.586   6.517   2.524  1.7107 -1.3311  1.5856
 7299SOL    HW233552   4.559   6.368   2.461  0.0355  0.0591 -1.0898
 7300SOL     OW33553   0.322   0.864   2.240 -1.1453 -0.1586 -0.2627
 7300SOL    HW133554   0.255   0.826   2.175  0.0689 -3.8277  0.4891
 7300SOL    HW233555   0.334   0.801   2.316  1.9775  1.1825  0.4414
 7301SOL     OW33556   2.343   2.227   3.708 -0.3196  0.2431 -0.2373
 7301SOL    HW133557   2.309   2.283   3.633 -0.8750  0.0424 -0.1387
 7301SOL    HW233558   2.345   2.131   3.680 -0.1767  0.2127 -0.1230
 7302SOL     OW33559   7.081   3.926   1.211  0.1952 -0.0044 -0.4486
 7302SOL    HW133560   7.168   3.900   1.252 -0.6641 -0.4203  1.1751
 7302SOL    HW233561   7.087   3.918   1.111  1.9661 -0.1259 -0.3505
 7303SOL     OW33562   3.645   6.349   2.101 -0.2691  0.2391  0.1726
 7303SOL    HW133563   3.664   6.415   2.028 -0.5264 -1.9029 -1.9145
 7303SOL    HW233564   3.547   6.345   2.118 -0.1574  1.1360  1.0166
 7304SOL     OW33565   1.771   0.985   4.397  0.2445 -0.0999 -0.5266
 7304SOL    HW133566   1.677   0.993   4.366  0.8470  1.2242 -2.0671
 7304SOL    HW233567   1.784   1.042   4.479  0.2395  1.3922 -1.5555
 7305SOL     OW33568   0.019   7.199   2.117  0.2872  0.2448 -0.4817
 7305SOL    HW133569   0.085   7.221   2.189  1.5925  0.7317 -1.8104
 7305SOL    HW233570  -0.074   7.202   2.155  0.9789  0.0777  1.2717
 7306SOL     OW33571   8.100   9.756   1.464 -0.2055 -0.0878  0.1440
 7306SOL    HW133572   8.022   9.743   1.526 -0.7020 -0.6630 -0.5860
 7306SOL    HW233573   8.105   9.852   1.437  0.3543  0.2790  1.5076
 7307SOL     OW33574   3.246   6.589   4.460 -0.2831  0.4316  0.1805
 7307SOL    HW133575   3.201   6.569   4.546 -0.7551  3.1052  0.6067
 7307SOL    HW233576   3.311   6.664   4.473 -0.0819  0.6047 -1.6833
 7308SOL     OW33577   8.521   4.442   1.223 -0.2970  0.2141  0.3257
 7308SOL    HW133578   8.619   4.432   1.237  0.0490  1.7104 -0.8850
 7308SOL    HW233579   8.472   4.380   1.283  1.3913 -0.5300  0.9553
 7309SOL     OW33580   9.462   1.931   0.784  0.6051 -0.1263  0.0482
 7309SOL    HW133581   9.449   2.024   0.818 -0.6491 -0.1838 -0.2516
 7309SOL    HW233582   9.502   1.935   0.692  1.7987  0.0738  0.5595
 7310SOL     OW33583   2.717   0.745   2.326 -0.1961 -0.4444 -0.2123
 7310SOL    HW133584   2.776   0.675   2.283  0.0803  0.1358 -0.7877
 7310SOL    HW233585   2.769   0.829   2.337 -0.2250 -0.6215  1.4075
 7311SOL     OW33586   2.250   5.971   0.403 -0.3360 -0.4462  0.0909
 7311SOL    HW133587   2.158   5.934   0.391 -0.9824  1.1995 -0.1687
 7311SOL    HW233588   2.293   5.930   0.483 -0.5043 -2.7535 -0.9686
 7312SOL     OW33589   3.108   1.275   6.489 -0.5330 -0.3780  0.1600
 7312SOL    HW133590   3.055   1.359   6.496 -2.9497 -1.8588  0.1817
 7312SOL    HW233591   3.177   1.273   6.561 -1.8977  0.5841  1.5254
 7313SOL     OW33592   6.383   1.558   1.376 -0.1042  0.4220 -0.1342
 7313SOL    HW133593   6.456   1.529   1.314 -0.7961 -0.2872 -0.6244
 7313SOL    HW233594   6.331   1.478   1.406  0.3703  0.7288  1.5572
 7314SOL     OW33595   9.137   5.340   0.227  0.3596 -0.3070 -0.5031
 7314SOL    HW133596   9.130   5.261   0.288  1.7236 -1.2393 -1.5045
 7314SOL    HW233597   9.146   5.307   0.132 -1.9198  1.0983 -1.2633
 7315SOL     OW33598   4.508   2.583   6.371  0.2091  0.4492  1.0033
 7315SOL    HW133599   4.554   2.609   6.287  1.2091 -0.1009  1.3737
 7315SOL    HW233600   4.564   2.610   6.450  0.4825 -1.3182  1.4324
 7316SOL     OW33601   3.921   3.447   5.072  0.1939 -0.2454  0.3023
 7316SOL    HW133602   3.842   3.497   5.107  1.2618 -0.4171  3.0935
 7316SOL    HW233603   3.890   3.361   5.031 -1.2451  0.6037 -0.3970
 7317SOL     OW33604   1.007   3.370   5.241 -0.4515 -0.0157 -0.3245
 7317SOL    HW133605   0.943   3.331   5.307 -0.1835 -0.4004 -0.2935
 7317SOL    HW233606   1.064   3.439   5.286  0.8509 -1.4368  0.2446
 7318SOL     OW33607   7.960   0.384   5.842 -0.0752  0.2322 -0.0100
 7318SOL    HW133608   7.932   0.427   5.928  0.5203  0.1629  0.2179
 7318SOL    HW233609   8.018   0.447   5.790 -1.0226  0.5503 -0.6945
 7319SOL     OW33610   4.033   1.583   2.003  0.4434  0.0223  0.9243
 7319SOL    HW133611   4.083   1.576   2.089  0.3208  0.7250  1.0545
 7319SOL    HW233612   4.026   1.492   1.961  1.6985 -0.1182  0.9857
 7320SOL     OW33613   1.500   4.528   5.342  0.1916 -0.2607 -0.0281
 7320SOL    HW133614   1.505   4.481   5.253 -0.8068  1.5674 -1.0717
 7320SOL    HW233615   1.521   4.625   5.330  1.2858 -0.2361  1.9580
 7321SOL     OW33616   2.642   7.145   7.885  0.3602  0.0382  0.3880
 7321SOL    HW133617   2.591   7.220   7.842 -0.0041 -1.3407 -1.6344
 7321SOL    HW233618   2.578   7.077   7.919  0.6927  0.6470  2.2915
 7322SOL     OW33619   6.729   8.174   5.120  0.1159  0.2917  0.0186
 7322SOL    HW133620   6.811   8.118   5.131 -0.7401 -0.8223  0.8999
 7322SOL    HW233621   6.692   8.197   5.211  0.0151  1.6196 -0.3535
 7323SOL     OW33622   6.867   8.379   5.501  0.0520 -0.4409  0.3066
 7323SOL    HW133623   6.837   8.422   5.416 -0.9788  0.5312  1.1502
 7323SOL    HW233624   6.967   8.369   5.501 -0.0267 -1.3373 -1.4207
 7324SOL     OW33625   2.837   9.648   7.700  0.2288 -0.3581  0.3741
 7324SOL    HW133626   2.827   9.743   7.728 -1.0026 -0.0650 -1.0185
 7324SOL    HW233627   2.748   9.604   7.697  0.6364 -1.1476 -0.4204
 7325SOL     OW33628   5.643   1.706   7.999 -0.2232 -0.2426 -0.8632
 7325SOL    HW133629   5.644   1.805   7.984  0.0506 -0.0466  0.4183
 7325SOL    HW233630   5.609   1.686   8.090 -0.2160 -1.3337 -1.0930
 7326SOL     OW33631   2.133   1.185   5.455 -0.1530  0.1598 -0.0371
 7326SOL    HW133632   2.197   1.108   5.460  2.7393  2.6210  2.8911
 7326SOL    HW233633   2.107   1.200   5.359  0.5008 -3.3825 -0.8417
 7327SOL     OW33634   3.074   1.377   2.759 -0.2590  0.7321  0.2865
 7327SOL    HW133635   3.037   1.378   2.852  0.7379  0.4358  0.6916
 7327SOL    HW233636   3.170   1.406   2.761 -0.1075  0.3115 -0.5962
 7328SOL     OW33637   7.349   4.867   7.751  0.2790  0.2662 -0.1535
 7328SOL    HW133638   7.414   4.813   7.806  0.4521  0.2336 -0.3902
 7328SOL    HW233639   7.268   4.886   7.806  0.1559 -0.3527 -0.1190
 7329SOL     OW33640   2.066   3.132   6.510 -0.6348  0.6128 -0.1714
 7329SOL    HW133641   2.070   3.091   6.601 -0.0815  1.2717  0.1024
 7329SOL    HW233642   2.102   3.067   6.442 -0.5619  0.3203  0.1481
 7330SOL     OW33643   3.895   5.353   0.674 -0.5689  0.2270 -0.3140
 7330SOL    HW133644   3.930   5.403   0.595  1.4589  0.3965  0.6484
 7330SOL    HW233645   3.972   5.316   0.726 -1.9861 -3.5686 -0.7570
 7331SOL     OW33646   7.977   1.893   8.059 -0.4016 -0.2316 -0.1358
 7331SOL    HW133647   7.926   1.914   7.975 -0.6238 -1.1040 -0.2266
 7331SOL    HW233648   7.916   1.845   8.123 -0.6342  1.6235  1.0805
 7332SOL     OW33649   8.328   5.509   0.461 -0.2538  0.8605 -0.3108
 7332SOL    HW133650   8.228   5.508   0.453 -0.2800 -0.7839  0.0064
 7332SOL    HW233651   8.368   5.524   0.370 -0.7736  0.2927 -0.6371
 7333SOL     OW33652   0.652   0.206   0.406  0.1792  0.3165  0.2375
 7333SOL    HW133653   0.577   0.254   0.451  0.4503  0.4361  0.5654
 7333SOL    HW233654   0.739   0.236   0.445  0.4825  1.1524 -1.0627
 7334SOL     OW33655   0.940   6.648   3.028  0.0129  0.0517  0.0275
 7334SOL    HW133656   0.882   6.629   2.949  0.9008  2.3257 -1.2257
 7334SOL    HW233657   1.034   6.665   2.998  0.8481 -1.2100  1.8035
 7335SOL     OW33658   6.584   0.140   3.736  0.5616  0.1795 -0.2946
 7335SOL    HW133659   6.507   0.106   3.790  0.4190 -0.8791 -1.1396
 7335SOL    HW233660   6.668   0.093   3.762  0.0941 -2.0351 -2.5322
 7336SOL     OW33661   0.892   7.460   6.320 -0.4074 -0.4376 -0.6598
 7336SOL    HW133662   0.961   7.505   6.376 -0.6892 -0.0856 -0.5932
 7336SOL    HW233663   0.916   7.469   6.223 -1.0480  0.8448 -0.7093
 7337SOL     OW33664   1.482   4.951   4.556 -0.0468 -0.3285  0.3375
 7337SOL    HW133665   1.386   4.951   4.580  0.0806  0.8210  0.8960
 7337SOL    HW233666   1.538   4.956   4.639  0.4485  0.7200 -0.0419
 7338SOL     OW33667   0.580   5.513   0.882  0.0067  0.3521 -0.3803
 7338SOL    HW133668   0.660   5.572   0.892 -0.0318  0.3346  0.0359
 7338SOL    HW233669   0.497   5.568   0.890 -0.0221  0.4079 -1.0497
 7339SOL     OW33670   8.573   5.102   3.743 -0.3285  0.3669 -0.3959
 7339SOL    HW133671   8.634   5.118   3.666 -2.0272  1.0334 -1.6228
 7339SOL    HW233672   8.545   5.190   3.783 -2.2503  0.1603 -1.2530
 7340SOL     OW33673   4.392   8.514   0.025 -0.3168  0.0736  0.5957
 7340SOL    HW133674   4.488   8.523  -0.002  0.3183 -1.1664  2.3608
 7340SOL    HW233675   4.387   8.477   0.118 -2.5056  0.3939  0.6213
 7341SOL     OW33676   7.893   8.944   3.570  0.3068 -0.2481 -0.0873
 7341SOL    HW133677   7.920   8.934   3.665  0.7525 -2.9665 -0.4620
 7341SOL    HW233678   7.875   8.854   3.530 -1.3112  0.9346 -2.1715
 7342SOL     OW33679   6.715   3.534   1.107  0.3160 -0.5724  0.0262
 7342SOL    HW133680   6.733   3.579   1.194  0.9012 -0.4044 -0.1774
 7342SOL    HW233681   6.797   3.484   1.078  0.8743  1.2294 -1.5324
 7343SOL     OW33682   4.195   8.433   1.501 -0.7375 -0.2099  0.2774
 7343SOL    HW133683   4.141   8.423   1.417 -1.2320  0.8378  0.4627
 7343SOL    HW233684   4.155   8.377   1.573 -0.4309 -0.9556 -0.1228
 7344SOL     OW33685   9.596   4.961   6.058 -0.3781  0.5436  0.1821
 7344SOL    HW133686   9.535   5.014   6.118 -0.4292 -0.5626  1.1285
 7344SOL    HW233687   9.666   4.916   6.114 -0.1477 -0.1332 -0.6468
 7345SOL     OW33688   8.360   7.442   2.552 -0.3530  0.0963 -0.0413
 7345SOL    HW133689   8.391   7.498   2.629  1.1684 -0.6410 -0.1029
 7345SOL    HW233690   8.288   7.379   2.583 -0.0705  0.1205  0.6686
 7346SOL     OW33691   1.049   8.881   2.913 -0.6641  0.6145 -0.0322
 7346SOL    HW133692   1.060   8.795   2.864 -0.5943  0.9156 -0.5473
 7346SOL    HW233693   1.006   8.863   3.002 -1.5107  0.1660 -0.5299
 7347SOL     OW33694   7.744   1.316   1.421 -0.0294  0.4577  0.2590
 7347SOL    HW133695   7.745   1.231   1.475  0.7580  0.8670  0.8966
 7347SOL    HW233696   7.836   1.335   1.388 -0.4751  0.3305 -1.0481
 7348SOL     OW33697   3.623   1.544   1.547 -0.0588 -0.1316 -0.5818
 7348SOL    HW133698   3.528   1.535   1.576 -0.1540  1.3085 -0.4427
 7348SOL    HW233699   3.678   1.582   1.621  0.4742 -0.2027 -0.9335
 7349SOL     OW33700   1.495   3.418   6.914  0.5494  0.3139  0.0830
 7349SOL    HW133701   1.547   3.493   6.873  1.4688  0.2592  1.1452
 7349SOL    HW233702   1.536   3.331   6.887 -0.0465  0.1998 -0.4951
 7350SOL     OW33703   9.767   8.305   3.756  0.0387  0.1958  0.1052
 7350SOL    HW133704   9.841   8.345   3.703 -0.5428  1.8118  0.5024
 7350SOL    HW233705   9.699   8.265   3.694  0.1553  0.6553 -0.3233
 7351SOL     OW33706   8.827   5.607   5.429 -0.1887  0.0633  0.4532
 7351SOL    HW133707   8.893   5.554   5.376 -0.9360  0.2715 -0.7097
 7351SOL    HW233708   8.745   5.622   5.373 -0.2693  1.8291  1.0410
 7352SOL     OW33709   6.747   5.125   7.761 -0.1063  0.2704  0.1092
 7352SOL    HW133710   6.846   5.137   7.764 -0.2115  1.2697 -0.3849
 7352SOL    HW233711   6.723   5.039   7.807  1.1339 -0.8754 -1.3385
 7353SOL     OW33712   7.799   7.298   1.634  0.0458 -0.3936 -0.1622
 7353SOL    HW133713   7.818   7.394   1.652 -0.4146 -0.2105 -0.6540
 7353SOL    HW233714   7.885   7.248   1.625  0.2912  0.1567 -0.8852
 7354SOL     OW33715   9.262   1.843   7.168 -0.0388  0.0264 -0.3187
 7354SOL    HW133716   9.311   1.829   7.254  0.0691 -0.2782 -0.4292
 7354SOL    HW233717   9.239   1.754   7.128  0.1787  0.1666 -0.7557
 7355SOL     OW33718   3.132   6.912   5.016 -0.0009  0.1898 -0.0784
 7355SOL    HW133719   3.054   6.877   4.964 -0.5656  0.3419  0.6470
 7355SOL    HW233720   3.128   6.874   5.109  1.2510 -0.4562 -0.2918
 7356SOL     OW33721   4.822   2.010   5.662  0.0695 -0.2817  0.1686
 7356SOL    HW133722   4.782   2.095   5.696 -0.8976 -1.1433  1.2345
 7356SOL    HW233723   4.754   1.960   5.609  0.5707 -0.4774 -0.2908
 7357SOL     OW33724   8.784   9.748   4.896 -0.1134 -0.0672  0.2956
 7357SOL    HW133725   8.761   9.802   4.978 -0.6947  1.1882 -0.6760
 7357SOL    HW233726   8.845   9.673   4.922  0.0649  0.5732  1.8069
 7358SOL     OW33727   4.401   3.571   6.163  0.1881  0.3429  0.6397
 7358SOL    HW133728   4.338   3.646   6.181  2.9248  2.3478  2.3401
 7358SOL    HW233729   4.385   3.534   6.071 -2.1090  2.0752  0.3118
 7359SOL     OW33730   6.707   7.914   3.928 -0.0999  0.5223 -0.1590
 7359SOL    HW133731   6.693   7.931   4.026 -2.2368  0.9923 -0.5153
 7359SOL    HW233732   6.678   7.820   3.907  2.7175 -0.4419  0.0860
 7360SOL     OW33733   9.457   5.352   4.663  0.2347  0.2115 -0.2517
 7360SOL    HW133734   9.432   5.299   4.744 -1.2486 -0.8370 -1.3668
 7360SOL    HW233735   9.540   5.404   4.682  2.1555 -3.0071  0.6785
 7361SOL     OW33736   9.662   7.892   3.880  0.1459 -0.3990 -0.2844
 7361SOL    HW133737   9.612   7.958   3.936  1.3090  0.7264 -0.5315
 7361SOL    HW233738   9.599   7.826   3.842 -1.1995  1.1847 -0.8557
 7362SOL     OW33739   1.860   3.796   4.752  0.3400  0.2747  0.3118
 7362SOL    HW133740   1.817   3.827   4.667 -1.0410 -0.5685  0.6903
 7362SOL    HW233741   1.796   3.806   4.828  0.9570 -0.5927  0.9631
 7363SOL     OW33742   1.515   3.307   5.078  0.2284  0.0196  0.2172
 7363SOL    HW133743   1.595   3.256   5.111  1.1146  0.4225 -1.2765
 7363SOL    HW233744   1.467   3.251   5.011  0.1910  0.4365 -0.1009
 7364SOL     OW33745   1.453   5.262   4.670  0.1921  0.0264 -0.2972
 7364SOL    HW133746   1.511   5.234   4.593 -0.7455  0.5923 -1.2400
 7364SOL    HW233747   1.417   5.181   4.716  0.8609 -0.3218 -0.3781
 7365SOL     OW33748   8.864   5.427   6.488 -0.1087 -0.1242 -0.1409
 7365SOL    HW133749   8.782   5.430   6.431  0.3463  2.2825 -0.6872
 7365SOL    HW233750   8.848   5.479   6.572  0.3567 -0.9251  0.4550
 7366SOL     OW33751   2.521   3.553   7.452  0.0706  0.5358 -0.6102
 7366SOL    HW133752   2.541   3.456   7.459  1.1771  0.8338  0.3712
 7366SOL    HW233753   2.438   3.574   7.505 -0.6189  0.0115 -1.4516
 7367SOL     OW33754   0.925   6.348   1.140 -0.2478  0.1377  0.2067
 7367SOL    HW133755   0.970   6.321   1.225  1.3473  1.7331 -0.1027
 7367SOL    HW233756   0.921   6.448   1.134 -2.3889  0.0466 -0.5475
 7368SOL     OW33757   7.315   0.256   5.449 -0.1848 -0.0340  0.1361
 7368SOL    HW133758   7.231   0.201   5.455  0.3020 -0.5668  2.5229
 7368SOL    HW233759   7.325   0.310   5.533  1.9409 -0.1217 -0.0490
 7369SOL     OW33760   9.751   4.695   2.462 -0.1367  0.2303  0.1834
 7369SOL    HW133761   9.727   4.621   2.400 -1.1072 -0.3355  1.2190
 7369SOL    HW233762   9.801   4.766   2.412 -0.3718 -0.5038 -1.1003
 7370SOL     OW33763   6.381   0.092   3.943 -0.3999  0.2854 -0.2761
 7370SOL    HW133764   6.433   0.145   4.010 -0.4357 -0.9778  0.7853
 7370SOL    HW233765   6.312   0.038   3.990 -0.6615 -0.3560 -1.3743
 7371SOL     OW33766   8.059   7.190   1.654  0.7254 -0.1271  0.0606
 7371SOL    HW133767   8.118   7.271   1.653  0.9435 -0.2928 -0.7696
 7371SOL    HW233768   8.103   7.116   1.603 -1.2267  0.4700 -2.5679
 7372SOL     OW33769   2.101   2.072   3.511  0.1530 -0.0871  0.8383
 7372SOL    HW133770   2.057   2.070   3.601  0.4064  0.5545  0.9804
 7372SOL    HW233771   2.189   2.025   3.516  0.4885  0.5582  1.1044
 7373SOL     OW33772   9.939   2.938   3.689 -0.0447  0.0781  0.0269
 7373SOL    HW133773   9.899   2.855   3.651 -0.3281 -0.9023  2.3750
 7373SOL    HW233774   9.976   2.994   3.615  3.8372 -4.0122 -1.3484
 7374SOL     OW33775   3.338   1.975   5.418  0.3687 -0.0474 -0.1328
 7374SOL    HW133776   3.353   2.069   5.451 -2.0624 -0.0519  1.1064
 7374SOL    HW233777   3.309   1.978   5.323  0.4603  0.4451 -0.1476
 7375SOL     OW33778   4.054   2.887   2.565  0.1270 -0.0720  0.4346
 7375SOL    HW133779   3.966   2.909   2.609 -0.6040  0.2776 -1.1632
 7375SOL    HW233780   4.049   2.795   2.525  0.2780  0.1817 -0.1703
 7376SOL     OW33781   0.048   8.740   4.868  0.0191  0.8657  0.9488
 7376SOL    HW133782  -0.005   8.808   4.917  0.2709  0.3151  2.0164
 7376SOL    HW233783   0.144   8.768   4.865  0.1202  0.5909  1.3742
 7377SOL     OW33784   4.095   5.220   6.299 -0.2445  0.1334  0.1002
 7377SOL    HW133785   4.193   5.210   6.282 -0.4258 -0.4527 -0.6285
 7377SOL    HW233786   4.045   5.155   6.242 -1.1491  1.4937 -0.6806
 7378SOL     OW33787   9.252   1.136   3.152  0.2379 -0.3940 -0.4072
 7378SOL    HW133788   9.266   1.194   3.232  2.4612 -0.8556 -0.4421
 7378SOL    HW233789   9.212   1.190   3.078  0.4065  0.5971  0.2245
 7379SOL     OW33790   9.182   2.952   0.631 -0.1434  0.2266  0.3416
 7379SOL    HW133791   9.096   2.998   0.608  1.1660  1.3890 -2.4830
 7379SOL    HW233792   9.253   3.021   0.648  0.6741 -0.7261  0.8083
 7380SOL     OW33793   3.839   3.064   7.045 -0.1838 -0.6210  0.8499
 7380SOL    HW133794   3.800   3.046   6.955  1.5634  0.9281 -0.2438
 7380SOL    HW233795   3.827   3.161   7.068  1.3736 -0.5215  1.2862
 7381SOL     OW33796   7.455   1.651   7.574 -0.4230 -0.3045 -0.0167
 7381SOL    HW133797   7.405   1.595   7.640 -2.3798 -2.2088 -2.9773
 7381SOL    HW233798   7.402   1.733   7.553 -0.4774 -0.3970 -0.2448
 7382SOL     OW33799   3.737   3.418   4.675  0.1685 -0.6691  0.1287
 7382SOL    HW133800   3.687   3.332   4.681  0.8149 -1.0981 -0.6246
 7382SOL    HW233801   3.688   3.488   4.728 -0.4784 -1.4292  0.5522
 7383SOL     OW33802   4.185   8.912   7.194 -0.7242 -0.1476 -0.4687
 7383SOL    HW133803   4.214   8.993   7.245  0.2531 -0.3972 -0.6094
 7383SOL    HW233804   4.154   8.842   7.259 -0.7302  0.0189 -0.2897
 7384SOL     OW33805   2.351   1.342   4.002  0.1505 -0.5594 -0.1929
 7384SOL    HW133806   2.326   1.364   4.096  2.9545  0.8725  0.2382
 7384SOL    HW233807   2.450   1.351   3.990 -0.2500  0.0586 -3.4781
 7385SOL     OW33808   2.678   0.153   7.161  0.3677 -0.6492 -0.6179
 7385SOL    HW133809   2.616   0.175   7.086  0.0799 -1.5571 -0.6565
 7385SOL    HW233810   2.752   0.219   7.163 -0.2666  0.0794 -0.9638
 7386SOL     OW33811   3.892   8.275   3.171  0.0354  0.1655 -0.2519
 7386SOL    HW133812   3.991   8.285   3.163  0.2343  1.0584  2.7823
 7386SOL    HW233813   3.856   8.344   3.234 -2.1607 -1.7534  0.6766
 7387SOL     OW33814   4.973   2.028   6.250  0.1054  0.7527  0.2119
 7387SOL    HW133815   4.969   2.114   6.301  0.6771  1.0141 -0.1759
 7387SOL    HW233816   4.941   2.044   6.156 -0.1716  0.4539  0.2549
 7388SOL     OW33817   1.966   8.823   3.799  0.0954  0.1235  0.1870
 7388SOL    HW133818   1.974   8.908   3.747  1.2414 -0.6314 -0.8900
 7388SOL    HW233819   2.020   8.831   3.883  1.3377 -0.0342 -0.5827
 7389SOL     OW33820   9.506   0.813   2.711 -0.1656 -0.5638  0.0644
 7389SOL    HW133821   9.546   0.766   2.633 -1.2415  0.4016 -1.0967
 7389SOL    HW233822   9.412   0.781   2.725 -1.0911  1.5427 -1.0578
 7390SOL     OW33823   8.579   9.481   2.313 -0.7123  0.0337 -0.2771
 7390SOL    HW133824   8.617   9.467   2.405  0.2844  1.4987 -0.4500
 7390SOL    HW233825   8.485   9.513   2.321 -0.8699 -0.5414  0.2197
 7391SOL     OW33826   1.786   2.154   2.822  0.0366  0.0405  0.3165
 7391SOL    HW133827   1.802   2.199   2.910 -1.7913 -0.5360  0.9552
 7391SOL    HW233828   1.770   2.056   2.836 -1.0467  0.0736 -0.5549
 7392SOL     OW33829   8.099   9.059   5.809  0.3689 -0.4655 -0.1851
 7392SOL    HW133830   8.051   9.031   5.726 -0.9382  1.4914 -0.1264
 7392SOL    HW233831   8.043   9.037   5.889  1.5253 -2.1454  0.1823
 7393SOL     OW33832   8.226   0.547   0.028  0.7142 -0.4910  0.4034
 7393SOL    HW133833   8.314   0.499   0.028 -0.1105 -2.0077  0.8700
 7393SOL    HW233834   8.193   0.556   0.121  0.5209  0.3885  0.2586
 7394SOL     OW33835   0.281   3.594   0.803  0.4249  0.2418  0.1147
 7394SOL    HW133836   0.299   3.638   0.890 -0.0977 -1.5135  1.1332
 7394SOL    HW233837   0.368   3.576   0.756  0.7700  0.2439  0.7567
 7395SOL     OW33838   1.342   7.019   4.329  0.3538 -0.2984 -0.1765
 7395SOL    HW133839   1.397   7.057   4.403  0.9253  0.0329 -0.7743
 7395SOL    HW233840   1.393   6.946   4.283 -0.0048 -0.5091 -0.2425
 7396SOL     OW33841   8.705   1.309   1.770  0.1372  0.0774  0.0260
 7396SOL    HW133842   8.748   1.240   1.711  1.2135  1.1268 -0.4407
 7396SOL    HW233843   8.616   1.276   1.799 -0.1485 -0.7412 -1.6890
 7397SOL     OW33844   8.600   9.133   1.760 -0.0389 -0.1445  0.5272
 7397SOL    HW133845   8.654   9.161   1.840  0.0406 -1.0750  0.7990
 7397SOL    HW233846   8.513   9.095   1.791 -0.4615  0.4710  0.1208
 7398SOL     OW33847   9.228   6.263   4.540 -0.0111 -0.0688 -0.0844
 7398SOL    HW133848   9.266   6.180   4.498  0.8713  0.1177  0.3374
 7398SOL    HW233849   9.132   6.273   4.513 -0.2878 -1.5326  0.3118
 7399SOL     OW33850   2.547   2.944   8.186  0.4091 -0.1988  0.2223
 7399SOL    HW133851   2.624   2.986   8.233  0.7083  0.9440 -1.2478
 7399SOL    HW233852   2.568   2.848   8.166  0.8537 -0.2935  1.0852
 7400SOL     OW33853   0.127   6.064   1.069 -0.3651 -0.3120 -0.0008
 7400SOL    HW133854   0.060   6.137   1.057 -0.2188  0.0293  1.1786
 7400SOL    HW233855   0.083   5.983   1.106 -0.5139 -0.8178 -1.2442
 7401SOL     OW33856   2.660   0.371   1.110  0.4595 -0.4179 -0.9427
 7401SOL    HW133857   2.564   0.347   1.093  1.0536 -2.5126 -1.4989
 7401SOL    HW233858   2.689   0.442   1.047 -0.6935  0.1308 -0.8544
 7402SOL     OW33859   2.239   3.986   4.946 -0.3464 -0.1910  0.1998
 7402SOL    HW133860   2.314   4.009   4.883 -0.8736 -0.9180 -0.7017
 7402SOL    HW233861   2.218   3.889   4.938 -1.9230  0.1650 -0.1221
 7403SOL     OW33862   3.996   5.958   1.191 -0.8493  0.2583 -0.2689
 7403SOL    HW133863   3.953   5.959   1.101 -1.4932 -0.5621  0.0319
 7403SOL    HW233864   4.072   5.893   1.191  0.9834  2.3072 -1.0526
 7404SOL     OW33865   9.958   5.693   2.244  0.4656 -0.4218  0.1549
 7404SOL    HW133866   9.993   5.702   2.338 -2.3928  0.5594  1.1653
 7404SOL    HW233867   9.969   5.599   2.213  1.3997 -0.7668  1.4858
 7405SOL     OW33868   5.642   3.795   0.807 -0.2804  0.5939 -0.6036
 7405SOL    HW133869   5.697   3.770   0.886 -2.7369  1.6929  1.4905
 7405SOL    HW233870   5.672   3.884   0.772  0.0198  0.6620 -0.1672
 7406SOL     OW33871   3.760   9.350   5.428  0.2855 -0.4418  0.3959
 7406SOL    HW133872   3.746   9.343   5.527 -4.0340 -1.3026 -0.1768
 7406SOL    HW233873   3.673   9.336   5.381  1.7847  2.2544 -3.4638
 7407SOL     OW33874   0.921   6.100   5.688  0.1073  0.1234  0.2755
 7407SOL    HW133875   0.936   6.164   5.613 -0.9645 -0.2224 -0.2488
 7407SOL    HW233876   0.937   6.146   5.775 -0.0329  0.9180 -0.1127
 7408SOL     OW33877   0.545   6.526   5.477 -0.7457 -0.6868  0.0655
 7408SOL    HW133878   0.598   6.583   5.539 -1.1542 -2.4248  2.0555
 7408SOL    HW233879   0.449   6.554   5.480 -0.6343 -0.2503 -0.3951
 7409SOL     OW33880   9.148   8.746   7.683 -0.5525 -0.1202 -0.5487
 7409SOL    HW133881   9.168   8.688   7.604  0.9548  1.2246 -1.1731
 7409SOL    HW233882   9.224   8.809   7.698 -1.1217  0.0962  1.5747
 7410SOL     OW33883   8.578   1.172   3.415  0.6196 -0.3746  0.6618
 7410SOL    HW133884   8.486   1.185   3.378  0.6264  1.1018  1.1531
 7410SOL    HW233885   8.575   1.178   3.515  1.4789  1.2570  0.6072
 7411SOL     OW33886   8.765   2.124   7.786 -0.4330  0.1609  0.1947
 7411SOL    HW133887   8.812   2.184   7.722 -0.3069 -0.4883 -0.3324
 7411SOL    HW233888   8.784   2.028   7.763 -1.3768 -0.1008  0.4568
 7412SOL     OW33889   9.070   1.991   1.637  0.7140  0.2690 -0.2900
 7412SOL    HW133890   9.073   1.917   1.704 -1.1713  0.5785  0.1583
 7412SOL    HW233891   9.038   2.075   1.682 -1.4742  0.2483 -1.7736
 7413SOL     OW33892   1.870   7.175   6.877 -0.1222  0.3862  0.2739
 7413SOL    HW133893   1.934   7.197   6.951 -0.5960  2.5099  0.0814
 7413SOL    HW233894   1.921   7.137   6.800  0.5422 -0.5797  1.1723
 7414SOL     OW33895   8.224   7.434   1.633  0.8146  0.7494  0.1305
 7414SOL    HW133896   8.292   7.440   1.559 -2.4430  1.6749 -2.9183
 7414SOL    HW233897   8.187   7.525   1.651  0.1327  0.2066  1.5332
 7415SOL     OW33898   1.337   9.321   0.906  0.0170 -0.0505 -0.1289
 7415SOL    HW133899   1.283   9.401   0.885 -0.5158  0.0118  1.4149
 7415SOL    HW233900   1.435   9.344   0.902 -0.1326  0.6553  0.2257
 7416SOL     OW33901   2.098   3.071   4.127  0.7634  0.0468 -0.3118
 7416SOL    HW133902   2.054   3.139   4.185  2.1948  0.2484  0.5813
 7416SOL    HW233903   2.151   3.008   4.184 -1.6494 -2.7074 -0.9820
 7417SOL     OW33904   3.779   4.411   4.677 -0.4693  0.1161 -0.4695
 7417SOL    HW133905   3.827   4.496   4.658 -2.2845  0.8992 -1.6428
 7417SOL    HW233906   3.774   4.397   4.776 -0.3771  1.4905 -0.2668
 7418SOL     OW33907   1.703   3.325   7.375  0.7545  0.0589  0.2676
 7418SOL    HW133908   1.763   3.254   7.412 -0.0729 -0.5286  0.4964
 7418SOL    HW233909   1.618   3.283   7.342 -0.4150  1.1134  1.8678
 7419SOL     OW33910   3.279   0.920   2.150  0.3412 -0.3953  0.0170
 7419SOL    HW133911   3.285   0.984   2.228 -1.4576 -2.2149  1.7042
 7419SOL    HW233912   3.262   0.972   2.066  1.3112  1.5324  0.9697
 7420SOL     OW33913   7.786   2.183   8.179  0.0253 -0.2316  0.1608
 7420SOL    HW133914   7.805   2.163   8.275  1.1466 -0.1315 -0.0311
 7420SOL    HW233915   7.854   2.137   8.121 -2.3319 -2.6665 -0.7663
 7421SOL     OW33916   1.648   3.610   6.548 -0.3674  0.1005  0.6548
 7421SOL    HW133917   1.579   3.560   6.494 -0.9624 -0.4714  1.9312
 7421SOL    HW233918   1.735   3.609   6.499 -1.2991  1.0148 -1.0924
 7422SOL     OW33919   3.527   4.908   6.960 -0.1993 -0.3075 -0.1120
 7422SOL    HW133920   3.458   4.887   7.030 -0.5184 -2.7632 -1.1125
 7422SOL    HW233921   3.601   4.841   6.966  0.7995  0.7187 -0.7941
 7423SOL     OW33922   1.311   4.145   5.513  0.2684  0.5254 -0.4168
 7423SOL    HW133923   1.232   4.162   5.454 -1.7919  0.9102  2.3045
 7423SOL    HW233924   1.344   4.232   5.550  1.2222  0.2542 -0.6206
 7424SOL     OW33925   9.860   7.204   1.728  0.6633  0.7193 -0.1025
 7424SOL    HW133926   9.828   7.262   1.803 -2.2679 -0.1807 -0.6258
 7424SOL    HW233927   9.915   7.129   1.765  0.1096  0.8789  1.0544
 7425SOL     OW33928   3.490   0.686   1.802  0.7000  0.5379  0.7283
 7425SOL    HW133929   3.405   0.678   1.749  1.2481  0.7254 -0.1868
 7425SOL    HW233930   3.470   0.729   1.890 -0.1554  0.6210  0.5004
 7426SOL     OW33931   9.604   6.790   5.548  0.7387  0.1379  0.2999
 7426SOL    HW133932   9.631   6.885   5.564  1.7618 -0.2695  1.1318
 7426SOL    HW233933   9.637   6.733   5.624 -2.6944 -0.3910  1.4825
 7427SOL     OW33934   8.639   8.732   5.626 -0.6370  0.3904 -0.3533
 7427SOL    HW133935   8.587   8.786   5.692 -1.4595 -0.5857 -0.1928
 7427SOL    HW233936   8.590   8.728   5.539  0.1881  1.2223 -0.8693
 7428SOL     OW33937   7.999   9.633   6.830 -0.0659  0.4806 -0.6180
 7428SOL    HW133938   7.958   9.722   6.850 -0.6950 -0.2587  1.5723
 7428SOL    HW233939   7.982   9.610   6.734 -2.0897  1.5999 -0.5701
 7429SOL     OW33940   2.651   3.299   6.475 -0.2631  0.1610 -0.2039
 7429SOL    HW133941   2.662   3.363   6.399  0.5178 -0.3129 -0.4956
 7429SOL    HW233942   2.553   3.280   6.489 -0.3483 -1.0638 -2.2034
 7430SOL     OW33943   8.582   4.502   0.448  0.1761  0.3395  0.8914
 7430SOL    HW133944   8.676   4.503   0.413 -0.0665  2.7421  0.2065
 7430SOL    HW233945   8.546   4.595   0.450 -1.7858 -0.4026  2.3157
 7431SOL     OW33946   2.745   2.029   1.574 -0.1833  0.4086  0.3937
 7431SOL    HW133947   2.650   2.007   1.596  0.1697 -0.5674  0.9830
 7431SOL    HW233948   2.749   2.119   1.531 -1.3193  0.6882  0.8415
 7432SOL     OW33949   5.333   2.184   0.932  0.3358 -0.1173 -0.1873
 7432SOL    HW133950   5.309   2.271   0.974 -1.3132 -0.6095 -0.0744
 7432SOL    HW233951   5.430   2.165   0.947  1.2689  2.7240 -2.0637
 7433SOL     OW33952   0.127   9.634   0.161  0.4282  0.4787 -0.2259
 7433SOL    HW133953   0.088   9.629   0.253  0.5555 -1.8387 -0.2678
 7433SOL    HW233954   0.097   9.555   0.108  2.0957  0.6717 -1.5034
 7434SOL     OW33955   2.759   7.135   5.017  0.4860 -0.1114 -0.1197
 7434SOL    HW133956   2.784   7.061   4.955  0.6698  0.5790 -0.8807
 7434SOL    HW233957   2.837   7.160   5.073  0.4511 -0.4232  0.0704
 7435SOL     OW33958   1.225   9.589   4.158 -0.2562  0.0917  0.5787
 7435SOL    HW133959   1.197   9.653   4.086  0.2120  0.0267  0.3387
 7435SOL    HW233960   1.208   9.631   4.247 -1.6206 -0.1602  0.4512
 7436SOL     OW33961  10.000   5.249   6.818  0.3299 -0.4081  0.6019
 7436SOL    HW133962  10.021   5.220   6.911  1.2787 -2.2636 -0.1713
 7436SOL    HW233963   9.970   5.170   6.764 -0.9246  0.7755 -0.4802
 7437SOL     OW33964   7.884   2.612   7.623  0.2776  0.5572 -0.4773
 7437SOL    HW133965   7.865   2.630   7.527  0.7656  0.1492 -0.6485
 7437SOL    HW233966   7.980   2.629   7.642  0.7002 -1.6211 -0.5891
 7438SOL     OW33967   9.580   4.760   3.604 -0.0911  0.0643 -0.1892
 7438SOL    HW133968   9.631   4.761   3.519  0.1699 -0.3293 -0.0374
 7438SOL    HW233969   9.582   4.852   3.645 -0.4108  0.3110 -0.7172
 7439SOL     OW33970   1.135   3.602   0.281 -0.3414  0.1322 -0.1319
 7439SOL    HW133971   1.120   3.525   0.343  0.0644  0.9320  0.9676
 7439SOL    HW233972   1.220   3.588   0.230 -0.4305 -0.2954 -0.1667
 7440SOL     OW33973   4.504   0.770   3.940 -0.0863  0.5232  0.0580
 7440SOL    HW133974   4.454   0.841   3.988  1.1701  0.7183  1.1249
 7440SOL    HW233975   4.584   0.809   3.894  0.4840 -0.1376  0.4587
 7441SOL     OW33976   0.300   0.055   8.032 -0.0713  0.0776 -0.2113
 7441SOL    HW133977   0.325   0.146   7.998 -2.7850  1.2449  0.7043
 7441SOL    HW233978   0.380   0.011   8.072  1.2523  2.1423 -0.4924
 7442SOL     OW33979   0.908   4.611   6.920 -0.0972 -0.4001 -0.7194
 7442SOL    HW133980   0.880   4.686   6.981  1.9076 -0.6019  0.4981
 7442SOL    HW233981   0.941   4.650   6.834  0.1706  0.0759 -0.4067
 7443SOL     OW33982   0.473   3.583   5.386 -0.6969  0.2238 -0.1275
 7443SOL    HW133983   0.549   3.567   5.323  0.8043  2.5119  1.0256
 7443SOL    HW233984   0.484   3.525   5.466 -1.6989 -1.4682 -1.1912
 7444SOL     OW33985   1.098   0.362   5.657 -0.7645  0.4788 -0.3270
 7444SOL    HW133986   1.117   0.458   5.676 -0.6639  0.3121  0.4666
 7444SOL    HW233987   1.002   0.351   5.630 -0.8535  0.7666 -0.1244
 7445SOL     OW33988   8.606   2.839   5.704  0.4610 -0.3331  0.2982
 7445SOL    HW133989   8.648   2.785   5.632 -0.7583 -0.0700 -0.6239
 7445SOL    HW233990   8.508   2.820   5.708  0.2814  0.6676  0.9741
 7446SOL     OW33991   8.014   3.219   3.617  0.2309  0.1276  0.6564
 7446SOL    HW133992   7.916   3.224   3.640  0.1224  1.7032 -0.0629
 7446SOL    HW233993   8.066   3.275   3.682  0.4138  1.0044 -0.2440
 7447SOL     OW33994   2.191   9.964   7.707 -0.6992 -0.3746 -0.0074
 7447SOL    HW133995   2.101   9.943   7.746 -1.1267  1.8398  0.2426
 7447SOL    HW233996   2.217  10.057   7.731  2.1028 -1.3047  0.6923
 7448SOL     OW33997   0.295   8.342   0.418 -0.0044 -0.4393  0.3367
 7448SOL    HW133998   0.336   8.285   0.347  0.3313  0.0189  0.1602
 7448SOL    HW233999   0.196   8.326   0.420  0.0684 -0.9243  0.1965
 7449SOL     OW34000   2.183   1.649   0.432  0.3911 -1.0481 -0.3321
 7449SOL    HW134001   2.085   1.635   0.448  0.3538  0.5168  0.8409
 7449SOL    HW234002   2.205   1.620   0.339 -1.6526  0.7834 -1.4282
 7450SOL     OW34003   3.643   6.949   0.976 -0.3202  0.0443 -0.3944
 7450SOL    HW134004   3.712   6.958   1.048 -1.7893 -1.8321  1.3181
 7450SOL    HW234005   3.658   6.863   0.927  0.6596  1.3004 -2.3687
 7451SOL     OW34006   5.688   8.476   6.817  0.2644  0.4766 -0.7947
 7451SOL    HW134007   5.591   8.458   6.799  0.2842 -0.0143 -0.4065
 7451SOL    HW234008   5.700   8.506   6.911  0.6179 -0.4819 -0.5310
 7452SOL     OW34009   3.474   0.859   6.394 -0.3924 -1.0155  0.2063
 7452SOL    HW134010   3.491   0.777   6.449 -0.4671 -0.9976  0.2560
 7452SOL    HW234011   3.485   0.836   6.297  0.2485 -0.9244  0.2505
 7453SOL     OW34012   5.306   9.662   6.450  0.3879 -0.2782  0.5810
 7453SOL    HW134013   5.340   9.589   6.509 -0.6743 -1.1568  0.1421
 7453SOL    HW234014   5.209   9.677   6.468  0.5993  1.0333  0.6629
 7454SOL     OW34015   0.273   5.236   8.084 -0.9488  0.8895  0.2026
 7454SOL    HW134016   0.246   5.283   8.000  0.5494 -0.1475 -0.8862
 7454SOL    HW234017   0.240   5.142   8.081 -0.6035  0.7568  0.6307
 7455SOL     OW34018   2.548   9.665   6.469 -0.1739 -0.5361 -0.0229
 7455SOL    HW134019   2.617   9.597   6.496 -0.5160 -0.2982  1.4829
 7455SOL    HW234020   2.554   9.680   6.370 -1.2058 -3.9839 -0.6735
 7456SOL     OW34021   0.637   5.340   7.887  0.1478 -0.2660  0.1267
 7456SOL    HW134022   0.734   5.365   7.887  0.0628  0.1008 -0.7217
 7456SOL    HW234023   0.589   5.392   7.817  0.2633 -3.8574 -2.8129
 7457SOL     OW34024   4.584   2.867   3.526 -0.8730  0.1446 -0.1720
 7457SOL    HW134025   4.588   2.805   3.448 -2.2207  1.3954 -1.2596
 7457SOL    HW234026   4.676   2.898   3.550 -0.2770 -1.5673 -0.1646
 7458SOL     OW34027   2.365   7.253   0.097 -0.7648  0.1104 -0.2725
 7458SOL    HW134028   2.273   7.265   0.135 -0.5804  0.5460  0.0384
 7458SOL    HW234029   2.362   7.266  -0.002 -0.9198  0.7825 -0.1796
 7459SOL     OW34030   1.373   7.085   3.938 -0.2932 -0.1314  0.5465
 7459SOL    HW134031   1.381   6.987   3.917  2.3250 -0.1867  1.6500
 7459SOL    HW234032   1.372   7.098   4.037  1.1955  1.0899  0.4088
 7460SOL     OW34033   5.843   4.496   0.777  0.3246  0.5464  0.6551
 7460SOL    HW134034   5.943   4.492   0.786  0.5084 -2.1750 -1.7174
 7460SOL    HW234035   5.801   4.428   0.837  0.0240  0.0943 -0.0689
 7461SOL     OW34036   2.358   0.152   3.668  0.0111  0.0387 -0.0351
 7461SOL    HW134037   2.356   0.154   3.768 -2.6434 -1.6504  0.0029
 7461SOL    HW234038   2.302   0.226   3.631  0.8551  0.5616 -0.2669
 7462SOL     OW34039   0.836   3.534   7.691  0.2538  0.0514 -0.3028
 7462SOL    HW134040   0.867   3.441   7.677 -0.2922  0.0786 -1.7374
 7462SOL    HW234041   0.914   3.597   7.686  0.2123 -0.0292 -2.3940
 7463SOL     OW34042   8.877   5.013   3.145  0.8195  0.4430  0.0284
 7463SOL    HW134043   8.960   5.035   3.093  1.9676 -0.7362  1.3234
 7463SOL    HW234044   8.901   4.995   3.240 -0.7587 -1.1038  0.1678
 7464SOL     OW34045   9.267   8.783   3.309  0.0169  0.3543  0.0730
 7464SOL    HW134046   9.253   8.703   3.250 -0.8347 -0.6793  1.6501
 7464SOL    HW234047   9.360   8.817   3.297 -0.3120  0.5274 -2.2977
 7465SOL     OW34048   7.853   1.284   2.443 -0.2336 -0.4393  0.4444
 7465SOL    HW134049   7.777   1.219   2.442 -0.9345  0.3903 -0.4182
 7465SOL    HW234050   7.828   1.363   2.499 -0.7481  0.7052 -1.3654
 7466SOL     OW34051   2.568   4.960   7.480  0.1002  0.5244  0.4499
 7466SOL    HW134052   2.536   5.054   7.491  2.0620  1.0776  1.8587
 7466SOL    HW234053   2.491   4.897   7.484 -1.5519  2.1860 -2.8199
 7467SOL     OW34054   7.184   4.710   7.037 -0.1794 -0.0907  0.2699
 7467SOL    HW134055   7.119   4.748   6.971 -0.4049  1.5144  1.3774
 7467SOL    HW234056   7.277   4.718   7.000 -0.3770  0.0720 -0.1964
 7468SOL     OW34057   0.778   8.957   7.871 -0.2094 -0.2297 -0.2018
 7468SOL    HW134058   0.725   9.030   7.915  1.0324 -0.4514  1.7427
 7468SOL    HW234059   0.731   8.870   7.883 -1.6206  0.1968 -2.3982
 7469SOL     OW34060   3.777   4.764   4.949  0.5074 -0.0423  0.0041
 7469SOL    HW134061   3.802   4.834   5.016  2.4430  0.5473 -1.3039
 7469SOL    HW234062   3.705   4.799   4.890  1.2574  0.7444 -0.4573
 7470SOL     OW34063   9.789   6.502   1.334  0.6125  0.3239 -0.3008
 7470SOL    HW134064   9.855   6.494   1.408  0.7391 -0.7629 -0.5214
 7470SOL    HW234065   9.696   6.489   1.371  0.5107  1.8550  0.0087
 7471SOL     OW34066   4.408   6.766   2.011 -0.6016  0.0631  0.3055
 7471SOL    HW134067   4.424   6.751   1.914 -0.3154 -2.0277  0.6358
 7471SOL    HW234068   4.361   6.686   2.049 -1.4774  1.2294  1.7055
 7472SOL     OW34069   5.174   1.596   6.022  0.3933  0.3343  0.0064
 7472SOL    HW134070   5.262   1.551   6.007  1.1916  2.0248 -0.6263
 7472SOL    HW234071   5.180   1.655   6.104  0.5321  2.0340 -1.1922
 7473SOL     OW34072   3.177   8.888   3.445 -0.3639  0.1743 -0.0711
 7473SOL    HW134073   3.199   8.984   3.462 -0.5129  0.1144  0.4575
 7473SOL    HW234074   3.202   8.864   3.351  2.8978 -0.1839  0.8422
 7474SOL     OW34075   9.362   6.599   1.398 -0.0804 -0.4169 -0.0828
 7474SOL    HW134076   9.396   6.693   1.397 -1.0794 -0.0553 -0.4962
 7474SOL    HW234077   9.275   6.594   1.348 -0.4582 -1.4024  0.6533
 7475SOL     OW34078   7.402   9.400   2.215 -0.1653 -0.0859 -0.2148
 7475SOL    HW134079   7.421   9.312   2.257  1.3966  1.1893  1.8769
 7475SOL    HW234080   7.362   9.461   2.283  0.3677  1.3521 -1.1642
 7476SOL     OW34081   1.882   5.521   6.431  0.0720 -0.2345 -0.1600
 7476SOL    HW134082   1.908   5.425   6.433 -0.1005 -0.3233 -1.8329
 7476SOL    HW234083   1.961   5.578   6.452  0.3353 -0.7156  0.1516
 7477SOL     OW34084   6.183   9.217   4.292 -0.2870 -0.2542  0.6040
 7477SOL    HW134085   6.231   9.135   4.260 -1.6528 -0.6819 -0.3779
 7477SOL    HW234086   6.087   9.213   4.264  0.3153  3.2598 -2.4539
 7478SOL     OW34087   4.557   3.952   0.993  0.1089  0.3390  0.5807
 7478SOL    HW134088   4.640   4.009   0.996  0.0769  0.3996  0.3738
 7478SOL    HW234089   4.576   3.870   0.939  0.0690  0.2944  0.6357
 7479SOL     OW34090   6.828   8.152   7.047  0.2657  0.2956 -0.1186
 7479SOL    HW134091   6.746   8.194   7.087 -0.8396  0.8035 -2.8380
 7479SOL    HW234092   6.907   8.210   7.067 -0.6335  1.7159 -0.6072
 7480SOL     OW34093   8.932   5.999   7.637  0.4175 -0.3605 -0.0305
 7480SOL    HW134094   8.903   5.904   7.650  2.1182 -0.9613 -0.4787
 7480SOL    HW234095   9.025   6.011   7.672 -0.4376  1.6125  1.7210
 7481SOL     OW34096   5.683   9.486   6.566 -0.4735 -0.9039  0.1236
 7481SOL    HW134097   5.657   9.394   6.597 -0.8263 -0.7287  0.3599
 7481SOL    HW234098   5.702   9.484   6.468 -1.5458 -1.0108 -0.0925
 7482SOL     OW34099   4.582   7.864   6.777  0.0462  0.0073  0.1267
 7482SOL    HW134100   4.651   7.907   6.719  0.4605  0.5955  1.0372
 7482SOL    HW234101   4.584   7.907   6.868 -2.6406  1.1761 -0.3347
 7483SOL     OW34102   3.081   9.790   4.211  1.0139  0.0995  0.5845
 7483SOL    HW134103   3.116   9.713   4.265  2.4926  0.0026 -0.4850
 7483SOL    HW234104   2.982   9.799   4.227  1.0380 -1.2537  1.6545
 7484SOL     OW34105   3.438   7.454   4.706 -0.4055 -0.0039 -0.0144
 7484SOL    HW134106   3.489   7.489   4.628 -0.8131  0.1402 -0.2182
 7484SOL    HW234107   3.474   7.365   4.733  0.9371  0.7619  0.7847
 7485SOL     OW34108   2.857   4.047   2.498  0.6445 -0.1035 -0.1525
 7485SOL    HW134109   2.800   3.999   2.564  1.0318 -0.0784  0.2036
 7485SOL    HW234110   2.870   4.142   2.528  0.0120  0.1790 -0.7710
 7486SOL     OW34111   6.102   8.287   3.808 -0.7125 -0.3888  0.1472
 7486SOL    HW134112   6.031   8.221   3.833 -1.6363  0.3696 -0.4172
 7486SOL    HW234113   6.180   8.239   3.769 -1.3009 -1.1698 -0.0948
 7487SOL     OW34114   7.985   1.552   7.889  0.6576 -0.1337  0.5528
 7487SOL    HW134115   8.044   1.608   7.946 -0.6404  0.3663  1.4343
 7487SOL    HW234116   7.889   1.568   7.913  0.1493 -0.9969 -0.7743
 7488SOL     OW34117   6.758   2.451   4.048  0.1925 -0.6474 -0.3150
 7488SOL    HW134118   6.669   2.485   4.017  1.0519  2.6427  0.5956
 7488SOL    HW234119   6.808   2.412   3.971 -0.5603  0.8379 -1.5800
 7489SOL     OW34120   1.547   8.920   1.525 -0.4529 -0.3885  0.1958
 7489SOL    HW134121   1.622   8.924   1.592 -0.3674  0.5938  0.0436
 7489SOL    HW234122   1.462   8.951   1.568 -0.6985 -1.0956  0.2424
 7490SOL     OW34123   4.455   8.467   1.557 -0.2388  0.5906 -0.1636
 7490SOL    HW134124   4.356   8.459   1.547 -0.4338  0.2342  1.8322
 7490SOL    HW234125   4.482   8.438   1.649  1.7434  0.5099 -0.7415
 7491SOL     OW34126   7.774   0.610   2.976 -0.3744  0.4168 -0.0043
 7491SOL    HW134127   7.856   0.600   2.920 -1.1677  0.0685 -1.1228
 7491SOL    HW234128   7.712   0.676   2.934 -1.2608 -0.3197  0.1181
 7492SOL     OW34129   9.197   8.368   0.418 -0.5949  0.4314 -0.0602
 7492SOL    HW134130   9.187   8.394   0.321  1.1583  0.8944 -0.1333
 7492SOL    HW234131   9.241   8.442   0.468  0.1699 -0.5412  0.7234
 7493SOL     OW34132   0.991   9.242   0.618  0.0101  0.0652 -0.1315
 7493SOL    HW134133   0.989   9.304   0.539 -1.8758 -0.1942 -0.3026
 7493SOL    HW234134   1.082   9.201   0.626  0.0278 -0.4688 -2.6232
 7494SOL     OW34135   7.344   1.519   8.069 -0.3577 -0.2516  0.4185
 7494SOL    HW134136   7.437   1.519   8.034 -0.8509  0.3709 -0.9393
 7494SOL    HW234137   7.334   1.591   8.138 -0.2051  0.6509 -0.4906
 7495SOL     OW34138   6.966   2.087   2.414 -0.1417 -0.3941  0.1564
 7495SOL    HW134139   6.958   2.064   2.511 -0.4598 -1.3333 -0.0886
 7495SOL    HW234140   6.876   2.114   2.378  0.5788  3.2792  0.9304
 7496SOL     OW34141   0.507   8.912   5.643  0.1141  0.3209 -0.1554
 7496SOL    HW134142   0.600   8.918   5.678 -0.0463 -1.4940  0.5958
 7496SOL    HW234143   0.442   8.912   5.719 -0.5281  1.6044 -0.6735
 7497SOL     OW34144   1.584   5.945   5.471 -0.5563  0.4579  0.1475
 7497SOL    HW134145   1.628   6.030   5.500 -2.6878  1.2124  1.2649
 7497SOL    HW234146   1.590   5.937   5.371  0.8646  1.2232  0.1593
 7498SOL     OW34147   5.354   9.343   7.102 -0.4288 -0.5152 -0.1224
 7498SOL    HW134148   5.440   9.344   7.154  0.0722 -2.5659 -0.8642
 7498SOL    HW234149   5.358   9.410   7.028 -0.3137  0.9083  1.1477
 7499SOL     OW34150   2.752   7.188   3.585  0.3949  0.0478 -0.2082
 7499SOL    HW134151   2.783   7.258   3.649 -0.2253 -0.4815  0.6888
 7499SOL    HW234152   2.781   7.211   3.492  2.6222  0.0504  0.4699
 7500SOL     OW34153   3.909   9.985   6.752 -0.3195 -0.0462 -0.1409
 7500SOL    HW134154   3.860   9.954   6.833 -1.5042 -0.2344 -0.9126
 7500SOL    HW234155   3.927   9.906   6.692  0.4226  0.1127 -0.1329
 7501SOL     OW34156   8.818   0.000   3.313  0.4547  0.4430 -0.0072
 7501SOL    HW134157   8.917   0.007   3.327  0.3160  1.1510  0.6652
 7501SOL    HW234158   8.776   0.089   3.333 -0.3132  0.1450 -0.3090
 7502SOL     OW34159   1.128   5.859   6.455  0.3831  0.1167  0.2751
 7502SOL    HW134160   1.112   5.943   6.404  1.7194  0.6901  0.7792
 7502SOL    HW234161   1.049   5.839   6.513 -0.7490 -0.0362 -1.2943
 7503SOL     OW34162   2.795   9.478   4.846  0.3949 -0.3065  0.1302
 7503SOL    HW134163   2.828   9.423   4.770  1.3967  1.4875 -0.7578
 7503SOL    HW234164   2.871   9.526   4.889 -0.7217  2.1523 -0.5561
 7504SOL     OW34165   3.764   8.833   2.388 -0.0474 -0.2679 -0.0029
 7504SOL    HW134166   3.823   8.808   2.464 -0.4702 -0.3328  0.3029
 7504SOL    HW234167   3.670   8.841   2.419 -0.1030  0.4873 -0.3567
 7505SOL     OW34168   0.206   2.404   2.761 -0.1197  0.0529  0.2887
 7505SOL    HW134169   0.190   2.316   2.806 -0.7713  0.2832  0.5178
 7505SOL    HW234170   0.278   2.454   2.810  0.5146 -0.5114 -0.0677
 7506SOL     OW34171   4.154   8.469   3.577 -0.0332  0.1592 -0.2241
 7506SOL    HW134172   4.111   8.532   3.642 -1.9135  0.5579 -1.8195
 7506SOL    HW234173   4.093   8.392   3.561 -0.3063  0.8360 -2.6790
 7507SOL     OW34174   1.773   2.526   3.214 -0.0936 -0.2614  0.0663
 7507SOL    HW134175   1.675   2.518   3.229  0.1121 -1.5911  0.7691
 7507SOL    HW234176   1.815   2.576   3.289 -0.4423  1.7595 -1.0408
 7508SOL     OW34177   4.869   8.971   5.887 -0.0936 -0.3537 -0.3008
 7508SOL    HW134178   4.811   8.942   5.963  0.8627 -1.8021 -0.1136
 7508SOL    HW234179   4.952   9.014   5.922 -0.9465  1.5791 -0.5717
 7509SOL     OW34180   4.238   1.750   6.452  0.7869  0.0255 -0.4100
 7509SOL    HW134181   4.332   1.757   6.418  1.8195  1.0398  2.4849
 7509SOL    HW234182   4.201   1.842   6.467  0.0992 -0.3877  0.5040
 7510SOL     OW34183   7.343   1.362   1.106 -0.0500 -0.0837 -0.2051
 7510SOL    HW134184   7.289   1.334   1.185 -1.1106  2.0644 -0.1532
 7510SOL    HW234185   7.345   1.462   1.099 -0.8328 -0.2177 -3.4786
 7511SOL     OW34186   3.606   0.931   5.429  0.3226 -0.2612  0.3545
 7511SOL    HW134187   3.559   0.844   5.437  0.1700 -0.0941  1.3586
 7511SOL    HW234188   3.546   1.005   5.460  1.3301 -0.0711  1.8887
 7512SOL     OW34189   0.422   0.438   0.806 -0.2847 -0.0837 -0.0884
 7512SOL    HW134190   0.479   0.462   0.884 -0.3043  0.1381 -0.1428
 7512SOL    HW234191   0.332   0.408   0.838  0.3161 -1.7996  0.0845
 7513SOL     OW34192   3.969   2.401   3.810 -0.0749 -0.3837 -0.1805
 7513SOL    HW134193   3.995   2.478   3.750 -0.9422 -0.8124 -1.1302
 7513SOL    HW234194   4.051   2.359   3.847  0.4143  1.0001  0.3462
 7514SOL     OW34195   5.129   4.021   4.544 -0.0355 -0.2806 -0.7966
 7514SOL    HW134196   5.164   4.045   4.453  1.1025  0.1381 -0.2633
 7514SOL    HW234197   5.156   4.092   4.609 -0.9297 -0.5335 -0.1488
 7515SOL     OW34198   8.949   7.083   7.824 -0.1309  0.1076  0.0750
 7515SOL    HW134199   8.868   7.041   7.783 -0.6412  0.1409  1.0209
 7515SOL    HW234200   8.922   7.134   7.906  0.9978 -0.7423  0.9877
 7516SOL     OW34201   0.349   3.270   3.646 -0.1406 -0.3321 -0.4019
 7516SOL    HW134202   0.289   3.222   3.711  0.4227 -2.1879 -1.2181
 7516SOL    HW234203   0.438   3.225   3.644  0.8064  1.4977 -0.3200
 7517SOL     OW34204   3.169   3.487   8.094 -0.3530  0.4139 -0.1689
 7517SOL    HW134205   3.143   3.486   7.997 -0.8308  0.5396 -0.0424
 7517SOL    HW234206   3.255   3.538   8.105  1.6136 -2.5863 -0.9973
 7518SOL     OW34207   8.963   9.989   7.345 -0.1977 -0.3469  0.0690
 7518SOL    HW134208   8.908  10.054   7.398  1.9087  1.4179  0.1784
 7518SOL    HW234209   8.933   9.990   7.250  0.2610  1.3501 -0.0822
 7519SOL     OW34210   8.706   9.418   2.577  0.3595 -0.1499  0.0946
 7519SOL    HW134211   8.661   9.367   2.650 -1.2797  0.2062 -0.6464
 7519SOL    HW234212   8.755   9.496   2.616 -0.6277  0.1204  0.8151
 7520SOL     OW34213   8.579   7.698   6.284  0.5689  0.2529  0.3753
 7520SOL    HW134214   8.617   7.707   6.192 -0.1785  0.0835  0.0448
 7520SOL    HW234215   8.599   7.780   6.336  1.1339  0.2864  0.1096
 7521SOL     OW34216   3.697   3.080   3.047 -0.1031 -0.6531 -0.3536
 7521SOL    HW134217   3.699   3.172   3.084  0.7861 -0.4664 -0.8629
 7521SOL    HW234218   3.617   3.070   2.986  0.8364  0.3633 -1.7885
 7522SOL     OW34219   4.329   9.037   4.579  0.1381  0.0157  0.1133
 7522SOL    HW134220   4.371   9.033   4.670 -0.0981  0.6223  0.2519
 7522SOL    HW234221   4.233   9.011   4.587  0.1996 -0.2493 -0.0151
 7523SOL     OW34222   3.088   1.256   1.965  0.3200 -0.2440 -0.0267
 7523SOL    HW134223   3.008   1.315   1.955 -0.1829 -1.1056 -1.2644
 7523SOL    HW234224   3.171   1.309   1.949 -0.1435  0.0700 -1.4787
 7524SOL     OW34225   8.667   3.155   1.013 -0.1328  0.3329 -0.3162
 7524SOL    HW134226   8.680   3.098   1.094 -0.0753 -0.6802 -1.0240
 7524SOL    HW234227   8.569   3.166   0.996 -0.2004 -2.3225 -2.0473
 7525SOL     OW34228   3.807   7.914   0.445 -0.9908 -0.5563 -0.2482
 7525SOL    HW134229   3.805   7.876   0.538 -1.1186 -0.5855 -0.2630
 7525SOL    HW234230   3.886   7.974   0.436 -0.9585 -0.5802 -0.1306
 7526SOL     OW34231   3.395   7.491   7.327 -0.1529  0.0298 -0.1013
 7526SOL    HW134232   3.436   7.582   7.329 -2.5911  1.1628 -1.0367
 7526SOL    HW234233   3.336   7.479   7.407 -1.2151 -0.0693 -0.8953
 7527SOL     OW34234   2.367   0.507   6.494 -0.0588  0.1392 -0.3324
 7527SOL    HW134235   2.362   0.535   6.590  0.2510 -0.5258 -0.1231
 7527SOL    HW234236   2.283   0.536   6.447 -0.1309  0.6357  0.0879
 7528SOL     OW34237   0.534   6.394   7.375  0.1157  0.0280 -0.3662
 7528SOL    HW134238   0.604   6.458   7.344  0.7498 -0.3108  0.3647
 7528SOL    HW234239   0.545   6.375   7.472  0.2499 -1.5760 -0.6685
 7529SOL     OW34240   6.076   7.422   3.862 -0.4691 -0.4329 -0.2364
 7529SOL    HW134241   6.053   7.381   3.951  0.0096 -1.6891 -0.6738
 7529SOL    HW234242   6.042   7.516   3.859  0.9082  0.1597  1.8768
 7530SOL     OW34243   0.159   8.748   6.152 -0.5012  0.4167 -0.0060
 7530SOL    HW134244   0.175   8.649   6.157  0.5286  0.5760 -0.1670
 7530SOL    HW234245   0.153   8.786   6.244 -0.6440  0.2520  0.0539
 7531SOL     OW34246   2.063   1.579   1.781 -0.2226 -0.3827 -0.3897
 7531SOL    HW134247   1.976   1.565   1.733  0.2181 -1.9780 -0.7498
 7531SOL    HW234248   2.086   1.676   1.780 -1.8942  0.0413 -0.4711
 7532SOL     OW34249   5.161   2.537   5.240  0.3208  0.2311 -0.1471
 7532SOL    HW134250   5.257   2.510   5.236 -0.3730 -2.5270  0.6017
 7532SOL    HW234251   5.103   2.457   5.222 -1.8363  1.9599 -1.1105
 7533SOL     OW34252   6.122   0.147   3.050 -0.5537  0.1375  0.3921
 7533SOL    HW134253   6.040   0.146   2.993 -0.4143 -0.7137  0.2012
 7533SOL    HW234254   6.096   0.151   3.146 -0.8502 -1.5935  0.3884
 7534SOL     OW34255   2.811   6.881   7.442 -0.1228 -0.3183  0.4343
 7534SOL    HW134256   2.788   6.971   7.480  1.1684  0.8142 -1.4144
 7534SOL    HW234257   2.795   6.881   7.343  2.8546 -1.1388 -0.0820
 7535SOL     OW34258   5.857   1.126   3.222 -0.2338 -0.1486 -0.4531
 7535SOL    HW134259   5.947   1.142   3.261 -0.0352 -1.7891 -0.2209
 7535SOL    HW234260   5.865   1.068   3.141 -0.9991  0.3689 -0.9067
 7536SOL     OW34261   5.322   1.403   5.622 -0.4423  0.6145  0.7400
 7536SOL    HW134262   5.296   1.306   5.619  1.2617  0.1844 -1.3068
 7536SOL    HW234263   5.422   1.410   5.626 -0.5154  2.3032 -0.2197
 7537SOL     OW34264   1.812   6.541   0.021  0.0673  0.0577  0.0329
 7537SOL    HW134265   1.893   6.542   0.079 -0.0527 -1.8096  0.2539
 7537SOL    HW234266   1.787   6.447  -0.001 -2.8002  0.5370  1.0364
 7538SOL     OW34267   3.734   7.213   2.754  0.3034  0.3212 -0.4058
 7538SOL    HW134268   3.716   7.161   2.837  0.0070  0.0657 -0.6306
 7538SOL    HW234269   3.730   7.311   2.774 -4.6947  0.3896 -1.1101
 7539SOL     OW34270   1.220   8.634   3.645  1.1215  0.2108  0.2073
 7539SOL    HW134271   1.206   8.547   3.597  1.3847  0.9149 -1.1655
 7539SOL    HW234272   1.306   8.630   3.696  2.3261  0.4626 -1.7317
 7540SOL     OW34273   4.625   0.199   6.310 -0.2121 -0.4618 -0.4153
 7540SOL    HW134274   4.631   0.297   6.329 -0.5408 -0.1505 -1.8782
 7540SOL    HW234275   4.657   0.148   6.390 -0.4247  0.8252  0.5149
 7541SOL     OW34276   9.096   3.222   6.186 -0.1910  0.4819 -0.1512
 7541SOL    HW134277   9.046   3.272   6.256 -0.4735  0.3909 -0.2885
 7541SOL    HW234278   9.193   3.216   6.212 -0.4507 -0.3004  0.6504
 7542SOL     OW34279   8.219   0.457   1.803 -0.7358 -0.5408 -0.0894
 7542SOL    HW134280   8.120   0.459   1.800 -0.6978  1.1111 -0.7405
 7542SOL    HW234281   8.256   0.515   1.730  0.6970 -0.4234  0.7050
 7543SOL     OW34282   0.589   6.919   5.408  0.0593 -0.2153 -0.0839
 7543SOL    HW134283   0.674   6.927   5.356  1.5869 -0.1886  2.3244
 7543SOL    HW234284   0.608   6.931   5.506 -2.6065 -0.9610  0.5803
 7544SOL     OW34285   2.880   2.229   4.269 -0.6655  0.5444  0.3559
 7544SOL    HW134286   2.813   2.226   4.195  0.0268  1.8901 -0.3463
 7544SOL    HW234287   2.953   2.163   4.251  0.0364  1.5865 -0.7145
 7545SOL     OW34288   4.537   8.787   2.776 -0.0980  0.2005 -0.1892
 7545SOL    HW134289   4.488   8.845   2.711  0.6900 -0.6398 -1.5618
 7545SOL    HW234290   4.606   8.841   2.824 -1.2652  1.0184  0.5829
 7546SOL     OW34291   3.402   4.702   4.735 -0.0332 -0.1357  0.2773
 7546SOL    HW134292   3.475   4.769   4.731 -1.6345  1.6347 -0.1010
 7546SOL    HW234293   3.439   4.610   4.721  2.0001  0.7874 -0.4933
 7547SOL     OW34294   8.308   8.847   2.928  0.3289 -0.0267 -0.5827
 7547SOL    HW134295   8.263   8.936   2.922 -0.4358 -0.5411 -3.4003
 7547SOL    HW234296   8.392   8.848   2.874  1.9883 -0.1205  1.8958
 7548SOL     OW34297   1.113   2.880   5.246  0.2367  0.0114  0.0084
 7548SOL    HW134298   1.106   2.812   5.318  1.9679  0.3523  0.5365
 7548SOL    HW234299   1.030   2.936   5.243  0.7199  0.9348  2.6944
 7549SOL     OW34300   5.108   7.341   2.827  0.4767  0.6990  0.2496
 7549SOL    HW134301   5.088   7.383   2.916  0.6233  0.0987  0.5684
 7549SOL    HW234302   5.065   7.251   2.823  0.5771  0.6734 -0.2405
 7550SOL     OW34303   0.245   7.769   7.512  0.1457 -0.6284 -0.0741
 7550SOL    HW134304   0.314   7.714   7.558  1.1324  0.5720 -0.0869
 7550SOL    HW234305   0.271   7.783   7.416  0.2891  0.4612  0.1131
 7551SOL     OW34306   5.102   0.771   1.389 -0.3894 -0.1844  0.4571
 7551SOL    HW134307   5.047   0.728   1.461 -0.5795  0.8331  0.9259
 7551SOL    HW234308   5.057   0.855   1.358  0.4602  0.1887  0.2222
 7552SOL     OW34309   7.145   8.590   4.322  0.0146  0.6855 -0.3756
 7552SOL    HW134310   7.148   8.492   4.304  0.3249  0.6347 -0.0440
 7552SOL    HW234311   7.121   8.639   4.238  0.3514  0.3654 -0.6586
 7553SOL     OW34312   2.137   1.386   1.098  0.2346 -0.2836 -0.4369
 7553SOL    HW134313   2.076   1.325   1.149 -0.4147  1.1702  0.5942
 7553SOL    HW234314   2.199   1.432   1.162  0.3530  0.5149 -1.1111
 7554SOL     OW34315   3.034   1.183   7.416  0.3214 -0.1527 -0.0847
 7554SOL    HW134316   3.038   1.225   7.325  1.4854  1.4745  0.6878
 7554SOL    HW234317   3.126   1.158   7.445  0.2520  1.5645  1.6537
 7555SOL     OW34318   0.688   9.449   7.105 -0.8009  0.1907 -0.3697
 7555SOL    HW134319   0.634   9.533   7.092 -0.0105  0.6682 -0.5654
 7555SOL    HW234320   0.683   9.422   7.201 -1.2469  0.3372 -0.3488
 7556SOL     OW34321   4.024   2.372   7.537  0.4657  0.5204  0.6666
 7556SOL    HW134322   4.005   2.470   7.531  0.5851  0.4911 -0.3073
 7556SOL    HW234323   4.091   2.347   7.466  1.1181 -0.0951  1.4935
 7557SOL     OW34324   0.972   4.932   2.205 -0.0268 -0.3246 -0.3397
 7557SOL    HW134325   0.890   4.970   2.163  0.5788  0.3998 -0.8885
 7557SOL    HW234326   0.953   4.907   2.300 -1.4533 -2.1116 -1.0629
 7558SOL     OW34327   7.207   3.553   0.290  0.0993  0.0036  0.5669
 7558SOL    HW134328   7.156   3.482   0.243  1.7148 -0.2370 -0.8532
 7558SOL    HW234329   7.187   3.642   0.249 -0.6423  0.1624  1.2621
 7559SOL     OW34330   4.354   2.013   3.844 -0.6671  0.2727  0.0878
 7559SOL    HW134331   4.289   2.006   3.921 -1.7413  0.1931 -0.8121
 7559SOL    HW234332   4.343   1.934   3.784 -0.5959  0.8761 -0.7307
 7560SOL     OW34333   9.613   3.492   7.744 -0.4110 -0.7125 -0.5964
 7560SOL    HW134334   9.708   3.523   7.754 -0.0110 -2.2146  0.3285
 7560SOL    HW234335   9.552   3.572   7.745  0.4362 -0.0163  3.6418
 7561SOL     OW34336   6.223   1.748   6.098 -0.3613 -0.1443 -0.1602
 7561SOL    HW134337   6.323   1.741   6.098 -0.3487 -0.0162  1.2829
 7561SOL    HW234338   6.197   1.835   6.057  0.0948 -0.4352 -1.0873
 7562SOL     OW34339   9.342   2.470   7.093  0.3552  0.2339  0.3570
 7562SOL    HW134340   9.274   2.398   7.104  1.2041 -0.9297 -1.7518
 7562SOL    HW234341   9.301   2.545   7.040  0.0339  0.5056  0.9885
 7563SOL     OW34342   1.996   9.387   4.270 -0.1063  0.4723 -0.1337
 7563SOL    HW134343   2.038   9.387   4.361 -1.2235  1.5473  0.4111
 7563SOL    HW234344   1.896   9.382   4.280 -0.1818 -0.8542 -1.3555
 7564SOL     OW34345   1.218   2.006   5.473  0.6534  0.2821 -0.0025
 7564SOL    HW134346   1.200   1.909   5.490  1.5354 -0.0644 -0.9673
 7564SOL    HW234347   1.209   2.025   5.375  1.7967  0.8958  0.0071
 7565SOL     OW34348   2.419   2.342   5.345  0.0644 -0.1271  0.2550
 7565SOL    HW134349   2.391   2.361   5.251  1.8792  3.5465  0.3776
 7565SOL    HW234350   2.338   2.337   5.404 -0.8765  1.2502 -0.8915
 7566SOL     OW34351   8.795   0.420   2.890 -0.5888 -0.7597 -0.1213
 7566SOL    HW134352   8.739   0.360   2.833  2.0088 -3.2383 -0.2298
 7566SOL    HW234353   8.814   0.374   2.977  1.2603  0.0033 -0.1050
 7567SOL     OW34354   8.229   7.723   6.034  0.0039  0.1489 -0.4487
 7567SOL    HW134355   8.255   7.689   5.944 -0.8957  1.7940 -1.3463
 7567SOL    HW234356   8.309   7.764   6.078  0.7316 -1.7447  0.0210
 7568SOL     OW34357   0.352   0.817   2.525  0.4687 -1.0336 -0.0753
 7568SOL    HW134358   0.416   0.757   2.573 -0.1321  0.2971  2.5295
 7568SOL    HW234359   0.258   0.794   2.552  0.1119 -0.2491 -0.6265
 7569SOL     OW34360   3.344   5.662   1.279  0.0952  0.1754 -0.1222
 7569SOL    HW134361   3.437   5.699   1.283  0.2757 -0.1534 -1.0743
 7569SOL    HW234362   3.326   5.607   1.361  0.8944 -0.0942 -0.1236
 7570SOL     OW34363   5.389   6.079   1.401  0.1698 -0.6398  0.0011
 7570SOL    HW134364   5.463   6.082   1.468 -0.0726 -1.8231  0.3273
 7570SOL    HW234365   5.321   6.149   1.423  2.2612  1.9849 -1.5808
 7571SOL     OW34366   7.798   7.939   7.709 -0.5871  0.1934 -0.1542
 7571SOL    HW134367   7.861   7.958   7.784 -0.8538 -1.4393  0.4926
 7571SOL    HW234368   7.763   7.846   7.717 -1.8035  0.5225 -1.4452
 7572SOL     OW34369   3.605   5.423   2.116 -0.6560 -0.3819 -0.1790
 7572SOL    HW134370   3.635   5.500   2.060  1.1087 -1.5898 -0.9546
 7572SOL    HW234371   3.523   5.382   2.076 -1.8420  1.3021  0.4623
 7573SOL     OW34372   8.653   3.806   5.090 -0.3919  0.1534  0.2925
 7573SOL    HW134373   8.558   3.783   5.067  0.1597 -1.1594 -0.7120
 7573SOL    HW234374   8.702   3.723   5.116  0.8989  0.5911 -0.7019
 7574SOL     OW34375   4.553   8.679   4.822 -0.2194  1.4530 -0.1488
 7574SOL    HW134376   4.505   8.640   4.901  0.7676  2.8571  1.1941
 7574SOL    HW234377   4.578   8.606   4.758  0.7413  0.0253  1.8090
 7575SOL     OW34378   1.677   1.979   1.907 -0.4843 -0.0018 -0.2830
 7575SOL    HW134379   1.597   1.988   1.848 -0.9139  1.6775  0.5267
 7575SOL    HW234380   1.757   2.014   1.859 -0.5510 -0.0376 -0.4221
 7576SOL     OW34381   8.338   8.324   6.800  0.1418 -0.1643 -0.4291
 7576SOL    HW134382   8.305   8.323   6.706  0.7881 -2.0171 -0.6507
 7576SOL    HW234383   8.432   8.358   6.802  0.0469  0.0957 -0.4255
 7577SOL     OW34384   0.754   4.648   2.012  0.3798  0.2476  0.1329
 7577SOL    HW134385   0.659   4.659   1.984  0.7639  2.0288 -0.5189
 7577SOL    HW234386   0.771   4.552   2.038 -0.8384 -0.6927 -2.4381
 7578SOL     OW34387   3.306   2.645   2.323 -0.3402 -0.2337  0.3123
 7578SOL    HW134388   3.401   2.617   2.340 -0.5535 -0.6056  0.8950
 7578SOL    HW234389   3.306   2.737   2.283  0.1928  0.4306  1.8199
 7579SOL     OW34390   9.012   1.244   5.485  0.3130  0.0584 -0.3475
 7579SOL    HW134391   9.069   1.320   5.455  1.0925 -0.1899  0.5008
 7579SOL    HW234392   8.938   1.278   5.543 -0.3312  0.3629 -1.3320
 7580SOL     OW34393   1.229   1.321   0.323 -0.3967 -0.5889 -0.3237
 7580SOL    HW134394   1.192   1.266   0.397 -1.1340 -0.5475 -0.6619
 7580SOL    HW234395   1.315   1.364   0.353 -0.2860 -1.1987  0.2361
 7581SOL     OW34396   8.984   4.913   2.612 -0.0688 -0.8532 -0.4438
 7581SOL    HW134397   9.007   4.878   2.703 -0.4529 -0.7044 -0.2891
 7581SOL    HW234398   8.907   4.861   2.575 -2.0030  1.1445  0.6408
 7582SOL     OW34399   8.214   3.932   5.606  0.1720  0.4766 -0.2374
 7582SOL    HW134400   8.299   3.881   5.595  0.8262  1.6913 -0.9754
 7582SOL    HW234401   8.142   3.871   5.639  0.8409 -0.9823 -1.4218
 7583SOL     OW34402   2.405   5.123   5.399  0.5785  0.2476 -0.0754
 7583SOL    HW134403   2.431   5.220   5.395  0.0852  0.4327  0.8159
 7583SOL    HW234404   2.464   5.075   5.464  0.8223 -0.0501 -0.5166
 7584SOL     OW34405   7.237   6.605   5.894 -0.6177 -0.0446 -0.3215
 7584SOL    HW134406   7.214   6.537   5.824  3.1102 -0.8183 -0.8592
 7584SOL    HW234407   7.247   6.695   5.850  1.1477 -0.4232 -0.7205
 7585SOL     OW34408   0.880   2.331   6.527 -0.0896  0.2657  0.1128
 7585SOL    HW134409   0.969   2.287   6.534 -0.1108  0.1276 -0.4854
 7585SOL    HW234410   0.866   2.364   6.434 -0.5311  0.5635  0.2842
 7586SOL     OW34411   0.399   2.615   5.918 -1.0213  0.0592  0.1552
 7586SOL    HW134412   0.403   2.527   5.870  1.9664  1.1995 -1.7985
 7586SOL    HW234413   0.443   2.606   6.008  0.5885 -0.1338 -0.6277
 7587SOL     OW34414   4.917   5.117   3.780 -0.0412 -0.0324 -0.4204
 7587SOL    HW134415   4.897   5.199   3.834 -1.2257 -0.3613 -0.3413
 7587SOL    HW234416   4.923   5.038   3.841 -0.3115 -0.2328 -0.6546
 7588SOL     OW34417   8.499   8.200   1.888  0.2460 -0.9106 -0.4583
 7588SOL    HW134418   8.514   8.242   1.799  0.1781 -0.4854 -0.2708
 7588SOL    HW234419   8.457   8.110   1.876 -3.5592  0.7874 -0.7300
 7589SOL     OW34420   3.903   7.193   5.149  0.0656  0.3444  0.0312
 7589SOL    HW134421   3.906   7.101   5.189  2.0232 -0.3595 -1.6104
 7589SOL    HW234422   3.835   7.248   5.197 -2.5190 -2.5194 -0.1035
 7590SOL     OW34423   9.854   6.801   4.370 -0.0075 -0.2225 -0.1935
 7590SOL    HW134424   9.827   6.710   4.403  2.0886 -0.6804  0.3333
 7590SOL    HW234425   9.872   6.797   4.272  0.8686 -0.5700 -0.0205
 7591SOL     OW34426   0.133   7.047   4.316 -0.8064 -0.0019  0.3726
 7591SOL    HW134427   0.069   7.009   4.249  0.2906  0.8562 -1.1771
 7591SOL    HW234428   0.081   7.097   4.386 -1.8222  0.8054 -0.9422
 7592SOL     OW34429   7.927   0.078   4.860  0.2714 -0.4472  0.5514
 7592SOL    HW134430   7.844   0.113   4.817 -0.8996 -0.4194  2.7851
 7592SOL    HW234431   7.904  -0.002   4.917  1.8604 -0.7682  0.7580
 7593SOL     OW34432   0.217   2.332   4.503 -0.2004 -0.4805  0.1961
 7593SOL    HW134433   0.194   2.426   4.528 -1.0746 -0.5569 -0.2972
 7593SOL    HW234434   0.166   2.268   4.561 -0.6557 -0.6452 -0.3695
 7594SOL     OW34435   7.200   8.895   7.176 -0.1229 -0.1209 -0.0398
 7594SOL    HW134436   7.296   8.872   7.192 -0.4789 -0.8408  1.1800
 7594SOL    HW234437   7.154   8.818   7.131 -0.2827 -0.0512  0.0004
 7595SOL     OW34438   8.929   3.441   0.157  0.4810 -0.5714 -0.0851
 7595SOL    HW134439   9.004   3.487   0.204 -0.2497 -0.0192  0.5502
 7595SOL    HW234440   8.841   3.473   0.194 -0.0979 -0.2135 -1.7407
 7596SOL     OW34441   3.822   0.645   7.093 -0.0180 -0.3305 -0.3305
 7596SOL    HW134442   3.856   0.651   7.187  0.7281  0.1187 -0.6184
 7596SOL    HW234443   3.863   0.719   7.039 -0.4984 -0.5472 -0.9855
 7597SOL     OW34444   8.983   5.917   3.240  0.2149  0.2196  0.2962
 7597SOL    HW134445   8.904   5.943   3.296  0.7616 -0.8859  1.5785
 7597SOL    HW234446   8.956   5.919   3.143 -1.9434 -1.8663  0.7854
 7598SOL     OW34447   8.126   6.397   4.276 -0.0057  0.1805 -0.7593
 7598SOL    HW134448   8.164   6.320   4.225  1.2881  0.6680 -0.5751
 7598SOL    HW234449   8.171   6.403   4.366 -2.1709 -0.5956  0.4139
 7599SOL     OW34450   3.787   8.825   3.360  0.1847  0.0057 -0.1423
 7599SOL    HW134451   3.805   8.852   3.265 -0.3763 -2.9547 -1.1693
 7599SOL    HW234452   3.823   8.894   3.422  2.9783  0.7080 -2.4282
 7600SOL     OW34453   6.361   8.095   3.430  0.3480  0.2971  0.2052
 7600SOL    HW134454   6.330   8.106   3.335  2.2573  1.3907 -0.3202
 7600SOL    HW234455   6.373   7.998   3.450 -1.3793 -0.0225 -0.2252
 7601SOL     OW34456   6.179   0.500   1.806 -0.5884 -0.5163  0.4885
 7601SOL    HW134457   6.155   0.441   1.729  0.6650 -0.6447  0.1812
 7601SOL    HW234458   6.100   0.510   1.866 -2.0236  0.7949 -1.5715
 7602SOL     OW34459   9.839   5.447   6.442 -0.1716 -0.3247  0.0587
 7602SOL    HW134460   9.741   5.430   6.456 -0.0391 -2.0627 -0.9827
 7602SOL    HW234461   9.851   5.516   6.370 -0.6343  0.0666  0.3535
 7603SOL     OW34462   5.122   3.447   8.143  0.1745 -0.2939  0.9414
 7603SOL    HW134463   5.066   3.528   8.161  0.3516 -0.0769  0.5252
 7603SOL    HW234464   5.215   3.476   8.118  0.0495 -0.5966  0.0967
 7604SOL     OW34465   0.171   5.162   1.128  0.2180 -0.1859 -0.2500
 7604SOL    HW134466   0.123   5.075   1.123 -1.5386  0.7913 -0.6548
 7604SOL    HW234467   0.235   5.169   1.051 -0.7384 -0.4653 -1.0825
 7605SOL     OW34468   0.804   1.042   4.818 -0.1908  0.0953  0.0151
 7605SOL    HW134469   0.831   1.081   4.906  1.1955  0.6553 -0.6573
 7605SOL    HW234470   0.719   1.086   4.787  0.3704  1.2845  0.1424
 7606SOL     OW34471   7.627   7.845   6.291  0.1099 -0.1957 -0.2434
 7606SOL    HW134472   7.688   7.777   6.331 -0.5849  0.0692  1.3115
 7606SOL    HW234473   7.561   7.875   6.360 -0.3876  1.1316 -1.2725
 7607SOL     OW34474   8.705   9.279   5.791  0.5410 -0.1939  0.4386
 7607SOL    HW134475   8.656   9.237   5.714  1.0512  0.1801 -0.0887
 7607SOL    HW234476   8.643   9.341   5.839  0.8999  1.4247 -1.1275
 7608SOL     OW34477   9.127   8.088   5.598 -0.0534  0.3902 -0.1212
 7608SOL    HW134478   9.037   8.054   5.569 -0.4383  1.4997 -0.2222
 7608SOL    HW234479   9.199   8.039   5.548 -0.6703  1.2145 -1.8283
 7609SOL     OW34480   7.358   6.232   5.679  0.1769 -0.1031  0.4490
 7609SOL    HW134481   7.455   6.217   5.660 -0.0850 -0.1472 -0.8924
 7609SOL    HW234482   7.320   6.150   5.723  0.5202 -0.4478  0.1084
 7610SOL     OW34483   1.339   3.495   7.582 -0.1717 -0.3985 -0.5179
 7610SOL    HW134484   1.389   3.520   7.665  1.0703 -0.4300 -1.2356
 7610SOL    HW234485   1.297   3.577   7.543  0.5346 -0.1101 -0.6877
 7611SOL     OW34486   4.000   9.170   7.849 -0.0685 -0.2698 -0.1271
 7611SOL    HW134487   3.996   9.161   7.750  0.0782  0.1199 -0.1679
 7611SOL    HW234488   3.909   9.153   7.888 -0.0678 -0.6777 -0.3072
 7612SOL     OW34489   4.142   5.255   0.775 -0.0688  0.5027 -0.1070
 7612SOL    HW134490   4.236   5.270   0.743  0.9412 -1.6887  1.7011
 7612SOL    HW234491   4.131   5.159   0.803 -2.1717  1.3028  1.9342
 7613SOL     OW34492   7.616   0.393   3.001 -0.5147 -0.1021 -0.0601
 7613SOL    HW134493   7.677   0.473   3.001 -0.3908 -0.1957 -0.0596
 7613SOL    HW234494   7.643   0.332   3.075 -1.0995  0.2275  0.4305
 7614SOL     OW34495   4.666   3.315   7.030  0.8484 -0.1096  0.1081
 7614SOL    HW134496   4.631   3.382   6.965  2.7291 -0.5339 -1.3987
 7614SOL    HW234497   4.622   3.226   7.013  1.8285 -0.3856 -1.0734
 7615SOL     OW34498   9.988   7.276   4.853 -0.2848  0.2002 -0.5197
 7615SOL    HW134499  10.003   7.207   4.782  1.0486  0.8965 -0.9471
 7615SOL    HW234500   9.891   7.297   4.859 -0.6658 -1.4168 -0.6556
 7616SOL     OW34501   7.434   2.233   2.118 -0.2954  0.1370  0.2075
 7616SOL    HW134502   7.491   2.243   2.200  0.6881  1.3227 -0.5801
 7616SOL    HW234503   7.381   2.149   2.124  2.1532 -1.4576  0.6315
 7617SOL     OW34504   4.636   7.597   1.707 -0.2686 -0.5243 -0.2520
 7617SOL    HW134505   4.648   7.555   1.617 -0.5960  0.2965 -0.6814
 7617SOL    HW234506   4.540   7.590   1.734 -0.7920  1.9295 -1.3292
 7618SOL     OW34507   6.711   9.661   7.058 -0.5367 -0.6897 -0.3257
 7618SOL    HW134508   6.638   9.669   7.125 -1.9083 -1.1517 -1.7447
 7618SOL    HW234509   6.748   9.567   7.059  1.7120  0.1628  2.0683
 7619SOL     OW34510   5.211   1.674   3.622  0.1433 -0.3377 -0.4396
 7619SOL    HW134511   5.279   1.697   3.553  2.1223  3.0122  2.4631
 7619SOL    HW234512   5.248   1.603   3.683 -0.4637 -1.2313 -1.1104
 7620SOL     OW34513   0.746   5.175   1.192 -0.1789 -0.0273 -0.2413
 7620SOL    HW134514   0.808   5.143   1.120 -0.1332 -0.1901 -0.1292
 7620SOL    HW234515   0.672   5.229   1.151  0.1049  0.2686 -0.3624
 7621SOL     OW34516   2.528   4.729   6.090 -0.0611  0.6470 -0.0987
 7621SOL    HW134517   2.610   4.780   6.065  0.2955 -0.7307 -1.8300
 7621SOL    HW234518   2.539   4.633   6.063 -0.9291 -0.2664  2.6142
 7622SOL     OW34519   0.155   7.484   2.455 -0.1974  0.1818 -0.0827
 7622SOL    HW134520   0.221   7.557   2.436 -0.2648 -0.2751 -2.2915
 7622SOL    HW234521   0.064   7.524   2.466 -0.5087  0.3491 -2.8902
 7623SOL     OW34522   9.461   7.794   4.806  0.0198  0.1995  0.3505
 7623SOL    HW134523   9.467   7.808   4.905 -3.7322 -1.0507  0.8273
 7623SOL    HW234524   9.487   7.700   4.785  0.8958  0.4896  0.1072
 7624SOL     OW34525   2.809   3.810   6.433 -0.0776 -0.3013  0.2655
 7624SOL    HW134526   2.724   3.771   6.469 -0.4814  1.3965  1.2122
 7624SOL    HW234527   2.857   3.857   6.507  1.0174 -0.0861 -0.5748
 7625SOL     OW34528   9.201   0.946   6.334 -0.4919  0.3567 -0.0833
 7625SOL    HW134529   9.223   1.039   6.306 -0.2462  0.1001 -0.7364
 7625SOL    HW234530   9.285   0.894   6.349 -0.6342  0.0791 -0.2475
 7626SOL     OW34531   4.011   2.253   5.148 -0.4417  0.2551  0.0083
 7626SOL    HW134532   3.926   2.208   5.175 -0.4119  1.0410  1.4790
 7626SOL    HW234533   4.088   2.207   5.190 -0.1053 -0.5793 -1.4891
 7627SOL     OW34534   0.192   7.406   4.247 -0.3188  0.6382  0.2808
 7627SOL    HW134535   0.134   7.380   4.325  1.5354 -0.5722  1.2830
 7627SOL    HW234536   0.273   7.347   4.244  0.4548  1.7569 -1.5940
 7628SOL     OW34537   5.747   8.857   4.713 -0.0934 -0.7728 -0.0356
 7628SOL    HW134538   5.841   8.890   4.699 -0.1752 -0.6022 -0.1860
 7628SOL    HW234539   5.748   8.758   4.724  0.0205 -0.8586 -0.8127
 7629SOL     OW34540   0.672   9.965   7.154 -0.0555  0.1025 -0.2974
 7629SOL    HW134541   0.575   9.971   7.134  0.0888  1.2790 -0.6975
 7629SOL    HW234542   0.686   9.936   7.249 -0.7833 -0.6273 -0.4142
 7630SOL     OW34543   8.067   4.198   4.627 -0.2173  0.2610 -0.0983
 7630SOL    HW134544   8.091   4.278   4.572 -0.4353  0.0248 -0.5378
 7630SOL    HW234545   8.070   4.116   4.570 -0.0209 -0.0432  0.3446
 7631SOL     OW34546   6.324   1.140   2.255  0.3391 -0.0989  0.6458
 7631SOL    HW134547   6.234   1.113   2.221  0.0911  0.9571  0.4602
 7631SOL    HW234548   6.387   1.062   2.248 -0.3403 -0.5908 -0.0034
 7632SOL     OW34549   2.175   1.083   2.680 -0.1444  0.0720 -0.6780
 7632SOL    HW134550   2.162   1.030   2.597  0.5640 -0.5851 -0.3748
 7632SOL    HW234551   2.181   1.181   2.657  0.6293 -0.1574 -1.4607
 7633SOL     OW34552   2.361   5.157   0.993 -0.1811  0.3334  0.3376
 7633SOL    HW134553   2.412   5.242   1.008  0.6102 -0.0809  0.0017
 7633SOL    HW234554   2.270   5.166   1.034  0.9373  0.2670  2.9542
 7634SOL     OW34555   9.851   3.836   1.031  0.0154 -0.0203  0.6001
 7634SOL    HW134556   9.869   3.743   0.998  0.9611  0.3301  0.1250
 7634SOL    HW234557   9.794   3.831   1.113 -0.5469 -0.9860  0.1576
 7635SOL     OW34558   9.548   6.386   7.072 -0.1851 -0.1378 -0.6414
 7635SOL    HW134559   9.519   6.320   7.003  0.9725  0.0756 -1.3367
 7635SOL    HW234560   9.605   6.341   7.141  0.5725  0.1284 -1.0946
 7636SOL     OW34561   7.345   6.813   7.801  0.3515  0.1311  0.1755
 7636SOL    HW134562   7.413   6.879   7.770  0.1435 -0.2189 -1.0526
 7636SOL    HW234563   7.360   6.725   7.755 -0.4229 -0.1816  0.5089
 7637SOL     OW34564   9.680   6.940   7.736  0.2177  0.4176 -0.0265
 7637SOL    HW134565   9.661   7.028   7.779  0.0335 -0.1138  1.0128
 7637SOL    HW234566   9.633   6.868   7.787  1.6226 -0.4491  0.0709
 7638SOL     OW34567   3.682   9.235   0.171 -0.1673 -0.2212  0.2255
 7638SOL    HW134568   3.615   9.256   0.242 -0.0913  0.0637  0.2150
 7638SOL    HW234569   3.651   9.273   0.083 -0.0056 -0.1071  0.2167
 7639SOL     OW34570   7.944   8.130   3.640  0.6374  0.8069  0.0180
 7639SOL    HW134571   8.006   8.193   3.593 -0.9134  1.4373 -1.2075
 7639SOL    HW234572   7.864   8.180   3.673  0.3232 -0.1725  0.7706
 7640SOL     OW34573   0.918   6.730   0.648 -0.1761 -0.1429  0.0941
 7640SOL    HW134574   0.953   6.815   0.608 -1.3346 -0.2660 -1.2428
 7640SOL    HW234575   0.886   6.748   0.741  0.4034  0.6824  0.1429
 7641SOL     OW34576   1.779   6.848   7.621 -0.3041 -0.0677 -0.0560
 7641SOL    HW134577   1.783   6.938   7.577 -0.1088 -0.1782 -0.2704
 7641SOL    HW234578   1.857   6.793   7.590  1.1428  0.6446  2.1807
 7642SOL     OW34579   1.467   7.969   6.177 -0.3777 -0.1169 -0.3766
 7642SOL    HW134580   1.493   7.886   6.227 -0.0403  0.5910  0.6374
 7642SOL    HW234581   1.406   8.024   6.235  0.6517  1.0989 -0.4331
 7643SOL     OW34582   1.164   8.017   5.313 -0.4619  0.0980 -0.1542
 7643SOL    HW134583   1.221   8.097   5.294  1.8163 -1.4622 -0.2046
 7643SOL    HW234584   1.113   7.992   5.231 -1.6557  1.8169  0.0355
 7644SOL     OW34585   2.047   8.979   1.609  0.2971 -0.6880  0.1531
 7644SOL    HW134586   2.121   9.043   1.591  1.0648 -1.4275  0.6147
 7644SOL    HW234587   2.017   8.988   1.704  0.2487 -0.8396  0.1530
 7645SOL     OW34588   4.506   1.150   0.765 -0.4318 -0.0380 -0.1954
 7645SOL    HW134589   4.581   1.157   0.700  0.5159  2.0707  1.0926
 7645SOL    HW234590   4.424   1.193   0.728 -0.5484 -0.8333 -0.8877
 7646SOL     OW34591   4.596   9.776   3.800 -0.4694 -0.2965  0.2130
 7646SOL    HW134592   4.506   9.819   3.805 -0.1472  0.2212  1.9884
 7646SOL    HW234593   4.642   9.785   3.889  0.9699 -1.3362 -0.4091
 7647SOL     OW34594   4.441   4.623   4.168 -0.1394 -0.2783 -0.3197
 7647SOL    HW134595   4.480   4.596   4.256 -0.3367 -0.9461 -0.4302
 7647SOL    HW234596   4.343   4.643   4.180 -0.0146  0.3020 -0.2574
 7648SOL     OW34597   7.837   0.257   0.114  0.0686  0.9241  0.1900
 7648SOL    HW134598   7.892   0.319   0.058  0.5821  0.9072  0.6712
 7648SOL    HW234599   7.764   0.218   0.059  1.1201  0.2050 -0.7142
 7649SOL     OW34600   1.296   2.691   1.283  0.7105  0.0172  0.5008
 7649SOL    HW134601   1.245   2.604   1.287  0.2099  0.3656  1.7872
 7649SOL    HW234602   1.252   2.758   1.343  3.2449  0.0381  2.3995
 7650SOL     OW34603   6.472   0.214   4.643 -1.2410  0.0843 -0.0863
 7650SOL    HW134604   6.475   0.114   4.638 -0.5609  0.0735  0.4611
 7650SOL    HW234605   6.377   0.244   4.640 -1.4705 -0.5992  0.1210
 7651SOL     OW34606   7.730   5.281   7.209  0.5087 -0.3078 -0.1017
 7651SOL    HW134607   7.812   5.300   7.262  0.2941 -0.3633  0.2507
 7651SOL    HW234608   7.686   5.198   7.243 -0.5837  0.6129  0.7946
 7652SOL     OW34609   3.435   0.935   2.815 -0.4218  0.3513  0.3536
 7652SOL    HW134610   3.535   0.927   2.805 -0.5107 -0.9737  0.4935
 7652SOL    HW234611   3.410   1.032   2.819  1.0608  0.6832  2.3433
 7653SOL     OW34612   4.649   1.982   2.325 -0.4199  0.7092  0.2731
 7653SOL    HW134613   4.658   1.980   2.226  0.5809  1.3619  0.3463
 7653SOL    HW234614   4.651   1.888   2.361  0.9028  0.5554 -0.1801
 7654SOL     OW34615   0.369   4.804   6.417  0.1844  0.2424  0.4335
 7654SOL    HW134616   0.317   4.890   6.424 -0.0004  0.0317  1.8372
 7654SOL    HW234617   0.376   4.763   6.508  1.5934 -0.4609  0.0078
 7655SOL     OW34618   2.245   3.221   0.884 -0.1131  0.3174  0.0859
 7655SOL    HW134619   2.304   3.268   0.949  2.7285 -0.3281 -1.9038
 7655SOL    HW234620   2.229   3.280   0.804 -1.4061  0.1274  0.1947
 7656SOL     OW34621   6.731   3.084   0.800 -0.2120 -0.0136  0.2023
 7656SOL    HW134622   6.689   3.093   0.891  0.7324  0.1138  0.6338
 7656SOL    HW234623   6.789   3.003   0.799  0.8990  0.7709  0.1645
 7657SOL     OW34624   5.669   7.676   2.971  0.4095  0.1687 -0.2601
 7657SOL    HW134625   5.642   7.599   3.028  1.9882 -0.2119 -0.0062
 7657SOL    HW234626   5.661   7.650   2.874 -0.2198  0.1089 -0.1973
 7658SOL     OW34627   3.791   2.542   3.074  0.2340 -0.4222 -0.5457
 7658SOL    HW134628   3.882   2.574   3.098  0.1325  0.3911 -1.2052
 7658SOL    HW234629   3.723   2.589   3.130  0.2376 -1.2444  0.1506
 7659SOL     OW34630   8.072   5.480   7.341  0.0231  0.6567  0.3591
 7659SOL    HW134631   8.043   5.385   7.329 -1.2208  1.1671 -0.8078
 7659SOL    HW234632   8.163   5.492   7.300  0.5821 -0.2375  1.3225
 7660SOL     OW34633   6.680   5.258   1.523  0.5410  0.7584 -0.8550
 7660SOL    HW134634   6.640   5.344   1.554 -0.0843  0.1942 -0.0848
 7660SOL    HW234635   6.617   5.183   1.544  1.3209  0.0519 -1.0416
 7661SOL     OW34636   4.810   9.730   4.597 -1.1451 -0.1950 -0.1200
 7661SOL    HW134637   4.832   9.820   4.636  2.3304 -1.4929  1.1650
 7661SOL    HW234638   4.739   9.686   4.652 -1.7786  1.1377  0.1416
 7662SOL     OW34639   9.962   2.434   0.754  0.3080  0.2677  0.0406
 7662SOL    HW134640   9.911   2.518   0.769  0.4035 -0.1187  2.6825
 7662SOL    HW234641  10.060   2.454   0.752  0.2465  0.4784 -1.2950
 7663SOL     OW34642   0.371   6.332   6.712  0.3546  0.3902 -1.1882
 7663SOL    HW134643   0.317   6.415   6.701  0.4261  0.3780 -1.6545
 7663SOL    HW234644   0.408   6.328   6.804 -2.5596 -0.8924 -0.0058
 7664SOL     OW34645   1.801   7.038   5.597 -0.3446  0.7637 -0.3362
 7664SOL    HW134646   1.737   7.020   5.672  0.8517 -1.4044  0.2379
 7664SOL    HW234647   1.813   6.954   5.543  2.3741  0.9532 -0.1008
 7665SOL     OW34648   9.345   4.669   4.146 -0.0197  0.3731 -0.2484
 7665SOL    HW134649   9.306   4.605   4.079  0.1257 -0.4414  0.4242
 7665SOL    HW234650   9.438   4.639   4.169 -0.5881 -0.1809  1.3755
 7666SOL     OW34651   7.878   8.499   2.668 -0.0469  0.3578  0.6793
 7666SOL    HW134652   7.941   8.568   2.632 -0.1015  0.6941  1.2169
 7666SOL    HW234653   7.800   8.544   2.711  1.1352  0.0111  3.2376
 7667SOL     OW34654   2.716   8.130   0.273 -0.3121  0.0025  0.0693
 7667SOL    HW134655   2.706   8.224   0.305  2.0351  1.0308 -1.9809
 7667SOL    HW234656   2.779   8.080   0.333  0.7845  0.6557 -0.5244
 7668SOL     OW34657   0.846   1.134   7.766 -0.6175 -0.1438 -0.1780
 7668SOL    HW134658   0.751   1.132   7.735 -0.5415 -1.7122 -0.3670
 7668SOL    HW234659   0.872   1.044   7.800  0.4989  0.5385  0.8313
 7669SOL     OW34660   7.549   2.579   2.979 -0.5702 -0.8337 -0.0138
 7669SOL    HW134661   7.600   2.541   2.902 -1.3199  0.0531 -0.9682
 7669SOL    HW234662   7.494   2.507   3.021  0.3084 -1.4578  0.0844
 7670SOL     OW34663   1.126   9.299   5.895  0.4239 -0.0389 -0.2350
 7670SOL    HW134664   1.202   9.342   5.847  1.3528  0.7248  1.8919
 7670SOL    HW234665   1.049   9.363   5.899  0.6769  0.2422  0.1304
 7671SOL     OW34666   6.991   2.022   1.178  0.3167  0.0033 -0.1396
 7671SOL    HW134667   7.010   1.997   1.083  0.5155  1.9041 -0.6205
 7671SOL    HW234668   6.893   2.035   1.190  0.2944 -0.2143 -0.0822
 7672SOL     OW34669   4.135   1.777   3.976 -0.1831 -0.1326 -0.4279
 7672SOL    HW134670   4.099   1.845   3.912  1.3246  0.2171 -0.9224
 7672SOL    HW234671   4.235   1.776   3.971 -0.1593 -1.9782 -0.0007
 7673SOL     OW34672   3.587   9.264   3.145 -0.2292  0.2342  0.1383
 7673SOL    HW134673   3.683   9.275   3.171  0.2772  0.0068 -1.5608
 7673SOL    HW234674   3.538   9.220   3.219  1.2469 -0.7292  0.5721
 7674SOL     OW34675   2.350   8.650   6.539 -0.0432 -0.5353 -0.2326
 7674SOL    HW134676   2.260   8.626   6.504 -0.4143 -1.3773  1.2772
 7674SOL    HW234677   2.343   8.679   6.634  1.1456  0.3924 -0.4065
 7675SOL     OW34678   2.033   7.161   4.076  0.6907  0.0660  0.8490
 7675SOL    HW134679   1.966   7.217   4.028  1.4060  1.6405  1.6232
 7675SOL    HW234680   1.993   7.072   4.098  0.0198 -0.2956 -1.7023
 7676SOL     OW34681   0.776   5.410   1.550  0.0350  0.1610 -0.3348
 7676SOL    HW134682   0.692   5.458   1.573 -0.2292 -0.5739  0.2620
 7676SOL    HW234683   0.768   5.314   1.577  0.0351 -0.5575 -2.7272
 7677SOL     OW34684   3.492   3.969   8.013 -0.1448 -0.3541  0.3186
 7677SOL    HW134685   3.462   3.873   8.011 -0.4611 -0.3492  2.7748
 7677SOL    HW234686   3.579   3.975   8.064 -1.4619  0.9551  2.4863
 7678SOL     OW34687   2.893   1.517   4.218 -0.3385  0.1956 -0.1866
 7678SOL    HW134688   2.803   1.559   4.233 -0.7329 -1.0501  1.0550
 7678SOL    HW234689   2.912   1.453   4.292  1.6978  0.6374 -0.3146
 7679SOL     OW34690   2.709   7.892   2.335 -0.1614  0.0594 -0.2725
 7679SOL    HW134691   2.638   7.849   2.279 -0.7271  0.9271 -0.2330
 7679SOL    HW234692   2.693   7.869   2.431 -1.3065  1.5008 -0.0966
 7680SOL     OW34693   0.364   4.988   1.007 -0.7427 -0.6006  0.1982
 7680SOL    HW134694   0.341   5.039   0.924  1.2530 -0.2784 -0.1854
 7680SOL    HW234695   0.419   4.908   0.983 -1.0026 -1.0563  1.1164
 7681SOL     OW34696   4.625   5.683   0.131 -0.0732  0.8819 -0.8975
 7681SOL    HW134697   4.604   5.659   0.037  1.3468  1.2922 -1.3327
 7681SOL    HW234698   4.718   5.652   0.154 -0.2374  1.1711  0.2148
 7682SOL     OW34699   1.869   0.047   7.266  0.2924 -0.2108  0.3282
 7682SOL    HW134700   1.879  -0.052   7.257  1.2631 -0.0299 -0.5708
 7682SOL    HW234701   1.909   0.077   7.352  0.6039 -0.5103  0.2867
 7683SOL     OW34702   1.902   7.918   7.276  0.3881 -0.3028  0.2170
 7683SOL    HW134703   1.935   7.909   7.182 -0.4768  0.7293 -0.1989
 7683SOL    HW234704   1.812   7.876   7.284  1.0672 -1.6454  0.9401
 7684SOL     OW34705   2.637   6.269   1.701 -0.0957  0.0706  0.3760
 7684SOL    HW134706   2.570   6.267   1.627  0.7514 -1.8605 -0.3385
 7684SOL    HW234707   2.595   6.311   1.782 -1.8501 -0.1858 -0.3835
 7685SOL     OW34708   2.914   0.037   2.135  0.5379 -0.2622 -0.2473
 7685SOL    HW134709   2.829   0.013   2.089 -0.3355  1.2769  0.5152
 7685SOL    HW234710   2.962   0.107   2.082  1.1618 -0.8570 -0.4834
 7686SOL     OW34711   0.118   3.734   1.191 -1.0577  0.2904  0.2830
 7686SOL    HW134712   0.075   3.663   1.246 -1.5899  0.0161 -0.4804
 7686SOL    HW234713   0.055   3.765   1.121 -0.5838  1.0398  0.1755
 7687SOL     OW34714   7.925   0.771   0.496 -0.3514  0.6641  0.0934
 7687SOL    HW134715   7.890   0.824   0.418 -0.3664  0.1076 -0.2836
 7687SOL    HW234716   7.911   0.673   0.478 -0.9485  0.5629  1.0831
 7688SOL     OW34717   2.494   6.024   0.298 -0.2666 -0.4355  0.4033
 7688SOL    HW134718   2.522   5.933   0.268  1.8400 -0.2207  1.6178
 7688SOL    HW234719   2.395   6.025   0.312 -0.3695 -2.4229 -0.0418
 7689SOL     OW34720   7.668   7.202   2.266 -0.1330 -0.6378 -0.3769
 7689SOL    HW134721   7.724   7.180   2.186  0.8142 -1.9278  0.6115
 7689SOL    HW234722   7.615   7.285   2.248 -0.8678 -1.5718 -2.8064
 7690SOL     OW34723   5.044   2.995   7.893 -0.6092 -0.1245 -0.3290
 7690SOL    HW134724   5.119   2.955   7.946 -2.2994 -0.0559  2.2010
 7690SOL    HW234725   5.052   3.095   7.895 -0.7426 -0.1188 -0.1109
 7691SOL     OW34726   9.338   5.533   1.233 -0.0679 -0.4465  0.5219
 7691SOL    HW134727   9.315   5.601   1.302 -3.8069 -0.3554 -0.6768
 7691SOL    HW234728   9.381   5.577   1.155 -0.1677  0.1844  0.8241
 7692SOL     OW34729   1.177   1.428   1.795  0.1336 -0.0813 -0.0148
 7692SOL    HW134730   1.079   1.435   1.812 -0.2113  1.1394 -2.3098
 7692SOL    HW234731   1.193   1.419   1.696  2.3239 -0.1448  0.3266
 7693SOL     OW34732   6.238   5.342   7.874  0.3424  0.3839  0.0985
 7693SOL    HW134733   6.171   5.346   7.800  1.2751  1.3899 -0.7259
 7693SOL    HW234734   6.287   5.430   7.879  1.0692 -0.0708  1.1624
 7694SOL     OW34735   3.202   0.417   7.618 -0.2712  0.2174 -0.3844
 7694SOL    HW134736   3.232   0.470   7.539 -3.1626  0.6102 -1.2747
 7694SOL    HW234737   3.160   0.478   7.685  0.4176 -0.3754  0.5944
 7695SOL     OW34738   1.222   0.412   0.704  0.2966 -0.0278 -0.2397
 7695SOL    HW134739   1.180   0.468   0.633  1.6601  1.1383 -0.1553
 7695SOL    HW234740   1.152   0.357   0.750 -1.3052  2.7291  0.7017
 7696SOL     OW34741   1.928   8.074   6.442  0.5236 -0.2957  0.2643
 7696SOL    HW134742   1.870   8.141   6.489  1.3932  0.1514  0.7034
 7696SOL    HW234743   2.002   8.046   6.502  1.5509  0.1516 -0.7670
 7697SOL     OW34744   1.986   2.247   7.598  0.1318 -0.0534  0.0121
 7697SOL    HW134745   2.012   2.176   7.533  3.2951  1.4880 -0.5173
 7697SOL    HW234746   1.986   2.209   7.691 -0.3461 -1.2483 -0.4736
 7698SOL     OW34747   3.328   6.862   1.373  0.4704 -0.5215  0.1353
 7698SOL    HW134748   3.315   6.937   1.309 -0.9029 -1.0150 -0.1900
 7698SOL    HW234749   3.264   6.788   1.351  1.0690 -1.3454  1.1009
 7699SOL     OW34750   2.421   3.569   0.901  0.6848 -0.1293  0.3014
 7699SOL    HW134751   2.496   3.588   0.964  1.0219 -1.1414  0.2105
 7699SOL    HW234752   2.441   3.487   0.848  1.3185  1.7807 -2.5462
 7700SOL     OW34753   1.361   6.572   5.022 -0.1721 -0.1751  0.0346
 7700SOL    HW134754   1.334   6.513   4.946  0.1794  0.1530 -0.3475
 7700SOL    HW234755   1.281   6.622   5.056 -0.1656  0.3650 -0.7206
 7701SOL     OW34756   4.892   4.958   1.998  0.6084 -0.9344 -0.6819
 7701SOL    HW134757   4.825   5.018   1.953  0.3820  0.5828  1.6322
 7701SOL    HW234758   4.966   4.938   1.935 -1.1122 -1.1798 -2.6979
 7702SOL     OW34759   1.110   5.862   3.586 -0.1422  0.0992 -0.1122
 7702SOL    HW134760   1.114   5.956   3.619  0.1926  0.1154 -0.2001
 7702SOL    HW234761   1.026   5.849   3.533 -0.6569  0.0887  0.6837
 7703SOL     OW34762   3.480   7.125   4.529 -0.0233 -0.4109  0.2714
 7703SOL    HW134763   3.537   7.106   4.609  1.9328 -2.9268 -1.6228
 7703SOL    HW234764   3.539   7.134   4.448 -2.0590  0.7119 -1.1318
 7704SOL     OW34765   9.978   7.134   4.003 -0.1025 -0.3726  0.2557
 7704SOL    HW134766  10.071   7.119   3.970 -0.3839  1.0752 -1.2388
 7704SOL    HW234767   9.963   7.232   4.018 -0.8252 -0.7488  2.2375
 7705SOL     OW34768   4.699   9.863   3.072 -0.6391  0.2247  0.0725
 7705SOL    HW134769   4.735   9.935   3.131 -0.7909  0.0412  0.3873
 7705SOL    HW234770   4.621   9.819   3.116  0.4905 -1.2644  0.6092
 7706SOL     OW34771   8.927   2.503   2.895 -0.1048  0.1991  0.4343
 7706SOL    HW134772   8.925   2.482   2.797 -0.8535  0.1207  0.4570
 7706SOL    HW234773   8.931   2.602   2.908 -2.8003  0.3713  0.2981
 7707SOL     OW34774   4.694   7.671   2.247 -0.7200 -0.3150  0.2293
 7707SOL    HW134775   4.719   7.762   2.281 -2.3847 -0.5372  2.0785
 7707SOL    HW234776   4.775   7.612   2.248 -0.6856 -0.3251  3.8665
 7708SOL     OW34777   5.475   5.036   1.965 -0.2884  0.0510 -0.3577
 7708SOL    HW134778   5.558   5.071   2.007 -0.8293 -0.1655  0.8999
 7708SOL    HW234779   5.406   5.109   1.960 -0.1329  0.1492 -1.1135
 7709SOL     OW34780   9.357   7.321   6.409  0.4552 -0.5674  0.1421
 7709SOL    HW134781   9.415   7.302   6.330  0.1741 -0.8705  0.0059
 7709SOL    HW234782   9.414   7.342   6.489  0.8467 -4.4953  0.9695
 7710SOL     OW34783   8.892   8.476   0.708  0.0870  0.0357  0.3468
 7710SOL    HW134784   8.822   8.511   0.645 -0.3270 -0.4257  0.5477
 7710SOL    HW234785   8.934   8.395   0.669  0.4608  0.2740  0.2573
 7711SOL     OW34786   9.518   2.093   8.090 -0.0741  0.9111 -0.0624
 7711SOL    HW134787   9.548   2.001   8.117 -1.3748  1.0102  1.8449
 7711SOL    HW234788   9.555   2.115   8.000 -2.1287 -2.6394 -1.8731
 7712SOL     OW34789   7.077   6.000   6.340  0.2082 -0.1070 -0.2218
 7712SOL    HW134790   7.141   5.975   6.414  0.6990 -0.5333 -0.7882
 7712SOL    HW234791   7.055   6.098   6.348  1.8826  0.3325 -0.7350
 7713SOL     OW34792   4.053   4.315   4.193 -0.6188  0.1126  0.0292
 7713SOL    HW134793   4.099   4.375   4.127 -1.9319 -1.3736 -2.3015
 7713SOL    HW234794   4.086   4.221   4.181 -0.6001 -0.1248  1.7908
 7714SOL     OW34795   1.486   3.772   0.966 -0.1791 -0.0403 -0.2110
 7714SOL    HW134796   1.563   3.833   0.949  0.6494 -0.7565  0.9122
 7714SOL    HW234797   1.495   3.732   1.057 -1.6366 -0.4852 -0.2561
 7715SOL     OW34798   8.727   7.531   1.679 -0.1647 -0.0992  0.6757
 7715SOL    HW134799   8.643   7.532   1.732 -0.4694 -0.3497  0.1984
 7715SOL    HW234800   8.707   7.557   1.584  0.4604  0.8744  0.8108
 7716SOL     OW34801   7.892   5.941   0.188 -0.2361 -0.2308  0.2899
 7716SOL    HW134802   7.798   5.965   0.163  0.5888  2.8312 -0.1262
 7716SOL    HW234803   7.936   5.895   0.111 -1.1378 -0.9956  0.2160
 7717SOL     OW34804   8.167   3.472   3.512  0.4108  0.2750  0.1139
 7717SOL    HW134805   8.159   3.491   3.610  1.6873 -0.4337  0.3599
 7717SOL    HW234806   8.262   3.483   3.483 -0.0101  0.8174 -1.1321
 7718SOL     OW34807   6.139   0.141   5.508  0.0759  0.6559  0.0680
 7718SOL    HW134808   6.118   0.168   5.414 -0.4137  2.0414  0.5641
 7718SOL    HW234809   6.231   0.101   5.511 -1.3624 -2.9027 -1.6299
 7719SOL     OW34810   7.863   5.648   3.031  0.1498  0.3463  0.4552
 7719SOL    HW134811   7.928   5.694   3.092  0.4218  0.1433  0.3185
 7719SOL    HW234812   7.841   5.558   3.068 -1.1690  0.9808  1.2563
 7720SOL     OW34813   1.922   9.967   7.775 -0.3045  0.3203 -0.2846
 7720SOL    HW134814   1.831   9.992   7.810 -1.2829 -1.8893 -1.1782
 7720SOL    HW234815   1.964   9.901   7.837  0.5052  0.9544 -0.1469
 7721SOL     OW34816   7.615   4.779   2.729 -0.0901  0.2264  0.1103
 7721SOL    HW134817   7.673   4.699   2.739  0.9796  0.9183 -0.4408
 7721SOL    HW234818   7.615   4.832   2.813 -0.6471 -0.2465  0.4107
 7722SOL     OW34819   0.083   2.168   0.396 -0.2595 -0.0205 -0.6603
 7722SOL    HW134820   0.142   2.102   0.443 -1.3055 -1.7307 -1.6668
 7722SOL    HW234821   0.139   2.233   0.345  0.8060 -0.0892  0.4155
 7723SOL     OW34822   4.304   9.084   7.642 -0.1015 -0.1074 -0.5995
 7723SOL    HW134823   4.291   9.120   7.735  3.5036 -0.5023  0.1531
 7723SOL    HW234824   4.342   8.992   7.647  0.8656  0.1621 -2.4330
 7724SOL     OW34825   2.442   0.912   4.414  0.5929 -0.3128  0.1280
 7724SOL    HW134826   2.352   0.912   4.458  1.3660  2.3729  1.8666
 7724SOL    HW234827   2.439   0.968   4.331  0.5780 -0.5697 -0.0472
 7725SOL     OW34828   5.886   2.268   4.125 -0.6650  0.7146  0.3882
 7725SOL    HW134829   5.971   2.215   4.128 -0.9154  0.3394  1.0584
 7725SOL    HW234830   5.857   2.289   4.219 -0.3684  2.3668  0.1205
 7726SOL     OW34831   9.566   6.267   3.956 -0.2235 -0.4666  0.2769
 7726SOL    HW134832   9.611   6.345   3.912 -0.6648  0.0409  0.7112
 7726SOL    HW234833   9.469   6.288   3.968 -0.1741 -0.7447  1.1717
 7727SOL     OW34834   8.860   1.392   6.406 -0.7258  0.4651 -0.1983
 7727SOL    HW134835   8.860   1.292   6.399 -3.0531  0.3261  1.0864
 7727SOL    HW234836   8.803   1.430   6.332 -1.5823  0.6976  0.5722
 7728SOL     OW34837   4.607   0.510   4.563 -0.2498 -0.6008  0.5600
 7728SOL    HW134838   4.588   0.607   4.551 -1.2649 -0.7388  0.9883
 7728SOL    HW234839   4.643   0.472   4.478 -0.2119  0.0648  0.2760
 7729SOL     OW34840   0.583   4.071   2.860 -0.0828 -0.3637  0.3724
 7729SOL    HW134841   0.541   4.111   2.778 -1.8687 -1.1440  0.8850
 7729SOL    HW234842   0.616   3.980   2.839 -0.1512 -0.3953  0.4014
 7730SOL     OW34843   3.883   3.556   7.543 -0.1355 -0.1220 -0.2984
 7730SOL    HW134844   3.868   3.649   7.577 -0.3225  0.5763 -2.2171
 7730SOL    HW234845   3.978   3.529   7.560  0.1455  0.7394 -0.4836
 7731SOL     OW34846   7.189   0.052   3.586 -0.2555  0.4090  0.4378
 7731SOL    HW134847   7.098   0.030   3.621 -0.3837  0.7127  0.2990
 7731SOL    HW234848   7.233   0.116   3.648  0.0873 -0.1788  0.8026
 7732SOL     OW34849   1.364   1.225   2.750  0.1043 -0.1869 -0.1183
 7732SOL    HW134850   1.281   1.245   2.698 -0.7059 -0.2589  1.1141
 7732SOL    HW234851   1.405   1.310   2.783  1.5089 -0.0248 -2.1770
 7733SOL     OW34852   2.575   9.489   8.075  0.4180  0.2380 -0.4395
 7733SOL    HW134853   2.559   9.558   8.005 -0.4658 -1.3402 -1.8364
 7733SOL    HW234854   2.617   9.408   8.032  0.8182 -0.3465  1.0416
 7734SOL     OW34855   2.049   3.678   4.580 -0.4921 -0.1795  0.8601
 7734SOL    HW134856   2.139   3.711   4.609 -0.2966 -1.5296  1.8100
 7734SOL    HW234857   1.983   3.691   4.655 -1.1756  1.1008  0.0579
 7735SOL     OW34858   2.539   6.086   2.864 -0.6234 -0.2518 -0.1000
 7735SOL    HW134859   2.597   6.144   2.922  0.6494 -0.7371 -0.8582
 7735SOL    HW234860   2.590   6.004   2.838 -1.8094 -0.8975 -0.4441
 7736SOL     OW34861   4.231   9.487   2.839  0.2934  0.1408 -0.1576
 7736SOL    HW134862   4.197   9.400   2.802 -0.9485 -0.1125  1.5203
 7736SOL    HW234863   4.182   9.563   2.796  0.4579 -0.0481 -0.6831
 7737SOL     OW34864   7.804   9.925   2.902 -0.0336  0.6210  0.1653
 7737SOL    HW134865   7.864   9.875   2.839 -1.4327 -0.2217 -0.5458
 7737SOL    HW234866   7.847   9.932   2.992  0.4318 -1.4474  0.1366
 7738SOL     OW34867   8.921   1.928   0.931  0.6161  0.4958 -0.0337
 7738SOL    HW134868   8.828   1.964   0.939  0.2023 -0.5891  0.1512
 7738SOL    HW234869   8.984   2.002   0.908 -0.0802  1.4878  1.1693
 7739SOL     OW34870   2.931   4.629   3.607 -0.4878  0.2242  0.2542
 7739SOL    HW134871   2.867   4.647   3.532  0.2489  0.7153 -0.2677
 7739SOL    HW234872   2.902   4.548   3.658 -0.4879 -0.6712 -1.1420
 7740SOL     OW34873   8.481   6.922   1.663 -0.2168 -0.3267 -0.1763
 7740SOL    HW134874   8.393   6.894   1.625 -0.3039 -0.6560  0.2550
 7740SOL    HW234875   8.490   6.883   1.755 -1.0527  2.4226  1.1009
 7741SOL     OW34876   8.538   4.046   3.045  0.6734 -0.7824  0.0291
 7741SOL    HW134877   8.591   3.971   3.004  0.4315 -1.1918  0.4587
 7741SOL    HW234878   8.538   4.037   3.145  1.8898  0.6407  0.1698
 7742SOL     OW34879   4.039   9.117   6.810  0.1453 -0.0461 -0.4060
 7742SOL    HW134880   3.998   9.189   6.754  0.0150 -1.0214 -1.5863
 7742SOL    HW234881   3.984   9.034   6.802 -0.1208 -0.0789  1.5386
 7743SOL     OW34882   8.440   0.059   6.465 -0.9736 -0.2169 -0.1639
 7743SOL    HW134883   8.531   0.019   6.450 -0.8650 -1.2011  2.8040
 7743SOL    HW234884   8.386   0.052   6.381  1.3070 -0.5987 -1.6422
 7744SOL     OW34885   1.586   3.633   4.511  0.3047 -0.1562  0.1488
 7744SOL    HW134886   1.503   3.643   4.456  0.4634  0.8449  0.0779
 7744SOL    HW234887   1.649   3.571   4.465 -0.0217 -0.1950 -0.2493
 7745SOL     OW34888   4.304   1.208   7.439  0.5251  0.0346  0.2948
 7745SOL    HW134889   4.258   1.123   7.462  1.0773 -0.4589 -0.3915
 7745SOL    HW234890   4.274   1.281   7.501 -3.1431  0.3449 -1.7197
 7746SOL     OW34891   3.651   8.982   4.804 -0.0461 -0.2542  0.4318
 7746SOL    HW134892   3.586   8.911   4.777 -1.0976  1.0125 -0.4468
 7746SOL    HW234893   3.711   9.003   4.727  0.2859 -0.2263  0.6982
 7747SOL     OW34894   8.857   4.977   3.443  0.0596 -0.1339  0.0550
 7747SOL    HW134895   8.759   4.962   3.448  0.1592 -0.6299  0.5007
 7747SOL    HW234896   8.904   4.911   3.501  0.7097 -0.5122 -0.8868
 7748SOL     OW34897   1.084   3.831   1.798  0.9054 -0.1058  0.4073
 7748SOL    HW134898   1.048   3.913   1.841 -0.4926 -0.2625 -0.4276
 7748SOL    HW234899   1.182   3.843   1.778  0.8656  1.0741  0.9124
 7749SOL     OW34900   5.494   1.270   7.003 -0.4580 -0.1903  0.0971
 7749SOL    HW134901   5.518   1.238   6.911 -0.5864 -0.3293  0.1123
 7749SOL    HW234902   5.399   1.298   7.005 -0.6242 -0.7527  0.3392
 7750SOL     OW34903   3.800   6.780   4.923 -0.2465 -0.2524 -0.3766
 7750SOL    HW134904   3.808   6.760   4.825  0.1555  0.0983 -0.4178
 7750SOL    HW234905   3.886   6.819   4.956 -0.3146 -0.5426  0.1590
 7751SOL     OW34906   0.073   2.508   6.294  0.0178 -0.3134 -0.1212
 7751SOL    HW134907  -0.015   2.554   6.290  0.1195 -0.1358 -0.2790
 7751SOL    HW234908   0.127   2.531   6.214  0.7043  0.5893  0.5930
 7752SOL     OW34909   1.314   1.113   7.794  0.2591  0.2359  0.0689
 7752SOL    HW134910   1.407   1.109   7.756  0.3059 -0.4935  0.2577
 7752SOL    HW234911   1.257   1.043   7.750  0.3382 -0.6836  1.3968
 7753SOL     OW34912   3.099   5.705   3.188  0.7961  0.4607  0.1540
 7753SOL    HW134913   3.074   5.616   3.227  0.7683  0.9376  1.2353
 7753SOL    HW234914   3.094   5.775   3.259  1.0439  1.2905 -0.6421
 7754SOL     OW34915   4.110   9.674   5.117 -0.7762  0.0507  0.0452
 7754SOL    HW134916   4.067   9.715   5.036 -1.0412  0.1125  0.2169
 7754SOL    HW234917   4.168   9.742   5.161 -1.7488  0.4607  0.7188
 7755SOL     OW34918   2.420   7.600   5.598  0.1595  0.0782  0.4852
 7755SOL    HW134919   2.510   7.557   5.603  0.5282  0.9360  1.4462
 7755SOL    HW234920   2.422   7.673   5.530  0.2862  0.2993  0.7239
 7756SOL     OW34921   9.041   8.052   4.866  0.2108 -0.2231 -0.0094
 7756SOL    HW134922   9.055   8.135   4.812  0.7516 -0.7249 -0.6559
 7756SOL    HW234923   9.122   8.035   4.922 -0.3813  0.3419  1.0324
 7757SOL     OW34924   9.772   2.606   1.790 -0.3162  0.0967  0.2532
 7757SOL    HW134925   9.685   2.656   1.795 -0.4330 -0.1681  0.9474
 7757SOL    HW234926   9.776   2.554   1.706 -1.2813 -0.7206  0.7060
 7758SOL     OW34927   8.953   3.043   1.940 -0.4513 -0.0030 -0.1379
 7758SOL    HW134928   9.052   3.036   1.947 -0.3333 -0.3612 -1.9986
 7758SOL    HW234929   8.915   3.070   2.028  1.2721 -0.1409  0.6538
 7759SOL     OW34930   8.013   5.208   0.307 -0.3070  0.3538 -0.1290
 7759SOL    HW134931   8.094   5.261   0.285  0.3792 -0.7143 -0.2057
 7759SOL    HW234932   7.998   5.139   0.237 -0.4143 -0.4363  0.6582
 7760SOL     OW34933   3.572   2.354   6.938 -0.5108 -0.0620 -0.1174
 7760SOL    HW134934   3.623   2.333   7.022 -1.8124 -1.8459  0.2599
 7760SOL    HW234935   3.520   2.438   6.950  1.0514  0.9044  0.0594
 7761SOL     OW34936   8.555   3.527   7.191 -0.7177  0.3815  0.2674
 7761SOL    HW134937   8.638   3.473   7.202 -0.4499  1.0396  1.6959
 7761SOL    HW234938   8.558   3.578   7.105  0.9226  1.3321  0.8750
 7762SOL     OW34939   3.593   3.409   4.320 -0.3333  0.1919 -0.5050
 7762SOL    HW134940   3.630   3.444   4.234 -0.3284  0.7515 -0.2774
 7762SOL    HW234941   3.661   3.352   4.365 -1.1978 -2.1568 -2.0687
 7763SOL     OW34942   5.256   9.134   5.377  0.6866 -0.0421  0.0260
 7763SOL    HW134943   5.351   9.102   5.370  0.7443  0.1078  0.1164
 7763SOL    HW234944   5.250   9.229   5.346  0.9125  0.5684  1.8098
 7764SOL     OW34945   7.131   7.303   5.413 -0.1721 -0.1845 -0.0990
 7764SOL    HW134946   7.178   7.232   5.465 -1.5053 -0.1601  1.1891
 7764SOL    HW234947   7.080   7.362   5.476 -2.8913 -0.9226 -1.4988
 7765SOL     OW34948   2.156   7.456   5.300  0.0162 -0.0354  0.4127
 7765SOL    HW134949   2.143   7.511   5.217  0.5919 -1.2122 -0.4675
 7765SOL    HW234950   2.069   7.451   5.350 -0.5958 -0.1736 -0.6500
 7766SOL     OW34951   3.786   7.568   4.107 -0.4892 -0.0511 -0.0328
 7766SOL    HW134952   3.870   7.517   4.090 -0.8094 -0.6692  0.2296
 7766SOL    HW234953   3.736   7.527   4.183 -1.7769 -0.6115 -1.1554
 7767SOL     OW34954   0.948   9.800   5.305  0.3024 -0.2719 -0.0111
 7767SOL    HW134955   0.979   9.865   5.375 -0.9034  0.6628 -0.3302
 7767SOL    HW234956   1.024   9.741   5.278  1.1261  0.2657  1.0934
 7768SOL     OW34957   5.010   3.764   0.483  0.3370 -0.1161 -0.7626
 7768SOL    HW134958   5.025   3.859   0.456  0.0818  0.4714  1.1375
 7768SOL    HW234959   4.927   3.730   0.438 -1.9459  1.9021  1.7350
 7769SOL     OW34960   9.147   6.006   2.242 -0.1175 -0.3700  0.4629
 7769SOL    HW134961   9.246   5.990   2.236 -0.2709 -0.9195 -0.7957
 7769SOL    HW234962   9.117   5.997   2.337  1.3441  1.6019  1.1477
 7770SOL     OW34963   1.647   6.897   2.571 -0.2577  0.1947 -0.2066
 7770SOL    HW134964   1.714   6.970   2.574  0.6185 -0.6527  1.7781
 7770SOL    HW234965   1.563   6.926   2.616 -0.3082  0.3742 -0.4188
 7771SOL     OW34966   4.017   8.015   0.719  0.3255 -0.4933  0.3295
 7771SOL    HW134967   3.959   7.935   0.704  0.3017 -0.6906  1.4138
 7771SOL    HW234968   4.075   7.999   0.799  0.2383  0.6335  0.6211
 7772SOL     OW34969   8.610   8.601   3.119 -0.3851 -0.0190  0.0138
 7772SOL    HW134970   8.536   8.533   3.115 -0.4607  0.0132  0.8329
 7772SOL    HW234971   8.623   8.631   3.214  0.1606  0.5493 -0.2369
 7773SOL     OW34972   6.221   1.188   3.935 -0.0083  0.3933  0.2308
 7773SOL    HW134973   6.223   1.269   3.876 -1.0633  0.5425  0.3853
 7773SOL    HW234974   6.131   1.181   3.979  0.6461  0.0969  1.5584
 7774SOL     OW34975   4.368   0.032   2.683  0.3584  0.1931  0.4702
 7774SOL    HW134976   4.433   0.002   2.613  0.7081  2.5517 -0.2585
 7774SOL    HW234977   4.413   0.095   2.746 -0.5087 -0.3079  1.6047
 7775SOL     OW34978   9.230   9.733   6.092  0.0858 -0.1393 -0.1661
 7775SOL    HW134979   9.320   9.690   6.099 -0.9807 -2.4927 -0.2546
 7775SOL    HW234980   9.197   9.726   5.997  0.8940  3.0370 -0.7192
 7776SOL     OW34981   4.562   4.420   0.692 -0.2423 -0.3016 -0.5621
 7776SOL    HW134982   4.646   4.465   0.723 -1.2153  1.5149 -0.5141
 7776SOL    HW234983   4.550   4.335   0.744  0.4236  0.5197  0.9767
 7777SOL     OW34984   3.993   5.485   3.269  0.1934  0.0701 -0.1520
 7777SOL    HW134985   4.021   5.408   3.211  0.8942  0.4026 -0.2692
 7777SOL    HW234986   3.917   5.457   3.327  0.4305 -0.7092 -0.2033
 7778SOL     OW34987   0.490   5.273   5.777  0.0878  0.3166  0.4299
 7778SOL    HW134988   0.581   5.235   5.762 -0.3540 -0.5308 -0.1081
 7778SOL    HW234989   0.436   5.265   5.693 -0.5106  0.7510  0.7697
 7779SOL     OW34990   0.172   0.415   0.509 -0.0694 -0.0157 -0.5805
 7779SOL    HW134991   0.222   0.347   0.563 -0.7645  0.5122  0.7475
 7779SOL    HW234992   0.210   0.418   0.417  1.8605 -0.1648  0.1810
 7780SOL     OW34993   8.267   8.456   1.442 -0.4225  0.0222 -0.1397
 7780SOL    HW134994   8.317   8.465   1.356 -0.9169 -0.4101 -0.4754
 7780SOL    HW234995   8.321   8.495   1.517 -0.0518  0.5162 -0.6688
 7781SOL     OW34996   1.962   4.074   3.270 -0.1102 -0.0107  0.5243
 7781SOL    HW134997   2.000   4.115   3.188 -0.8414  1.3867  0.8576
 7781SOL    HW234998   1.952   3.975   3.257 -1.4526  0.3707 -1.5503
 7782SOL     OW34999   2.674   6.654   2.683  0.2351 -0.4789 -0.5352
 7782SOL    HW135000   2.733   6.583   2.720  2.5134  0.7569 -1.6679
 7782SOL    HW235001   2.611   6.685   2.753  1.3483 -1.4058  0.8987
 7783SOL     OW35002   9.134   8.666   1.790 -0.0934 -0.1310  0.0050
 7783SOL    HW135003   9.175   8.701   1.706 -2.2703 -0.2418 -1.1332
 7783SOL    HW235004   9.193   8.595   1.828  0.8723 -0.1443 -1.4575
 7784SOL     OW35005   0.311   0.012   0.874 -0.2215  0.1215 -0.2260
 7784SOL    HW135006   0.390  -0.041   0.906  0.1364  1.1864  0.7194
 7784SOL    HW235007   0.338   0.066   0.794 -0.1499  0.0309 -0.2634
 7785SOL     OW35008   8.447   4.303   0.299 -0.3440  0.6507 -0.0283
 7785SOL    HW135009   8.488   4.371   0.360 -0.9559  0.0726  1.0422
 7785SOL    HW235010   8.488   4.214   0.319  1.1894  0.8565 -2.1133
 7786SOL     OW35011   2.037   3.012   7.172 -0.2937  0.8498 -0.3396
 7786SOL    HW135012   1.945   3.017   7.210  0.2986  0.1088  1.2366
 7786SOL    HW235013   2.100   3.064   7.230  0.4304  0.5900 -0.8895
 7787SOL     OW35014   1.767   4.536   8.007 -0.1352  0.1737 -0.1989
 7787SOL    HW135015   1.726   4.622   7.976 -1.7100 -1.1695 -1.9828
 7787SOL    HW235016   1.735   4.515   8.099  0.9211  1.8949  0.5890
 7788SOL     OW35017   1.301   5.587   1.453 -0.6948 -0.7656 -0.2216
 7788SOL    HW135018   1.368   5.513   1.447  0.4065  0.1440  0.5995
 7788SOL    HW235019   1.304   5.627   1.544 -0.0268  1.4315 -1.1669
 7789SOL     OW35020   1.974   9.145   5.484 -0.5204  0.5052  0.0468
 7789SOL    HW135021   1.932   9.055   5.490 -1.3445  0.8089 -1.0394
 7789SOL    HW235022   1.904   9.213   5.463  0.3400  1.1720 -0.6726
 7790SOL     OW35023   1.265   3.323   3.691  0.1505 -0.6662 -0.5179
 7790SOL    HW135024   1.350   3.296   3.647  0.9221  0.8370  0.0279
 7790SOL    HW235025   1.269   3.301   3.789  0.8246  1.4121 -0.0468
 7791SOL     OW35026   8.098   8.773   1.242  0.0823  0.3812 -0.5130
 7791SOL    HW135027   8.117   8.698   1.179 -0.1332 -0.8036  0.8143
 7791SOL    HW235028   8.181   8.794   1.294 -0.8046 -1.3844  1.6788
 7792SOL     OW35029   5.155   1.677   7.111 -0.2122 -0.2952  0.0843
 7792SOL    HW135030   5.148   1.681   7.011  0.1483 -1.3936  0.0068
 7792SOL    HW235031   5.251   1.663   7.137 -0.2778  0.2004  0.5940
 7793SOL     OW35032   9.687   3.007   5.721  0.0227  0.2547  1.2133
 7793SOL    HW135033   9.597   2.999   5.678 -0.4686  1.6362  1.9577
 7793SOL    HW235034   9.679   3.060   5.805  1.5617  0.5026  1.2125
 7794SOL     OW35035   1.482   3.427   3.305 -0.3357 -0.2084  0.6492
 7794SOL    HW135036   1.433   3.395   3.224 -1.5653  2.1605  0.4146
 7794SOL    HW235037   1.504   3.524   3.295  1.9134 -0.5393  1.9948
 7795SOL     OW35038   7.709   6.587   4.228 -0.0327 -0.3185 -0.3627
 7795SOL    HW135039   7.640   6.597   4.156 -1.8358  0.2267  1.4109
 7795SOL    HW235040   7.753   6.676   4.244  0.1333 -0.3664 -0.5519
 7796SOL     OW35041   6.818   0.376   0.223 -0.7472  0.4056 -0.3283
 7796SOL    HW135042   6.767   0.429   0.155  0.5471  2.1595  0.0213
 7796SOL    HW235043   6.825   0.429   0.308  0.8653 -0.1815 -0.0779
 7797SOL     OW35044   9.984   7.012   1.900 -0.1013 -0.4951 -0.3859
 7797SOL    HW135045   9.976   7.076   1.976 -0.3963  1.0336 -1.6714
 7797SOL    HW235046  10.077   6.976   1.896  0.2296  0.3012  0.0109
 7798SOL     OW35047   0.399   0.148   3.717  0.8156  0.3507  0.9052
 7798SOL    HW135048   0.396   0.129   3.815  2.2236  0.6152  1.0067
 7798SOL    HW235049   0.349   0.232   3.697  1.2683  0.7726  1.5240
 7799SOL     OW35050   1.776   2.086   4.867 -0.2870 -0.0251 -0.1649
 7799SOL    HW135051   1.747   2.164   4.923 -0.9728 -0.5927  0.2874
 7799SOL    HW235052   1.808   2.119   4.778 -1.1786  0.7260 -0.2200
 7800SOL     OW35053   7.295   2.111   4.129 -1.2589 -0.2163 -0.1802
 7800SOL    HW135054   7.246   2.127   4.043 -0.2416 -0.0447 -0.7451
 7800SOL    HW235055   7.369   2.045   4.113 -0.0554  1.0236  0.1927
 7801SOL     OW35056   6.058   7.835   4.086  0.1876  0.1996  0.4640
 7801SOL    HW135057   6.034   7.767   4.017  1.3224 -1.3786  1.5631
 7801SOL    HW235058   6.157   7.843   4.092  0.0779  1.2635  1.0279
 7802SOL     OW35059   9.908   0.889   4.028 -0.2324  0.4393 -0.0419
 7802SOL    HW135060   9.985   0.911   4.087 -0.0401  0.5428 -0.3294
 7802SOL    HW235061   9.889   0.791   4.033  0.7967  0.1802 -1.0208
 7803SOL     OW35062   6.617   5.286   1.044 -0.4031  0.0674 -0.5527
 7803SOL    HW135063   6.715   5.284   1.064 -0.4104  0.6437 -0.4632
 7803SOL    HW235064   6.591   5.202   0.996 -0.1914 -0.8768  0.9378
 7804SOL     OW35065   5.245   0.446   5.999 -0.2502  0.2367 -0.4309
 7804SOL    HW135066   5.169   0.412   6.054 -1.4549  0.9676 -1.6225
 7804SOL    HW235067   5.262   0.542   6.021  2.4454 -0.7672  2.1499
 7805SOL     OW35068   4.812   1.673   2.997  0.3214 -0.0215  0.8408
 7805SOL    HW135069   4.810   1.582   3.039 -1.4409  0.1846  1.2569
 7805SOL    HW235070   4.833   1.742   3.067 -1.9691  0.2542  1.2871
 7806SOL     OW35071   4.293   9.712   7.457 -0.1438  0.5880 -0.7005
 7806SOL    HW135072   4.193   9.713   7.455 -0.1348  0.9427 -1.0663
 7806SOL    HW235073   4.328   9.730   7.365  0.2528 -0.3598 -0.7453
 7807SOL     OW35074   6.783   1.745   5.755 -0.1603  0.1535 -0.2129
 7807SOL    HW135075   6.873   1.702   5.751 -0.3492 -0.3350  0.6046
 7807SOL    HW235076   6.724   1.708   5.683  0.3541  0.6249 -0.8775
 7808SOL     OW35077   8.877   4.831   4.495  0.0816  0.1779 -0.5770
 7808SOL    HW135078   8.888   4.930   4.507 -1.2193  0.2897 -0.2801
 7808SOL    HW235079   8.843   4.813   4.403  0.4965 -0.0067 -0.6937
 7809SOL     OW35080   4.119   9.431   1.485 -0.0191  0.2759 -0.3503
 7809SOL    HW135081   4.151   9.439   1.579  1.4857 -1.3727 -0.6807
 7809SOL    HW235082   4.020   9.426   1.483 -0.0783  0.6888  1.1232
 7810SOL     OW35083   0.031   7.334   3.398 -0.4609  0.4289  0.2323
 7810SOL    HW135084   0.070   7.426   3.401 -0.5854  0.4641  0.9942
 7810SOL    HW235085   0.089   7.272   3.452 -0.9563  0.2897  0.6100
 7811SOL     OW35086   3.899   1.574   7.577 -0.4744  0.3015 -0.0825
 7811SOL    HW135087   3.916   1.671   7.594 -1.7510  0.4028  0.7090
 7811SOL    HW235088   3.985   1.523   7.585 -0.0921  1.1253  1.2587
 7812SOL     OW35089   3.438   3.324   7.629  0.3024  0.1914 -0.0977
 7812SOL    HW135090   3.481   3.266   7.559 -1.8661  0.6189 -1.8459
 7812SOL    HW235091   3.473   3.417   7.621 -2.2456  0.9868 -2.7872
 7813SOL     OW35092   9.581   0.728   7.581 -0.2713  0.1882 -0.2447
 7813SOL    HW135093   9.650   0.726   7.654  0.7212  3.1059 -1.0115
 7813SOL    HW235094   9.621   0.694   7.496  0.2606  1.7983 -0.6680
 7814SOL     OW35095   5.988   9.504   6.881  0.2874  0.4019  0.4265
 7814SOL    HW135096   6.027   9.510   6.789  0.9147  0.3941  0.6882
 7814SOL    HW235097   5.934   9.585   6.900  0.3488  0.5108  0.1397
 7815SOL     OW35098   7.492   1.646   6.870  0.2496 -0.1159 -0.1221
 7815SOL    HW135099   7.505   1.740   6.839  0.1940 -0.9679 -2.8285
 7815SOL    HW235100   7.395   1.622   6.866  0.0825  0.1072  1.8587
 7816SOL     OW35101   9.143   2.401   4.394 -0.0828 -0.2471 -0.8124
 7816SOL    HW135102   9.062   2.346   4.416  0.9962 -1.6547 -0.3184
 7816SOL    HW235103   9.218   2.375   4.455 -0.4297  3.9189  1.5929
 7817SOL     OW35104   4.912   9.236   5.315 -0.3248  0.0922 -0.2349
 7817SOL    HW135105   4.826   9.185   5.318  0.0770 -0.6134 -0.3856
 7817SOL    HW235106   4.982   9.186   5.367  0.3850 -0.1156 -1.3741
 7818SOL     OW35107   7.101   8.686   6.649  0.3847  0.0634 -0.1267
 7818SOL    HW135108   7.126   8.766   6.595  0.2217 -0.1024 -0.4506
 7818SOL    HW235109   7.009   8.656   6.623 -0.1167  0.6141  0.9920
 7819SOL     OW35110   2.209   9.478   7.482  0.5794 -0.2543 -0.3056
 7819SOL    HW135111   2.220   9.567   7.439  0.1626 -0.0556  0.0045
 7819SOL    HW235112   2.298   9.431   7.484  0.7964  0.1471 -0.4726
 7820SOL     OW35113   2.837   6.147   3.216  0.0574  0.0018  0.1098
 7820SOL    HW135114   2.802   6.160   3.309 -0.6677  1.6193 -0.3803
 7820SOL    HW235115   2.937   6.153   3.218 -0.0610  2.9542  0.3958
 7821SOL     OW35116   3.222   0.659   5.878 -0.1192 -0.1667  0.1669
 7821SOL    HW135117   3.283   0.706   5.813 -0.4750 -1.2738 -0.9804
 7821SOL    HW235118   3.238   0.561   5.874 -0.6659 -0.3028  1.2323
 7822SOL     OW35119   2.804   5.553   2.494  0.7040 -0.2662 -0.5802
 7822SOL    HW135120   2.737   5.481   2.514 -0.2010  1.4945  3.0190
 7822SOL    HW235121   2.757   5.638   2.472  1.7712  0.5738  0.3330
 7823SOL     OW35122   2.078   0.443   6.580 -0.0301 -0.3316 -0.7465
 7823SOL    HW135123   2.050   0.463   6.487 -0.9717  0.3437 -0.3195
 7823SOL    HW235124   2.145   0.510   6.610 -0.6571  0.1843 -0.5009
 7824SOL     OW35125   9.394   8.131   8.102 -0.5027  0.8890  0.0684
 7824SOL    HW135126   9.380   8.117   8.004  0.3614 -2.6378  0.3711
 7824SOL    HW235127   9.333   8.204   8.134 -2.3175  0.6710 -2.6813
 7825SOL     OW35128   6.060   8.454   2.943  0.3786  0.2485  1.3285
 7825SOL    HW135129   6.131   8.524   2.930 -0.9118  1.2479 -0.5358
 7825SOL    HW235130   5.980   8.495   2.985 -0.7111  0.1256 -0.5578
 7826SOL     OW35131   1.132   6.666   5.112 -0.0480  0.0226  0.0602
 7826SOL    HW135132   1.057   6.706   5.060 -0.2135 -1.3240 -0.7526
 7826SOL    HW235133   1.111   6.671   5.210 -0.0434  1.9280 -0.0219
 7827SOL     OW35134   8.365   5.333   5.979 -0.9110  0.3113  0.5822
 7827SOL    HW135135   8.408   5.404   5.923 -0.8136 -1.2113 -1.2990
 7827SOL    HW235136   8.398   5.243   5.952 -2.0256 -0.5754  2.0551
 7828SOL     OW35137   7.191   0.146   1.951  0.4066  0.0241 -0.4746
 7828SOL    HW135138   7.237   0.231   1.926 -0.5953  0.6862 -0.1228
 7828SOL    HW235139   7.099   0.167   1.986  0.6130 -1.1153  0.7737
 7829SOL     OW35140   8.153   2.944   6.126  0.1959 -0.3578 -0.3125
 7829SOL    HW135141   8.059   2.963   6.152 -0.0852  1.3577 -2.4251
 7829SOL    HW235142   8.154   2.891   6.041  1.1348 -0.6748 -0.1110
 7830SOL     OW35143   8.460   4.063   5.308 -0.1892  0.1096 -0.0542
 7830SOL    HW135144   8.481   4.084   5.212 -0.2846  0.1003 -0.0762
 7830SOL    HW235145   8.543   4.074   5.363 -0.0792 -0.1127 -0.1763
 7831SOL     OW35146   5.014   8.423   2.478  0.7378  0.6836  0.2807
 7831SOL    HW135147   5.050   8.515   2.494  1.7272  0.2986  0.2908
 7831SOL    HW235148   5.014   8.371   2.563 -0.2554  0.8234  0.3685
 7832SOL     OW35149   2.521   6.459   5.801  0.4581  1.3429 -0.0490
 7832SOL    HW135150   2.434   6.472   5.753  0.0368 -1.9212 -0.3165
 7832SOL    HW235151   2.597   6.477   5.738  0.0020  3.0853 -0.1327
 7833SOL     OW35152   4.552   3.963   2.483 -0.0530  0.2100  0.8427
 7833SOL    HW135153   4.640   3.923   2.511 -0.6086 -2.5038 -1.1005
 7833SOL    HW235154   4.553   3.979   2.385 -1.6252  0.4118  0.8540
 7834SOL     OW35155   9.806   8.645   5.934  0.1291 -0.1499 -0.1421
 7834SOL    HW135156   9.794   8.628   5.837  0.7179 -1.3991 -0.0159
 7834SOL    HW235157   9.721   8.626   5.983 -0.8051  2.5616 -0.6531
 7835SOL     OW35158   6.925   9.799   6.194 -0.2293 -0.0293 -0.3326
 7835SOL    HW135159   6.887   9.804   6.286 -0.2702 -1.7204 -0.2327
 7835SOL    HW235160   6.851   9.814   6.127 -0.8352 -1.9342 -0.1182
 7836SOL     OW35161   3.097   0.571   7.811 -0.4676  0.3109  0.2538
 7836SOL    HW135162   3.022   0.634   7.831  0.4235  2.2880 -2.2956
 7836SOL    HW235163   3.172   0.587   7.874 -0.6881  1.0392  0.3302
 7837SOL     OW35164   3.843   8.720   7.500  0.1639  0.0334  0.2481
 7837SOL    HW135165   3.909   8.751   7.568 -0.6855  0.8073  0.7279
 7837SOL    HW235166   3.813   8.627   7.523 -0.2467  0.3525  1.0332
 7838SOL     OW35167   3.244   6.140   2.756 -0.0997 -0.6362  0.1017
 7838SOL    HW135168   3.287   6.210   2.700 -0.0769  1.5098  2.7238
 7838SOL    HW235169   3.309   6.106   2.824 -1.3033 -0.3031  1.4371
 7839SOL     OW35170   3.246   7.460   0.891  0.1454  0.1079  0.7464
 7839SOL    HW135171   3.218   7.486   0.799 -1.9000 -1.3569  0.9403
 7839SOL    HW235172   3.311   7.527   0.926  0.7530  0.8161 -1.6552
 7840SOL     OW35173   6.672   7.620   3.869  0.3095  0.0626 -0.2924
 7840SOL    HW135174   6.645   7.530   3.905  0.2088 -0.2481 -1.1390
 7840SOL    HW235175   6.646   7.627   3.773  0.5283  0.9138 -0.2947
 7841SOL     OW35176   4.124   3.035   3.337  0.0229  0.4898 -0.2589
 7841SOL    HW135177   4.125   2.975   3.416 -0.0870  1.6442  0.6297
 7841SOL    HW235178   4.097   2.983   3.256  2.5027 -1.2498 -0.0236
 7842SOL     OW35179   7.832   0.356   1.406 -0.0600  0.1894 -0.4364
 7842SOL    HW135180   7.893   0.328   1.332  0.2393  1.3231 -0.6352
 7842SOL    HW235181   7.839   0.291   1.481  0.9204 -0.0523 -0.7225
 7843SOL     OW35182   1.810   1.883   1.606 -0.4683 -0.6597  0.1454
 7843SOL    HW135183   1.728   1.903   1.553  0.5235  0.9399 -0.8256
 7843SOL    HW235184   1.867   1.817   1.556 -0.4210 -0.5841  0.0999
 7844SOL     OW35185   4.640   9.358   7.510 -0.4133 -0.2056 -0.0402
 7844SOL    HW135186   4.704   9.417   7.461 -1.8856  1.9899  0.5785
 7844SOL    HW235187   4.559   9.411   7.536 -1.2790 -2.2304  1.5864
 7845SOL     OW35188   0.117   5.687   3.549 -0.4440  0.0878 -0.1512
 7845SOL    HW135189   0.133   5.778   3.511 -0.0085  0.4738  0.9246
 7845SOL    HW235190   0.167   5.678   3.635 -1.9603 -0.5103  0.6889
 7846SOL     OW35191   0.799   8.251   2.268  0.0189 -0.9877 -0.1756
 7846SOL    HW135192   0.828   8.157   2.286 -0.7844 -1.4752 -1.3821
 7846SOL    HW235193   0.699   8.255   2.264  0.1073 -0.4755 -2.2216
 7847SOL     OW35194   1.584   2.834   6.763 -0.5593 -0.9858 -0.0197
 7847SOL    HW135195   1.646   2.781   6.704  1.9424  1.1089  0.6372
 7847SOL    HW235196   1.551   2.775   6.837  1.5372 -1.8805  0.2436
 7848SOL     OW35197   9.686   5.080   5.209  0.1366  0.1641  0.3193
 7848SOL    HW135198   9.767   5.079   5.267 -0.5827 -0.2217  1.3367
 7848SOL    HW235199   9.698   5.017   5.133  0.6379 -0.1913  0.6906
 7849SOL     OW35200   7.245   1.076   6.761 -0.1727  0.3400  0.3168
 7849SOL    HW135201   7.265   1.131   6.679  0.9597 -0.6199 -0.0762
 7849SOL    HW235202   7.239   1.135   6.841  4.1263  0.7817  0.4296
 7850SOL     OW35203   3.973   7.290   2.466 -0.0318 -0.3921  0.1289
 7850SOL    HW135204   3.972   7.244   2.555 -2.9065 -4.1120 -1.6771
 7850SOL    HW235205   4.056   7.266   2.416  0.2294 -0.5876  0.6552
 7851SOL     OW35206   9.353   2.572   3.093  0.4949  0.1410 -0.2419
 7851SOL    HW135207   9.274   2.559   3.153  0.5937  1.0554  0.1031
 7851SOL    HW235208   9.346   2.510   3.015  1.4734 -2.6404  1.8067
 7852SOL     OW35209   8.747   1.366   3.254  0.3589 -0.0740  0.3101
 7852SOL    HW135210   8.844   1.341   3.266  0.2773 -1.0431 -0.9330
 7852SOL    HW235211   8.689   1.295   3.294  0.1470  0.4528  0.9535
 7853SOL     OW35212   9.614   9.728   7.937 -0.7377 -0.0407  0.0602
 7853SOL    HW135213   9.569   9.773   8.014  1.6906  2.5264  0.0616
 7853SOL    HW235214   9.592   9.776   7.852  0.8510  0.4190 -0.1114
 7854SOL     OW35215   8.824   7.656   6.590 -0.1093  1.0910  0.4300
 7854SOL    HW135216   8.786   7.611   6.671  0.9246 -0.8117 -0.0939
 7854SOL    HW235217   8.896   7.719   6.617 -0.9727  1.7997  1.1122
 7855SOL     OW35218   5.092   7.414   4.112  0.7033  0.4846 -0.3184
 7855SOL    HW135219   5.069   7.492   4.170  0.6091 -0.4942  0.9669
 7855SOL    HW235220   5.011   7.386   4.061 -0.0021 -0.5370  1.3324
 7856SOL     OW35221   3.809   1.894   2.769  0.4589  0.2937  0.4333
 7856SOL    HW135222   3.892   1.849   2.738 -0.3853  0.0343 -1.4917
 7856SOL    HW235223   3.822   1.993   2.765  0.6738  0.2550  0.1379
 7857SOL     OW35224   2.598   8.498   8.132  0.1494  0.1623 -0.4303
 7857SOL    HW135225   2.658   8.551   8.072 -0.6866 -0.0012 -1.4262
 7857SOL    HW235226   2.579   8.409   8.090  1.0200 -0.6834  0.9287
 7858SOL     OW35227   2.056   6.831   6.345  0.4325 -0.3201  0.7164
 7858SOL    HW135228   2.055   6.814   6.246  1.5896  0.5730  0.5369
 7858SOL    HW235229   2.072   6.744   6.393 -3.8587 -1.4303  0.3547
 7859SOL     OW35230   3.067   7.942   0.551 -0.0468  0.3214  0.0206
 7859SOL    HW135231   3.022   7.917   0.638  0.4998 -1.1457 -0.0959
 7859SOL    HW235232   3.158   7.900   0.548  0.7288  2.0298 -0.4070
 7860SOL     OW35233   2.802   1.050   3.141  0.5309  0.7857 -0.1506
 7860SOL    HW135234   2.816   1.115   3.215  0.6788  0.5825  0.0019
 7860SOL    HW235235   2.838   0.961   3.168  1.6755  1.0082 -0.9391
 7861SOL     OW35236   9.175   5.503   3.403 -0.0036 -0.6873 -0.2550
 7861SOL    HW135237   9.159   5.600   3.423  2.8149  0.1463 -1.6502
 7861SOL    HW235238   9.227   5.462   3.478  0.7439 -0.5045 -0.6616
 7862SOL     OW35239   1.654   7.789   0.496 -0.2548 -0.0494 -0.1922
 7862SOL    HW135240   1.736   7.836   0.529 -0.6018  0.5012 -0.1124
 7862SOL    HW235241   1.573   7.843   0.519 -0.7102 -1.0035  0.4656
 7863SOL     OW35242   1.418   1.182   4.712 -0.0189  0.5753  0.7423
 7863SOL    HW135243   1.400   1.211   4.618 -0.6416  0.9454  0.9744
 7863SOL    HW235244   1.364   1.100   4.732  1.4684 -0.5519  0.2008
 7864SOL     OW35245   8.420   1.615   6.718  0.1436 -0.1807 -0.1114
 7864SOL    HW135246   8.481   1.547   6.677 -0.2725 -1.0163  0.6303
 7864SOL    HW235247   8.389   1.582   6.807 -2.6703 -0.5111 -1.1773
 7865SOL     OW35248   5.166   9.463   4.821  0.4605  0.1152  0.9485
 7865SOL    HW135249   5.153   9.560   4.839 -1.4796  0.0670 -0.0243
 7865SOL    HW235250   5.154   9.410   4.905  1.8211  0.7163  1.5384
 7866SOL     OW35251   0.990   6.081   1.543 -0.4243  0.4716 -0.0220
 7866SOL    HW135252   0.958   6.103   1.634 -0.7333 -0.7304  0.1683
 7866SOL    HW235253   1.054   6.004   1.547 -0.2414  0.5689 -0.7874
 7867SOL     OW35254   9.029   1.874   5.878 -0.1091  0.4650  0.0679
 7867SOL    HW135255   8.962   1.891   5.950 -1.0291  0.1085 -0.7025
 7867SOL    HW235256   9.077   1.788   5.897 -0.6612  0.1445  0.0238
 7868SOL     OW35257   1.981   4.215   5.275  0.0675  0.3278 -0.5129
 7868SOL    HW135258   1.993   4.223   5.176 -1.4675  2.6217 -0.5360
 7868SOL    HW235259   1.910   4.146   5.294 -0.7319  0.9909 -1.0673
 7869SOL     OW35260   9.771   3.743   2.439  0.2629  0.1680 -0.2907
 7869SOL    HW135261   9.712   3.812   2.480  1.3151  1.3531 -0.7393
 7869SOL    HW235262   9.866   3.775   2.442  0.3813  0.2675 -3.5946
 7870SOL     OW35263   4.193   8.718   4.717  0.2109  0.3143 -0.1554
 7870SOL    HW135264   4.284   8.688   4.688  1.0279  1.9171  0.6980
 7870SOL    HW235265   4.202   8.790   4.786 -1.7080  0.0041  0.4362
 7871SOL     OW35266   3.684   0.666   5.775 -0.1460 -0.6097  0.1969
 7871SOL    HW135267   3.650   0.741   5.832  1.4935  0.2260  0.0982
 7871SOL    HW235268   3.722   0.702   5.690 -1.7295 -1.7832 -1.0318
 7872SOL     OW35269   2.029   8.001   3.221  0.2155 -0.1889  0.3874
 7872SOL    HW135270   2.015   8.069   3.148 -0.3538  0.0409  0.7088
 7872SOL    HW235271   2.026   7.909   3.182 -2.5685 -0.1670  0.5016
 7873SOL     OW35272   1.363   8.771   4.186  0.5253  0.0299  0.2878
 7873SOL    HW135273   1.307   8.813   4.114  1.0813 -0.0469 -0.1863
 7873SOL    HW235274   1.308   8.703   4.235  0.6559 -1.1430 -1.1796
 7874SOL     OW35275   0.637   8.712   2.195  0.7981 -0.6897  0.3823
 7874SOL    HW135276   0.590   8.752   2.274  0.3167  0.5038 -0.4808
 7874SOL    HW235277   0.724   8.672   2.224 -0.7701 -3.0267  2.0274
 7875SOL     OW35278   7.575   9.809   3.913 -0.5035  0.3612 -0.2656
 7875SOL    HW135279   7.637   9.796   3.836  0.3455 -0.7482  0.5769
 7875SOL    HW235280   7.511   9.732   3.917 -0.6810  0.5221  0.0063
 7876SOL     OW35281   3.115   2.097   3.934 -0.3574 -0.2526  0.4238
 7876SOL    HW135282   3.048   2.168   3.916 -0.6220 -0.3050  1.1704
 7876SOL    HW235283   3.207   2.133   3.921 -0.5447 -0.3616 -1.2412
 7877SOL     OW35284   7.891   8.928   3.850  0.4178  0.2879 -0.2057
 7877SOL    HW135285   7.894   9.006   3.912  0.7857  0.6626 -0.6847
 7877SOL    HW235286   7.947   8.854   3.886 -2.8717 -1.1795  2.1139
 7878SOL     OW35287   4.995   5.146   7.424  0.0808  0.6598  0.4906
 7878SOL    HW135288   5.084   5.151   7.378 -0.3490 -0.8729 -0.5309
 7878SOL    HW235289   4.946   5.065   7.393 -1.4542  1.1983  1.4667
 7879SOL     OW35290   5.241   3.354   1.154  0.5032 -0.9270 -0.4970
 7879SOL    HW135291   5.338   3.349   1.130  0.6130  1.4069 -0.7336
 7879SOL    HW235292   5.188   3.368   1.070  0.2217  0.2990 -0.1228
 7880SOL     OW35293   4.621   0.978   5.643 -0.2488  0.5282  0.7069
 7880SOL    HW135294   4.620   1.064   5.593  1.1589  0.7885  1.0890
 7880SOL    HW235295   4.617   0.902   5.579 -1.2750  0.8654  0.3561
 7881SOL     OW35296   9.548   8.609   0.765  0.6063  0.2839 -0.4401
 7881SOL    HW135297   9.478   8.668   0.725 -0.7926  0.2218  1.8132
 7881SOL    HW235298   9.533   8.514   0.737  0.5735  0.4512 -0.9973
 7882SOL     OW35299   7.688   0.938   4.245  0.2132 -0.0091  0.2290
 7882SOL    HW135300   7.746   0.895   4.176  0.2634  0.3617  0.0406
 7882SOL    HW235301   7.743   0.961   4.325  0.4908  1.0576 -0.2581
 7883SOL     OW35302   9.165   8.470   7.254 -0.5348 -0.4057 -0.2195
 7883SOL    HW135303   9.088   8.507   7.203 -0.2755 -0.9787 -1.0278
 7883SOL    HW235304   9.153   8.372   7.267  0.5637 -0.6821 -1.2598
 7884SOL     OW35305   1.705   8.511   2.147 -0.3618 -0.1290  0.2049
 7884SOL    HW135306   1.796   8.552   2.158  0.7833 -2.6260  0.3771
 7884SOL    HW235307   1.687   8.497   2.050 -2.3309  4.0994 -0.1396
 7885SOL     OW35308   5.446   9.884   1.788 -0.2109  0.8299 -0.2326
 7885SOL    HW135309   5.460   9.870   1.886 -0.5601 -0.3537 -0.3418
 7885SOL    HW235310   5.353   9.918   1.772 -1.1031 -1.5512 -0.3432
 7886SOL     OW35311   0.249   8.571   2.146 -0.4580 -0.3750  0.1377
 7886SOL    HW135312   0.247   8.473   2.129 -0.5185 -0.1477 -1.2090
 7886SOL    HW235313   0.312   8.591   2.221 -0.2734 -1.4229  0.2584
 7887SOL     OW35314   8.815   0.348   0.985 -0.1798  0.5697  0.1902
 7887SOL    HW135315   8.756   0.272   1.013  0.3215  0.6344  1.4431
 7887SOL    HW235316   8.768   0.435   1.002 -1.6058  0.5184 -3.1943
 7888SOL     OW35317   2.691   0.832   7.140 -0.0557 -0.0378 -0.3992
 7888SOL    HW135318   2.702   0.736   7.113  1.5636  0.5611 -1.9738
 7888SOL    HW235319   2.750   0.889   7.083  1.9266  1.5093  3.0732
 7889SOL     OW35320   2.202   7.705   0.079 -0.0284  0.1631  0.0635
 7889SOL    HW135321   2.253   7.642   0.137 -1.1221 -1.7131 -0.9651
 7889SOL    HW235322   2.217   7.683  -0.018 -0.9150  1.0758 -0.3053
 7890SOL     OW35323   6.670   4.515   7.757 -0.2913  0.1379 -0.7468
 7890SOL    HW135324   6.690   4.428   7.803  0.0977  1.1575  1.0690
 7890SOL    HW235325   6.742   4.581   7.778 -0.6300  0.9421 -2.0532
 7891SOL     OW35326   8.755   8.385   7.131  0.1676  0.0090 -0.0258
 7891SOL    HW135327   8.778   8.359   7.225 -1.4124  1.4568  0.7976
 7891SOL    HW235328   8.694   8.465   7.133  0.8791  0.6412 -2.3104
 7892SOL     OW35329   2.530   7.636   5.862 -0.0725 -0.1779 -0.1642
 7892SOL    HW135330   2.480   7.639   5.776  0.0500  0.5946 -0.2107
 7892SOL    HW235331   2.474   7.677   5.934 -0.4068 -1.3411  0.2420
 7893SOL     OW35332   3.451   9.558   6.915 -0.2046 -0.1226 -0.7403
 7893SOL    HW135333   3.432   9.587   6.822  0.5149 -0.4280 -0.9918
 7893SOL    HW235334   3.474   9.638   6.971 -0.7487  0.0729 -0.7967
 7894SOL     OW35335   2.357   5.629   4.113 -0.0405 -0.1551  0.2275
 7894SOL    HW135336   2.413   5.692   4.060  0.7156 -2.9256 -2.3867
 7894SOL    HW235337   2.279   5.678   4.152 -0.2983  2.1169 -2.9708
 7895SOL     OW35338   3.805   1.287   6.574  0.0972 -0.1543 -0.3252
 7895SOL    HW135339   3.888   1.240   6.604  0.3731 -0.9103 -2.1803
 7895SOL    HW235340   3.729   1.222   6.575 -0.8922  0.9504  2.9838
 7896SOL     OW35341   1.793   7.860   6.316 -0.0954  0.0727  0.0345
 7896SOL    HW135342   1.828   7.950   6.340 -0.6945  0.4099 -0.3693
 7896SOL    HW235343   1.864   7.791   6.334  0.6037  0.6988 -0.3096
 7897SOL     OW35344   1.011   5.774   0.101  0.3048  0.3181 -0.1445
 7897SOL    HW135345   0.911   5.774   0.093  0.2612 -0.5850  0.2429
 7897SOL    HW235346   1.039   5.839   0.171 -0.0169  0.5493 -0.2292
 7898SOL     OW35347   6.465   8.768   6.071 -0.3623  0.1292  0.7017
 7898SOL    HW135348   6.537   8.769   6.141  0.3276  1.1486 -0.0220
 7898SOL    HW235349   6.492   8.709   5.995  0.3507  1.6700 -0.2453
 7899SOL     OW35350   7.317   1.512   5.433  0.9135 -0.0258 -0.0608
 7899SOL    HW135351   7.302   1.413   5.441  0.7519 -0.1060 -1.2372
 7899SOL    HW235352   7.275   1.545   5.349  0.9840  1.0476  0.3211
 7900SOL     OW35353   2.054   3.109   1.079 -0.4641  0.2759 -0.3083
 7900SOL    HW135354   2.102   3.123   1.166 -0.9826 -1.4047  0.2620
 7900SOL    HW235355   2.098   3.164   1.008  0.4302  1.0861  0.8485
 7901SOL     OW35356   8.409   5.084   5.828  0.1780 -0.0936  0.3551
 7901SOL    HW135357   8.449   5.048   5.744  0.0414 -3.2632  1.5457
 7901SOL    HW235358   8.315   5.050   5.837 -0.4228  1.6640  0.9395
 7902SOL     OW35359   9.794   8.555   6.582 -0.7012  0.5555 -0.3310
 7902SOL    HW135360   9.853   8.620   6.630 -1.8685  1.5589 -0.2334
 7902SOL    HW235361   9.801   8.570   6.483 -0.4704  0.3795 -0.3431
 7903SOL     OW35362   9.080   9.337   6.757 -0.6301 -0.6134 -0.1960
 7903SOL    HW135363   9.170   9.362   6.723 -1.3069  0.8666 -0.9659
 7903SOL    HW235364   9.085   9.316   6.855  0.3743  0.4211 -0.0242
 7904SOL     OW35365   9.216   8.829   2.594  0.3240  0.3990  0.0074
 7904SOL    HW135366   9.228   8.774   2.512 -0.8329 -0.4535  0.3830
 7904SOL    HW235367   9.137   8.889   2.583 -0.6821 -0.7186  1.0024
 7905SOL     OW35368   6.595   4.681   0.467 -0.1330  0.0459 -0.4355
 7905SOL    HW135369   6.668   4.673   0.399  0.3506 -0.0987  0.1046
 7905SOL    HW235370   6.618   4.628   0.548 -1.1394 -0.5389 -0.5215
 7906SOL     OW35371   1.111   7.333   0.522 -0.3194  0.0860 -0.3577
 7906SOL    HW135372   1.082   7.240   0.500 -0.4452 -0.4091  1.8238
 7906SOL    HW235373   1.163   7.370   0.445  1.4949 -2.5281 -0.4584
 7907SOL     OW35374   8.952   5.912   2.061 -0.6271 -0.5529  0.1377
 7907SOL    HW135375   8.901   5.990   2.025 -2.7330 -2.4765 -1.2099
 7907SOL    HW235376   9.016   5.943   2.131 -2.1403  2.2368  0.3477
 7908SOL     OW35377   1.175   1.704   0.015 -0.3302 -0.1052 -0.7700
 7908SOL    HW135378   1.149   1.794   0.049  2.8468  0.2157  0.9280
 7908SOL    HW235379   1.153   1.635   0.083  2.6549  0.1096  0.4550
 7909SOL     OW35380   1.288   8.955   2.361 -0.0509 -0.1553 -0.1017
 7909SOL    HW135381   1.278   9.012   2.280 -0.1648  0.0057  0.0259
 7909SOL    HW235382   1.340   8.872   2.338  1.3905  0.6924  0.0346
 7910SOL     OW35383   6.002   8.690   6.366 -0.0504 -0.0515 -1.0313
 7910SOL    HW135384   6.081   8.747   6.344  1.2684 -1.5212 -0.2198
 7910SOL    HW235385   5.976   8.706   6.462 -2.6322  2.6206 -2.1077
 7911SOL     OW35386   2.359   5.234   3.252 -0.0522  0.7989  0.2910
 7911SOL    HW135387   2.366   5.162   3.321 -0.8761  0.1329 -0.3018
 7911SOL    HW235388   2.272   5.283   3.263 -0.5898  0.1055 -0.8193
 7912SOL     OW35389   9.460   0.852   6.415 -0.5441  0.3589  0.2127
 7912SOL    HW135390   9.509   0.911   6.352  0.8767  1.1825  2.0376
 7912SOL    HW235391   9.467   0.757   6.385  1.3025  0.5902 -0.1163
 7913SOL     OW35392   8.713   2.231   5.603  0.4406  0.4526  0.4671
 7913SOL    HW135393   8.811   2.249   5.604  0.5503 -0.1780  1.9854
 7913SOL    HW235394   8.696   2.133   5.596 -0.0239  0.3506  2.5403
 7914SOL     OW35395   9.553   2.622   6.809  0.0920 -0.2633 -0.3265
 7914SOL    HW135396   9.457   2.608   6.784  0.1337 -1.9337  0.3789
 7914SOL    HW235397   9.559   2.695   6.876 -0.5558  0.6804 -1.2813
 7915SOL     OW35398   4.707   4.831   0.055 -0.5056  0.8741 -0.7855
 7915SOL    HW135399   4.728   4.782   0.140 -0.0437  1.5646 -0.4992
 7915SOL    HW235400   4.779   4.813  -0.012 -0.7216  0.5615 -0.9351
 7916SOL     OW35401   0.522   4.919   3.730 -0.7722  0.3208 -0.6012
 7916SOL    HW135402   0.428   4.906   3.701 -1.2746 -0.6488  1.4419
 7916SOL    HW235403   0.528   4.997   3.793 -0.6041 -1.0415  1.1020
 7917SOL     OW35404   0.472   1.455   3.301  0.3978  0.2446 -0.2450
 7917SOL    HW135405   0.402   1.394   3.338  0.4926  0.2663 -0.0329
 7917SOL    HW235406   0.453   1.549   3.330  0.3860  0.2830 -0.3762
 7918SOL     OW35407   0.770   9.694   5.110 -0.1190 -0.6105  0.0621
 7918SOL    HW135408   0.833   9.737   5.174 -0.7098 -0.6224  0.6562
 7918SOL    HW235409   0.676   9.712   5.138 -0.4323  1.1465 -1.9393
 7919SOL     OW35410   0.482   5.870   4.722 -0.0350 -0.2299 -0.4421
 7919SOL    HW135411   0.453   5.915   4.638 -0.2299 -0.3596 -0.4445
 7919SOL    HW235412   0.434   5.912   4.800 -2.0166 -2.0140 -0.6688
 7920SOL     OW35413   3.631   2.597   7.683 -0.2093  0.0074  0.0535
 7920SOL    HW135414   3.702   2.543   7.727 -0.2466 -0.1509 -0.0818
 7920SOL    HW235415   3.590   2.658   7.751 -0.0251  0.0163  0.1582
 7921SOL     OW35416   9.952   0.520   2.600  0.4060  0.0692  0.8119
 7921SOL    HW135417   9.893   0.440   2.606  0.4408 -0.0966 -0.7222
 7921SOL    HW235418   9.938   0.578   2.680  0.2248 -1.3527  1.8345
 7922SOL     OW35419   0.850   8.479   2.127  0.1343 -0.6901 -0.1958
 7922SOL    HW135420   0.824   8.394   2.171  0.6737 -1.0697 -0.5945
 7922SOL    HW235421   0.868   8.463   2.029 -0.4408  0.0099 -0.4231
 7923SOL     OW35422   1.390   3.014   6.970 -0.3308  0.4505 -0.0646
 7923SOL    HW135423   1.323   2.951   6.929  0.4503  0.1833 -0.9579
 7923SOL    HW235424   1.346   3.102   6.987 -0.9914  0.1899 -0.3805
 7924SOL     OW35425   2.062   4.203   4.992  0.0658  0.0152  0.5052
 7924SOL    HW135426   2.104   4.122   4.952  0.4329  0.4749 -0.0521
 7924SOL    HW235427   1.964   4.203   4.973 -0.0953 -0.7688  1.3150
 7925SOL     OW35428   9.266   2.325   1.454 -0.5383 -0.5435 -0.4683
 7925SOL    HW135429   9.237   2.235   1.420  0.7029 -1.2253  0.2271
 7925SOL    HW235430   9.309   2.377   1.380 -0.2356 -0.9750 -0.5976
 7926SOL     OW35431   0.852   9.150   6.087 -0.0783  0.5133  0.5576
 7926SOL    HW135432   0.860   9.226   6.152 -1.1943  2.3893 -1.4229
 7926SOL    HW235433   0.802   9.181   6.006  0.0028 -2.1858 -0.5714
 7927SOL     OW35434   8.269   2.321   5.610 -0.3413  0.4277  0.3613
 7927SOL    HW135435   8.197   2.352   5.548  0.8686 -0.2650 -1.4428
 7927SOL    HW235436   8.308   2.236   5.575  0.6455  0.2512  1.8643
 7928SOL     OW35437   1.149   0.893   5.790  0.9757 -0.0923 -0.1553
 7928SOL    HW135438   1.194   0.853   5.870  1.3894  0.5694 -0.0549
 7928SOL    HW235439   1.050   0.878   5.797  0.9623  0.3966  0.7248
 7929SOL     OW35440   4.955   1.158   7.085 -0.2055  0.0274 -0.1591
 7929SOL    HW135441   4.952   1.233   7.019 -0.2295 -1.8667 -2.3369
 7929SOL    HW235442   4.864   1.143   7.123 -1.0290 -1.4740 -2.6738
 7930SOL     OW35443   1.796   1.099   2.034  0.8989 -0.9135 -0.4183
 7930SOL    HW135444   1.730   1.050   2.092  1.4171 -1.1926 -0.0631
 7930SOL    HW235445   1.783   1.071   1.939  0.2928 -0.7289 -0.3965
 7931SOL     OW35446   5.549   1.279   1.961  0.0423  0.3956  0.4210
 7931SOL    HW135447   5.552   1.379   1.968  1.0372  0.3067  1.3650
 7931SOL    HW235448   5.640   1.241   1.980 -0.0728 -0.6323 -0.9997
 7932SOL     OW35449   1.029   6.944   6.579 -0.5070  0.0300 -0.4460
 7932SOL    HW135450   1.125   6.927   6.603  0.1009  3.2981 -0.2773
 7932SOL    HW235451   1.025   6.991   6.491 -1.9153  0.3064 -0.2419
 7933SOL     OW35452   0.161   7.127   3.524  0.2015 -0.4005  1.0373
 7933SOL    HW135453   0.235   7.185   3.558 -0.6474 -0.0130  2.2614
 7933SOL    HW235454   0.113   7.085   3.602 -1.4552  0.0804  0.2987
 7934SOL     OW35455   3.529   2.034   5.160  0.4767 -0.2745 -0.0408
 7934SOL    HW135456   3.531   2.133   5.143 -0.3054 -0.6472 -2.5627
 7934SOL    HW235457   3.464   1.991   5.097  0.6752 -2.3806  1.1589
 7935SOL     OW35458   8.154   6.905   5.798 -0.4254  0.1249  0.2692
 7935SOL    HW135459   8.154   7.005   5.797 -0.0330  0.1230 -1.1334
 7935SOL    HW235460   8.109   6.871   5.716  0.8748 -0.8514 -0.0505
 7936SOL     OW35461   1.834   7.126   5.999 -0.0982  0.3241  0.1755
 7936SOL    HW135462   1.823   7.203   6.062 -2.8405  0.1657 -0.0593
 7936SOL    HW235463   1.873   7.048   6.048 -1.5182  0.4348  1.5163
 7937SOL     OW35464   2.147   5.473   6.605  0.5824 -0.4387 -0.7681
 7937SOL    HW135465   2.164   5.375   6.597 -0.1252 -0.6378  0.0530
 7937SOL    HW235466   2.096   5.492   6.689  0.6657  0.6293 -0.9397
 7938SOL     OW35467   5.499   8.249   3.854 -0.2159  0.2691 -0.1348
 7938SOL    HW135468   5.494   8.162   3.903  2.4238  0.5790  0.7332
 7938SOL    HW235469   5.418   8.305   3.876 -0.1240 -0.4667  2.1711
 7939SOL     OW35470   9.279   6.850   6.178 -0.4047 -0.2385 -0.4155
 7939SOL    HW135471   9.367   6.868   6.133 -0.3061 -0.3885 -0.2850
 7939SOL    HW235472   9.287   6.874   6.275 -0.5169 -0.2207 -0.4111
 7940SOL     OW35473   3.992   1.610   6.377 -0.6616  0.4173 -0.7528
 7940SOL    HW135474   4.030   1.540   6.318 -1.1039  0.7510 -1.4412
 7940SOL    HW235475   4.064   1.674   6.403 -0.2642 -0.2768 -0.1400
 7941SOL     OW35476   6.262   3.901   0.086  0.7565  0.3862 -0.4235
 7941SOL    HW135477   6.197   3.971   0.058  0.2768 -0.4524 -1.4310
 7941SOL    HW235478   6.348   3.914   0.036  0.3389 -0.3286 -1.3306
 7942SOL     OW35479   1.381   5.179   5.865 -0.0412  0.2585 -0.0530
 7942SOL    HW135480   1.289   5.162   5.899  0.4596 -1.0835  0.6813
 7942SOL    HW235481   1.385   5.269   5.823 -1.3378  0.8831  1.1195
 7943SOL     OW35482   7.259   9.393   7.571  0.6304  0.2361  0.3803
 7943SOL    HW135483   7.306   9.385   7.483  0.4484  1.3413  0.1812
 7943SOL    HW235484   7.231   9.488   7.585  0.1191 -0.0609  1.3547
 7944SOL     OW35485   3.819   8.202   0.249 -0.4791  0.2388  0.1328
 7944SOL    HW135486   3.811   8.254   0.163 -1.7975 -0.2652 -0.0658
 7944SOL    HW235487   3.742   8.225   0.308  0.0807  0.0902  0.9171
 7945SOL     OW35488   4.992   4.552   1.269  0.0037  0.2088 -0.0156
 7945SOL    HW135489   5.046   4.554   1.185 -0.6084  1.7166 -0.3950
 7945SOL    HW235490   4.963   4.645   1.292 -2.9318 -0.6156 -0.1581
 7946SOL     OW35491   6.919   6.640   6.360 -0.2985  0.2128  0.1289
 7946SOL    HW135492   6.974   6.595   6.290 -1.7121 -0.5087 -0.5412
 7946SOL    HW235493   6.880   6.571   6.421  0.7167  0.8183  1.4842
 7947SOL     OW35494   3.243   9.259   2.303 -0.2656  0.1963 -0.7866
 7947SOL    HW135495   3.246   9.340   2.243  0.8532  0.6882 -0.0688
 7947SOL    HW235496   3.225   9.288   2.397 -0.0116 -0.4175 -0.5512
 7948SOL     OW35497   6.136   7.607   3.065 -0.2889 -0.1132 -0.4216
 7948SOL    HW135498   6.228   7.578   3.036 -0.3257 -0.2685 -0.3877
 7948SOL    HW235499   6.095   7.664   2.994  0.0229  0.3510 -0.2259
 7949SOL     OW35500   7.885   4.831   8.042  0.5204 -0.1622  0.5523
 7949SOL    HW135501   7.980   4.851   8.018  0.2416 -0.0443 -0.4686
 7949SOL    HW235502   7.828   4.836   7.960 -0.4131  0.0232  1.2021
 7950SOL     OW35503   1.361   0.881   5.416  0.0612  0.0349  1.0917
 7950SOL    HW135504   1.383   0.843   5.326 -0.4681  1.9753  0.1146
 7950SOL    HW235505   1.340   0.978   5.406 -0.6468  0.1095  3.2291
 7951SOL     OW35506   6.134   0.458   4.440  0.5081  0.5771  0.1399
 7951SOL    HW135507   6.172   0.371   4.473 -1.1672  0.6179  2.3151
 7951SOL    HW235508   6.195   0.533   4.466  1.0184  0.2343 -0.0654
 7952SOL     OW35509   7.173   5.716   0.043  0.3159  0.2496 -0.5723
 7952SOL    HW135510   7.186   5.653  -0.033  0.1385 -1.0826  0.4743
 7952SOL    HW235511   7.076   5.740   0.050  0.1708 -0.4408 -0.1478
 7953SOL     OW35512   2.016   0.046   5.021  0.1608  0.2022 -0.0055
 7953SOL    HW135513   2.021   0.024   4.924 -0.2974  0.4088 -0.0770
 7953SOL    HW235514   1.960   0.128   5.034 -1.6301 -1.0769  0.6045
 7954SOL     OW35515   8.735   8.040   4.090  0.3833  0.3887  0.0280
 7954SOL    HW135516   8.736   8.118   4.028  0.1570  0.5495  0.2240
 7954SOL    HW235517   8.827   8.023   4.124  0.7564 -0.5670 -1.4323
 7955SOL     OW35518   3.007   4.354   7.757  0.5985  0.2692  0.4662
 7955SOL    HW135519   2.923   4.395   7.722 -0.1634 -2.0716 -0.5455
 7955SOL    HW235520   3.002   4.346   7.856 -0.2785  0.3176  0.4254
 7956SOL     OW35521   9.844   8.546   2.373 -0.1056 -0.3057 -0.3511
 7956SOL    HW135522   9.808   8.454   2.359  0.0670 -0.6595  1.4392
 7956SOL    HW235523   9.887   8.552   2.463 -0.4857  1.6468 -0.2705
 7957SOL     OW35524   1.271   2.188   2.854  0.9653  0.0168  0.1506
 7957SOL    HW135525   1.264   2.255   2.928  1.0964 -0.3518  0.5014
 7957SOL    HW235526   1.274   2.235   2.766  1.0443  0.4673  0.3944
 7958SOL     OW35527   7.920   5.413   1.576  0.6214 -0.2428 -0.0315
 7958SOL    HW135528   7.977   5.336   1.607 -0.6584 -2.1916 -2.3837
 7958SOL    HW235529   7.930   5.424   1.477 -1.1098  1.0813 -0.0759
 7959SOL     OW35530   8.954   6.773   2.092  0.3391  0.3040 -0.3533
 7959SOL    HW135531   8.941   6.756   2.190  1.0947 -0.5718 -0.4078
 7959SOL    HW235532   8.968   6.687   2.044 -0.5225  0.6858 -1.3192
 7960SOL     OW35533   1.593   7.028   6.058 -0.0981  0.4020 -0.6378
 7960SOL    HW135534   1.685   7.054   6.029  1.2170  0.0092  2.9609
 7960SOL    HW235535   1.590   7.022   6.158 -3.4032 -1.9244 -0.8029
 7961SOL     OW35536   2.869   4.822   0.280  0.5956  0.3340  0.0302
 7961SOL    HW135537   2.785   4.871   0.303 -1.3734 -2.8720  0.0622
 7961SOL    HW235538   2.913   4.790   0.363 -0.7753 -2.0934 -0.1388
 7962SOL     OW35539   0.714   8.341   3.613 -0.0683 -0.2700  0.1786
 7962SOL    HW135540   0.657   8.272   3.568 -2.0298  1.4364 -0.0122
 7962SOL    HW235541   0.656   8.413   3.650  1.8970  0.8331  1.1803
 7963SOL     OW35542   0.722   8.468   7.245  0.2150  0.1403  0.0272
 7963SOL    HW135543   0.789   8.432   7.309  1.6211  0.4384 -1.2575
 7963SOL    HW235544   0.630   8.461   7.285  1.1990  1.6605  2.6539
 7964SOL     OW35545   1.940   1.358   8.074 -0.3903 -0.5029  0.1155
 7964SOL    HW135546   1.899   1.309   8.151 -0.9632 -0.5323 -0.2056
 7964SOL    HW235547   1.892   1.445   8.061 -1.2689 -1.1667 -1.1431
 7965SOL     OW35548   2.285   1.149   0.612 -0.0735 -0.0294  0.3109
 7965SOL    HW135549   2.263   1.112   0.521 -1.3753  0.5325  0.3842
 7965SOL    HW235550   2.286   1.249   0.608 -0.4841  0.0065  0.9812
 7966SOL     OW35551   2.770   6.490   2.994 -0.4598 -0.4371 -0.2800
 7966SOL    HW135552   2.864   6.519   2.976 -0.9306  0.7281 -0.9664
 7966SOL    HW235553   2.741   6.524   3.083 -0.9331  1.0420 -0.9843
 7967SOL     OW35554   2.186   2.574   5.328  0.5244 -0.1866 -0.0860
 7967SOL    HW135555   2.088   2.579   5.345  0.5166 -0.6743  0.0402
 7967SOL    HW235556   2.203   2.510   5.253  0.8139 -0.9221  0.5903
 7968SOL     OW35557   4.379   7.180   0.666  0.3169 -0.1098 -0.1159
 7968SOL    HW135558   4.336   7.257   0.619  1.5538  0.2365 -0.6944
 7968SOL    HW235559   4.361   7.188   0.764 -1.1237 -0.1030 -0.3624
 7969SOL     OW35560   8.473   9.220   0.210 -0.1352  0.3318  0.1768
 7969SOL    HW135561   8.373   9.232   0.211 -0.0766  0.9642  2.4654
 7969SOL    HW235562   8.515   9.292   0.266  1.7340  0.9331 -1.9191
 7970SOL     OW35563   7.726   0.148   3.109  0.1969 -0.1975 -0.2021
 7970SOL    HW135564   7.636   0.116   3.079 -0.0008  0.1641  0.0088
 7970SOL    HW235565   7.725   0.163   3.208 -0.3213  2.4343 -0.5699
 7971SOL     OW35566   6.966   1.323   6.201  0.2496  0.0369 -0.8087
 7971SOL    HW135567   7.006   1.341   6.291 -0.1832  0.3152 -0.6705
 7971SOL    HW235568   6.977   1.404   6.143 -1.3434  0.6229 -0.3169
 7972SOL     OW35569   3.374   3.000   0.032 -0.4047  0.0761  0.3382
 7972SOL    HW135570   3.322   2.918   0.011 -0.1370  0.3122 -1.3068
 7972SOL    HW235571   3.462   2.974   0.073 -1.3858 -0.3459  2.2506
 7973SOL     OW35572   2.468   9.956   1.058 -0.6661  0.4540  0.0082
 7973SOL    HW135573   2.386   9.904   1.034  0.2950 -0.7966 -0.6320
 7973SOL    HW235574   2.442  10.048   1.088 -2.2937  0.0709 -0.1960
 7974SOL     OW35575   1.491   0.079   5.196  0.6494 -0.4204  0.0893
 7974SOL    HW135576   1.476   0.174   5.225 -0.3311 -0.6269  0.2988
 7974SOL    HW235577   1.423   0.020   5.240  3.1013 -1.6733  2.3124
 7975SOL     OW35578   2.847   3.799   7.459  0.4476 -0.2408  0.4422
 7975SOL    HW135579   2.853   3.701   7.481  1.3259 -0.5664 -1.1649
 7975SOL    HW235580   2.922   3.848   7.503 -0.0468 -0.2639  1.3268
 7976SOL     OW35581   5.810   1.222   5.974  1.1142 -0.5993  0.2698
 7976SOL    HW135582   5.748   1.273   5.914 -0.1403 -0.4653  1.6811
 7976SOL    HW235583   5.904   1.254   5.958  0.5533  0.9052 -0.1337
 7977SOL     OW35584   8.607   2.847   1.291 -0.3635  0.2801 -0.1615
 7977SOL    HW135585   8.526   2.890   1.250 -0.6618 -0.4470 -0.3533
 7977SOL    HW235586   8.689   2.898   1.264 -0.8998  2.0556  1.4438
 7978SOL     OW35587   5.730   9.757   6.325 -0.0177 -0.1881 -0.0341
 7978SOL    HW135588   5.709   9.665   6.294 -0.0099  0.3030 -1.5569
 7978SOL    HW235589   5.686   9.823   6.264  0.3369  0.8122  0.7826
 7979SOL     OW35590   1.798   2.448   0.042  0.0084 -0.3572  0.7702
 7979SOL    HW135591   1.821   2.376   0.106 -0.9884  0.4624  2.0821
 7979SOL    HW235592   1.751   2.522   0.090 -0.7444  0.2837 -0.8989
 7980SOL     OW35593   2.023   0.250   7.427  0.0612  0.2599  0.5655
 7980SOL    HW135594   2.013   0.245   7.527 -2.3302 -0.3559  0.3307
 7980SOL    HW235595   1.967   0.325   7.392 -2.1586 -1.9105 -0.6688
 7981SOL     OW35596   7.674   6.379   1.637 -0.3846 -0.0429 -0.4048
 7981SOL    HW135597   7.710   6.468   1.663  0.7975 -0.7266  0.3202
 7981SOL    HW235598   7.644   6.329   1.718 -0.2495 -0.6491 -0.7225
 7982SOL     OW35599   9.630   7.946   3.279  0.2755  0.0007 -0.7535
 7982SOL    HW135600   9.550   7.982   3.327  0.3264 -2.1458  1.0019
 7982SOL    HW235601   9.602   7.871   3.219  0.5735  1.1483 -2.3749
 7983SOL     OW35602   1.598   9.574   5.179  0.5047 -0.3607 -0.1569
 7983SOL    HW135603   1.651   9.609   5.257  0.6638 -1.7367  0.3688
 7983SOL    HW235604   1.635   9.486   5.152 -0.2192 -0.3650 -1.1296
 7984SOL     OW35605   3.062   6.595   2.759 -0.4290  0.7253  0.1434
 7984SOL    HW135606   3.036   6.514   2.707  0.7285  0.7038 -0.4140
 7984SOL    HW235607   3.042   6.580   2.856  0.2697 -0.4515  0.1191
 7985SOL     OW35608   3.336   0.834   3.224 -0.2280 -0.3409  0.2140
 7985SOL    HW135609   3.365   0.919   3.180 -0.5720  0.2495  1.1135
 7985SOL    HW235610   3.417   0.784   3.254 -0.0231 -0.3413 -0.3284
 7986SOL     OW35611   9.345   3.447   5.962 -0.2507 -0.5218  0.3025
 7986SOL    HW135612   9.391   3.362   5.937  0.0402 -0.3663  0.2995
 7986SOL    HW235613   9.391   3.487   6.042 -0.7305 -0.6522  0.6441
 7987SOL     OW35614   0.534   9.566   3.832 -0.6492 -0.0561  0.0024
 7987SOL    HW135615   0.622   9.599   3.799 -1.1739  0.6568 -0.6856
 7987SOL    HW235616   0.516   9.475   3.794  0.7169 -1.1023  1.7723
 7988SOL     OW35617   9.763   4.881   7.241  0.1708  0.0952  0.5837
 7988SOL    HW135618   9.781   4.979   7.251 -1.0275  0.2893  0.8882
 7988SOL    HW235619   9.748   4.840   7.331  0.5300 -0.3483  0.4485
 7989SOL     OW35620   8.784   0.668   1.636  0.3280 -0.3281 -0.2640
 7989SOL    HW135621   8.739   0.701   1.554  0.9154 -0.3824 -0.6087
 7989SOL    HW235622   8.723   0.681   1.715  0.0312  0.3417 -0.6004
 7990SOL     OW35623   0.733   2.959   0.201  0.0395  0.4103 -0.0778
 7990SOL    HW135624   0.719   3.047   0.156 -1.2940  0.6887  0.8574
 7990SOL    HW235625   0.769   2.893   0.135  2.2756  1.9786 -0.4946
 7991SOL     OW35626   6.608   0.708   1.275  0.5547  0.5810 -0.3580
 7991SOL    HW135627   6.688   0.731   1.220  1.4724  0.2423  0.8408
 7991SOL    HW235628   6.586   0.784   1.336  0.2491  0.4811 -0.3422
 7992SOL     OW35629   3.669   9.389   6.956 -0.1474  0.7993  0.4127
 7992SOL    HW135630   3.594   9.451   6.931 -1.6770 -1.0749  0.2145
 7992SOL    HW235631   3.699   9.410   7.049 -0.8388  1.6595  0.4531
 7993SOL     OW35632   9.294   0.755   0.948  0.1832 -0.0660 -0.1726
 7993SOL    HW135633   9.368   0.790   1.005 -0.7894  0.9830  0.4745
 7993SOL    HW235634   9.211   0.747   1.003 -0.8670  1.2848 -1.5033
 7994SOL     OW35635   3.138   1.892   4.789 -0.2221 -0.3560 -0.2723
 7994SOL    HW135636   3.148   1.945   4.705  0.1362  0.6204  0.3725
 7994SOL    HW235637   3.046   1.905   4.825 -0.0402  0.0831  0.0448
 7995SOL     OW35638   5.755   8.175   2.808 -0.0344 -0.0433  0.2049
 7995SOL    HW135639   5.657   8.187   2.791 -0.0937 -1.7344 -0.7941
 7995SOL    HW235640   5.806   8.212   2.731  0.0235 -0.8299 -0.1402
 7996SOL     OW35641   6.345   9.724   4.056 -0.1586  0.3339 -1.1916
 7996SOL    HW135642   6.440   9.723   4.087 -0.3672  0.7042 -0.5195
 7996SOL    HW235643   6.309   9.817   4.064 -0.4522  0.2767 -1.8349
 7997SOL     OW35644   2.532   2.024   5.016 -0.3204 -0.8068  0.3416
 7997SOL    HW135645   2.437   2.017   5.048 -1.8820 -0.1594 -3.7719
 7997SOL    HW235646   2.560   1.936   4.977 -0.4342 -0.0666 -1.4469
 7998SOL     OW35647   2.202   5.731   4.885  0.0245  0.1410 -0.2520
 7998SOL    HW135648   2.123   5.671   4.900 -0.6736  1.0536 -0.2249
 7998SOL    HW235649   2.267   5.687   4.823 -0.7744 -0.3862 -0.7170
 7999SOL     OW35650   2.922   9.500   7.098 -0.6698  0.0368  0.0428
 7999SOL    HW135651   2.843   9.477   7.155  0.6917 -1.4485  1.3930
 7999SOL    HW235652   2.947   9.420   7.043  0.8903 -0.0416  0.8488
 8000SOL     OW35653   2.298   7.977   7.959 -0.1666  0.1115 -0.2014
 8000SOL    HW135654   2.198   7.985   7.960 -0.4396 -2.8877  1.3074
 8000SOL    HW235655   2.336   8.023   8.039 -0.6706 -1.8748  1.2229
 8001SOL     OW35656   3.683   7.501   2.788  0.1612 -0.0969  0.2186
 8001SOL    HW135657   3.611   7.536   2.727 -1.8294 -2.9649  0.8417
 8001SOL    HW235658   3.672   7.543   2.878 -0.1496  0.1578  0.0671
 8002SOL     OW35659   1.920   0.204   6.433  0.4556 -0.0484  0.3982
 8002SOL    HW135660   1.994   0.166   6.378 -0.0364  0.6820 -0.7927
 8002SOL    HW235661   1.885   0.135   6.496 -0.4322 -1.5788 -1.7244
 8003SOL     OW35662   3.727   5.931   3.545 -0.7448  0.0020 -0.4271
 8003SOL    HW135663   3.744   5.856   3.481 -1.1231  1.2008 -1.9504
 8003SOL    HW235664   3.643   5.912   3.597 -1.7452  0.1324 -1.9743
 8004SOL     OW35665   0.890   7.887   1.367 -0.4633  0.0688  0.0585
 8004SOL    HW135666   0.810   7.872   1.426  0.6554 -0.6319  1.4050
 8004SOL    HW235667   0.900   7.985   1.350 -0.6471  0.3009  1.2449
 8005SOL     OW35668   6.634   3.206   0.077  0.3601  0.1907  0.1048
 8005SOL    HW135669   6.552   3.162   0.116  0.2552  1.1292  0.9552
 8005SOL    HW235670   6.612   3.244  -0.012 -0.0069  0.0180  0.1210
 8006SOL     OW35671   5.361   1.674   2.708 -0.8534 -0.0532  0.1209
 8006SOL    HW135672   5.361   1.670   2.608 -0.7329  0.6219  0.0907
 8006SOL    HW235673   5.449   1.640   2.742 -1.3276 -1.3837  0.0548
 8007SOL     OW35674   0.669   6.663   3.406 -0.7044  0.7093  0.1777
 8007SOL    HW135675   0.708   6.700   3.321 -0.1181  0.9800  0.5659
 8007SOL    HW235676   0.724   6.584   3.435 -0.5667  0.9683  0.6159
 8008SOL     OW35677   2.923   5.079   7.790 -0.1077 -0.5473 -0.2622
 8008SOL    HW135678   2.832   5.063   7.752  0.2419 -0.0569 -1.3301
 8008SOL    HW235679   2.986   5.106   7.716  0.5463  0.5622  0.6745
 8009SOL     OW35680   3.780   6.710   4.214  0.0390  0.3981 -0.0922
 8009SOL    HW135681   3.792   6.613   4.195 -1.0039  0.3953 -0.7441
 8009SOL    HW235682   3.685   6.736   4.197 -0.2662  1.0152  2.3444
 8010SOL     OW35683   4.932   4.786   7.560 -0.5681  0.1958 -0.2430
 8010SOL    HW135684   4.963   4.699   7.523 -1.8473 -0.4254  0.1280
 8010SOL    HW235685   4.907   4.847   7.484 -0.8134 -0.1888 -0.4734
 8011SOL     OW35686   7.102   0.021   2.769 -0.5408 -0.0339  0.0430
 8011SOL    HW135687   7.068   0.006   2.676  2.0174  0.2294 -0.9724
 8011SOL    HW235688   7.171  -0.048   2.791  1.0922  1.7407  0.5935
 8012SOL     OW35689   7.029   0.218   2.943  0.4049 -0.7561  0.0746
 8012SOL    HW135690   6.976   0.295   2.906  0.3607 -0.4619  0.7370
 8012SOL    HW235691   7.046   0.152   2.871  0.9378  0.1521 -0.6375
 8013SOL     OW35692   7.348   5.635   0.499  0.0788  0.0365  0.1853
 8013SOL    HW135693   7.366   5.588   0.413  0.7800  0.9949 -0.1903
 8013SOL    HW235694   7.312   5.726   0.481  1.2902  0.6694  0.8899
 8014SOL     OW35695   8.446   2.753   5.364 -0.1173  0.6278  0.7847
 8014SOL    HW135696   8.497   2.788   5.442  0.0923  0.5132  0.6956
 8014SOL    HW235697   8.466   2.809   5.283  1.0569 -0.3561  0.3795
 8015SOL     OW35698   1.654   6.820   4.405 -0.5063  0.2518  0.3182
 8015SOL    HW135699   1.640   6.850   4.499 -0.0076  0.9603  0.1717
 8015SOL    HW235700   1.715   6.885   4.358 -0.4609 -0.2916 -0.3810
 8016SOL     OW35701   1.764   5.791   0.889  0.6072 -0.2026  0.5645
 8016SOL    HW135702   1.815   5.840   0.817  1.4370  0.3521  1.5209
 8016SOL    HW235703   1.781   5.693   0.880 -0.8260 -0.3117 -1.1781
 8017SOL     OW35704   5.136   9.034   6.422  0.1739  0.0360  0.2564
 8017SOL    HW135705   5.225   9.060   6.384  0.2184 -1.3305 -0.6247
 8017SOL    HW235706   5.103   8.952   6.375 -3.0083  2.2890 -1.5777
 8018SOL     OW35707   2.629   8.344   7.335 -0.0309  0.2244  0.2623
 8018SOL    HW135708   2.568   8.393   7.272 -1.0696 -0.4227  0.7436
 8018SOL    HW235709   2.581   8.264   7.371  1.1445 -0.3357  0.5967
 8019SOL     OW35710   0.229   2.870   4.519 -0.1345 -0.1528 -0.2712
 8019SOL    HW135711   0.314   2.866   4.467 -0.2250 -0.1100 -0.4234
 8019SOL    HW235712   0.154   2.835   4.463 -0.3651  0.6088 -0.4361
 8020SOL     OW35713   2.352   8.862   2.350  0.2179  0.0803  0.6003
 8020SOL    HW135714   2.417   8.790   2.327  1.7366  1.7464 -0.4937
 8020SOL    HW235715   2.372   8.899   2.440  1.6706  1.4859 -0.2685
 8021SOL     OW35716   7.686   3.017   0.272 -0.0521  0.4863 -0.3247
 8021SOL    HW135717   7.629   3.017   0.354 -0.6756  1.6617 -0.7487
 8021SOL    HW235718   7.629   3.026   0.191  0.7363  1.9833 -0.7395
 8022SOL     OW35719   5.642   8.004   4.591 -0.0199 -0.7102  0.3015
 8022SOL    HW135720   5.546   8.018   4.616 -0.3133  0.2634 -1.3009
 8022SOL    HW235721   5.658   7.907   4.575 -0.9088 -0.8066 -0.0391
 8023SOL     OW35722   1.794   1.567   6.054 -0.0121 -0.2964 -0.2302
 8023SOL    HW135723   1.743   1.550   6.138 -2.5043  2.3142 -1.1316
 8023SOL    HW235724   1.839   1.656   6.060 -0.3798  0.0052 -1.7213
 8024SOL     OW35725   0.192   7.989   1.105 -0.2081 -0.1411  0.2794
 8024SOL    HW135726   0.105   8.037   1.117 -1.0446 -1.7877  0.9665
 8024SOL    HW235727   0.189   7.902   1.153  2.1292  0.1189  0.9634
 8025SOL     OW35728   0.337   1.856   0.054  0.0056  0.3300  0.4323
 8025SOL    HW135729   0.237   1.855   0.050 -0.0754  1.6172  1.6881
 8025SOL    HW235730   0.374   1.883  -0.035 -0.7765  0.1113  0.0421
 8026SOL     OW35731   8.041   9.515   8.192 -0.6602  0.4416  0.4657
 8026SOL    HW135732   7.989   9.462   8.126 -0.1330 -1.1118  1.2565
 8026SOL    HW235733   8.081   9.595   8.148  1.1114 -1.4745 -1.5144
 8027SOL     OW35734   3.589   4.594   2.556 -0.4971 -0.5765 -0.5494
 8027SOL    HW135735   3.491   4.604   2.538 -0.3096 -0.1055 -1.3377
 8027SOL    HW235736   3.637   4.575   2.470  0.2283  0.1877 -0.3247
 8028SOL     OW35737   6.271   8.644   5.812  0.1109  0.4545 -0.1206
 8028SOL    HW135738   6.283   8.716   5.744  1.8307  1.0652  0.7827
 8028SOL    HW235739   6.361   8.605   5.835 -0.6193 -0.8335  0.6247
 8029SOL     OW35740   2.473   0.415   1.811  0.2596  0.0290 -0.1140
 8029SOL    HW135741   2.420   0.359   1.875 -0.6741 -0.0564 -0.9534
 8029SOL    HW235742   2.563   0.432   1.850  0.8158 -2.6282 -0.1500
 8030SOL     OW35743   9.629   7.647   3.417  0.5015  0.5812  0.1596
 8030SOL    HW135744   9.618   7.662   3.319 -2.1443 -0.6068  0.2352
 8030SOL    HW235745   9.688   7.568   3.432  2.9157  2.2010 -0.3869
 8031SOL     OW35746   6.489   9.197   6.274 -0.4738 -0.0088  0.0916
 8031SOL    HW135747   6.521   9.149   6.356  0.4008  1.1033  0.3999
 8031SOL    HW235748   6.439   9.132   6.216  2.4802 -1.8375 -0.5002
 8032SOL     OW35749   0.557   4.830   6.200  0.3192  0.4112  0.1535
 8032SOL    HW135750   0.564   4.927   6.220 -1.2860  0.8146 -1.1595
 8032SOL    HW235751   0.483   4.790   6.253 -1.4777  0.7108 -2.0395
 8033SOL     OW35752   6.448   0.550   3.330  0.7891 -0.1685  0.4950
 8033SOL    HW135753   6.402   0.461   3.320 -0.4580  0.4382  0.7837
 8033SOL    HW235754   6.414   0.595   3.413  1.0139  0.8217  0.0531
 8034SOL     OW35755   8.739   3.823   3.106  0.4831 -0.2789  0.1886
 8034SOL    HW135756   8.801   3.894   3.140  0.0756  0.1999 -0.0580
 8034SOL    HW235757   8.758   3.736   3.153  1.0542 -0.0315  0.4147
 8035SOL     OW35758   4.406   5.195   6.272 -0.3604  0.3080  0.7421
 8035SOL    HW135759   4.415   5.103   6.233  0.3076  0.6041  0.1941
 8035SOL    HW235760   4.462   5.202   6.354 -0.7732  0.0839  1.0461
 8036SOL     OW35761   2.449   2.702   5.388 -0.2709 -0.2507  0.0449
 8036SOL    HW135762   2.522   2.654   5.436  0.8979 -0.1876 -1.6305
 8036SOL    HW235763   2.365   2.648   5.392  0.8531 -2.1521 -1.2759
 8037SOL     OW35764   0.552   0.492   1.800  0.5665  0.0586 -0.2442
 8037SOL    HW135765   0.608   0.409   1.806 -0.3381 -0.5392  0.0905
 8037SOL    HW235766   0.464   0.476   1.845  0.7350  1.5031  0.6246
 8038SOL     OW35767   9.321   4.249   7.804  0.0165  0.1601 -0.5814
 8038SOL    HW135768   9.325   4.240   7.704 -0.6852 -0.0010 -0.5975
 8038SOL    HW235769   9.252   4.186   7.840 -0.4198  0.9151 -0.0852
 8039SOL     OW35770   4.170   1.714   1.408  0.0186  0.4286  0.3733
 8039SOL    HW135771   4.234   1.678   1.477 -0.7575  1.2832  1.5623
 8039SOL    HW235772   4.130   1.638   1.357 -2.0040 -0.4866  3.2025
 8040SOL     OW35773   2.539   6.164   5.574 -0.1884  0.1571  0.3838
 8040SOL    HW135774   2.531   6.066   5.593  1.3534  0.1342  0.9549
 8040SOL    HW235775   2.635   6.190   5.568 -0.5346  1.8898  1.6188
 8041SOL     OW35776   8.177   7.167   1.304  0.5226 -0.1544 -0.3416
 8041SOL    HW135777   8.084   7.130   1.308  0.1321  0.7084 -1.3161
 8041SOL    HW235778   8.208   7.168   1.209 -0.1869  3.7300 -0.6155
 8042SOL     OW35779   9.585   9.882   1.051  0.2347  0.2139 -0.1272
 8042SOL    HW135780   9.651   9.808   1.064 -0.0200 -0.4267 -2.1943
 8042SOL    HW235781   9.497   9.856   1.089 -0.1940 -1.1020 -1.9411
 8043SOL     OW35782   8.622   0.758   8.108  0.1035  0.0883 -0.5038
 8043SOL    HW135783   8.676   0.838   8.136  3.7622 -2.1478 -0.7981
 8043SOL    HW235784   8.629   0.746   8.009 -0.0010 -0.8612 -0.3990
 8044SOL     OW35785   3.790   6.399   1.784 -0.0444 -0.3695  0.5568
 8044SOL    HW135786   3.763   6.394   1.688 -0.1010  0.8869  0.5092
 8044SOL    HW235787   3.776   6.309   1.826 -0.5737 -0.7745 -0.4490
 8045SOL     OW35788   8.523   8.301   5.511 -0.4029 -0.9000 -0.3552
 8045SOL    HW135789   8.436   8.293   5.558 -0.4340  0.4162 -0.1634
 8045SOL    HW235790   8.597   8.270   5.571 -0.4840  0.4053  0.4475
 8046SOL     OW35791   1.593   7.433   4.986  0.2845 -0.0166 -0.4003
 8046SOL    HW135792   1.574   7.509   4.924 -0.2777  0.6283  0.5513
 8046SOL    HW235793   1.691   7.413   4.986  0.2318 -0.3590 -1.8740
 8047SOL     OW35794   0.106   2.318   1.521  0.7490  0.1855  0.0356
 8047SOL    HW135795   0.105   2.219   1.530  2.6881  0.0645 -0.8582
 8047SOL    HW235796   0.156   2.358   1.598 -0.3675  0.5066  0.6041
 8048SOL     OW35797   4.308   7.290   5.083 -0.1396 -0.1303 -0.1805
 8048SOL    HW135798   4.273   7.199   5.103 -0.5668  0.3427  1.2934
 8048SOL    HW235799   4.288   7.314   4.988 -0.2566 -1.4622 -0.4938
 8049SOL     OW35800   0.927   2.705   1.306  0.0449 -0.2479  0.0604
 8049SOL    HW135801   0.859   2.633   1.289 -0.6379  0.5006 -0.4191
 8049SOL    HW235802   1.000   2.669   1.364 -0.5302 -1.1942  0.2078
 8050SOL     OW35803   5.397   2.024   0.208  0.0462 -0.6035 -0.1185
 8050SOL    HW135804   5.471   2.092   0.207  0.3690 -0.9665 -0.8154
 8050SOL    HW235805   5.349   2.030   0.296 -1.2586  1.9485 -0.9590
 8051SOL     OW35806   9.838   6.389   7.803 -0.4123  0.1310 -0.3328
 8051SOL    HW135807   9.750   6.431   7.826 -0.5088 -0.2959  0.0769
 8051SOL    HW235808   9.869   6.331   7.879  1.2718  1.9538  0.4094
 8052SOL     OW35809   8.086   6.133   8.128  0.0993  0.0446  0.0871
 8052SOL    HW135810   8.000   6.091   8.100 -0.3157  0.9805 -0.0694
 8052SOL    HW235811   8.090   6.136   8.228  0.8581 -1.8190  0.1363
 8053SOL     OW35812   4.894   0.313   6.503  0.0437 -0.1307  0.4956
 8053SOL    HW135813   4.951   0.372   6.446  0.4702 -0.2436  0.8056
 8053SOL    HW235814   4.874   0.359   6.589 -1.5352  0.5085 -0.1802
 8054SOL     OW35815   2.026   6.684   3.690  0.2760 -0.1513 -0.3268
 8054SOL    HW135816   1.952   6.747   3.667  1.3251  0.5533 -1.8070
 8054SOL    HW235817   2.018   6.601   3.635  0.1815 -0.3863  0.0362
 8055SOL     OW35818   4.231   8.276   1.748  0.2320  0.4184 -0.1495
 8055SOL    HW135819   4.191   8.184   1.745  0.2836  0.3911 -0.0450
 8055SOL    HW235820   4.173   8.335   1.804  1.5281 -0.2038  1.9202
 8056SOL     OW35821   3.542   7.314   3.047 -0.5079  0.4191  0.6716
 8056SOL    HW135822   3.480   7.306   2.970  0.2578 -1.3787  0.2034
 8056SOL    HW235823   3.591   7.401   3.043 -0.5588  0.3789 -0.7922
 8057SOL     OW35824   9.539   6.816   4.205  0.2306 -0.1328  0.9218
 8057SOL    HW135825   9.620   6.839   4.152  0.5509 -0.4172  1.2817
 8057SOL    HW235826   9.461   6.869   4.172 -0.0657 -1.8242 -1.1800
 8058SOL     OW35827   7.641   2.024   3.747 -0.0704 -0.1317  0.4783
 8058SOL    HW135828   7.570   2.033   3.816 -0.1575 -1.1775  0.5363
 8058SOL    HW235829   7.728   2.059   3.783 -0.2338 -0.1918  0.9325
 8059SOL     OW35830   9.530   6.746   3.433  0.1877  0.3810  0.7430
 8059SOL    HW135831   9.611   6.787   3.474  1.1176 -1.8833  1.2937
 8059SOL    HW235832   9.557   6.665   3.381 -1.8481 -1.1661  2.0069
 8060SOL     OW35833   3.772   5.757   1.628  0.8490 -0.6117 -0.0354
 8060SOL    HW135834   3.676   5.783   1.622  0.4929 -1.5783  1.2102
 8060SOL    HW235835   3.825   5.831   1.669  0.5544 -0.2585 -0.2983
 8061SOL     OW35836   0.716   7.229   3.705  0.4886 -0.4936 -0.2540
 8061SOL    HW135837   0.732   7.160   3.635  1.0668  0.5636 -1.1693
 8061SOL    HW235838   0.618   7.245   3.713  0.4230 -0.5508 -0.8899
 8062SOL     OW35839   3.106   2.136   6.879 -0.2572  0.1727  0.1613
 8062SOL    HW135840   3.067   2.118   6.789 -0.1929  1.1542 -0.0710
 8062SOL    HW235841   3.073   2.067   6.944 -0.6724 -0.2667 -0.5050
 8063SOL     OW35842   3.629   4.483   7.887 -0.0163 -0.1867 -0.8825
 8063SOL    HW135843   3.657   4.533   7.969  1.1726  0.8709 -1.9105
 8063SOL    HW235844   3.648   4.386   7.900  3.9121  0.4260 -1.3762
 8064SOL     OW35845   3.665   7.321   5.969  0.1792 -0.0345  0.1392
 8064SOL    HW135846   3.676   7.225   5.945  0.0209  0.0932 -0.4608
 8064SOL    HW235847   3.712   7.378   5.902  0.3802  0.3028  0.5652
 8065SOL     OW35848   7.065   0.180   7.450  0.2145  0.0982  0.2074
 8065SOL    HW135849   7.153   0.139   7.426 -0.2064 -0.7266  0.0565
 8065SOL    HW235850   6.991   0.116   7.427 -0.3390  0.2525  1.5193
 8066SOL     OW35851   0.526   5.178   3.828 -0.1850 -0.2985 -0.0246
 8066SOL    HW135852   0.583   5.252   3.791  0.5152 -0.3627  0.8877
 8066SOL    HW235853   0.432   5.211   3.839 -0.1905  0.0027 -0.9729
 8067SOL     OW35854   3.556   2.874   3.808  0.2127 -0.4645 -0.3118
 8067SOL    HW135855   3.507   2.887   3.894 -0.2276 -1.6199 -0.3821
 8067SOL    HW235856   3.502   2.911   3.733 -0.0815 -0.8127 -0.2705
 8068SOL     OW35857   3.024   6.989   2.154 -0.2822 -0.3818  0.0892
 8068SOL    HW135858   3.124   6.984   2.152 -0.3454 -1.0285 -1.4250
 8068SOL    HW235859   2.988   7.001   2.062 -1.6561 -0.9804  0.5270
 8069SOL     OW35860   7.479   3.088   3.882 -0.1212 -0.7574  0.1012
 8069SOL    HW135861   7.451   3.049   3.969 -1.0276 -1.3954 -0.4599
 8069SOL    HW235862   7.492   3.187   3.891  0.6986 -0.9520  1.1686
 8070SOL     OW35863   9.185   5.715   2.550 -0.2004 -0.2569 -0.3238
 8070SOL    HW135864   9.092   5.724   2.586 -0.1315  0.4892 -0.3392
 8070SOL    HW235865   9.189   5.756   2.459  0.2968  0.2368 -0.0765
 8071SOL     OW35866   3.389   1.710   7.090  0.3432  0.0648  0.5303
 8071SOL    HW135867   3.365   1.801   7.124 -0.4600  0.8368 -1.9693
 8071SOL    HW235868   3.487   1.706   7.070  0.1108  0.9319 -0.8631
 8072SOL     OW35869   1.745   4.811   0.942  0.9881 -0.2540 -0.4691
 8072SOL    HW135870   1.779   4.800   1.035 -0.7327 -0.1712  0.1884
 8072SOL    HW235871   1.719   4.721   0.906  1.2803 -0.2342 -0.7325
 8073SOL     OW35872   9.427   4.673   4.945  0.1246  0.4791  0.5159
 8073SOL    HW135873   9.374   4.617   5.009  1.6551 -0.6819  0.7857
 8073SOL    HW235874   9.520   4.638   4.940  1.0656  2.9001  0.5403
 8074SOL     OW35875   0.354   4.850   5.892 -0.1865 -0.0376  0.2191
 8074SOL    HW135876   0.438   4.796   5.894  1.5145  2.4303 -0.8241
 8074SOL    HW235877   0.347   4.897   5.803 -1.7051  1.2177  0.9793
 8075SOL     OW35878   2.954   6.463   0.527  0.2765 -0.1461  0.3057
 8075SOL    HW135879   2.897   6.498   0.601  0.6950  0.2084  0.4618
 8075SOL    HW235880   2.902   6.395   0.474  0.0905 -0.6419  1.1152
 8076SOL     OW35881   1.682   3.290   3.861  0.9276  0.2054  0.4596
 8076SOL    HW135882   1.780   3.312   3.854  0.7255  0.5413 -1.5946
 8076SOL    HW235883   1.670   3.191   3.849  1.0884  0.0067  1.7858
 8077SOL     OW35884   0.295   7.070   5.476  0.0768 -0.2297  0.5910
 8077SOL    HW135885   0.221   7.006   5.495 -1.6396  1.2527 -0.9680
 8077SOL    HW235886   0.358   7.029   5.409 -0.5669 -0.5985  0.2062
 8078SOL     OW35887   3.265   0.278   1.501  0.1802 -0.4666 -0.3650
 8078SOL    HW135888   3.178   0.244   1.536  0.4368 -0.5509  0.1885
 8078SOL    HW235889   3.248   0.351   1.435 -0.2887 -0.1854  0.0657
 8079SOL     OW35890   2.927   3.347   4.542 -0.7501  0.1103  0.0536
 8079SOL    HW135891   3.003   3.285   4.560 -1.9589 -1.0350  1.2826
 8079SOL    HW235892   2.954   3.413   4.472  1.5561  0.0761  0.8794
 8080SOL     OW35893   0.957   5.131   6.349  0.5236  0.1425  0.0989
 8080SOL    HW135894   0.923   5.213   6.303 -0.8071  0.2764  1.2829
 8080SOL    HW235895   1.049   5.109   6.315  1.2989  2.6754  0.4597
 8081SOL     OW35896   6.839   6.415   6.913  0.3191 -0.1475  0.3220
 8081SOL    HW135897   6.750   6.422   6.868  0.5957 -1.2547 -0.4183
 8081SOL    HW235898   6.892   6.497   6.896 -0.4746  0.4212  0.5775
 8082SOL     OW35899   3.156   3.923   4.285 -0.1235 -0.5408 -0.4638
 8082SOL    HW135900   3.232   3.863   4.309  0.4067  0.5285  0.5369
 8082SOL    HW235901   3.186   4.018   4.286 -1.2074 -0.1812 -1.1142
 8083SOL     OW35902   9.533   9.821   4.883  0.2817  0.1164 -0.3818
 8083SOL    HW135903   9.631   9.828   4.904  0.2409 -1.0777  0.2642
 8083SOL    HW235904   9.503   9.727   4.898 -1.0564  0.5742 -0.1789
 8084SOL     OW35905   1.947   1.541   7.723 -0.2082  0.0187 -0.3265
 8084SOL    HW135906   1.915   1.609   7.788 -0.3035 -0.4138  0.0861
 8084SOL    HW235907   2.047   1.539   7.723 -0.1103  2.4961 -2.7941
 8085SOL     OW35908   0.969   9.649   4.897  0.2664  0.0601 -0.0489
 8085SOL    HW135909   0.896   9.663   4.964  0.1096 -2.4765  0.3480
 8085SOL    HW235910   0.946   9.572   4.837  1.5815  0.6788 -1.4030
 8086SOL     OW35911   8.627   6.724   5.320 -0.7784  0.4020  0.0383
 8086SOL    HW135912   8.621   6.819   5.290  1.7220  1.1448  1.6675
 8086SOL    HW235913   8.695   6.717   5.394  1.2363 -3.1225 -2.0110
 8087SOL     OW35914   0.230   2.325   3.360 -0.2042 -0.5040  0.0021
 8087SOL    HW135915   0.261   2.293   3.450 -0.8961 -0.7652  0.1550
 8087SOL    HW235916   0.297   2.300   3.291  1.0470  0.9825  0.6490
 8088SOL     OW35917   3.963   8.140   2.449  0.1338 -0.0957  0.3412
 8088SOL    HW135918   3.953   8.100   2.541 -0.4970  1.4786  0.9665
 8088SOL    HW235919   3.943   8.238   2.452  2.3928  0.4386 -1.0576
 8089SOL     OW35920   9.241   5.594   0.018  0.4356  0.4177  0.6856
 8089SOL    HW135921   9.154   5.595  -0.031  1.3629  0.6863 -0.9845
 8089SOL    HW235922   9.225   5.568   0.113 -1.2154 -1.5216 -0.0863
 8090SOL     OW35923   3.011   3.783   5.550  0.0920 -0.5089  0.3905
 8090SOL    HW135924   2.968   3.864   5.510  2.8707  0.9303  0.1851
 8090SOL    HW235925   2.962   3.701   5.520 -1.1392  0.9074 -1.5949
 8091SOL     OW35926   1.953   3.566   7.482  0.2166  0.0871  0.8801
 8091SOL    HW135927   1.930   3.543   7.388 -1.1838 -1.3964  1.5398
 8091SOL    HW235928   2.010   3.648   7.485 -0.4016  0.5992 -1.1978
 8092SOL     OW35929   4.353   0.261   3.939  0.4760  0.3927  0.6802
 8092SOL    HW135930   4.439   0.214   3.919  0.1153 -0.0714  0.1955
 8092SOL    HW235931   4.277   0.207   3.902 -0.0303  0.7246  1.2362
 8093SOL     OW35932   6.595   1.192   4.492 -0.2334  0.0433  0.0814
 8093SOL    HW135933   6.553   1.165   4.578 -0.4003  0.9471  0.2892
 8093SOL    HW235934   6.525   1.197   4.421 -0.0588 -0.9275 -0.1681
 8094SOL     OW35935   1.918   6.872   0.246 -0.0673 -0.0701 -0.1783
 8094SOL    HW135936   1.864   6.798   0.285 -1.3654  0.4070 -1.0543
 8094SOL    HW235937   1.967   6.839   0.166  0.3793 -0.3091  0.1885
 8095SOL     OW35938   9.585   4.538   1.245 -0.0005 -0.0729 -0.4303
 8095SOL    HW135939   9.603   4.633   1.270  1.3138 -0.1115 -1.1921
 8095SOL    HW235940   9.492   4.514   1.272  0.0856  1.0406  0.9410
 8096SOL     OW35941   9.796   5.801   4.963  0.1006  0.1154 -0.2007
 8096SOL    HW135942   9.756   5.866   4.899  0.1381 -1.5521 -1.9605
 8096SOL    HW235943   9.779   5.831   5.057 -0.3694  2.3393 -0.9773
 8097SOL     OW35944   0.900   1.650   6.380 -0.2475 -0.2850 -0.4162
 8097SOL    HW135945   0.956   1.678   6.458  0.9742 -2.6714 -0.4028
 8097SOL    HW235946   0.955   1.654   6.296 -0.4486 -1.3377 -0.6014
 8098SOL     OW35947   3.207   7.872   8.085  0.1443  0.1354  0.0545
 8098SOL    HW135948   3.168   7.806   8.021  1.5327 -0.6759  0.0307
 8098SOL    HW235949   3.136   7.939   8.111 -0.5297  0.3027 -2.0750
 8099SOL     OW35950   3.239   4.054   6.084 -0.0202  0.3597 -0.5483
 8099SOL    HW135951   3.334   4.023   6.076 -0.2684 -0.6222  0.2474
 8099SOL    HW235952   3.183   4.007   6.015 -0.4463 -1.1966  0.8353
 8100SOL     OW35953   1.086   2.076   1.357 -0.4906  0.3906 -0.4304
 8100SOL    HW135954   1.044   2.106   1.443 -1.1018 -0.2297 -0.5107
 8100SOL    HW235955   1.017   2.036   1.298 -0.4907  2.8932 -2.1910
 8101SOL     OW35956   5.830   8.256   4.227 -0.0308 -0.0585  0.0336
 8101SOL    HW135957   5.806   8.284   4.319 -0.2601 -1.3400  0.3799
 8101SOL    HW235958   5.803   8.160   4.213  2.7547 -0.8437 -0.3441
 8102SOL     OW35959   1.519   1.315   3.686 -0.1084 -0.6750 -0.1213
 8102SOL    HW135960   1.527   1.217   3.666  0.4137 -0.7327  0.3733
 8102SOL    HW235961   1.585   1.366   3.631 -0.0267 -0.6499 -0.0002
 8103SOL     OW35962   1.666   5.820   5.716  0.4236 -0.2878 -0.3157
 8103SOL    HW135963   1.661   5.813   5.616 -1.9245  0.2024 -0.2644
 8103SOL    HW235964   1.671   5.916   5.743  0.5073 -0.3934  0.0535
 8104SOL     OW35965   5.243   8.348   5.697  0.0652 -0.1139 -0.1413
 8104SOL    HW135966   5.223   8.253   5.673  0.8484  0.1800 -1.9931
 8104SOL    HW235967   5.226   8.406   5.618 -0.8552  1.3731  1.1137
 8105SOL     OW35968   0.084   0.219   3.287  0.3296 -0.1793 -0.1689
 8105SOL    HW135969   0.111   0.309   3.321 -0.6080 -0.0617  0.3069
 8105SOL    HW235970   0.135   0.148   3.335 -0.5447  0.0172  1.0838
 8106SOL     OW35971   5.587   9.259   6.749 -0.1824  0.2373  0.5301
 8106SOL    HW135972   5.573   9.163   6.774 -0.3808  0.3687  0.9416
 8106SOL    HW235973   5.544   9.317   6.818 -0.3417  0.6185  0.1137
 8107SOL     OW35974   9.018   2.205   6.472 -0.4433  0.2482  0.1860
 8107SOL    HW135975   9.087   2.274   6.495 -0.6735  0.3011  0.7120
 8107SOL    HW235976   9.026   2.182   6.375  1.4614 -0.9929  0.5848
 8108SOL     OW35977   4.373   0.928   0.163  0.5283  0.1648 -0.0932
 8108SOL    HW135978   4.446   0.947   0.098  0.5857 -0.4134 -0.1946
 8108SOL    HW235979   4.406   0.944   0.256  1.1743 -1.3283 -0.0565
 8109SOL     OW35980   1.246   4.080   6.176 -0.0119  0.4513 -0.4301
 8109SOL    HW135981   1.147   4.072   6.182 -0.3267  2.8251 -1.6499
 8109SOL    HW235982   1.283   4.109   6.265 -0.5240  0.3896 -0.1999
 8110SOL     OW35983   5.183   7.605   2.422 -0.1292 -0.3505 -0.1285
 8110SOL    HW135984   5.107   7.640   2.477  1.1940  0.2924  1.3016
 8110SOL    HW235985   5.182   7.505   2.425 -1.5922 -0.3839 -1.0626
 8111SOL     OW35986   3.709   1.432   5.439 -0.0555 -0.0691 -0.7537
 8111SOL    HW135987   3.682   1.504   5.503 -0.8191 -0.4046 -0.6994
 8111SOL    HW235988   3.756   1.474   5.361 -0.5944  0.4970 -0.7775
 8112SOL     OW35989   0.624   2.630   1.464 -0.3658 -0.4520 -0.3248
 8112SOL    HW135990   0.676   2.716   1.465  0.2802 -0.8423  0.1738
 8112SOL    HW235991   0.681   2.557   1.501  0.2249 -1.7393 -3.5531
 8113SOL     OW35992   7.029   0.090   4.443  0.3720  0.1810 -0.0014
 8113SOL    HW135993   7.076   0.147   4.511 -0.7079  1.4083 -0.2533
 8113SOL    HW235994   7.064   0.111   4.352 -0.4840  0.9478 -0.1667
 8114SOL     OW35995   3.698   6.213   4.250 -0.0001  0.1203 -0.1539
 8114SOL    HW135996   3.775   6.245   4.195 -0.0090 -0.3910 -0.4776
 8114SOL    HW235997   3.627   6.175   4.189 -0.8378  1.2722  0.0871
 8115SOL     OW35998   7.950   1.238   3.088 -0.4151  0.1023  0.0690
 8115SOL    HW135999   7.950   1.144   3.122 -0.6460  0.2376  0.4468
 8115SOL    HW236000   8.003   1.243   3.003  1.1354 -0.0229  1.0044
 8116SOL     OW36001   8.255   7.934   4.432 -0.1706 -0.4171  0.2521
 8116SOL    HW136002   8.273   7.845   4.473 -1.5643 -1.1296 -0.6223
 8116SOL    HW236003   8.251   7.925   4.332 -0.0541  0.6713  0.1418
 8117SOL     OW36004   6.180   3.406   8.084  0.0846  0.2857 -0.6898
 8117SOL    HW136005   6.090   3.411   8.042 -0.0503 -0.1311 -0.4512
 8117SOL    HW236006   6.172   3.364   8.175  0.0543  2.9607  0.6125
 8118SOL     OW36007   7.174   4.691   0.719 -0.5508  0.7271 -0.7844
 8118SOL    HW136008   7.185   4.791   0.719  1.2618  0.5523  1.9140
 8118SOL    HW236009   7.152   4.660   0.811  1.5150 -1.6515 -1.0608
 8119SOL     OW36010   4.279   4.118   7.756 -0.2444 -0.0002  0.6594
 8119SOL    HW136011   4.268   4.193   7.692 -1.2242  0.1987  1.0584
 8119SOL    HW236012   4.259   4.150   7.849  1.1490 -0.2822  1.0830
 8120SOL     OW36013   2.356   2.014   3.135 -0.7171  0.2899 -0.0936
 8120SOL    HW136014   2.403   1.962   3.063 -1.1584 -0.9398  0.4947
 8120SOL    HW236015   2.258   1.996   3.130 -0.8039  0.6002  0.4897
 8121SOL     OW36016   1.826   1.075   4.651 -0.4732 -0.6258  0.0542
 8121SOL    HW136017   1.774   1.153   4.684 -3.5262 -0.8326 -3.9670
 8121SOL    HW236018   1.812   0.998   4.714 -0.7883  0.8130  1.8034
 8122SOL     OW36019   1.830   5.157   2.307  0.0099  0.2144 -0.2121
 8122SOL    HW136020   1.744   5.145   2.258  0.3271 -0.0755 -0.7020
 8122SOL    HW236021   1.836   5.251   2.341 -0.6888  0.1145  0.1902
 8123SOL     OW36022   7.926   4.050   4.878  0.3130 -0.2246  0.6741
 8123SOL    HW136023   7.947   4.123   4.943  0.3427 -0.2400  0.6816
 8123SOL    HW236024   7.952   4.079   4.786  1.2902 -0.6264  0.8182
 8124SOL     OW36025   4.956   5.306   3.563 -0.4005  0.4959 -0.5878
 8124SOL    HW136026   4.869   5.334   3.522 -1.7271 -1.4876  0.7719
 8124SOL    HW236027   4.938   5.241   3.637  2.3032 -0.7917 -1.0071
 8125SOL     OW36028   3.809   7.385   5.337  0.5583 -0.5956 -0.5587
 8125SOL    HW136029   3.858   7.464   5.374 -0.2025 -0.8873  1.1425
 8125SOL    HW236030   3.712   7.407   5.332  0.7189 -0.3708 -2.9614
 8126SOL     OW36031   5.091   5.627   0.344 -0.7882 -0.7422 -0.1073
 8126SOL    HW136032   5.141   5.709   0.317  0.7184 -1.2834  1.0182
 8126SOL    HW236033   5.065   5.634   0.440 -1.3301 -1.2576 -0.2103
 8127SOL     OW36034   2.341   1.769   8.079 -0.0070  0.0638  0.9627
 8127SOL    HW136035   2.248   1.734   8.081 -0.1787  0.5115  0.9345
 8127SOL    HW236036   2.406   1.693   8.082 -0.3765 -0.2801  0.2870
 8128SOL     OW36037   7.693   2.997   3.528  0.0331 -0.1435  0.2512
 8128SOL    HW136038   7.741   3.082   3.505 -0.7588  0.5589  1.1540
 8128SOL    HW236039   7.746   2.946   3.595 -0.3380  0.4868  1.0233
 8129SOL     OW36040   7.351   8.434   6.366  0.0969  0.4364 -0.4064
 8129SOL    HW136041   7.274   8.423   6.429  0.0263 -1.6670 -0.8093
 8129SOL    HW236042   7.433   8.395   6.408  0.4085  0.5030 -0.9550
 8130SOL     OW36043   6.600   4.209   1.074  0.5824 -0.0120 -0.2603
 8130SOL    HW136044   6.516   4.166   1.040  0.6338  0.9485 -1.6553
 8130SOL    HW236045   6.578   4.264   1.155  0.1190 -0.8889  0.2076
 8131SOL     OW36046   9.177   8.320   1.070 -0.3716  0.3807 -0.1578
 8131SOL    HW136047   9.142   8.407   1.035 -0.9312  0.6730  1.0924
 8131SOL    HW236048   9.273   8.330   1.096 -0.5745  0.7740  0.4559
 8132SOL     OW36049   3.734   5.130   4.145 -0.8425  0.0984  0.0466
 8132SOL    HW136050   3.796   5.208   4.138  0.4765 -0.8785  0.7318
 8132SOL    HW236051   3.732   5.097   4.239 -1.1828 -0.8642 -0.2919
 8133SOL     OW36052   6.490   0.970   5.407 -0.2301 -0.1966  0.5374
 8133SOL    HW136053   6.562   0.996   5.344  0.4105  0.5066  1.5372
 8133SOL    HW236054   6.401   0.998   5.369  0.0590 -0.6285 -0.4678
 8134SOL     OW36055   6.711   2.497   5.156 -0.4397  0.0778 -0.1099
 8134SOL    HW136056   6.627   2.476   5.106 -1.0142  2.1318 -0.0623
 8134SOL    HW236057   6.775   2.544   5.095  0.4719 -1.0157 -0.0038
 8135SOL     OW36058   7.580   3.121   2.138 -0.2940 -0.1285 -0.0426
 8135SOL    HW136059   7.523   3.040   2.150 -0.9047  0.2766 -0.1642
 8135SOL    HW236060   7.551   3.192   2.203 -0.7590  0.5225 -0.9470
 8136SOL     OW36061   8.269   7.191   2.967  0.6385 -0.4371 -0.3575
 8136SOL    HW136062   8.235   7.217   3.058  0.2488 -1.8933 -0.0749
 8136SOL    HW236063   8.346   7.130   2.977 -0.9097 -2.5429 -0.9934
 8137SOL     OW36064   0.051   9.987   7.865  0.3744 -0.4733 -0.2823
 8137SOL    HW136065   0.140   9.996   7.909  0.0965 -2.3465  0.7207
 8137SOL    HW236066  -0.010   9.934   7.924 -0.7445 -1.0130 -1.8782
 8138SOL     OW36067   2.663   1.268   0.408  0.3588  0.1758 -0.3069
 8138SOL    HW136068   2.584   1.326   0.387  1.4452  0.9819 -2.3351
 8138SOL    HW236069   2.663   1.190   0.345  1.7640  0.7670 -1.0564
 8139SOL     OW36070   8.470   0.353   6.569  0.3871 -0.5825 -1.1134
 8139SOL    HW136071   8.378   0.388   6.584  1.2462  1.1992  0.2055
 8139SOL    HW236072   8.480   0.264   6.613  0.1979  0.5930  1.3733
 8140SOL     OW36073   7.931   6.792   4.557  0.7341 -0.0838  0.2977
 8140SOL    HW136074   7.890   6.721   4.614  0.2624 -1.3689 -1.5725
 8140SOL    HW236075   8.025   6.767   4.534  0.4829 -0.2332 -0.5788
 8141SOL     OW36076   3.335   3.497   6.290 -0.3425 -0.7816  0.2677
 8141SOL    HW136077   3.259   3.554   6.322 -0.0503 -0.9518  1.3052
 8141SOL    HW236078   3.330   3.486   6.191 -1.1437 -0.0307  0.2205
 8142SOL     OW36079   4.090   4.730   0.117 -0.7407  0.1738  0.2195
 8142SOL    HW136080   4.064   4.820   0.082  0.4941  0.2184 -0.6267
 8142SOL    HW236081   4.152   4.741   0.194 -1.1744  0.0464  0.5902
 8143SOL     OW36082   9.045   8.423   2.348  0.1417 -0.0666  0.6659
 8143SOL    HW136083   9.052   8.372   2.434  2.4888 -3.1353 -1.2383
 8143SOL    HW236084   9.117   8.492   2.345 -0.9876  1.1785  1.8551
 8144SOL     OW36085   7.601   2.012   2.406  0.1993  0.3178  0.5230
 8144SOL    HW136086   7.558   1.976   2.489  1.2970 -2.8664 -0.2201
 8144SOL    HW236087   7.696   2.037   2.425 -0.3548  2.2584  0.8620
 8145SOL     OW36088   9.113   4.028   7.859 -0.2291  0.4377  0.1253
 8145SOL    HW136089   9.049   4.041   7.935 -1.5417 -2.2089 -0.4616
 8145SOL    HW236090   9.184   3.963   7.886  1.2931  2.0966  0.2026
 8146SOL     OW36091   9.356   5.314   2.201  0.2959 -0.0743 -0.3325
 8146SOL    HW136092   9.397   5.401   2.230 -0.1091 -0.1000  0.3261
 8146SOL    HW236093   9.382   5.242   2.265 -0.2883 -0.2064 -0.2362
 8147SOL     OW36094   1.988   4.013   7.664 -0.2769 -0.1829 -0.6409
 8147SOL    HW136095   1.905   4.063   7.690 -0.9590 -1.7748  0.3358
 8147SOL    HW236096   2.066   4.076   7.664 -1.2540  1.0584 -0.2651
 8148SOL     OW36097   9.719   9.844   2.632  0.1728  0.1711 -0.0332
 8148SOL    HW136098   9.795   9.778   2.632  1.2430  1.3592 -1.4728
 8148SOL    HW236099   9.650   9.815   2.698  0.7008 -2.2802 -0.4992
 8149SOL     OW36100   4.440   0.022   5.607  0.1328  0.4729  0.1037
 8149SOL    HW136101   4.426   0.044   5.704 -0.7885 -0.1442  0.1190
 8149SOL    HW236102   4.431   0.105   5.553 -0.1869  0.6776  0.4653
 8150SOL     OW36103   4.101   0.078   1.487  0.3794 -0.6607  0.3360
 8150SOL    HW136104   4.049   0.073   1.572  0.4088 -3.2391  0.2233
 8150SOL    HW236105   4.038   0.080   1.409  0.3547  1.6054  0.3742
 8151SOL     OW36106   1.837   5.243   1.144 -0.3058  0.0124 -0.3086
 8151SOL    HW136107   1.920   5.198   1.112  0.5582  0.1499  1.6197
 8151SOL    HW236108   1.759   5.215   1.088  0.2664 -3.6542  0.5822
 8152SOL     OW36109   0.888   9.748   0.727 -0.4126 -1.0184  0.3353
 8152SOL    HW136110   0.905   9.654   0.696  1.1216 -0.3758 -0.8993
 8152SOL    HW236111   0.893   9.809   0.648 -0.1754  0.2325  1.3118
 8153SOL     OW36112   4.935   5.113   0.672  0.0427  0.6898 -0.4706
 8153SOL    HW136113   4.897   5.071   0.755  1.8809  1.3812  0.7544
 8153SOL    HW236114   5.030   5.084   0.660  1.1258  3.8161 -0.0031
 8154SOL     OW36115   9.413   1.926   7.822  0.1352 -0.2763 -0.8002
 8154SOL    HW136116   9.416   1.978   7.736 -1.9613 -0.5967 -1.0805
 8154SOL    HW236117   9.452   1.835   7.806  0.4636 -0.0651 -1.2189
 8155SOL     OW36118   7.326   8.558   3.328  0.6004  0.0142  0.1058
 8155SOL    HW136119   7.300   8.637   3.384 -0.0610 -1.2049  1.5508
 8155SOL    HW236120   7.264   8.551   3.250  1.4741  1.6745 -0.7662
 8156SOL     OW36121   4.548   1.418   3.036  0.6671  0.1240 -0.4589
 8156SOL    HW136122   4.514   1.503   3.077  0.1603 -0.5943  0.6504
 8156SOL    HW236123   4.641   1.401   3.067  1.0822  0.7004 -1.3581
 8157SOL     OW36124   5.529   8.481   3.078 -0.5885  0.0914  0.4117
 8157SOL    HW136125   5.453   8.489   3.143  0.8738 -0.5301  2.2619
 8157SOL    HW236126   5.509   8.410   3.011 -1.6511 -0.0443  0.8623
 8158SOL     OW36127   9.612   5.914   5.166 -0.2039 -0.3540 -0.0074
 8158SOL    HW136128   9.646   6.007   5.181 -0.8731 -0.1201  0.0361
 8158SOL    HW236129   9.667   5.851   5.221 -0.8353  0.2024  1.2890
 8159SOL     OW36130   2.145   0.571   8.081  0.2348 -0.1707  0.1951
 8159SOL    HW136131   2.054   0.544   8.049 -0.6675  1.2447  1.5239
 8159SOL    HW236132   2.159   0.539   8.175  1.1905 -0.5111 -0.0470
 8160SOL     OW36133   6.115   8.472   5.092  0.7122 -0.2487 -0.2176
 8160SOL    HW136134   6.146   8.561   5.125  0.2793  0.2552 -1.1672
 8160SOL    HW236135   6.020   8.479   5.061  1.4700 -0.4112 -2.6759
 8161SOL     OW36136   9.893   5.174   0.293 -0.1970 -0.5381  0.1754
 8161SOL    HW136137   9.936   5.108   0.353 -1.3837 -1.0548  0.4756
 8161SOL    HW236138   9.871   5.130   0.206  1.4274  0.1815 -0.6150
 8162SOL     OW36139   8.061   8.583   5.187  0.0974 -0.1830  0.6874
 8162SOL    HW136140   8.030   8.545   5.275  0.5445  0.5088  1.1404
 8162SOL    HW236141   7.983   8.587   5.124 -0.1320 -1.0979  0.8943
 8163SOL     OW36142   6.270   0.458   3.608 -0.0804  0.2984  0.1888
 8163SOL    HW136143   6.255   0.553   3.635  0.2741  0.3159  0.3215
 8163SOL    HW236144   6.235   0.397   3.680  1.5879  0.3522  1.0797
 8164SOL     OW36145   9.773   7.401   2.400  0.3204  0.6879 -0.3360
 8164SOL    HW136146   9.820   7.478   2.441 -1.3917  1.0462  1.0093
 8164SOL    HW236147   9.700   7.370   2.460 -1.7954  0.7675 -2.7577
 8165SOL     OW36148   3.508   0.275   5.087  0.1490  0.4719 -0.3226
 8165SOL    HW136149   3.555   0.200   5.133 -0.3560 -0.7547 -1.7604
 8165SOL    HW236150   3.564   0.358   5.091  0.3429  0.2545  1.9969
 8166SOL     OW36151   9.320   9.362   1.351 -0.4876 -0.3432 -0.8114
 8166SOL    HW136152   9.299   9.354   1.253 -3.5084  0.5817 -0.3065
 8166SOL    HW236153   9.235   9.355   1.404  1.1943 -1.5202  1.8082
 8167SOL     OW36154   8.729   3.520   6.443  0.2729  0.2624  0.0094
 8167SOL    HW136155   8.639   3.507   6.401  0.2883  0.4881 -0.0959
 8167SOL    HW236156   8.759   3.614   6.429  2.3338 -0.8127 -3.6044
 8168SOL     OW36157   3.178   8.869   7.813 -0.5005 -0.3058 -0.1379
 8168SOL    HW136158   3.087   8.893   7.779  0.3561 -0.1469 -2.4441
 8168SOL    HW236159   3.191   8.907   7.904 -1.9019  1.6845 -0.7252
 8169SOL     OW36160   5.427   8.389   3.602 -0.4573  0.2250 -0.1289
 8169SOL    HW136161   5.511   8.382   3.549 -1.2213  1.4574 -1.5410
 8169SOL    HW236162   5.429   8.322   3.676  1.1703 -0.6757 -0.9535
 8170SOL     OW36163   7.648   6.327   5.633  0.0300  0.1762  0.2182
 8170SOL    HW136164   7.707   6.274   5.572 -1.6161 -3.2211  1.4504
 8170SOL    HW236165   7.702   6.361   5.710  0.7624 -1.3020  0.3692
 8171SOL     OW36166   9.742   1.034   4.922 -0.3280 -0.0469 -0.1565
 8171SOL    HW136167   9.731   0.942   4.960  0.2877  0.2361  0.7293
 8171SOL    HW236168   9.694   1.040   4.835  1.0437 -1.7397 -1.0703
 8172SOL     OW36169   3.600   3.526   6.082 -0.5647  0.1186  0.2220
 8172SOL    HW136170   3.594   3.620   6.113 -1.1837 -0.5019  2.0704
 8172SOL    HW236171   3.683   3.484   6.118 -1.1700 -0.5477  0.8547
 8173SOL     OW36172   8.270   7.044   0.129 -0.3300 -0.7872  0.1437
 8173SOL    HW136173   8.201   7.095   0.180  1.6623 -0.8190  2.9899
 8173SOL    HW236174   8.284   6.955   0.172 -0.7883 -2.1011 -2.3301
 8174SOL     OW36175   0.402   8.208   5.076  0.0667  0.3292  0.1329
 8174SOL    HW136176   0.308   8.174   5.066 -0.4821  0.8051  3.0803
 8174SOL    HW236177   0.433   8.247   4.989 -2.7298  0.8293 -0.7023
 8175SOL     OW36178   4.745   7.873   7.209 -0.3770  0.2678  0.5204
 8175SOL    HW136179   4.703   7.800   7.263 -0.7024  1.3629  1.7773
 8175SOL    HW236180   4.747   7.957   7.263  1.0593  0.8989 -0.4817
 8176SOL     OW36181   3.325   4.157   3.145  0.3171 -0.5893  0.0562
 8176SOL    HW136182   3.365   4.080   3.094  1.1138  0.0313 -0.2475
 8176SOL    HW236183   3.225   4.145   3.148  0.4208 -1.5616 -0.1195
 8177SOL     OW36184   9.121   2.955   1.397 -0.5977  0.2816  0.1866
 8177SOL    HW136185   9.074   2.886   1.341 -1.5562  0.3878  0.8480
 8177SOL    HW236186   9.102   2.938   1.494  3.3928 -1.6780  0.7466
 8178SOL     OW36187   9.774   0.255   0.987 -0.7556  0.0554  0.0925
 8178SOL    HW136188   9.774   0.283   0.890 -1.9516 -0.8734 -0.1766
 8178SOL    HW236189   9.811   0.162   0.994 -0.3587  0.2515  0.5662
 8179SOL     OW36190   8.711   1.375   1.371 -0.1640  0.1980 -0.1392
 8179SOL    HW136191   8.780   1.354   1.441 -0.4621  0.5714  0.2728
 8179SOL    HW236192   8.675   1.289   1.334  0.0910 -0.0037  0.0731
 8180SOL     OW36193   1.832   4.512   1.532  0.1124  0.0505  0.4757
 8180SOL    HW136194   1.800   4.587   1.589 -0.4935 -1.2628  1.9115
 8180SOL    HW236195   1.788   4.427   1.561  1.3937 -1.0059 -0.5928
 8181SOL     OW36196   5.671   9.565   3.061  0.0630 -0.0750  0.2381
 8181SOL    HW136197   5.709   9.586   2.971 -1.6180  0.5808 -0.3429
 8181SOL    HW236198   5.736   9.594   3.132  0.5032  1.3332 -0.7110
 8182SOL     OW36199   0.843   0.789   7.833 -0.5756 -0.3409 -0.2622
 8182SOL    HW136200   0.800   0.700   7.818 -0.8063 -0.4026  0.7162
 8182SOL    HW236201   0.910   0.781   7.907  0.7009 -0.1077 -1.3843
 8183SOL     OW36202   2.703   6.504   5.507  0.2828 -0.5189 -0.4937
 8183SOL    HW136203   2.717   6.579   5.571 -1.0061  0.0004 -0.7881
 8183SOL    HW236204   2.785   6.490   5.452  2.1117 -2.2464  2.5720
 8184SOL     OW36205   2.331   2.102   2.066 -0.0471 -0.1191  0.3877
 8184SOL    HW136206   2.376   2.127   2.152  0.8681  0.8772 -0.3683
 8184SOL    HW236207   2.394   2.120   1.990 -1.5315  0.7372 -0.6423
 8185SOL     OW36208   7.523   4.350   7.257 -0.4933  0.4099  0.4647
 8185SOL    HW136209   7.557   4.443   7.265 -0.0374  0.1877  1.1875
 8185SOL    HW236210   7.424   4.351   7.248 -0.3613  1.0354 -1.0462
 8186SOL     OW36211   2.852   8.365   1.139 -0.5807  0.5400  0.6190
 8186SOL    HW136212   2.797   8.341   1.059  0.7678 -0.1449 -0.1183
 8186SOL    HW236213   2.829   8.303   1.214 -1.7976  1.1388  0.7627
 8187SOL     OW36214   4.868   5.759   1.054  0.0214  0.0996 -0.3305
 8187SOL    HW136215   4.911   5.679   1.096  0.2029  0.8228  0.8744
 8187SOL    HW236216   4.914   5.780   0.967  1.3251  0.1494  0.3664
 8188SOL     OW36217   0.537   3.456   2.194 -0.0009 -0.2313 -0.4442
 8188SOL    HW136218   0.560   3.390   2.123  0.5093  2.4341 -2.8420
 8188SOL    HW236219   0.621   3.494   2.232 -0.2378  2.3973 -2.3863
 8189SOL     OW36220   7.469   9.181   2.367 -0.1996 -0.0534 -0.2104
 8189SOL    HW136221   7.519   9.117   2.310  1.4705 -0.8131  2.0615
 8189SOL    HW236222   7.372   9.157   2.367 -0.0797 -0.6050 -1.9296
 8190SOL     OW36223   2.772   4.574   0.925  0.1028 -0.1726 -0.5701
 8190SOL    HW136224   2.818   4.615   1.003 -1.4087  1.7729 -0.6573
 8190SOL    HW236225   2.830   4.503   0.885  1.3851 -0.3790  1.5779
 8191SOL     OW36226   5.756   1.173   2.099 -0.0699 -0.0061 -0.3767
 8191SOL    HW136227   5.814   1.230   2.157 -0.7810  0.6587 -0.2995
 8191SOL    HW236228   5.811   1.128   2.029  0.3264  1.7773 -1.2272
 8192SOL     OW36229   3.925   5.978   1.734  0.3393 -0.0523  0.2775
 8192SOL    HW136230   3.929   6.007   1.638 -0.3025 -0.4446  0.1275
 8192SOL    HW236231   4.017   5.953   1.765  0.7943  1.4807  0.2118
 8193SOL     OW36232   3.025   7.026   5.343  0.2174  0.2528 -0.0383
 8193SOL    HW136233   2.962   6.958   5.381  0.7498  1.0633  2.3932
 8193SOL    HW236234   3.105   7.033   5.403  1.2267  1.3749 -1.4969
 8194SOL     OW36235   4.100   1.973   6.422  0.2257  0.7400 -0.0802
 8194SOL    HW136236   4.168   2.025   6.473  1.7823 -0.6457 -0.6941
 8194SOL    HW236237   4.094   2.009   6.328  0.7516  0.3121 -0.2805
 8195SOL     OW36238   8.849   9.789   7.503 -0.2424 -0.4776  0.3315
 8195SOL    HW136239   8.751   9.800   7.519 -0.2852 -0.6204  0.1614
 8195SOL    HW236240   8.883   9.865   7.447  0.1563  0.7455  2.1479
 8196SOL     OW36241   1.109   6.581   6.378  0.6203 -0.0221  0.3465
 8196SOL    HW136242   1.062   6.523   6.445  2.9208 -1.4062  0.8362
 8196SOL    HW236243   1.100   6.541   6.287  0.1483  0.1566  0.3165
 8197SOL     OW36244   9.091   1.674   0.357 -0.2757 -0.3779  0.4993
 8197SOL    HW136245   8.994   1.669   0.334  0.5997  1.3946 -3.9787
 8197SOL    HW236246   9.106   1.753   0.416 -1.2523  0.4615 -0.3605
 8198SOL     OW36247   4.922   1.809   1.623 -0.0820  0.5029  0.2748
 8198SOL    HW136248   4.943   1.749   1.546  1.4066  0.2777  0.8348
 8198SOL    HW236249   4.866   1.885   1.592 -0.4225 -0.1804 -0.8081
 8199SOL     OW36250   1.720   8.350   1.617 -0.3619  0.4379 -0.4898
 8199SOL    HW136251   1.659   8.275   1.590  1.3594 -0.8266 -0.9648
 8199SOL    HW236252   1.815   8.321   1.606  0.3772  1.4267  2.8331
 8200SOL     OW36253   4.008   3.948   2.975  0.2380 -0.1858  0.0398
 8200SOL    HW136254   3.989   3.882   3.048 -0.9369 -0.4271 -0.4643
 8200SOL    HW236255   3.935   4.017   2.973 -0.8001 -1.3017 -2.1513
 8201SOL     OW36256   2.691   8.031   1.462 -0.1305  0.6230  0.2252
 8201SOL    HW136257   2.755   8.087   1.514  0.1738 -1.5845  2.2807
 8201SOL    HW236258   2.598   8.045   1.497 -0.4052  1.5600 -0.8101
 8202SOL     OW36259   0.544   8.454   6.855  0.3054  0.0834 -0.7780
 8202SOL    HW136260   0.456   8.457   6.808 -0.1603 -0.3174  0.0479
 8202SOL    HW236261   0.575   8.547   6.875 -0.7353  0.2001  0.3784
 8203SOL     OW36262   9.927   5.461   1.451 -0.2687  0.1715  0.1375
 8203SOL    HW136263   9.990   5.528   1.491 -1.0375  0.8966  0.1505
 8203SOL    HW236264   9.833   5.484   1.477 -0.5400 -0.9449  0.1859
 8204SOL     OW36265   7.933   2.648   6.019  0.4490 -0.8467 -0.5420
 8204SOL    HW136266   7.978   2.583   6.080 -0.5593 -1.0806 -0.0243
 8204SOL    HW236267   7.913   2.732   6.069 -0.1855 -0.9568 -0.6092
 8205SOL     OW36268   2.203   9.330   5.536 -0.1812 -0.4177  0.0854
 8205SOL    HW136269   2.153   9.247   5.510 -0.8829 -0.2787  0.9652
 8205SOL    HW236270   2.272   9.351   5.467 -0.8899 -0.9970 -0.7975
 8206SOL     OW36271   3.907   5.027   1.761  0.2688 -0.5085  0.5375
 8206SOL    HW136272   3.892   5.108   1.705  0.0462 -0.9140 -0.0069
 8206SOL    HW236273   3.941   5.053   1.851 -2.7520  0.4039  1.4774
 8207SOL     OW36274   8.775   9.792   5.848  0.3004 -0.5971  0.0119
 8207SOL    HW136275   8.780   9.718   5.781 -0.9894 -0.6718 -0.0133
 8207SOL    HW236276   8.777   9.753   5.940  0.6182 -0.5975  0.0038
 8208SOL     OW36277   6.148   5.348   0.876  0.1860 -0.1403 -0.1285
 8208SOL    HW136278   6.164   5.444   0.854  0.8444 -0.1859  0.1296
 8208SOL    HW236279   6.108   5.302   0.797  0.1722  0.2753 -0.3647
 8209SOL     OW36280   7.406   6.823   7.386  0.1212 -0.8862  1.1564
 8209SOL    HW136281   7.424   6.904   7.442  0.0047  2.0825 -2.9252
 8209SOL    HW236282   7.493   6.779   7.363  0.4213 -0.0960  0.7640
 8210SOL     OW36283   8.962   3.596   3.062  0.7151 -0.4615  0.5409
 8210SOL    HW136284   9.031   3.545   3.010  1.7296 -0.4759  1.8608
 8210SOL    HW236285   8.872   3.557   3.044  1.1271 -0.8800 -0.6917
 8211SOL     OW36286   6.770   7.293   5.031 -0.2342  0.0953 -0.6073
 8211SOL    HW136287   6.836   7.239   5.084  1.4825  0.9965 -1.8272
 8211SOL    HW236288   6.764   7.257   4.938 -1.2483  0.2195 -0.5995
 8212SOL     OW36289   4.151   4.049   3.451 -0.1756  0.3623  0.9020
 8212SOL    HW136290   4.167   4.135   3.500 -0.9911  0.9759  0.1052
 8212SOL    HW236291   4.183   4.058   3.357 -0.5499 -0.0990  0.7288
 8213SOL     OW36292   3.918   3.687   2.121  0.0126 -0.3500  0.0336
 8213SOL    HW136293   3.995   3.742   2.153 -0.0065 -0.0888 -0.3629
 8213SOL    HW236294   3.879   3.637   2.198 -0.4945  0.8305  0.5518
 8214SOL     OW36295   0.961   3.159   0.340 -0.5105  0.2847 -0.1384
 8214SOL    HW136296   0.992   3.179   0.247  0.6272 -0.8106 -0.0097
 8214SOL    HW236297   0.870   3.119   0.337 -0.2511 -0.2694 -0.8362
 8215SOL     OW36298   7.813   4.184   6.423 -0.4455  0.9580 -0.0986
 8215SOL    HW136299   7.872   4.229   6.490 -0.3828 -0.3146  0.7139
 8215SOL    HW236300   7.722   4.224   6.425 -0.1739  1.5637  0.0761
 8216SOL     OW36301   3.214   9.796   7.324 -0.3018  0.1417  0.1680
 8216SOL    HW136302   3.209   9.821   7.227  0.6246  1.9418  0.5678
 8216SOL    HW236303   3.183   9.702   7.336 -0.4125 -0.0940 -1.8769
 8217SOL     OW36304   1.541   4.758   6.237 -0.0285  0.0928 -0.5187
 8217SOL    HW136305   1.627   4.734   6.192  1.1818  1.6458  0.9035
 8217SOL    HW236306   1.480   4.801   6.171  0.4698 -0.5825 -1.4310
 8218SOL     OW36307   3.940   1.142   7.304  0.1275 -0.2846 -0.2176
 8218SOL    HW136308   3.973   1.226   7.261 -0.7785  1.6664  2.7094
 8218SOL    HW236309   4.007   1.112   7.373 -0.2746 -1.0786 -0.1744
 8219SOL     OW36310   9.452   1.381   1.274 -0.2552 -0.5414  0.9943
 8219SOL    HW136311   9.385   1.318   1.236  1.0441 -1.4486  0.1591
 8219SOL    HW236312   9.418   1.419   1.361 -3.0387  1.1656 -0.7844
 8220SOL     OW36313   6.980   8.125   6.532  0.3290  0.3742 -0.0942
 8220SOL    HW136314   7.011   8.093   6.443 -0.8596 -0.3602 -0.2510
 8220SOL    HW236315   7.047   8.099   6.602  0.2225 -0.9549 -0.4689
 8221SOL     OW36316   7.433   3.125   3.381  0.0492 -0.6241  0.4043
 8221SOL    HW136317   7.364   3.180   3.427 -0.8479 -1.2560 -0.1858
 8221SOL    HW236318   7.466   3.054   3.443 -0.5887 -0.9781  0.3408
 8222SOL     OW36319   4.345   3.278   2.433 -0.1892 -0.0766  0.1964
 8222SOL    HW136320   4.385   3.291   2.524 -0.5579 -1.2249  0.5331
 8222SOL    HW236321   4.255   3.236   2.442  0.2265 -1.2027 -0.7409
 8223SOL     OW36322   7.985   9.580   0.269  0.7213 -0.3720 -0.3136
 8223SOL    HW136323   7.993   9.527   0.186 -0.1858  1.0215 -1.3151
 8223SOL    HW236324   8.069   9.632   0.285  1.0742 -1.0114 -0.0921
 8224SOL     OW36325   3.248   9.173   1.736 -0.2939  0.1457 -0.4140
 8224SOL    HW136326   3.343   9.162   1.704 -0.3668 -0.9092 -0.2982
 8224SOL    HW236327   3.248   9.192   1.834 -0.2673 -2.0664  0.0447
 8225SOL     OW36328   3.728   9.922   4.535  0.1045  0.0990 -0.3310
 8225SOL    HW136329   3.793   9.995   4.555  0.1965  0.1481 -0.7953
 8225SOL    HW236330   3.671   9.949   4.457  1.0900 -0.9022 -1.4295
 8226SOL     OW36331   4.574   3.035   7.226 -0.1671  0.3806 -0.1092
 8226SOL    HW136332   4.624   3.112   7.264 -0.6532  1.6470 -1.9553
 8226SOL    HW236333   4.557   2.967   7.297  0.2993  1.9525  1.5326
 8227SOL     OW36334   1.724   6.349   4.632 -0.2720  0.1877  0.2012
 8227SOL    HW136335   1.816   6.324   4.602  0.1412  1.6898  0.1667
 8227SOL    HW236336   1.678   6.403   4.561  0.0869  2.3158  1.5166
 8228SOL     OW36337   2.941   6.228   4.559 -0.1697  1.3158 -0.5158
 8228SOL    HW136338   2.897   6.232   4.649 -0.3849  0.3311 -0.5711
 8228SOL    HW236339   3.039   6.212   4.570 -0.1945  1.2049 -0.4466
 8229SOL     OW36340   1.567   1.619   5.785 -0.1476  0.4831  0.0465
 8229SOL    HW136341   1.509   1.550   5.827  1.0292  1.3036  3.1470
 8229SOL    HW236342   1.662   1.588   5.785 -0.1394  0.4134 -2.2704
 8230SOL     OW36343   9.441   3.041   3.247 -0.8705  0.2395 -0.3270
 8230SOL    HW136344   9.464   3.120   3.190  1.7159 -0.9797 -1.0825
 8230SOL    HW236345   9.391   2.974   3.193 -0.1453 -0.0627 -0.6316
 8231SOL     OW36346   0.609   5.575   2.410  0.3145  0.6482  0.3774
 8231SOL    HW136347   0.646   5.668   2.403  1.3800  0.2656  0.9884
 8231SOL    HW236348   0.670   5.518   2.465 -0.3917 -0.3925  0.0974
 8232SOL     OW36349   9.143   9.106   3.663  0.5743 -0.1778  0.1574
 8232SOL    HW136350   9.190   9.080   3.578  0.0912  2.4107 -0.9602
 8232SOL    HW236351   9.044   9.096   3.651  0.4380  1.1808  0.0253
 8233SOL     OW36352   6.250   0.226   5.780 -0.2252  0.4295 -0.0771
 8233SOL    HW136353   6.275   0.142   5.731 -1.3774 -0.0814  0.2036
 8233SOL    HW236354   6.272   0.216   5.877  0.9191  0.9856 -0.2633
 8234SOL     OW36355   2.428   3.363   4.658  0.1289 -0.1000 -0.1276
 8234SOL    HW136356   2.480   3.316   4.729 -0.1783  1.3485  1.0920
 8234SOL    HW236357   2.330   3.349   4.674  0.0123  1.5796  0.7130
 8235SOL     OW36358   6.731   8.768   6.589 -0.2406 -0.2652 -0.3440
 8235SOL    HW136359   6.632   8.758   6.585 -0.2948 -0.2501  0.8591
 8235SOL    HW236360   6.759   8.791   6.682  0.8851 -0.1831 -0.6917
 8236SOL     OW36361   8.407   5.065   2.330 -0.4049 -0.1122 -0.3355
 8236SOL    HW136362   8.377   5.121   2.408  0.5251  1.5205 -1.1263
 8236SOL    HW236363   8.344   5.077   2.254  0.9995  1.6268 -1.2594
 8237SOL     OW36364   2.076   2.720   3.028 -0.1241  0.5050 -0.1084
 8237SOL    HW136365   1.985   2.761   3.036  0.0588  0.7666  0.6424
 8237SOL    HW236366   2.120   2.719   3.118  0.1984 -0.5954 -0.2746
 8238SOL     OW36367   4.684   0.226   2.167  0.1767 -0.2842  0.0807
 8238SOL    HW136368   4.700   0.281   2.085 -0.1144 -0.3676 -0.0346
 8238SOL    HW236369   4.726   0.136   2.156 -0.5893 -0.5983 -0.3317
 8239SOL     OW36370   9.059   6.527   0.656  0.4106 -0.1493  0.7158
 8239SOL    HW136371   9.148   6.503   0.615  1.0330  0.8503  1.4609
 8239SOL    HW236372   8.988   6.466   0.619  1.0886  0.2110 -1.2678
 8240SOL     OW36373   9.202   0.101   3.156  0.3917  0.2450  0.0624
 8240SOL    HW136374   9.182   0.183   3.103  1.6184  0.4731 -0.0530
 8240SOL    HW236375   9.277   0.118   3.219  0.9551 -0.9125 -0.2796
 8241SOL     OW36376   0.838   1.901   5.438  0.1561  0.0088  0.4551
 8241SOL    HW136377   0.851   1.873   5.533 -1.6980  0.2487  0.7898
 8241SOL    HW236378   0.871   1.829   5.377  0.3339 -0.6080  1.2733
 8242SOL     OW36379   3.427   9.446   1.441  0.3251 -0.5538 -0.2853
 8242SOL    HW136380   3.403   9.410   1.532 -0.8452  0.9941  0.0294
 8242SOL    HW236381   3.344   9.474   1.393  1.1493  1.0793 -0.7938
 8243SOL     OW36382   7.783   9.566   3.971  0.5462  0.1536 -0.3301
 8243SOL    HW136383   7.712   9.619   4.017 -0.0612 -0.3871 -0.6411
 8243SOL    HW236384   7.741   9.499   3.909  1.2266 -2.1675  1.6428
 8244SOL     OW36385   0.765   0.923   5.363 -0.3438  0.4796  0.2026
 8244SOL    HW136386   0.735   0.834   5.328  0.3469  0.6076 -0.7296
 8244SOL    HW236387   0.721   0.940   5.452  0.7924 -1.5302  1.1880
 8245SOL     OW36388   8.859   8.199   1.812  0.0716  0.0859 -0.3180
 8245SOL    HW136389   8.911   8.148   1.744  0.0248 -1.2850  0.6665
 8245SOL    HW236390   8.921   8.238   1.879 -0.0138  0.1075 -0.2517
 8246SOL     OW36391   2.116   8.415   2.170  0.0246 -0.7869  0.2578
 8246SOL    HW136392   2.086   8.335   2.221 -1.2808 -0.0391  0.6899
 8246SOL    HW236393   2.166   8.387   2.088 -1.7757 -2.0489 -0.4217
 8247SOL     OW36394   7.912   4.403   3.982  0.1173 -0.3125  0.0713
 8247SOL    HW136395   7.980   4.419   4.055  0.0507  0.8679 -0.1200
 8247SOL    HW236396   7.849   4.480   3.978  2.0016  1.1652 -3.3052
 8248SOL     OW36397   5.001   9.656   3.923 -0.4224  0.2744  0.6196
 8248SOL    HW136398   5.047   9.615   4.002 -0.1676 -1.8154 -0.5695
 8248SOL    HW236399   4.937   9.590   3.884 -0.1383  1.0800 -1.2683
 8249SOL     OW36400   4.510   8.786   5.178  0.0981  0.1193  0.3069
 8249SOL    HW136401   4.604   8.764   5.203  0.3068  1.2637  0.5155
 8249SOL    HW236402   4.474   8.713   5.119  0.8393 -0.7152  0.8725
 8250SOL     OW36403   2.826   5.840   7.795  0.0178  0.5399  0.0833
 8250SOL    HW136404   2.798   5.922   7.746  1.4722  0.9107 -0.1568
 8250SOL    HW236405   2.790   5.759   7.749 -0.7819  1.0119 -0.1129
 8251SOL     OW36406   2.467   0.242   0.361 -0.1360  0.0880  0.2068
 8251SOL    HW136407   2.462   0.227   0.459 -1.2594 -0.6210  0.0540
 8251SOL    HW236408   2.475   0.340   0.342  5.3212 -0.0149  1.1628
 8252SOL     OW36409   2.384   0.813   2.986 -0.7191  0.1751  0.0424
 8252SOL    HW136410   2.309   0.878   2.991 -0.3742  0.6364 -0.7381
 8252SOL    HW236411   2.455   0.838   3.052 -0.0585  1.2650 -1.0771
 8253SOL     OW36412   0.835   3.328   3.150 -0.5777  0.3617  0.2860
 8253SOL    HW136413   0.852   3.426   3.156 -0.1162  0.2485  0.8896
 8253SOL    HW236414   0.758   3.304   3.210 -1.5369  0.5488 -0.8488
 8254SOL     OW36415   0.868   2.511   8.058 -0.0460 -0.5247  0.9130
 8254SOL    HW136416   0.901   2.417   8.048 -2.4446 -1.1361 -1.7544
 8254SOL    HW236417   0.922   2.572   8.000 -0.9084 -0.8617 -0.2468
 8255SOL     OW36418   0.117   5.713   6.489  0.4525  0.6253  0.8882
 8255SOL    HW136419   0.079   5.648   6.554  0.0678 -0.4549 -0.3970
 8255SOL    HW236420   0.217   5.710   6.493  0.4357  1.4423  2.2722
 8256SOL     OW36421   5.707   8.949   2.391 -1.2185  0.1894  0.3307
 8256SOL    HW136422   5.769   8.916   2.320  0.2320  0.7227  1.3044
 8256SOL    HW236423   5.760   8.970   2.473 -2.8101 -0.0755  1.4523
 8257SOL     OW36424   0.496   4.589   1.934  0.1447  0.7191  0.0407
 8257SOL    HW136425   0.495   4.541   1.846  0.9650  0.7180  0.0362
 8257SOL    HW236426   0.409   4.639   1.945 -1.2818 -1.8135  0.6318
 8258SOL     OW36427   1.807   2.786   3.066 -0.3249  0.4307  0.1733
 8258SOL    HW136428   1.744   2.842   3.120 -0.5754  0.2671  0.0493
 8258SOL    HW236429   1.792   2.689   3.088  0.9168  0.4749  1.2732
 8259SOL     OW36430   0.269   1.498   0.382 -0.4252  0.7080  0.3525
 8259SOL    HW136431   0.345   1.540   0.431 -1.0766  1.3654  0.8157
 8259SOL    HW236432   0.272   1.399   0.395  0.9275  0.6378 -0.4735
 8260SOL     OW36433   4.059   3.896   7.621 -0.0421  0.0769  0.3367
 8260SOL    HW136434   4.103   3.848   7.545 -0.4917  2.0290 -1.1724
 8260SOL    HW236435   4.126   3.953   7.668 -0.2149  0.4570  0.1239
 8261SOL     OW36436   3.040   2.641   1.470  0.7504 -0.4359  0.4139
 8261SOL    HW136437   3.091   2.671   1.390  1.4830  0.4303  1.1968
 8261SOL    HW236438   3.097   2.650   1.552  0.5359 -2.6798  0.8620
 8262SOL     OW36439   0.637   0.406   5.308  0.3309  0.0774 -0.2969
 8262SOL    HW136440   0.543   0.438   5.319  0.1335  0.4646 -2.8063
 8262SOL    HW236441   0.662   0.348   5.386 -1.4287  1.2324  1.1739
 8263SOL     OW36442   0.068   1.396   3.891  0.2767  1.3076 -0.0372
 8263SOL    HW136443  -0.002   1.340   3.846 -0.3883  0.6009  1.8103
 8263SOL    HW236444   0.157   1.380   3.848  0.2324 -1.7192  0.8819
 8264SOL     OW36445   0.539   6.325   7.628 -0.0066  0.3959  0.2821
 8264SOL    HW136446   0.589   6.371   7.701 -1.4135 -1.2312  2.3341
 8264SOL    HW236447   0.441   6.323   7.650 -0.4204 -0.4371 -1.4908
 8265SOL     OW36448   6.685   2.102   4.816  0.0405  0.4844 -0.5433
 8265SOL    HW136449   6.702   2.004   4.809  0.1915  0.5788 -1.6599
 8265SOL    HW236450   6.591   2.117   4.847  0.1932 -0.0085  0.1838
 8266SOL     OW36451   8.951   4.008   2.148 -0.4185  0.1046 -0.0568
 8266SOL    HW136452   8.927   3.989   2.243  1.3768  1.0325  0.5979
 8266SOL    HW236453   8.913   3.937   2.089  0.5517 -1.8307  1.6083
 8267SOL     OW36454   8.642   3.238   3.607  0.3122  0.3022 -0.4866
 8267SOL    HW136455   8.580   3.286   3.669  0.1736 -1.1212  0.5056
 8267SOL    HW236456   8.698   3.174   3.659  0.8059 -0.2827 -1.7193
 8268SOL     OW36457   7.733   4.966   3.288  0.1494  0.0227  0.1459
 8268SOL    HW136458   7.789   4.941   3.209  0.5549  0.9776  0.1280
 8268SOL    HW236459   7.789   5.017   3.354  0.2974 -2.2470  1.8687
 8269SOL     OW36460   7.571   4.358   2.736 -0.4008 -0.2153  0.1161
 8269SOL    HW136461   7.587   4.433   2.670  0.2317 -1.2525 -0.9390
 8269SOL    HW236462   7.611   4.274   2.700 -2.7090 -1.4805  0.4485
 8270SOL     OW36463   9.668   3.427   0.860 -0.0021  0.1819 -0.2514
 8270SOL    HW136464   9.654   3.509   0.805  0.8123  2.2410  2.4852
 8270SOL    HW236465   9.582   3.400   0.903 -0.4503 -0.9314 -1.7835
 8271SOL     OW36466   2.308   5.225   0.319 -0.0726 -0.4412  0.7222
 8271SOL    HW136467   2.242   5.289   0.358 -1.0266 -0.9027 -0.0936
 8271SOL    HW236468   2.272   5.132   0.327 -0.3942 -0.5240 -1.3985
 8272SOL     OW36469   2.298   0.179   6.047  0.1426  0.2134  0.3497
 8272SOL    HW136470   2.234   0.242   6.003 -0.8872 -1.0006  0.0763
 8272SOL    HW236471   2.326   0.215   6.135 -0.3123  1.1249  0.1177
 8273SOL     OW36472   2.664   0.040   5.588  0.3892  0.3084 -0.7055
 8273SOL    HW136473   2.598  -0.034   5.598  1.1262 -0.5855 -2.3083
 8273SOL    HW236474   2.616   0.124   5.561 -0.3517  0.2268  0.3287
 8274SOL     OW36475   1.259   7.735   2.130 -1.1641  0.1726 -0.2744
 8274SOL    HW136476   1.344   7.762   2.085 -0.4360 -0.7824  0.4796
 8274SOL    HW236477   1.279   7.711   2.226 -2.2373 -0.2830 -0.1601
 8275SOL     OW36478   2.979   6.212   4.898 -0.3413 -0.4761  0.2826
 8275SOL    HW136479   2.969   6.113   4.907 -1.3718 -0.7166 -2.8172
 8275SOL    HW236480   3.068   6.233   4.857  0.0131 -0.0856  1.2379
 8276SOL     OW36481   4.215   8.022   1.895 -0.1484  0.1881 -0.0979
 8276SOL    HW136482   4.220   7.971   1.981 -2.9611 -2.5388 -1.4427
 8276SOL    HW236483   4.307   8.039   1.861  0.9481 -0.6381  2.3264
 8277SOL     OW36484   7.486   3.419   6.094  0.2819  0.3367 -0.0959
 8277SOL    HW136485   7.420   3.345   6.086 -0.0950  0.7082 -0.4427
 8277SOL    HW236486   7.576   3.382   6.115  0.2621 -0.2720 -1.0952
 8278SOL     OW36487   3.593   4.825   2.317 -0.1752 -0.0854  0.0541
 8278SOL    HW136488   3.653   4.756   2.278  0.7320  0.2269  0.8685
 8278SOL    HW236489   3.646   4.908   2.338 -1.2115  0.8015 -0.7641
 8279SOL     OW36490   1.965   6.211   4.570 -0.3287  0.4089 -0.5414
 8279SOL    HW136491   1.994   6.149   4.642  0.3296  0.8900 -0.3935
 8279SOL    HW236492   1.975   6.166   4.481 -0.6535  0.0017 -0.3709
 8280SOL     OW36493   3.917   1.692   3.714  0.5744 -0.4640  0.7563
 8280SOL    HW136494   3.979   1.756   3.759 -0.2093  1.4691 -0.8582
 8280SOL    HW236495   3.970   1.630   3.656  1.3388 -1.3423  2.3615
 8281SOL     OW36496   2.135   1.319   5.222  0.0149  0.2301  0.0123
 8281SOL    HW136497   2.112   1.363   5.135  0.5962 -0.4288 -0.4814
 8281SOL    HW236498   2.231   1.335   5.242  0.4281 -1.5013 -0.5768
 8282SOL     OW36499   4.944   8.422   3.785 -0.0492 -0.2129  0.1466
 8282SOL    HW136500   4.872   8.455   3.845 -1.0281 -0.4070 -0.9105
 8282SOL    HW236501   5.013   8.493   3.772  0.1739 -0.1722  1.4927
 8283SOL     OW36502   6.759   0.636   7.541  0.1845  0.6099  0.5592
 8283SOL    HW136503   6.799   0.558   7.589 -0.7992  0.6216  1.4037
 8283SOL    HW236504   6.709   0.604   7.461  2.0992  0.6172 -0.6688
 8284SOL     OW36505   9.002   7.331   6.035  0.9428 -0.1963 -0.1623
 8284SOL    HW136506   9.003   7.315   6.134  1.6710 -0.6073 -0.2285
 8284SOL    HW236507   8.975   7.248   5.988  0.3198  0.0825 -0.2966
 8285SOL     OW36508   7.693   9.909   6.765  0.4710  0.0683  0.0052
 8285SOL    HW136509   7.644   9.990   6.796 -1.1688 -0.7357 -0.4391
 8285SOL    HW236510   7.771   9.937   6.709 -0.5983  1.3337 -0.8854
 8286SOL     OW36511   1.986   2.481   6.453  0.2145  0.2630 -0.3322
 8286SOL    HW136512   1.978   2.431   6.367  0.3601 -0.5475  0.1273
 8286SOL    HW236513   2.054   2.554   6.443 -1.1835  1.4629 -1.5111
 8287SOL     OW36514   8.322   6.800   6.499 -0.3192  0.2977 -0.4401
 8287SOL    HW136515   8.341   6.788   6.402  0.9431 -0.5569 -0.1016
 8287SOL    HW236516   8.295   6.895   6.516 -1.3494  0.2556 -1.7379
 8288SOL     OW36517   1.185   6.673   1.502  0.2743  0.0369  0.2587
 8288SOL    HW136518   1.224   6.586   1.472 -1.6486 -0.3583 -1.1440
 8288SOL    HW236519   1.108   6.656   1.563  0.4096  0.7780  0.6457
 8289SOL     OW36520   5.617   0.135   3.693 -0.2374 -0.2987  0.1238
 8289SOL    HW136521   5.690   0.186   3.738  1.1049 -0.6420 -1.5966
 8289SOL    HW236522   5.573   0.073   3.759  0.7301  0.2308  1.2735
 8290SOL     OW36523   3.265   7.240   4.899 -0.1465  0.2234  0.5709
 8290SOL    HW136524   3.289   7.334   4.872  1.5477  0.0092  1.2786
 8290SOL    HW236525   3.312   7.217   4.985  0.3369 -1.6496 -0.1756
 8291SOL     OW36526   3.735   2.640   0.534 -0.3740  0.0201  0.0701
 8291SOL    HW136527   3.663   2.601   0.592 -0.0448 -0.4091  0.1899
 8291SOL    HW236528   3.797   2.695   0.590  0.4197 -1.0668  0.2637
 8292SOL     OW36529   3.290   8.455   7.457 -0.5504  0.0362  0.2782
 8292SOL    HW136530   3.255   8.380   7.401  0.4817 -0.9878  0.9829
 8292SOL    HW236531   3.337   8.418   7.537  0.2052  1.4275  0.4902
 8293SOL     OW36532   8.055   3.947   1.673 -1.0568 -0.4284  0.1036
 8293SOL    HW136533   8.004   3.897   1.742  0.8704 -0.2618  1.7093
 8293SOL    HW236534   8.151   3.953   1.701  0.2399 -2.2284 -3.6052
 8294SOL     OW36535   8.388   9.070   6.247 -0.7803  0.1403  0.0286
 8294SOL    HW136536   8.468   9.061   6.308 -0.5369  1.5387 -0.0796
 8294SOL    HW236537   8.305   9.045   6.298 -0.2779 -1.3984  0.1209
 8295SOL     OW36538   1.533   2.405   3.820  0.4808 -1.1431 -0.2689
 8295SOL    HW136539   1.539   2.411   3.920 -0.2221 -1.6028 -0.1995
 8295SOL    HW236540   1.497   2.492   3.785 -0.4091 -1.4039 -0.0232
 8296SOL     OW36541   8.147   4.418   3.150  0.1451  0.4272 -0.1224
 8296SOL    HW136542   8.176   4.330   3.189  1.3381  1.0656  0.4468
 8296SOL    HW236543   8.064   4.449   3.197  0.1588 -0.0176  0.2030
 8297SOL     OW36544   1.274   8.222   2.821  0.1348 -0.2627 -0.6506
 8297SOL    HW136545   1.198   8.236   2.757 -0.9512 -1.7795  0.2786
 8297SOL    HW236546   1.243   8.239   2.914  1.8389  2.3821 -0.5068
 8298SOL     OW36547   9.769   2.225   4.564  0.1792 -0.0985 -0.9373
 8298SOL    HW136548   9.833   2.201   4.490 -0.1502  0.5712 -1.4379
 8298SOL    HW236549   9.777   2.157   4.637  1.6496  0.1011 -0.8835
 8299SOL     OW36550   9.442   1.856   0.212 -0.7102 -0.1289 -0.1914
 8299SOL    HW136551   9.356   1.875   0.166 -1.2434 -0.1999  0.7674
 8299SOL    HW236552   9.516   1.855   0.145 -1.5138 -0.5121 -1.0826
 8300SOL     OW36553   2.234   3.323   1.427 -0.4587  0.0920 -0.1336
 8300SOL    HW136554   2.174   3.244   1.439 -0.7697  0.2253 -0.8117
 8300SOL    HW236555   2.325   3.301   1.461 -0.7520 -0.2862  0.4229
 8301SOL     OW36556   4.163   3.191   4.131  0.4236  0.0751 -0.2518
 8301SOL    HW136557   4.192   3.269   4.075  1.9653  1.1672  1.9389
 8301SOL    HW236558   4.075   3.157   4.099  0.7883  1.2925 -2.6529
 8302SOL     OW36559   8.378   0.410   2.931 -0.1560  0.3126 -0.1289
 8302SOL    HW136560   8.282   0.415   2.903  0.0625  0.6720 -0.8525
 8302SOL    HW236561   8.428   0.487   2.891  0.6156 -0.3688 -0.5102
 8303SOL     OW36562   2.319   4.189   2.193 -0.1284  0.5758  0.1753
 8303SOL    HW136563   2.347   4.242   2.273  0.6484  1.3495 -0.5989
 8303SOL    HW236564   2.352   4.234   2.110  1.9758 -1.9391 -0.4212
 8304SOL     OW36565   0.618   2.822   3.697 -0.1278 -0.3875  0.1781
 8304SOL    HW136566   0.684   2.747   3.706 -0.9249 -1.0222  0.7697
 8304SOL    HW236567   0.567   2.833   3.782  0.3562  1.1949  0.2805
 8305SOL     OW36568   4.004   3.790   1.181  0.6717 -0.5185 -0.1448
 8305SOL    HW136569   3.919   3.814   1.227  1.6000  1.2062  0.7285
 8305SOL    HW236570   3.986   3.772   1.085 -0.4972  1.1299 -0.2589
 8306SOL     OW36571   2.584   2.030   4.307 -0.1160 -0.1708  0.8323
 8306SOL    HW136572   2.498   2.080   4.294 -0.6274 -0.6534  2.3222
 8306SOL    HW236573   2.590   1.998   4.401  1.3688 -0.7697  0.5390
 8307SOL     OW36574   7.041   5.527   7.429  0.7353  0.1363 -0.1492
 8307SOL    HW136575   6.950   5.486   7.431  1.7539 -2.1275  1.7488
 8307SOL    HW236576   7.033   5.624   7.408 -2.1760  0.1797  0.9203
 8308SOL     OW36577   7.470   2.167   5.120 -0.3684  0.2204 -0.1619
 8308SOL    HW136578   7.396   2.217   5.166 -0.5182 -1.2187  1.1982
 8308SOL    HW236579   7.510   2.101   5.183  2.8693  1.7438 -0.5300
 8309SOL     OW36580   0.543   0.335   6.032 -0.2166 -0.2699  0.1206
 8309SOL    HW136581   0.481   0.384   6.094 -0.7555 -1.5549  0.6271
 8309SOL    HW236582   0.602   0.400   5.985 -1.5654  0.9420  0.0588
 8310SOL     OW36583   7.045   0.053   0.752  0.0311  0.0555 -0.1003
 8310SOL    HW136584   7.107   0.094   0.819 -0.2618  0.9274 -0.3544
 8310SOL    HW236585   6.951   0.072   0.779 -0.0902  0.1983 -0.6222
 8311SOL     OW36586   3.616   6.289   5.028 -0.2431 -0.3343 -0.5526
 8311SOL    HW136587   3.605   6.327   5.120  0.7394 -0.1663 -0.5014
 8311SOL    HW236588   3.666   6.203   5.033  1.3939  0.5700 -1.0965
 8312SOL     OW36589   2.858   7.036   8.151  0.2173 -0.3570  0.1832
 8312SOL    HW136590   2.868   7.117   8.210 -0.4960  0.8747 -1.3553
 8312SOL    HW236591   2.768   7.038   8.107  1.3588 -0.3878 -2.2149
 8313SOL     OW36592   4.563   6.555   3.218 -0.0803  0.0424 -0.0166
 8313SOL    HW136593   4.547   6.530   3.122 -0.2975  1.3219 -0.3188
 8313SOL    HW236594   4.477   6.554   3.268  0.0053 -0.4410  0.1232
 8314SOL     OW36595   8.325   2.504   6.185 -0.3820 -0.1905 -0.1014
 8314SOL    HW136596   8.312   2.553   6.099  2.8719 -0.4449 -0.8196
 8314SOL    HW236597   8.357   2.569   6.255 -0.1443 -0.5319  0.1063
 8315SOL     OW36598   8.577   8.258   4.335 -0.1584  0.1401  0.3047
 8315SOL    HW136599   8.578   8.159   4.345  0.6636 -0.0009 -0.9670
 8315SOL    HW236600   8.661   8.296   4.374  0.0108  0.2278 -0.1404
 8316SOL     OW36601   8.280   9.907   0.689  0.2196  0.7324  0.1697
 8316SOL    HW136602   8.236   9.844   0.753  2.0062 -0.0201  0.6642
 8316SOL    HW236603   8.363   9.866   0.652  0.1801  1.8895 -1.2510
 8317SOL     OW36604   0.238   9.686   4.839 -0.7851  0.0330  0.1647
 8317SOL    HW136605   0.258   9.716   4.746 -0.8472 -0.5170 -0.0261
 8317SOL    HW236606   0.323   9.679   4.891 -0.8206  1.1455  0.4023
 8318SOL     OW36607   4.573   0.353   2.423 -0.0021 -0.5135 -0.2136
 8318SOL    HW136608   4.603   0.311   2.338 -0.2522  0.0380 -0.5814
 8318SOL    HW236609   4.477   0.381   2.414  0.6752  1.7557 -0.6175
 8319SOL     OW36610   3.759   5.120   6.011  0.2824 -0.2426 -0.2317
 8319SOL    HW136611   3.836   5.123   5.947 -0.7530  1.2800 -1.4432
 8319SOL    HW236612   3.673   5.125   5.960 -0.6361 -1.6650  1.1253
 8320SOL     OW36613   8.527   7.128   7.575 -0.9832  0.5525 -0.1289
 8320SOL    HW136614   8.514   7.181   7.491 -0.7602  0.2696 -0.3420
 8320SOL    HW236615   8.450   7.144   7.637 -1.6054  0.0530 -0.7628
 8321SOL     OW36616   2.367   1.386   3.293 -0.2239  0.2620  0.2832
 8321SOL    HW136617   2.277   1.422   3.317 -0.1606  0.8498 -0.3454
 8321SOL    HW236618   2.423   1.459   3.253  0.1755 -0.3425 -0.2765
 8322SOL     OW36619   3.150   8.905   5.283  0.7447  0.1252  0.1354
 8322SOL    HW136620   3.214   8.849   5.230 -1.1793 -1.2934 -0.7333
 8322SOL    HW236621   3.131   8.859   5.370 -1.0392 -0.7782 -0.6887
 8323SOL     OW36622   4.089   3.981   1.950 -0.9439 -0.3429  0.0712
 8323SOL    HW136623   4.027   4.031   2.011 -0.2391 -1.9684  2.1953
 8323SOL    HW236624   4.140   3.914   2.003  2.8287  1.0991 -1.5793
 8324SOL     OW36625   3.425   0.337   2.439 -0.1749 -0.4791 -0.1163
 8324SOL    HW136626   3.429   0.266   2.510 -0.0388 -0.2511  0.1019
 8324SOL    HW236627   3.422   0.293   2.349 -1.0118 -0.7794  0.0539
 8325SOL     OW36628   0.356   4.180   4.465 -0.2892 -0.6659  0.0422
 8325SOL    HW136629   0.455   4.189   4.459 -0.3768 -0.7654 -2.2842
 8325SOL    HW236630   0.324   4.121   4.390 -2.1204 -0.3947  0.5905
 8326SOL     OW36631   7.684   4.651   3.490 -0.3925 -0.2595  0.1821
 8326SOL    HW136632   7.768   4.706   3.491  0.0465 -0.9247  1.1774
 8326SOL    HW236633   7.615   4.697   3.434  0.7622  0.0917 -0.9876
 8327SOL     OW36634   2.319   7.433   7.046  0.4910  0.9221  0.7890
 8327SOL    HW136635   2.251   7.360   7.046 -1.3948  2.6002  2.1924
 8327SOL    HW236636   2.347   7.453   6.952 -0.2254 -0.4754  0.2753
 8328SOL     OW36637   2.164   8.374   6.096 -0.3677  0.3491 -0.2496
 8328SOL    HW136638   2.157   8.380   5.997  1.0768 -2.1178 -0.5497
 8328SOL    HW236639   2.112   8.294   6.128  0.8977 -0.0918  0.7447
 8329SOL     OW36640   1.198   4.591   7.248 -0.1966  0.5931  0.0362
 8329SOL    HW136641   1.220   4.688   7.239  0.3580  0.4875  0.2554
 8329SOL    HW236642   1.274   4.543   7.292  0.7092 -0.4102 -2.4846
 8330SOL     OW36643   5.584   9.032   1.971  0.1241 -0.2979 -0.3396
 8330SOL    HW136644   5.680   9.048   1.992  0.2563  1.3257 -2.0181
 8330SOL    HW236645   5.527   9.074   2.041  0.6309 -0.9279  0.4553
 8331SOL     OW36646   1.202   5.436   7.868 -0.0748 -0.2348  0.2782
 8331SOL    HW136647   1.255   5.419   7.784 -0.1694 -0.1407  0.1991
 8331SOL    HW236648   1.219   5.529   7.900  1.4920 -0.9068  1.4633
 8332SOL     OW36649   0.538   6.264   1.795 -0.0310  0.0633  0.0585
 8332SOL    HW136650   0.543   6.196   1.722  1.8774  0.3539 -0.1108
 8332SOL    HW236651   0.449   6.257   1.841 -0.3993 -1.5984 -0.8613
 8333SOL     OW36652   1.713   0.516   6.805  0.1145 -0.4187 -0.3545
 8333SOL    HW136653   1.766   0.431   6.801  1.3286  0.3702 -1.4283
 8333SOL    HW236654   1.770   0.589   6.842 -1.5722 -0.5116  2.5997
 8334SOL     OW36655   3.594   4.133   3.371 -0.1954  0.3098  0.3845
 8334SOL    HW136656   3.654   4.071   3.421  1.4998  0.9517 -0.8097
 8334SOL    HW236657   3.577   4.215   3.427  0.1304  0.1707  0.6895
 8335SOL     OW36658   1.085   7.087   1.566 -0.0292 -0.2463 -0.0889
 8335SOL    HW136659   1.069   7.166   1.623  1.7412  1.0141 -1.2894
 8335SOL    HW236660   1.017   7.085   1.491  0.4694  0.6280 -0.5659
 8336SOL     OW36661   2.559   1.602   1.846  0.2183  0.1154 -0.3573
 8336SOL    HW136662   2.501   1.658   1.906 -0.1885 -1.4775  0.7554
 8336SOL    HW236663   2.654   1.608   1.876  0.1504  0.0577 -0.1321
 8337SOL     OW36664   9.721   3.472   1.131 -0.0670  0.0029 -0.0068
 8337SOL    HW136665   9.650   3.528   1.173 -1.0894 -1.5932  0.4180
 8337SOL    HW236666   9.696   3.451   1.037 -0.5656 -1.2462  0.3975
 8338SOL     OW36667   5.824   9.716   6.966  0.1604 -0.2578 -0.2314
 8338SOL    HW136668   5.786   9.804   6.937  0.5304 -0.5496 -1.6487
 8338SOL    HW236669   5.758   9.667   7.022  0.4946  1.5521  1.8086
 8339SOL     OW36670   0.534   2.469   6.148 -0.2142  0.6047  0.1081
 8339SOL    HW136671   0.491   2.493   6.235 -2.3284  0.6121 -0.9126
 8339SOL    HW236672   0.612   2.408   6.165  0.0600  1.4936  2.0712
 8340SOL     OW36673   8.866   4.908   1.921 -0.0012  0.0287 -0.4142
 8340SOL    HW136674   8.939   4.930   1.857 -0.0274 -0.2259 -0.5288
 8340SOL    HW236675   8.798   4.981   1.920  0.2232  0.2395 -0.3467
 8341SOL     OW36676   4.028   6.866   3.325  1.0079  0.0320 -0.4215
 8341SOL    HW136677   3.931   6.843   3.329  0.7487  1.2135  0.1659
 8341SOL    HW236678   4.069   6.823   3.245  0.2602 -1.4387 -0.0298
 8342SOL     OW36679   4.576   5.043   0.241 -0.2561  0.4811 -0.0316
 8342SOL    HW136680   4.622   5.027   0.328  1.7847  0.8134 -1.0271
 8342SOL    HW236681   4.625   4.998   0.167 -2.0851  0.0146 -1.0119
 8343SOL     OW36682   5.083   2.601   3.375  0.1253 -0.4332  0.5558
 8343SOL    HW136683   5.085   2.701   3.377  2.2603 -0.2164 -5.0686
 8343SOL    HW236684   5.003   2.570   3.324  0.1184 -1.5949  1.2497
 8344SOL     OW36685   3.259   4.411   5.892 -0.0174  0.2138 -0.5898
 8344SOL    HW136686   3.251   4.385   5.988  2.7070  2.1859  0.2125
 8344SOL    HW236687   3.187   4.477   5.869 -1.7165 -1.5261 -0.4070
 8345SOL     OW36688   7.726   7.678   7.607 -0.1256 -0.1942  0.2965
 8345SOL    HW136689   7.670   7.595   7.602  0.8930 -0.7774 -2.0175
 8345SOL    HW236690   7.710   7.734   7.526  0.0356  1.3435  1.3114
 8346SOL     OW36691   3.054   8.736   0.700 -0.2783 -0.1207 -0.0769
 8346SOL    HW136692   3.122   8.687   0.646 -1.3421  1.2932 -2.7954
 8346SOL    HW236693   3.025   8.678   0.777  0.7859 -2.4675 -1.3717
 8347SOL     OW36694   5.224   4.309   0.285  0.1029  0.2712 -0.1541
 8347SOL    HW136695   5.272   4.225   0.308 -1.2602 -0.4349  0.2060
 8347SOL    HW236696   5.136   4.311   0.333  0.6680  2.5049  0.8797
 8348SOL     OW36697   2.169   9.648   7.718 -0.0506  0.3700  0.1988
 8348SOL    HW136698   2.088   9.687   7.762 -0.9209 -2.4929  1.2947
 8348SOL    HW236699   2.141   9.588   7.643  0.9697 -1.3752  1.1748
 8349SOL     OW36700   3.319   1.104   8.008 -0.7351 -0.0356  0.0822
 8349SOL    HW136701   3.260   1.026   8.031  0.1182 -0.0938  2.2413
 8349SOL    HW236702   3.347   1.149   8.093  2.4525 -0.1148 -0.8859
 8350SOL     OW36703   9.226   4.790   4.356 -0.2148 -0.1860  0.2587
 8350SOL    HW136704   9.132   4.756   4.350 -0.2795  0.0477 -0.0308
 8350SOL    HW236705   9.277   4.764   4.273 -0.8991  2.3685 -1.0100
 8351SOL     OW36706   7.876   7.703   3.980 -0.5497 -0.0380 -0.1631
 8351SOL    HW136707   7.825   7.618   3.992 -3.1708  1.5949  0.5676
 8351SOL    HW236708   7.961   7.698   4.033 -1.9150 -1.1960  1.9785
 8352SOL     OW36709   9.457   3.327   1.275 -0.3273 -0.0585  0.0325
 8352SOL    HW136710   9.545   3.360   1.309 -0.3751 -0.4435  0.5530
 8352SOL    HW236711   9.435   3.241   1.321 -0.1943 -0.8204 -1.3024
 8353SOL     OW36712   3.017   2.668   6.446  0.0185 -0.0781 -0.1205
 8353SOL    HW136713   3.025   2.756   6.492 -1.1876  0.1569 -0.3322
 8353SOL    HW236714   2.980   2.600   6.510 -1.0743  0.0995 -0.5556
 8354SOL     OW36715   5.069   5.903   1.328  0.0704 -0.3573 -0.3779
 8354SOL    HW136716   4.982   5.904   1.279 -0.0282  0.1635 -0.1936
 8354SOL    HW236717   5.056   5.937   1.421  0.6889  0.8687 -0.7347
 8355SOL     OW36718   4.949   3.137   1.676 -1.0676  0.3390 -0.8285
 8355SOL    HW136719   4.885   3.159   1.749  2.0274 -1.7167  2.6970
 8355SOL    HW236720   5.034   3.189   1.689  0.6539 -2.2813 -1.1100
 8356SOL     OW36721   0.894   5.707   3.463 -0.8829  0.0166  0.6016
 8356SOL    HW136722   0.871   5.626   3.516  0.8010 -0.2488  0.9601
 8356SOL    HW236723   0.970   5.686   3.402  0.2262  1.5868  1.4071
 8357SOL     OW36724   4.976   3.235   5.573  0.2573  0.3375 -0.3731
 8357SOL    HW136725   4.961   3.136   5.564 -2.4916  0.1123  4.9516
 8357SOL    HW236726   5.066   3.252   5.612  0.8947  0.0003 -1.6647
 8358SOL     OW36727   1.670   5.921   1.598  0.7306 -0.5183  0.2423
 8358SOL    HW136728   1.671   5.939   1.500 -0.0270 -0.1064  0.3055
 8358SOL    HW236729   1.603   5.850   1.618  0.3630 -0.0975  0.5373
 8359SOL     OW36730   1.467   1.506   2.407  0.2537 -0.1015 -0.2258
 8359SOL    HW136731   1.533   1.522   2.333  0.0255 -1.1735 -0.6676
 8359SOL    HW236732   1.453   1.591   2.457  1.7290  0.2249 -0.3260
 8360SOL     OW36733   3.424   2.637   4.569 -0.1942  0.2586 -0.4046
 8360SOL    HW136734   3.340   2.620   4.621 -0.7707 -0.0817 -1.4479
 8360SOL    HW236735   3.499   2.656   4.633 -1.0354  0.4579  0.5356
 8361SOL     OW36736   4.814   3.961   0.307 -0.1467 -0.1513  0.7201
 8361SOL    HW136737   4.903   3.988   0.270 -0.1951 -1.0372 -0.0593
 8361SOL    HW236738   4.749   4.037   0.295  0.3438  0.2733  0.7457
 8362SOL     OW36739   8.931   6.266   0.143  0.4373  1.3521 -0.5465
 8362SOL    HW136740   8.886   6.349   0.111 -0.3574  0.9981 -0.3671
 8362SOL    HW236741   8.862   6.201   0.174  1.0932  0.9376  0.0713
 8363SOL     OW36742   9.916   5.004   5.382 -0.5749  0.2319 -0.9697
 8363SOL    HW136743  10.002   5.022   5.429 -0.2875  0.6214 -1.6408
 8363SOL    HW236744   9.844   4.989   5.450  0.0837 -0.4467 -0.4016
 8364SOL     OW36745   0.199   3.345   0.927 -0.3167  0.0718 -0.1444
 8364SOL    HW136746   0.153   3.389   0.850 -0.6069 -0.3726 -0.2276
 8364SOL    HW236747   0.298   3.348   0.913 -0.2287  2.3996  0.7729
 8365SOL     OW36748   3.467   7.628   1.436  0.0275 -0.4361  0.1851
 8365SOL    HW136749   3.456   7.627   1.535  0.1738  0.2752  0.2131
 8365SOL    HW236750   3.455   7.536   1.400 -1.4513 -0.4509  0.7006
 8366SOL     OW36751   0.500   2.294   1.479  0.1496  0.2693  0.4648
 8366SOL    HW136752   0.514   2.271   1.383  0.2823  0.6208  0.4008
 8366SOL    HW236753   0.574   2.352   1.511 -0.9924  1.9321  0.1841
 8367SOL     OW36754   2.431   1.265   1.016 -0.2197 -0.0785 -0.2021
 8367SOL    HW136755   2.495   1.282   1.091  0.2385 -2.9866  0.1205
 8367SOL    HW236756   2.408   1.352   0.972  2.8151  1.1841  0.5624
 8368SOL     OW36757   4.396   4.482   2.092  0.3841  0.4860 -0.3645
 8368SOL    HW136758   4.341   4.403   2.064  1.5379 -1.6279  3.0288
 8368SOL    HW236759   4.366   4.513   2.181  2.9836  0.9093  0.4061
 8369SOL     OW36760   4.331   3.083   5.378  0.4141 -0.5407 -0.2858
 8369SOL    HW136761   4.319   2.984   5.369  2.1750 -0.7611 -0.3691
 8369SOL    HW236762   4.331   3.125   5.287 -1.1257 -0.3415 -0.2156
 8370SOL     OW36763   3.201   3.705   2.852  0.0113  0.0266 -0.0760
 8370SOL    HW136764   3.126   3.742   2.797  1.3562  1.2016 -1.1303
 8370SOL    HW236765   3.251   3.780   2.896  0.8575 -0.7274  0.2667
 8371SOL     OW36766   8.466   7.199   6.891  0.2348  0.3637 -0.0722
 8371SOL    HW136767   8.548   7.177   6.838  0.2010 -0.7474  0.3237
 8371SOL    HW236768   8.459   7.298   6.903  1.1788  0.5002 -0.6496
 8372SOL     OW36769   4.588   0.865   6.363  0.0731 -0.5548  0.4532
 8372SOL    HW136770   4.540   0.921   6.294  3.3326  0.3560 -1.1731
 8372SOL    HW236771   4.542   0.776   6.371 -2.4225  0.6167 -0.3343
 8373SOL     OW36772   2.488   0.482   3.817  0.1339 -0.1964  0.0784
 8373SOL    HW136773   2.566   0.446   3.765 -0.4645 -0.5202 -0.6001
 8373SOL    HW236774   2.405   0.474   3.762 -0.5906 -0.9794  1.2620
 8374SOL     OW36775   9.087   4.132   3.498  0.0835 -0.0576 -0.5591
 8374SOL    HW136776   9.158   4.167   3.558 -0.2272  0.0188 -0.2347
 8374SOL    HW236777   9.026   4.207   3.472 -0.7527 -0.4048  0.3699
 8375SOL     OW36778   2.359   4.381   5.219  0.6793 -0.5643 -0.4253
 8375SOL    HW136779   2.436   4.319   5.227  1.4427  0.5289  0.9592
 8375SOL    HW236780   2.383   4.457   5.159  0.2626 -0.8252 -0.9307
 8376SOL     OW36781   5.545   8.994   6.756  0.6529 -0.2263 -0.0531
 8376SOL    HW136782   5.498   8.924   6.810  2.0289 -0.1581  1.2842
 8376SOL    HW236783   5.591   8.950   6.678  0.4705 -0.6405  0.0716
 8377SOL     OW36784   3.093   2.613   0.753  0.5989 -0.7343  0.0281
 8377SOL    HW136785   3.048   2.586   0.838  1.1546  0.6431  0.7710
 8377SOL    HW236786   3.161   2.684   0.772  0.2574  0.0703 -1.6645
 8378SOL     OW36787   0.133   5.739   1.711  0.2355 -0.0784 -0.3637
 8378SOL    HW136788   0.092   5.652   1.739  3.4753 -1.7011 -0.3663
 8378SOL    HW236789   0.177   5.782   1.791  0.2436  0.6222 -0.7426
 8379SOL     OW36790   2.230   6.484   6.710  0.1414 -1.2150 -0.0992
 8379SOL    HW136791   2.184   6.520   6.791 -0.4130 -2.3064  0.0844
 8379SOL    HW236792   2.211   6.386   6.702  1.0703 -1.3309 -0.9565
 8380SOL     OW36793   0.958   7.142   6.872  0.0525 -0.5086  0.1904
 8380SOL    HW136794   0.902   7.063   6.847  0.9406 -1.0294 -0.1829
 8380SOL    HW236795   0.972   7.200   6.792  1.5252 -1.3163 -0.1563
 8381SOL     OW36796   5.034   4.729   7.820  0.3083  0.4600 -0.1892
 8381SOL    HW136797   5.000   4.815   7.857 -0.5398  0.0042  0.1117
 8381SOL    HW236798   5.012   4.724   7.722  0.7615  0.7774 -0.3103
 8382SOL     OW36799   9.498   9.821   2.936 -0.1570  0.5100 -0.1600
 8382SOL    HW136800   9.415   9.871   2.916 -1.7325 -1.0287  2.2169
 8382SOL    HW236801   9.520   9.760   2.860 -0.6417  1.6420 -1.2133
 8383SOL     OW36802   3.909   2.278   2.411 -0.0967  0.0151  0.0286
 8383SOL    HW136803   3.882   2.374   2.418  0.1499  0.0243  0.9085
 8383SOL    HW236804   3.867   2.238   2.330 -0.8208  0.6686  0.0708
 8384SOL     OW36805   2.695   6.199   5.117 -0.0662  0.5495  0.3535
 8384SOL    HW136806   2.632   6.149   5.177  0.7010 -2.3294 -1.1810
 8384SOL    HW236807   2.785   6.205   5.160  0.3283 -1.0049 -0.2361
 8385SOL     OW36808   0.245   5.462   5.406  0.6349 -0.4045  0.1974
 8385SOL    HW136809   0.279   5.379   5.361 -1.8264 -1.0322 -0.6024
 8385SOL    HW236810   0.315   5.497   5.468  2.1402 -2.4723 -0.2622
 8386SOL     OW36811   3.687   3.618   2.795  0.6990  0.6811  0.5503
 8386SOL    HW136812   3.636   3.536   2.823 -0.5023  0.3434 -2.4032
 8386SOL    HW236813   3.665   3.694   2.856 -1.3686 -0.1511  0.8775
 8387SOL     OW36814   3.027   9.565   7.858 -0.7336  0.0338 -0.4223
 8387SOL    HW136815   3.113   9.602   7.822  0.5322  0.6888  3.1098
 8387SOL    HW236816   2.952   9.591   7.797  1.5338 -0.4721 -3.5186
 8388SOL     OW36817   0.353   7.916   5.801 -0.2576 -0.5252 -0.2808
 8388SOL    HW136818   0.321   7.930   5.895  1.2949  1.1791  0.0019
 8388SOL    HW236819   0.274   7.901   5.742 -1.4251  0.8487  0.8887
 8389SOL     OW36820   4.019   0.276   4.182  0.9831  0.3978 -0.3117
 8389SOL    HW136821   3.947   0.269   4.252  0.3526 -0.5735 -1.0435
 8389SOL    HW236822   4.023   0.191   4.130  2.3063  0.6565 -0.6380
 8390SOL     OW36823   5.769   2.200   8.190 -0.1700 -0.5960  0.1343
 8390SOL    HW136824   5.818   2.116   8.166 -0.9418 -1.4128  1.3373
 8390SOL    HW236825   5.683   2.204   8.140 -0.1509 -0.5401  0.1063
 8391SOL     OW36826   9.693   8.449   5.450 -0.3615  0.0436  0.2101
 8391SOL    HW136827   9.595   8.444   5.467  0.0241 -0.5094  2.4829
 8391SOL    HW236828   9.725   8.542   5.468 -0.2925 -0.0437  0.5429
 8392SOL     OW36829   0.762   2.888   4.945  0.3028 -0.4609 -0.1067
 8392SOL    HW136830   0.720   2.838   4.869  0.2420 -0.0189 -0.3622
 8392SOL    HW236831   0.758   2.986   4.927  3.1202 -0.4805 -1.0109
 8393SOL     OW36832   5.857   8.789   6.580  0.4526 -0.2217 -0.1787
 8393SOL    HW136833   5.891   8.858   6.643  0.1342 -0.1653 -0.0704
 8393SOL    HW236834   5.769   8.818   6.542 -1.0372 -1.7939  1.9278
 8394SOL     OW36835   5.343   9.454   2.181  0.3573 -0.6203  0.0684
 8394SOL    HW136836   5.435   9.466   2.143  0.2557  0.8341  0.2320
 8394SOL    HW236837   5.280   9.427   2.108  0.2964  1.4772 -0.7085
 8395SOL     OW36838   2.494   5.373   5.375 -0.1442 -0.0493 -0.2255
 8395SOL    HW136839   2.489   5.439   5.450 -0.9235 -0.1762 -0.1605
 8395SOL    HW236840   2.476   5.419   5.288  2.4368  0.4353 -0.5483
 8396SOL     OW36841   2.570   4.302   1.605  0.2763 -0.4725 -0.2115
 8396SOL    HW136842   2.663   4.337   1.592  0.2391 -1.2562 -3.0309
 8396SOL    HW236843   2.566   4.207   1.572 -1.9358  0.1701 -1.9237
 8397SOL     OW36844   8.147   2.005   1.188  0.7353 -0.2464 -0.3580
 8397SOL    HW136845   8.152   1.923   1.244  0.7978  0.0004 -0.0005
 8397SOL    HW236846   8.187   1.987   1.098  2.7199 -0.0023  0.4491
 8398SOL     OW36847   5.081   3.799   7.549  0.3443 -0.3632  0.1427
 8398SOL    HW136848   5.065   3.716   7.495  2.5123 -0.3793 -0.5550
 8398SOL    HW236849   5.162   3.785   7.607 -0.3129  0.6485  1.3155
 8399SOL     OW36850   1.102   2.036   2.594 -0.5240 -0.0380  0.4045
 8399SOL    HW136851   1.084   1.951   2.544 -1.8595  0.0402  0.7298
 8399SOL    HW236852   1.192   2.031   2.637 -0.2980 -1.0041 -0.1653
 8400SOL     OW36853   8.956   4.621   7.610  0.3109  0.1190  0.0750
 8400SOL    HW136854   9.052   4.644   7.593  0.7749 -1.9900 -0.2664
 8400SOL    HW236855   8.949   4.559   7.688 -0.7656  0.1154 -0.0089
 8401SOL     OW36856   4.227   8.758   4.234 -0.2897 -0.4175 -0.4949
 8401SOL    HW136857   4.159   8.820   4.273  0.1173  0.0926 -0.5879
 8401SOL    HW236858   4.314   8.771   4.282  0.2012  0.1702 -1.5257
 8402SOL     OW36859   8.998   4.121   5.077 -0.3571 -0.0227  0.3126
 8402SOL    HW136860   9.073   4.059   5.053  0.3552  0.8800  0.1772
 8402SOL    HW236861   8.950   4.086   5.157  1.8061  0.6617  1.9687
 8403SOL     OW36862   8.808   0.543   2.511 -0.6159  0.5563 -0.4560
 8403SOL    HW136863   8.808   0.540   2.611 -1.3538  0.7978 -0.4454
 8403SOL    HW236864   8.856   0.626   2.480  1.3524 -0.5081 -0.3539
 8404SOL     OW36865   5.864   9.426   6.027 -0.5331 -0.9401  0.3242
 8404SOL    HW136866   5.823   9.370   5.956 -0.8355 -0.9260  0.4862
 8404SOL    HW236867   5.953   9.388   6.053  0.2581 -0.1191 -1.0942
 8405SOL     OW36868   6.428   3.797   0.541  0.0036  0.2256 -0.5794
 8405SOL    HW136869   6.459   3.838   0.627 -1.7413 -0.2117  0.2699
 8405SOL    HW236870   6.488   3.720   0.518 -0.0430 -0.2073  0.7174
 8406SOL     OW36871   1.250   9.563   7.868  0.0379 -0.5094 -0.6285
 8406SOL    HW136872   1.292   9.643   7.910 -0.4741 -1.9440  2.8979
 8406SOL    HW236873   1.320   9.494   7.851  0.1198 -0.2615 -1.2905
 8407SOL     OW36874   8.697   1.850   4.834 -0.0100  0.2666  0.2473
 8407SOL    HW136875   8.684   1.871   4.737 -1.9918 -0.3790  0.3619
 8407SOL    HW236876   8.628   1.785   4.864  0.2878  0.8291  2.2244
 8408SOL     OW36877   4.823   3.220   3.817  0.0046 -0.0333  0.1784
 8408SOL    HW136878   4.812   3.173   3.904  1.1328  2.3509  1.6877
 8408SOL    HW236879   4.733   3.245   3.781 -0.5609 -2.7704 -0.3567
 8409SOL     OW36880   9.836   4.366   2.545  0.1279 -0.6708  0.5729
 8409SOL    HW136881   9.928   4.374   2.506  0.1123 -1.3324  0.3913
 8409SOL    HW236882   9.773   4.425   2.495  0.2922 -0.8242  0.1808
 8410SOL     OW36883   9.351   0.479   3.678  1.0864  0.3217 -0.2473
 8410SOL    HW136884   9.354   0.438   3.587  4.5372  3.0612 -1.4718
 8410SOL    HW236885   9.385   0.413   3.746 -0.2654 -1.2639 -1.0679
 8411SOL     OW36886   3.677   0.612   4.733  0.0628 -0.1039 -0.5522
 8411SOL    HW136887   3.628   0.696   4.755 -1.0073 -0.4880 -1.4601
 8411SOL    HW236888   3.763   0.610   4.784  0.7848  2.2286 -1.5967
 8412SOL     OW36889   9.020   5.691   0.552 -0.0822 -0.0518  0.2158
 8412SOL    HW136890   8.935   5.725   0.591 -0.4907  1.7795 -2.2005
 8412SOL    HW236891   9.069   5.637   0.621 -2.6746 -0.2687  1.9401
 8413SOL     OW36892   2.929   3.587   0.216  0.0651  0.3419 -0.1423
 8413SOL    HW136893   2.971   3.667   0.173  0.0545  0.3932 -0.0578
 8413SOL    HW236894   2.890   3.528   0.146  3.6605 -1.6732 -0.5070
 8414SOL     OW36895   2.809   4.775   0.008  0.3433  0.1113 -0.3454
 8414SOL    HW136896   2.714   4.745   0.021 -0.5106  2.0541 -1.9003
 8414SOL    HW236897   2.843   4.812   0.095  0.9967 -3.9439  1.2680
 8415SOL     OW36898   0.332   3.769   6.233  0.3988 -0.0439 -0.0419
 8415SOL    HW136899   0.292   3.728   6.150 -1.3631 -0.6948  1.1042
 8415SOL    HW236900   0.292   3.859   6.248 -0.2838 -0.4931  0.8419
 8416SOL     OW36901   8.750   7.443   5.170  0.1747 -0.3583 -0.5853
 8416SOL    HW136902   8.704   7.482   5.091 -0.1783 -0.4093 -0.4076
 8416SOL    HW236903   8.848   7.458   5.162  0.0266  0.8018 -0.3932
 8417SOL     OW36904   8.747   7.114   4.116  0.0579 -0.5732 -0.5164
 8417SOL    HW136905   8.728   7.205   4.079 -0.7507 -1.0437 -1.2886
 8417SOL    HW236906   8.688   7.047   4.071  0.3966 -1.4307  0.2976
 8418SOL     OW36907   6.093   9.887   1.890  0.1736  0.4504  0.5114
 8418SOL    HW136908   6.039   9.802   1.895  0.5890  0.1629  0.1802
 8418SOL    HW236909   6.035   9.965   1.915 -0.6901  0.2737 -0.8924
 8419SOL     OW36910   2.903   3.909   4.369  0.0349  0.6050  0.1986
 8419SOL    HW136911   2.998   3.907   4.340  0.3714 -0.4117  1.3537
 8419SOL    HW236912   2.847   3.949   4.296  1.0505 -0.6414 -1.2878
 8420SOL     OW36913   5.869   8.634   3.046 -0.1471 -0.1948 -0.4868
 8420SOL    HW136914   5.936   8.706   3.065  0.3505 -0.3635 -1.5543
 8420SOL    HW236915   5.802   8.668   2.980  0.2934 -0.8197 -1.2620
 8421SOL     OW36916   2.463   9.246   2.880  0.0313 -0.1704  0.6888
 8421SOL    HW136917   2.445   9.341   2.854 -1.7743 -1.3942 -2.8912
 8421SOL    HW236918   2.392   9.216   2.944 -0.3589  0.4184  0.5404
 8422SOL     OW36919   6.658   0.817   0.129 -0.2722 -0.2175  0.0094
 8422SOL    HW136920   6.587   0.887   0.134  0.5868  0.7572 -1.0240
 8422SOL    HW236921   6.704   0.810   0.217  0.8947  1.9017 -0.3989
 8423SOL     OW36922   7.732   4.224   7.994 -0.2347  0.2894 -0.6853
 8423SOL    HW136923   7.803   4.287   8.026 -1.2296  1.0878 -0.0207
 8423SOL    HW236924   7.775   4.140   7.962  0.9371  0.2966  0.7920
 8424SOL     OW36925   0.864   7.954   8.164 -0.6213 -0.4448 -0.1161
 8424SOL    HW136926   0.869   7.928   8.068 -0.8927  0.0928 -0.2751
 8424SOL    HW236927   0.835   7.875   8.218 -0.9192 -0.6237 -0.5332
 8425SOL     OW36928   7.655   9.952   5.400 -0.0397 -0.2913  0.4053
 8425SOL    HW136929   7.710  10.030   5.372 -1.2606  0.4092 -0.1180
 8425SOL    HW236930   7.713   9.882   5.439  0.9207  1.4983  2.2790
 8426SOL     OW36931   9.385   7.862   0.586  0.0033 -0.1053  0.5550
 8426SOL    HW136932   9.476   7.830   0.613  0.4489 -0.2580 -1.0774
 8426SOL    HW236933   9.388   7.898   0.493 -1.2456  1.5215  1.1282
 8427SOL     OW36934   8.230   9.625   3.311  0.5894  0.4538 -0.3462
 8427SOL    HW136935   8.252   9.578   3.396  0.5583  0.1405 -0.5095
 8427SOL    HW236936   8.175   9.706   3.331  0.7086  0.4641 -0.0575
 8428SOL     OW36937   8.135   2.394   0.881 -0.3848 -0.1395  0.3266
 8428SOL    HW136938   8.221   2.434   0.847 -0.8668  0.3674 -0.3092
 8428SOL    HW236939   8.126   2.301   0.846 -0.9820  0.4497 -1.1548
 8429SOL     OW36940   2.561   6.460   1.340  0.1945 -0.0064 -0.5042
 8429SOL    HW136941   2.480   6.481   1.285  0.0386  0.7313 -0.0102
 8429SOL    HW236942   2.639   6.443   1.280 -0.5684 -1.8054 -1.0162
 8430SOL     OW36943   8.841   2.200   5.172  0.2226 -0.1220  0.4908
 8430SOL    HW136944   8.902   2.165   5.244 -0.8187 -0.9870  0.9649
 8430SOL    HW236945   8.849   2.142   5.091 -0.7817 -0.9181  0.9422
 8431SOL     OW36946   1.295   1.351   3.081  0.5985  0.7389  0.1283
 8431SOL    HW136947   1.255   1.284   3.143  0.2698  0.6206 -0.2097
 8431SOL    HW236948   1.227   1.421   3.059 -0.3859 -1.0090 -2.7006
 8432SOL     OW36949   5.251   0.771   6.399 -0.2944  0.0274 -0.1882
 8432SOL    HW136950   5.252   0.869   6.382  0.5001  0.0594  0.0190
 8432SOL    HW236951   5.281   0.753   6.493 -0.7890 -0.3877 -0.1074
 8433SOL     OW36952   5.267   1.668   4.084  0.3375  0.0287 -0.1698
 8433SOL    HW136953   5.281   1.738   4.014  0.7114 -0.6669 -0.8085
 8433SOL    HW236954   5.344   1.604   4.083  0.3168 -0.0244  0.8483
 8434SOL     OW36955   0.285   0.815   1.519 -0.1959 -0.0797  0.0409
 8434SOL    HW136956   0.382   0.827   1.539 -0.3911  1.2045  0.2441
 8434SOL    HW236957   0.270   0.819   1.420  0.3068 -3.0304 -0.2093
 8435SOL     OW36958   3.785   1.756   5.035  0.2377 -0.3878  0.4286
 8435SOL    HW136959   3.884   1.752   5.042  0.3039  0.3276 -0.0433
 8435SOL    HW236960   3.757   1.844   4.996 -0.6846  0.2403  2.4208
 8436SOL     OW36961   1.200   7.503   5.700 -0.5496  0.0635  0.3485
 8436SOL    HW136962   1.100   7.499   5.707 -0.3888  0.3857  2.9220
 8436SOL    HW236963   1.235   7.410   5.691 -1.2144  0.0756 -3.2644
 8437SOL     OW36964   0.155   4.893   4.239 -0.4952  0.1879 -0.1564
 8437SOL    HW136965   0.144   4.992   4.226 -1.1691 -0.1024 -2.0015
 8437SOL    HW236966   0.076   4.856   4.287 -0.5374  0.4543 -0.0235
 8438SOL     OW36967   6.945   0.243   1.417 -0.5625 -0.2320  0.7972
 8438SOL    HW136968   6.932   0.231   1.318  1.1661 -1.3095  0.6979
 8438SOL    HW236969   6.855   0.254   1.460 -1.3465  0.2129 -0.8720
 8439SOL     OW36970   2.222   2.297   4.424 -0.0201 -0.2128 -0.4120
 8439SOL    HW136971   2.259   2.212   4.463 -0.2673 -0.3283 -0.4304
 8439SOL    HW236972   2.270   2.375   4.464 -0.0002 -0.3492 -0.1687
 8440SOL     OW36973   2.391   2.698   2.052  0.7446  0.1972 -0.0707
 8440SOL    HW136974   2.336   2.690   2.135  0.6807  1.3560  0.0021
 8440SOL    HW236975   2.475   2.749   2.073  1.2122 -0.4042 -0.4812
 8441SOL     OW36976   0.314   8.507   4.639 -0.1440 -0.2625  0.0798
 8441SOL    HW136977   0.364   8.585   4.676 -1.8417 -0.1485  2.2435
 8441SOL    HW236978   0.350   8.484   4.549  1.7317  1.7236  0.2806
 8442SOL     OW36979   1.217   7.513   1.314  0.5795  0.3266 -0.1748
 8442SOL    HW136980   1.130   7.468   1.335  0.5361  0.0010 -1.0528
 8442SOL    HW236981   1.210   7.560   1.227  2.0009 -1.6370 -1.3848
 8443SOL     OW36982   2.837   9.590   0.120  0.3227  0.0110 -0.4138
 8443SOL    HW136983   2.748   9.619   0.086 -0.0256  1.6781  1.7948
 8443SOL    HW236984   2.834   9.493   0.145 -0.8984  0.0738 -0.2958
 8444SOL     OW36985   3.518   0.028   7.989  0.7102 -0.1359 -0.0417
 8444SOL    HW136986   3.548  -0.066   8.010  1.2062  0.3700  1.5762
 8444SOL    HW236987   3.472   0.029   7.900  0.0365 -2.0506  0.2709
 8445SOL     OW36988   0.047   9.568   4.062 -0.2834  0.4643  0.7697
 8445SOL    HW136989   0.012   9.649   4.014  2.2759  2.5011  2.1510
 8445SOL    HW236990   0.082   9.502   3.996 -1.4320  0.9619 -0.3471
 8446SOL     OW36991   2.611   3.296   5.186  0.4473 -0.4915  0.1463
 8446SOL    HW136992   2.671   3.351   5.128 -0.1752  0.2239  0.1851
 8446SOL    HW236993   2.570   3.354   5.256 -1.8539 -0.5712 -1.0858
 8447SOL     OW36994   6.346   7.859   6.818 -0.1379  0.1672  0.7483
 8447SOL    HW136995   6.424   7.822   6.769 -0.3058  0.3423  0.3400
 8447SOL    HW236996   6.265   7.854   6.759 -0.0829  1.5334  0.5295
 8448SOL     OW36997   4.381   2.734   3.008 -0.1503 -0.3092  0.5970
 8448SOL    HW136998   4.359   2.742   3.105 -0.6609 -0.9366  0.5339
 8448SOL    HW236999   4.310   2.778   2.953  0.7878  1.1826  0.5500
 8449SOL     OW37000   0.233   8.293   2.109 -0.1727  0.0665  0.2122
 8449SOL    HW137001   0.265   8.214   2.161  0.6949  0.1145 -0.2368
 8449SOL    HW237002   0.207   8.264   2.017  2.3458  0.6478 -0.7308
 8450SOL     OW37003   1.574   2.144   2.604 -0.1944  0.4977 -0.3212
 8450SOL    HW137004   1.649   2.142   2.671 -0.8608 -1.5297  0.3913
 8450SOL    HW237005   1.500   2.202   2.639  0.8753  2.2261 -0.8739
 8451SOL     OW37006   1.652   4.687   4.089  0.0216 -0.4551 -0.1539
 8451SOL    HW137007   1.727   4.665   4.150  2.2397 -0.4251 -2.7736
 8451SOL    HW237008   1.570   4.708   4.143  2.1053  0.4398  2.7851
 8452SOL     OW37009   8.962   8.240   0.126  0.0712  0.0942  0.6549
 8452SOL    HW137010   8.884   8.220   0.066  0.2492  0.0284  0.4443
 8452SOL    HW237011   9.047   8.235   0.073  0.2228  0.0946  0.9016
 8453SOL     OW37012   3.620   6.213   6.201 -0.4717 -0.0420 -0.0218
 8453SOL    HW137013   3.602   6.117   6.223 -1.3503 -0.0905 -0.8727
 8453SOL    HW237014   3.546   6.269   6.237 -2.0976 -0.1601 -2.9701
 8454SOL     OW37015   4.239   5.431   7.130  0.2599 -0.0986  0.0915
 8454SOL    HW137016   4.317   5.433   7.067  0.9892 -1.0368  0.9467
 8454SOL    HW237017   4.272   5.423   7.224 -0.8434  0.7428  0.5560
 8455SOL     OW37018   3.338   1.503   2.864  0.8505 -0.3400 -0.1300
 8455SOL    HW137019   3.403   1.488   2.790  1.5926  1.2854  0.1625
 8455SOL    HW237020   3.313   1.600   2.867  0.2780 -0.5182  1.2737
 8456SOL     OW37021   8.811   0.280   2.403  0.2681  0.2147 -0.2025
 8456SOL    HW137022   8.739   0.211   2.401  0.5317 -0.0115 -2.5415
 8456SOL    HW237023   8.780   0.358   2.457 -1.1059 -0.5503  0.1508
 8457SOL     OW37024   0.423   1.820   5.017 -0.6800 -0.1296 -0.4312
 8457SOL    HW137025   0.346   1.837   5.079 -0.2291  0.3550 -0.0047
 8457SOL    HW237026   0.460   1.907   4.985  0.8466 -0.3211  0.7886
 8458SOL     OW37027   1.118   9.136   3.129 -0.3513  0.0049  0.0802
 8458SOL    HW137028   1.074   9.054   3.091  1.0662 -0.8752  0.3044
 8458SOL    HW237029   1.063   9.170   3.205 -0.8642 -0.8568  0.1106
 8459SOL     OW37030   5.310   9.659   6.159  0.4904 -0.1922 -0.0241
 8459SOL    HW137031   5.323   9.663   6.258  1.6645 -0.1593 -0.1710
 8459SOL    HW237032   5.252   9.735   6.129 -1.0147 -0.9889  0.8038
 8460SOL     OW37033   8.036   3.770   0.614 -0.0259 -0.3591 -0.3927
 8460SOL    HW137034   7.949   3.721   0.606 -0.5283  0.4693 -0.0395
 8460SOL    HW237035   8.030   3.857   0.565  0.1822  0.2723  0.7114
 8461SOL     OW37036   2.646   3.374   2.478 -0.6485  0.0587 -0.2394
 8461SOL    HW137037   2.559   3.341   2.440 -1.0232 -0.5958  1.1711
 8461SOL    HW237038   2.705   3.297   2.498 -0.9470  0.3134  1.6926
 8462SOL     OW37039   2.019   0.071   6.191 -0.2859 -0.0772 -0.1808
 8462SOL    HW137040   1.946   0.042   6.129  0.1603 -0.5657 -0.4856
 8462SOL    HW237041   2.076   0.140   6.145  0.3212 -0.7791 -0.4920
 8463SOL     OW37042   7.803   4.209   2.619 -0.2201 -0.4767  0.4738
 8463SOL    HW137043   7.864   4.281   2.586  0.9335 -1.6006  0.1041
 8463SOL    HW237044   7.736   4.186   2.549  0.5097 -0.9539 -0.0801
 8464SOL     OW37045   3.781   0.259   1.528 -0.3212 -0.0353 -0.2269
 8464SOL    HW137046   3.691   0.289   1.499 -0.5248  0.0296  0.4488
 8464SOL    HW237047   3.789   0.160   1.514  0.1936  0.2466 -2.0474
 8465SOL     OW37048   3.871   1.336   0.623 -0.2141 -0.3902  0.3394
 8465SOL    HW137049   3.816   1.411   0.659 -0.1020  0.5782 -1.4316
 8465SOL    HW237050   3.812   1.269   0.578 -0.3009 -1.3107  1.8000
 8466SOL     OW37051   4.033   5.799   3.281 -0.2920  0.0581 -0.7275
 8466SOL    HW137052   4.096   5.797   3.359 -1.0198 -0.0244 -0.1340
 8466SOL    HW237053   3.947   5.755   3.307 -0.3531 -0.4309 -1.7456
 8467SOL     OW37054   7.341   3.253   0.811 -0.0025 -0.3659  0.2868
 8467SOL    HW137055   7.306   3.160   0.818  0.6844 -0.7425 -1.0772
 8467SOL    HW237056   7.427   3.260   0.862 -0.2819 -0.3587  0.7565
 8468SOL     OW37057   0.226   7.013   7.811 -0.3485  0.0144  0.1316
 8468SOL    HW137058   0.190   7.072   7.738 -1.6130 -1.0400 -0.0994
 8468SOL    HW237059   0.164   6.936   7.826  1.4025 -1.4082  0.2620
 8469SOL     OW37060   9.444   8.463   2.484  0.0281 -0.3746  0.1744
 8469SOL    HW137061   9.416   8.406   2.407 -0.3799 -0.1705  0.1662
 8469SOL    HW237062   9.528   8.427   2.525  0.1042 -0.6283 -0.2068
 8470SOL     OW37063   7.597   2.454   7.838 -0.2656  0.0818 -0.0298
 8470SOL    HW137064   7.511   2.503   7.855 -0.2667  0.2625 -0.5352
 8470SOL    HW237065   7.608   2.441   7.739 -0.1460 -0.7263  0.0890
 8471SOL     OW37066   1.793   0.334   1.936  0.8413  0.1751 -0.1462
 8471SOL    HW137067   1.814   0.430   1.920 -1.3262  0.9416  1.3358
 8471SOL    HW237068   1.719   0.327   2.003  0.4180 -2.5085 -0.8309
 8472SOL     OW37069   3.673   2.398   0.102 -0.3770 -0.3104 -0.0160
 8472SOL    HW137070   3.700   2.480   0.152  0.9815 -0.5499 -0.3432
 8472SOL    HW237071   3.640   2.330   0.168 -2.1106  0.7070  0.1967
 8473SOL     OW37072   1.481   6.518   3.195 -0.3861  0.0010 -0.2876
 8473SOL    HW137073   1.515   6.597   3.143  0.5181 -0.0502  0.2193
 8473SOL    HW237074   1.551   6.448   3.199  0.4539  0.9353  2.9886
 8474SOL     OW37075   8.135   3.621   0.394  1.0497 -0.3912  0.5162
 8474SOL    HW137076   8.041   3.586   0.387  1.0611 -0.7237  1.9039
 8474SOL    HW237077   8.140   3.689   0.467  1.2044  1.9842 -1.6303
 8475SOL     OW37078   6.122   9.295   5.134  0.1036  0.1077 -0.0549
 8475SOL    HW137079   6.047   9.285   5.199 -1.1095  0.6014 -1.3604
 8475SOL    HW237080   6.166   9.383   5.147 -0.9557  0.7466 -0.7374
 8476SOL     OW37081   3.708   3.153   5.226  0.1066  0.3353  0.5589
 8476SOL    HW137082   3.660   3.228   5.180  2.9692  0.5696 -2.2541
 8476SOL    HW237083   3.710   3.074   5.166  0.0510 -0.8855  2.1488
 8477SOL     OW37084   8.395   8.127   4.139  0.4655  0.5357  0.4844
 8477SOL    HW137085   8.387   8.201   4.073  0.4649 -0.6504 -0.8773
 8477SOL    HW237086   8.490   8.121   4.171  0.4707  1.1105  0.5822
 8478SOL     OW37087   4.362   5.504   1.626 -0.3680 -0.0926 -0.3497
 8478SOL    HW137088   4.439   5.521   1.688  0.4884 -1.0775 -1.1147
 8478SOL    HW237089   4.313   5.589   1.608  0.8963  0.6455 -0.3126
 8479SOL     OW37090   9.693   2.169   4.125 -0.1762  0.1923 -0.1496
 8479SOL    HW137091   9.610   2.117   4.108 -0.6168  0.7012  0.4338
 8479SOL    HW237092   9.770   2.105   4.137 -0.3327 -0.2480 -1.4232
 8480SOL     OW37093   7.031   0.493   0.116  0.1359 -0.1983  0.0524
 8480SOL    HW137094   6.961   0.426   0.141  0.6007 -0.3109  1.0782
 8480SOL    HW237095   7.108   0.486   0.180  0.9183  0.1828 -0.8376
 8481SOL     OW37096   7.848   5.801   1.201 -0.3783  0.0654  0.4819
 8481SOL    HW137097   7.864   5.874   1.267  0.3305  0.1344  0.2375
 8481SOL    HW237098   7.910   5.812   1.123 -0.6131 -0.5106  0.2126
 8482SOL     OW37099   1.312   6.884   4.780 -0.1018  0.1937 -0.5278
 8482SOL    HW137100   1.242   6.945   4.816  0.0639 -1.3163  2.5319
 8482SOL    HW237101   1.269   6.811   4.726 -0.4595  1.7655 -2.4358
 8483SOL     OW37102   8.495   5.661   2.722 -0.2871 -0.0743 -0.2587
 8483SOL    HW137103   8.486   5.570   2.682 -0.6249  0.2458 -0.9157
 8483SOL    HW237104   8.569   5.661   2.789 -1.2288 -1.2207  0.8162
 8484SOL     OW37105   0.928   9.036   1.057  0.5383 -0.3654  0.4891
 8484SOL    HW137106   0.902   9.118   1.006  1.1599 -0.9794 -0.8481
 8484SOL    HW237107   0.999   8.987   1.007 -0.1961 -2.0009  1.0002
 8485SOL     OW37108   9.180   1.195   3.594 -0.4743  0.3781 -0.1993
 8485SOL    HW137109   9.104   1.239   3.546 -1.5578 -1.3767 -0.1328
 8485SOL    HW237110   9.167   1.204   3.693 -0.0102  1.0331 -0.1927
 8486SOL     OW37111   4.450   9.648   4.127 -0.9834  0.0387  0.4662
 8486SOL    HW137112   4.486   9.738   4.151 -1.8408  0.5479 -0.1386
 8486SOL    HW237113   4.495   9.615   4.045 -1.0547  0.1590  0.3782
 8487SOL     OW37114   9.961   5.539   2.798  0.8642  0.3458 -0.1519
 8487SOL    HW137115   9.876   5.487   2.800 -0.0091  1.7624  2.3013
 8487SOL    HW237116  10.036   5.482   2.832  0.2097  0.1657  1.0260
 8488SOL     OW37117   1.885   7.970   5.304  0.6797  0.2790 -0.4642
 8488SOL    HW137118   1.918   7.884   5.344  1.1454  1.0672  0.8604
 8488SOL    HW237119   1.785   7.972   5.310  0.7519  0.4763  0.8571
 8489SOL     OW37120   8.519   1.118   7.692  0.4587  0.2447 -0.1304
 8489SOL    HW137121   8.504   1.211   7.659 -1.2538 -0.5082 -1.5169
 8489SOL    HW237122   8.432   1.077   7.718  1.0897 -1.2944 -0.4094
 8490SOL     OW37123   1.087   5.683   3.278 -0.0427 -0.2920 -0.9702
 8490SOL    HW137124   1.094   5.772   3.232 -2.0624 -1.3404 -3.4373
 8490SOL    HW237125   1.172   5.632   3.264 -0.0648  0.0093 -2.3365
 8491SOL     OW37126   7.353   3.977   2.199 -0.2475 -0.6340 -0.3665
 8491SOL    HW137127   7.426   3.924   2.241  0.0500  1.6166  2.0860
 8491SOL    HW237128   7.392   4.034   2.126 -0.2428 -2.2823 -1.6763
 8492SOL     OW37129   0.018   4.139   1.297 -0.4280  0.2007  0.4297
 8492SOL    HW137130   0.089   4.074   1.270  0.1736  1.3825 -0.8908
 8492SOL    HW237131   0.027   4.160   1.394  2.0563  1.5584 -0.0679
 8493SOL     OW37132   9.377   8.154   3.820  0.6242  0.2380  0.0630
 8493SOL    HW137133   9.441   8.148   3.896  1.0716 -1.9286 -0.4554
 8493SOL    HW237134   9.345   8.248   3.811  2.2286  0.9505  1.5484
 8494SOL     OW37135   8.186   2.428   3.449 -0.5197 -0.2656  0.0412
 8494SOL    HW137136   8.229   2.393   3.532  0.6729  0.1099 -0.4098
 8494SOL    HW237137   8.256   2.444   3.380 -1.4398 -0.0261 -0.8391
 8495SOL     OW37138   0.340   9.260   1.308 -0.0281  0.4442 -0.5497
 8495SOL    HW137139   0.349   9.355   1.276  3.5123  0.6402  0.8480
 8495SOL    HW237140   0.344   9.258   1.408  0.7708 -1.2838 -0.6095
 8496SOL     OW37141   9.678   8.248   7.988 -0.2945 -0.2597 -0.2732
 8496SOL    HW137142   9.646   8.325   7.933  1.4870 -0.9590 -2.3489
 8496SOL    HW237143   9.600   8.200   8.027 -1.5916  0.4156 -1.9829
 8497SOL     OW37144   2.892   8.615   5.869  0.6099  0.1967  0.4746
 8497SOL    HW137145   2.990   8.623   5.852  1.6043 -1.0872  5.0001
 8497SOL    HW237146   2.863   8.685   5.934 -1.2706 -0.1615  0.0690
 8498SOL     OW37147   4.676   8.226   7.557  0.0034  0.0153  0.3705
 8498SOL    HW137148   4.710   8.184   7.473 -0.1555 -1.6669  1.1252
 8498SOL    HW237149   4.593   8.278   7.538  1.3776  1.7731 -0.9628
 8499SOL     OW37150   4.526   1.872   3.297 -0.1772 -0.6405  0.6011
 8499SOL    HW137151   4.538   1.935   3.373  0.5186 -1.1792  0.9405
 8499SOL    HW237152   4.486   1.921   3.219  0.5332  0.2634  0.7930
 8500SOL     OW37153   9.273   7.097   2.904  0.3183 -0.2940 -0.2486
 8500SOL    HW137154   9.246   7.168   2.968 -0.0365 -0.5982 -0.0630
 8500SOL    HW237155   9.245   7.123   2.811 -0.2254 -0.4088 -0.1166
 8501SOL     OW37156   1.765   7.651   8.031 -0.1598  0.2867 -0.2746
 8501SOL    HW137157   1.679   7.600   8.020 -0.4573  0.5036  1.0408
 8501SOL    HW237158   1.779   7.710   7.951  0.9867 -2.9905 -2.6150
 8502SOL     OW37159   3.983   0.427   6.283  0.2314  0.4477 -0.0927
 8502SOL    HW137160   4.045   0.431   6.205 -1.1417  0.4168 -1.2073
 8502SOL    HW237161   4.035   0.408   6.366  1.6044 -0.4668 -1.1394
 8503SOL     OW37162   6.954   7.155   5.188  0.0423 -0.1226 -1.0353
 8503SOL    HW137163   7.004   7.225   5.239  0.3401 -0.8122 -0.3668
 8503SOL    HW237164   6.904   7.096   5.252 -1.1526  0.1890 -1.6657
 8504SOL     OW37165   9.729   3.789   4.439 -0.8528  0.4068 -0.1697
 8504SOL    HW137166   9.658   3.730   4.400  0.4138 -2.0646  1.1780
 8504SOL    HW237167   9.785   3.826   4.365 -1.9188  0.2801 -1.0596
 8505SOL     OW37168   3.360   8.389   0.277  0.7480 -0.2150 -0.1211
 8505SOL    HW137169   3.357   8.290   0.292  0.3869 -0.1310  0.3778
 8505SOL    HW237170   3.452   8.423   0.296  0.1429 -0.0126  2.5938
 8506SOL     OW37171   9.086   6.431   0.321 -0.1334  0.0713 -0.1045
 8506SOL    HW137172   9.077   6.344   0.272 -1.0252  0.2562 -0.2794
 8506SOL    HW237173   9.158   6.424   0.389  0.5617 -0.4545 -0.8869
 8507SOL     OW37174   8.219   6.704   3.916 -0.2089 -0.4065  0.5319
 8507SOL    HW137175   8.130   6.743   3.893 -0.8554 -1.1698  1.6825
 8507SOL    HW237176   8.225   6.689   4.014 -0.8128 -5.1279 -0.0350
 8508SOL     OW37177   4.753   3.512   1.769 -0.4352 -0.6679  0.2712
 8508SOL    HW137178   4.813   3.433   1.782 -0.4284 -0.6175  0.5548
 8508SOL    HW237179   4.713   3.537   1.857 -2.2033 -1.7651 -0.1968
 8509SOL     OW37180   3.390   2.312   3.000  0.4836 -0.3105  0.4313
 8509SOL    HW137181   3.360   2.355   2.915  0.2020 -0.8275  0.2645
 8509SOL    HW237182   3.486   2.288   2.993  0.8252  0.9233  0.7875
 8510SOL     OW37183   8.116   9.077   2.734  0.3343  0.3242  0.0616
 8510SOL    HW137184   8.129   8.989   2.687  1.0616 -0.0234  0.8963
 8510SOL    HW237185   8.188   9.141   2.706 -0.9810  1.1157 -1.5865
 8511SOL     OW37186   9.819   4.531   1.847  0.5298 -0.8824 -0.1660
 8511SOL    HW137187   9.774   4.500   1.763  2.3399 -2.1451 -0.7129
 8511SOL    HW237188   9.846   4.626   1.838 -0.7632 -0.5254 -0.3626
 8512SOL     OW37189   8.588   1.575   5.331  0.1326  0.0861 -0.6346
 8512SOL    HW137190   8.501   1.558   5.376  0.0357  0.8929 -0.5042
 8512SOL    HW237191   8.662   1.533   5.384 -0.1136 -0.0756 -0.4205
 8513SOL     OW37192   0.062   7.047   6.820  0.1277 -0.1673 -0.4807
 8513SOL    HW137193   0.002   7.048   6.740 -0.2941 -0.3512 -0.1744
 8513SOL    HW237194   0.043   6.965   6.874  1.6489 -0.9648 -1.1168
 8514SOL     OW37195   3.891   9.552   0.284 -0.3490  0.0216 -0.0112
 8514SOL    HW137196   3.869   9.489   0.210 -1.9212  0.9135 -0.3249
 8514SOL    HW237197   3.807   9.586   0.325  0.4957  0.7794  1.1301
 8515SOL     OW37198   0.283   8.291   1.551 -0.1150 -0.2947 -0.2003
 8515SOL    HW137199   0.254   8.360   1.484 -1.7825 -1.7442 -0.9850
 8515SOL    HW237200   0.333   8.218   1.504  1.4511  0.2276  0.6005
 8516SOL     OW37201   2.028   5.476   7.085  0.6192 -0.3917 -0.1827
 8516SOL    HW137202   2.051   5.566   7.123  0.8787 -1.2093  1.6473
 8516SOL    HW237203   1.975   5.424   7.152  0.0794 -1.4418 -1.4007
 8517SOL     OW37204   0.706   4.269   6.602 -0.1802 -0.6439  0.8300
 8517SOL    HW137205   0.798   4.229   6.606 -0.2917 -0.7590  2.2115
 8517SOL    HW237206   0.691   4.328   6.681 -1.9992 -2.1332  1.6241
 8518SOL     OW37207   7.713   5.308   1.903 -0.3933 -0.5274  0.3467
 8518SOL    HW137208   7.807   5.278   1.887  0.6469  1.3650  2.4673
 8518SOL    HW237209   7.703   5.404   1.877 -1.8944 -0.8574 -0.3699
 8519SOL     OW37210   8.119   5.589   2.515 -0.1915 -0.4601 -0.0898
 8519SOL    HW137211   8.108   5.639   2.429 -1.1382 -0.0524  0.2549
 8519SOL    HW237212   8.075   5.641   2.589  1.1487 -0.5084  0.7490
 8520SOL     OW37213   2.985   2.807   5.457  0.0242  0.1917 -0.1602
 8520SOL    HW137214   3.067   2.861   5.435  0.4867  0.0401  1.1429
 8520SOL    HW237215   2.966   2.744   5.382  0.3116  1.1648 -1.0696
 8521SOL     OW37216   7.677   4.269   0.238 -0.2257 -0.1434  0.1779
 8521SOL    HW137217   7.660   4.220   0.324  1.3155  1.0803  1.2276
 8521SOL    HW237218   7.769   4.248   0.206 -0.9219 -0.8665 -1.3780
 8522SOL     OW37219   4.053   5.129   3.420 -0.1019 -0.2593 -0.3751
 8522SOL    HW137220   4.034   5.222   3.389  0.1121  0.6215  2.0432
 8522SOL    HW237221   3.969   5.076   3.419 -0.1972 -0.1056 -1.9242
 8523SOL     OW37222   1.131   0.194   4.383 -0.5572 -0.1729  0.1749
 8523SOL    HW137223   1.229   0.176   4.378 -0.5803  0.2124 -2.3499
 8523SOL    HW237224   1.115   0.292   4.387 -0.8643 -0.2313  0.4641
 8524SOL     OW37225   2.746   3.135   4.457  0.0940  0.5341  0.6579
 8524SOL    HW137226   2.656   3.145   4.499 -0.6902  0.8448 -1.0623
 8524SOL    HW237227   2.802   3.215   4.477  0.2924 -0.0106  2.3974
 8525SOL     OW37228   9.223   1.184   7.303  0.3281 -0.1604  0.6134
 8525SOL    HW137229   9.243   1.088   7.322  0.2927 -0.3739 -0.4119
 8525SOL    HW237230   9.176   1.224   7.382  0.5093 -0.9334  1.1197
 8526SOL     OW37231   0.271   9.456   7.015  0.0543 -0.1464  0.2782
 8526SOL    HW137232   0.360   9.500   7.030 -0.5276  0.7201  1.3054
 8526SOL    HW237233   0.278   9.392   6.939  2.0213 -1.4370  1.5065
 8527SOL     OW37234   7.766   6.632   7.814  0.7774 -0.1464 -0.2250
 8527SOL    HW137235   7.862   6.652   7.792  0.8155  0.4406  0.4615
 8527SOL    HW237236   7.737   6.689   7.891 -0.0553 -0.4929 -0.2811
 8528SOL     OW37237   3.348   0.016   5.398 -0.3165 -0.3152  0.1925
 8528SOL    HW137238   3.270   0.035   5.338  0.6217 -0.7230 -1.1797
 8528SOL    HW237239   3.373   0.099   5.448 -0.7027  0.2011 -0.4659
 8529SOL     OW37240   7.307   5.450   8.179 -0.1638 -0.0637 -0.0505
 8529SOL    HW137241   7.393   5.473   8.133  0.4799 -3.1307 -0.5026
 8529SOL    HW237242   7.314   5.475   8.276  0.2756  1.9695 -0.5681
 8530SOL     OW37243   3.143   8.606   7.165  0.0635  0.0492  0.3752
 8530SOL    HW137244   3.098   8.574   7.248  0.5746  0.1988  0.7105
 8530SOL    HW237245   3.107   8.696   7.140  0.2614  0.2203  0.7087
 8531SOL     OW37246   6.294   0.533   5.868 -0.8276 -0.4860 -0.1657
 8531SOL    HW137247   6.207   0.570   5.899 -1.0724  0.2012 -1.6214
 8531SOL    HW237248   6.289   0.514   5.770 -0.0473 -2.5033  0.1667
 8532SOL     OW37249   6.550   3.942   8.071  0.1152  0.1243 -0.4036
 8532SOL    HW137250   6.460   3.962   8.033  0.0866  0.6619 -0.0686
 8532SOL    HW237251   6.606   3.894   8.004 -1.0254 -1.8054 -0.0053
 8533SOL     OW37252   9.747   0.958   5.443 -0.3142  0.3479 -0.4315
 8533SOL    HW137253   9.729   0.864   5.473 -1.8394  0.1716 -1.8874
 8533SOL    HW237254   9.669   1.016   5.464 -0.1377  0.8949 -1.2493
 8534SOL     OW37255   1.917   9.583   1.739 -0.0500 -0.0794 -0.0865
 8534SOL    HW137256   1.860   9.639   1.679 -0.9656 -1.9233 -0.9776
 8534SOL    HW237257   1.921   9.625   1.829 -2.3138  0.4359 -0.1872
 8535SOL     OW37258   9.223   8.895   5.999 -0.4807  0.1507 -0.2700
 8535SOL    HW137259   9.142   8.925   6.049 -0.1079  1.1491 -0.2524
 8535SOL    HW237260   9.225   8.939   5.910  0.8593  1.3574  0.3449
 8536SOL     OW37261   8.767   0.739   3.289  0.5206 -0.1908  0.3981
 8536SOL    HW137262   8.710   0.811   3.329  0.6048  0.0622  0.0642
 8536SOL    HW237263   8.764   0.746   3.189  0.5863 -0.6067  0.3680
 8537SOL     OW37264   1.127   9.605   5.124 -1.0265  0.0502  0.4371
 8537SOL    HW137265   1.196   9.677   5.114 -1.3272  0.9280  4.1436
 8537SOL    HW237266   1.069   9.603   5.043  3.1602 -0.6179 -2.7626
 8538SOL     OW37267   9.331   4.005   4.785  0.1824  0.2072  0.5872
 8538SOL    HW137268   9.361   3.919   4.742  2.2964  1.1059  0.2167
 8538SOL    HW237269   9.309   4.071   4.714 -0.0555  0.4554  0.8909
 8539SOL     OW37270   7.546   1.232   3.720 -0.4907  1.2585  0.3361
 8539SOL    HW137271   7.582   1.179   3.798 -1.6143  1.2105  0.8332
 8539SOL    HW237272   7.473   1.180   3.676  1.9219  0.0834 -2.4385
 8540SOL     OW37273   8.735   7.774   1.322  0.0623  0.0317  0.0594
 8540SOL    HW137274   8.674   7.728   1.257 -0.1253  0.7497 -0.2709
 8540SOL    HW237275   8.746   7.870   1.296 -1.0367  0.6541  1.8282
 8541SOL     OW37276   4.582   4.713   5.707  0.3225 -0.3513  0.3234
 8541SOL    HW137277   4.628   4.637   5.753  0.1035 -1.1355 -0.7122
 8541SOL    HW237278   4.635   4.740   5.627 -1.0705 -1.4197 -1.0211
 8542SOL     OW37279   1.535   8.093   7.306  0.2378 -0.2492  0.2923
 8542SOL    HW137280   1.503   8.172   7.357 -0.7831 -0.5897  0.2032
 8542SOL    HW237281   1.477   8.080   7.225  1.8705  0.3403 -1.0170
 8543SOL     OW37282   0.342   9.387   2.248 -0.6273  0.0317 -0.2447
 8543SOL    HW137283   0.370   9.302   2.202  1.3101  0.3436  0.2953
 8543SOL    HW237284   0.258   9.421   2.207  0.0982 -0.6473 -2.3791
 8544SOL     OW37285   5.356   8.819   3.158 -0.4962  1.0096  0.0021
 8544SOL    HW137286   5.292   8.769   3.099 -0.4703 -0.3500  1.1061
 8544SOL    HW237287   5.447   8.819   3.116 -0.1671 -1.1319  0.6594
 8545SOL     OW37288   8.299   1.364   7.280 -0.3570 -0.1933 -0.0412
 8545SOL    HW137289   8.242   1.311   7.343 -1.8438  0.4411 -0.8157
 8545SOL    HW237290   8.308   1.313   7.194 -3.2313  1.4976 -1.4253
 8546SOL     OW37291   2.940   0.484   6.918  0.8366  0.1668  0.5774
 8546SOL    HW137292   2.980   0.437   6.839  2.9394  1.0324  1.0872
 8546SOL    HW237293   3.005   0.483   6.994 -0.8706 -0.0122  2.0869
 8547SOL     OW37294   6.950   3.346   8.047  0.0890 -0.0534 -0.6617
 8547SOL    HW137295   6.857   3.377   8.068  0.7387  1.9089 -0.6068
 8547SOL    HW237296   6.972   3.366   7.952  0.7781  0.3413 -0.4262
 8548SOL     OW37297   3.325   4.806   7.468  0.3096  0.4568  0.5096
 8548SOL    HW137298   3.268   4.748   7.526  0.3591 -1.7230 -1.5105
 8548SOL    HW237299   3.417   4.767   7.462  0.9654  1.9527  0.8572
 8549SOL     OW37300   9.609   2.195   2.886  0.2897  0.2649  0.1775
 8549SOL    HW137301   9.675   2.269   2.899  0.6712  0.2184 -1.3301
 8549SOL    HW237302   9.598   2.144   2.971  1.7203  0.6635  0.6137
 8550SOL     OW37303   2.921   6.466   5.325 -0.0849 -0.1163 -0.2198
 8550SOL    HW137304   2.896   6.550   5.277 -0.6305  0.7228  1.4554
 8550SOL    HW237305   2.961   6.490   5.414 -0.8105 -1.6265  0.5372
 8551SOL     OW37306   3.490   1.697   0.963 -0.8969  0.7709 -0.2624
 8551SOL    HW137307   3.472   1.793   0.985  0.0673  0.7542  0.6656
 8551SOL    HW237308   3.589   1.682   0.957 -1.0493 -0.0599 -0.9114
 8552SOL     OW37309   4.568   3.726   0.103 -0.2599 -0.3607  0.4483
 8552SOL    HW137310   4.565   3.755   0.199 -0.9349 -1.3598  0.7273
 8552SOL    HW237311   4.502   3.653   0.088  1.3295 -1.6569 -0.3042
 8553SOL     OW37312   0.779   2.911   4.388 -0.1060 -0.0687 -0.1702
 8553SOL    HW137313   0.702   2.975   4.394 -0.3325 -0.4091  0.6818
 8553SOL    HW237314   0.746   2.821   4.360 -0.2698 -0.6385  1.8112
 8554SOL     OW37315   3.090   5.095   0.823  0.1588  0.3924 -0.1860
 8554SOL    HW137316   3.106   5.123   0.728  1.7704  0.1627  0.0173
 8554SOL    HW237317   3.013   5.147   0.860  0.5278  1.6076 -1.1095
 8555SOL     OW37318   4.768   1.502   6.500  0.2744 -0.4912 -0.0889
 8555SOL    HW137319   4.764   1.408   6.467  0.4187 -0.6752  0.4009
 8555SOL    HW237320   4.863   1.529   6.511  0.2326 -0.2948 -0.2187
 8556SOL     OW37321   6.269   7.182   5.097 -0.0909  0.0313 -0.4341
 8556SOL    HW137322   6.368   7.189   5.108 -0.2032  0.7518  0.1824
 8556SOL    HW237323   6.224   7.243   5.162 -0.8960  1.3243 -2.1592
 8557SOL     OW37324   4.217   3.277   0.859 -0.0122 -0.8080  0.5359
 8557SOL    HW137325   4.119   3.267   0.840  0.1470 -0.2444 -0.5972
 8557SOL    HW237326   4.231   3.280   0.958 -1.2107 -0.2359  0.7009
 8558SOL     OW37327   9.933   2.430   7.947 -0.6073 -0.4131  0.2428
 8558SOL    HW137328   9.973   2.500   7.887  2.3315 -1.4022  1.0078
 8558SOL    HW237329   9.861   2.472   8.003  1.0583  2.0027  0.6467
 8559SOL     OW37330   0.054   1.267   0.393  0.4665 -0.7126 -0.1909
 8559SOL    HW137331   0.150   1.240   0.384  0.7467  0.4621 -0.7851
 8559SOL    HW237332   0.025   1.257   0.488  1.4945 -0.0418  0.1978
 8560SOL     OW37333   0.614   5.078   6.280 -0.3032 -0.3205  0.5475
 8560SOL    HW137334   0.648   5.029   6.360  1.6631  0.0669 -0.0236
 8560SOL    HW237335   0.691   5.098   6.218 -1.9104 -1.5222 -1.9317
 8561SOL     OW37336   1.842   8.505   7.839 -0.0518  0.5298  0.5412
 8561SOL    HW137337   1.814   8.593   7.878 -2.6891  0.5859 -1.3134
 8561SOL    HW237338   1.896   8.520   7.757  0.1440  0.4152  0.6486
 8562SOL     OW37339   1.624   4.512   6.015 -0.4292 -0.2697 -0.5335
 8562SOL    HW137340   1.640   4.590   5.954 -0.0115 -1.1633 -1.5990
 8562SOL    HW237341   1.679   4.523   6.098 -0.1797  0.4465 -0.7854
 8563SOL     OW37342   2.743   8.194   5.772  0.4132  0.5091  0.8846
 8563SOL    HW137343   2.718   8.263   5.704  0.8587  1.8934  2.0731
 8563SOL    HW237344   2.663   8.169   5.826  0.4452  0.8082  1.0719
 8564SOL     OW37345   7.852   2.646   7.364 -0.2199  0.4171 -0.2968
 8564SOL    HW137346   7.822   2.559   7.324  0.0833  0.2264 -0.1112
 8564SOL    HW237347   7.930   2.681   7.312  0.4259 -0.0288  0.3623
 8565SOL     OW37348   1.273   3.483   5.458 -0.1391  0.0163 -0.6336
 8565SOL    HW137349   1.190   3.504   5.509  1.6496 -0.3369  2.5572
 8565SOL    HW237350   1.316   3.401   5.496  1.5348  0.0509 -2.3699
 8566SOL     OW37351   4.144   9.164   3.855  0.3304  0.1269 -0.4306
 8566SOL    HW137352   4.215   9.183   3.787  1.2165  1.6984  0.9137
 8566SOL    HW237353   4.125   9.247   3.908 -1.7142 -0.5778 -0.0300
 8567SOL     OW37354   2.962   4.219   5.764  0.0751 -0.7237 -0.2721
 8567SOL    HW137355   2.927   4.229   5.671  0.3347 -0.8938 -0.3875
 8567SOL    HW237356   2.958   4.307   5.811 -0.4444 -0.7276 -0.3084
 8568SOL     OW37357   8.736   9.932   6.500  0.1390 -0.3984 -0.1648
 8568SOL    HW137358   8.816   9.887   6.461  0.2299  0.0493 -0.5010
 8568SOL    HW237359   8.680   9.865   6.549  0.5356 -0.7764 -0.2287
 8569SOL     OW37360   3.324   9.678   1.051 -0.0268  0.2737  0.3131
 8569SOL    HW137361   3.347   9.767   1.011  0.5270 -0.3498 -0.7556
 8569SOL    HW237362   3.398   9.613   1.035 -1.2139 -0.8983 -0.5367
 8570SOL     OW37363   4.964   7.678   6.635 -0.4899  0.3438  0.6269
 8570SOL    HW137364   4.910   7.714   6.559 -0.4950  0.3352  0.6265
 8570SOL    HW237365   5.013   7.596   6.605  0.9566  1.3830  0.0921
 8571SOL     OW37366   6.920   0.984   3.410 -0.5675  0.4111  0.2924
 8571SOL    HW137367   6.877   1.047   3.475 -0.2954  1.2160 -0.2883
 8571SOL    HW237368   7.019   1.001   3.407 -0.6135  0.5640 -0.5205
 8572SOL     OW37369   1.700   8.270   5.482  0.8749 -0.8376  0.3955
 8572SOL    HW137370   1.766   8.339   5.511  0.5982  1.1220 -3.3425
 8572SOL    HW237371   1.611   8.288   5.525  0.8983  0.9651 -0.2733
 8573SOL     OW37372   0.791   4.740   4.674  0.0256  0.7135 -0.4538
 8573SOL    HW137373   0.869   4.778   4.724  0.5193 -0.3255 -0.4366
 8573SOL    HW237374   0.768   4.650   4.710 -1.5960  1.2783 -0.0360
 8574SOL     OW37375   2.216   5.212   4.270  0.0819  0.0176 -0.0124
 8574SOL    HW137376   2.230   5.308   4.297 -1.6086 -0.0092  1.0832
 8574SOL    HW237377   2.227   5.153   4.350 -0.4906 -0.5286 -0.3287
 8575SOL     OW37378   1.277   2.358   3.502 -0.2183  0.0746  1.0948
 8575SOL    HW137379   1.183   2.388   3.518 -0.5042  0.2721 -0.9088
 8575SOL    HW237380   1.329   2.430   3.456  0.6070 -0.4578  1.1730
 8576SOL     OW37381   4.704   3.561   2.033 -0.4482  0.2457 -0.2490
 8576SOL    HW137382   4.748   3.631   2.088 -1.0969 -0.3736  1.0907
 8576SOL    HW237383   4.614   3.539   2.071 -1.0262 -0.0265 -1.6998
 8577SOL     OW37384   9.417   5.403   8.043 -0.2263 -0.1228  0.0024
 8577SOL    HW137385   9.393   5.458   8.123 -0.4105 -1.1820  0.6925
 8577SOL    HW237386   9.437   5.309   8.072  0.0049 -0.4408 -1.1591
 8578SOL     OW37387   2.092   4.904   6.262 -0.3056  0.3392 -0.3954
 8578SOL    HW137388   2.121   4.856   6.179  1.7612  0.3038  0.3152
 8578SOL    HW237389   2.150   4.984   6.276 -2.5717  2.0836 -0.6038
 8579SOL     OW37390   8.194   3.958   5.339  0.6550  0.1364 -0.4314
 8579SOL    HW137391   8.278   4.013   5.342 -0.7894  2.3303  2.6506
 8579SOL    HW237392   8.164   3.938   5.433 -1.8792 -1.2570 -1.4924
 8580SOL     OW37393   8.536   4.783   4.235  0.1837 -0.6642 -0.2581
 8580SOL    HW137394   8.484   4.867   4.252 -0.0146 -0.8703  0.1396
 8580SOL    HW237395   8.558   4.739   4.322  2.4427  0.2918 -0.2828
 8581SOL     OW37396   4.281   0.811   8.048 -0.1434  0.3256  0.0731
 8581SOL    HW137397   4.354   0.760   8.002 -0.4433 -2.0374  2.1068
 8581SOL    HW237398   4.318   0.860   8.126 -0.4801  0.3769  0.2038
 8582SOL     OW37399   6.338   7.976   5.240 -0.1526  0.5883  0.0865
 8582SOL    HW137400   6.359   7.958   5.144 -2.6524  2.2165 -0.8470
 8582SOL    HW237401   6.273   7.908   5.273  1.0139 -0.2031  0.7373
 8583SOL     OW37402   5.043   7.469   4.691  0.0653  0.3655 -0.2175
 8583SOL    HW137403   4.953   7.424   4.693  0.6394 -0.7823  0.0255
 8583SOL    HW237404   5.085   7.462   4.781  0.8975 -0.1053 -0.6417
 8584SOL     OW37405   7.641   1.085   3.967  0.1056  0.0379  0.1595
 8584SOL    HW137406   7.617   1.001   4.016  1.1924 -1.3071 -1.5433
 8584SOL    HW237407   7.736   1.079   3.935 -0.1694  1.4189 -0.9745
 8585SOL     OW37408   3.388   4.939   4.417 -0.4622 -0.5793  0.0024
 8585SOL    HW137409   3.397   5.038   4.404 -1.5484 -0.4334  0.3595
 8585SOL    HW237410   3.344   4.899   4.337 -0.2348 -0.7444 -0.0406
 8586SOL     OW37411   2.264   5.129   6.227 -0.1508 -0.3808 -0.3809
 8586SOL    HW137412   2.283   5.082   6.141  0.3245 -0.4031 -0.2655
 8586SOL    HW237413   2.257   5.227   6.210  0.5662 -0.3241 -0.3423
 8587SOL     OW37414   1.292   1.638   6.539 -0.0924  0.2473 -0.2703
 8587SOL    HW137415   1.308   1.544   6.570 -1.5041 -0.2018 -0.8745
 8587SOL    HW237416   1.375   1.672   6.494  0.2879 -0.8517 -0.4274
 8588SOL     OW37417   7.370   8.347   7.113  0.1156  0.5575 -0.9401
 8588SOL    HW137418   7.449   8.340   7.053  1.3350  0.2150  0.6609
 8588SOL    HW237419   7.371   8.435   7.160  1.5810 -0.8580  1.7974
 8589SOL     OW37420   3.722   0.533   6.451  0.1453 -0.5379  0.4342
 8589SOL    HW137421   3.768   0.530   6.362 -2.5140  1.8748 -1.0824
 8589SOL    HW237422   3.772   0.594   6.513 -0.2048  0.9532 -0.7406
 8590SOL     OW37423   7.894   0.534   6.084  0.1191 -0.0872 -0.0609
 8590SOL    HW137424   7.825   0.600   6.114  0.2785 -0.3681  0.9495
 8590SOL    HW237425   7.973   0.539   6.145  2.0240  1.9035 -2.6093
 8591SOL     OW37426   9.137   6.020   0.897 -0.2137  0.5133 -0.0453
 8591SOL    HW137427   9.203   6.018   0.822  0.1495 -0.2324  0.2909
 8591SOL    HW237428   9.136   6.112   0.937 -0.3191  0.8743 -0.8837
 8592SOL     OW37429   4.332   0.938   4.096 -0.4608 -0.0414  0.0132
 8592SOL    HW137430   4.266   1.012   4.107 -0.1114  0.4698 -1.2106
 8592SOL    HW237431   4.334   0.881   4.178 -0.8669  1.1992  0.8817
 8593SOL     OW37432   3.571   8.016   0.878  0.1357 -0.2228 -0.4003
 8593SOL    HW137433   3.605   8.110   0.883  1.4603 -0.6689 -0.7245
 8593SOL    HW237434   3.565   7.977   0.969 -2.1555  0.7697 -0.1045
 8594SOL     OW37435   9.839   1.185   3.265  0.0191 -0.3921 -0.0499
 8594SOL    HW137436   9.853   1.264   3.325 -1.8199  0.2485 -0.4232
 8594SOL    HW237437   9.911   1.117   3.282  1.0169  0.8949  1.0244
 8595SOL     OW37438   3.033   1.582   0.577  0.1594 -0.0624  0.0469
 8595SOL    HW137439   3.103   1.531   0.528 -0.2840 -0.0344 -0.6321
 8595SOL    HW237440   3.054   1.584   0.675  0.4766 -1.0616  0.0018
 8596SOL     OW37441   5.066   9.788   4.737 -0.1563 -0.1334  0.0311
 8596SOL    HW137442   5.116   9.813   4.820 -0.0488 -0.8765  0.1937
 8596SOL    HW237443   5.127   9.799   4.658 -0.0563 -0.0474  0.1191
 8597SOL     OW37444   3.167   9.907   0.381 -0.3598 -0.2258 -0.6937
 8597SOL    HW137445   3.212   9.940   0.298 -0.5783 -2.1993 -1.6359
 8597SOL    HW237446   3.108   9.830   0.358  0.0585 -1.1999  1.4069
 8598SOL     OW37447   2.431   2.308   5.063  0.4694  0.0962 -0.1111
 8598SOL    HW137448   2.332   2.307   5.056  0.3907  0.9058  0.7320
 8598SOL    HW237449   2.465   2.214   5.072 -0.3325 -0.0908  1.0499
 8599SOL     OW37450   0.399   9.941   2.605  0.1018 -0.4763  0.0610
 8599SOL    HW137451   0.341   9.882   2.660  1.6838 -1.8644  0.2745
 8599SOL    HW237452   0.493   9.935   2.637  0.5777  0.8311 -1.0296
 8600SOL     OW37453   1.577   2.617   1.620  0.1121  0.1063 -0.3886
 8600SOL    HW137454   1.617   2.568   1.543 -1.8447  0.7505 -1.8171
 8600SOL    HW237455   1.564   2.553   1.697  1.2078 -0.7250 -0.8821
 8601SOL     OW37456   5.070   4.397   8.071 -0.2479 -0.6508  0.3713
 8601SOL    HW137457   4.985   4.446   8.048  0.1504 -0.6602 -1.1560
 8601SOL    HW237458   5.124   4.454   8.133 -0.2279  0.4526 -0.6350
 8602SOL     OW37459   5.681   0.627   5.325 -0.0023  0.5208  0.1282
 8602SOL    HW137460   5.752   0.558   5.308 -0.2607 -0.0020  1.1543
 8602SOL    HW237461   5.723   0.712   5.357  0.2488  0.5696 -0.3305
 8603SOL     OW37462   4.191   0.623   4.676  0.5014  0.4080  0.0288
 8603SOL    HW137463   4.253   0.698   4.701  0.5178  0.6196 -0.6343
 8603SOL    HW237464   4.097   0.657   4.673  0.4293  0.2421  0.3846
 8604SOL     OW37465   4.593   1.291   0.363 -0.1758 -0.2847 -0.1455
 8604SOL    HW137466   4.635   1.256   0.446 -0.2610 -0.8276 -0.3276
 8604SOL    HW237467   4.597   1.391   0.362  1.1801 -0.3329 -0.1933
 8605SOL     OW37468   0.108   4.141   7.853  0.1346 -0.1708  0.0448
 8605SOL    HW137469   0.138   4.148   7.758 -1.2257  0.6509 -0.3365
 8605SOL    HW237470   0.026   4.197   7.867  0.3179 -0.2748  1.7043
 8606SOL     OW37471   1.697   0.780   3.175 -0.4309 -0.0162 -0.3958
 8606SOL    HW137472   1.748   0.713   3.121 -1.7947  1.4244 -3.5850
 8606SOL    HW237473   1.679   0.743   3.266 -0.2166 -3.5247 -1.7188
 8607SOL     OW37474   1.506   9.473   4.604 -0.6048 -0.3072 -0.1805
 8607SOL    HW137475   1.475   9.543   4.668 -1.3225 -0.2940 -0.5461
 8607SOL    HW237476   1.589   9.504   4.557 -0.1472 -0.2636  0.6476
 8608SOL     OW37477   2.653  -0.000   4.557 -0.2636  0.2657  0.3343
 8608SOL    HW137478   2.609   0.038   4.476 -0.1225 -0.4209 -0.0702
 8608SOL    HW237479   2.680   0.074   4.619 -0.5488  0.7758 -0.1513
 8609SOL     OW37480   0.618   8.924   5.399  0.1283  0.2165  0.7200
 8609SOL    HW137481   0.617   8.841   5.344 -0.9178  1.3288 -0.9970
 8609SOL    HW237482   0.577   8.906   5.488 -1.2630 -0.7891 -0.1055
 8610SOL     OW37483   0.433   7.359   5.161 -0.5168  0.2083 -0.0498
 8610SOL    HW137484   0.511   7.338   5.219  1.5895 -0.4307 -3.0156
 8610SOL    HW237485   0.457   7.432   5.097 -2.9954  1.3603  0.2826
 8611SOL     OW37486   1.979   7.647   6.334  0.3998  0.1759  0.1353
 8611SOL    HW137487   1.968   7.561   6.385  0.3341 -1.0007 -1.8205
 8611SOL    HW237488   2.004   7.627   6.240  0.0821  2.3240 -0.4348
 8612SOL     OW37489   9.325   0.068   5.689  0.1817 -0.0640 -0.4680
 8612SOL    HW137490   9.275   0.043   5.606 -1.5135 -0.3970  0.6228
 8612SOL    HW237491   9.265   0.058   5.769  1.4826  1.1560  0.7068
 8613SOL     OW37492   4.633   8.744   1.587  0.2062 -0.1203 -0.4940
 8613SOL    HW137493   4.577   8.662   1.598  0.9427 -0.5235  0.3106
 8613SOL    HW237494   4.707   8.726   1.522 -2.3107  1.3109 -3.8481
 8614SOL     OW37495   9.366   7.014   4.084  0.0871  0.4208  0.3162
 8614SOL    HW137496   9.403   6.979   3.998  1.7364  0.2555  1.0717
 8614SOL    HW237497   9.355   7.113   4.077 -0.6488  0.2965 -0.3905
 8615SOL     OW37498   2.299   7.683   7.997 -0.4105 -0.3728  0.0185
 8615SOL    HW137499   2.218   7.683   7.939  0.6643 -0.1917 -1.5027
 8615SOL    HW237500   2.336   7.776   8.003  0.3678 -0.6628 -0.2594
 8616SOL     OW37501   4.565   2.802   4.285 -0.7723 -0.5319 -0.1595
 8616SOL    HW137502   4.511   2.739   4.340  0.5495 -2.3088 -0.8495
 8616SOL    HW237503   4.594   2.879   4.342 -0.4005 -1.7477  1.3372
 8617SOL     OW37504   6.059   0.306   1.080 -0.2977 -0.0478  0.3404
 8617SOL    HW137505   6.117   0.263   1.011 -0.9113  1.5225 -1.2024
 8617SOL    HW237506   6.108   0.384   1.120 -1.4725  1.6380 -1.3730
 8618SOL     OW37507   3.592   7.034   1.772  0.0850  0.1016  0.3353
 8618SOL    HW137508   3.626   6.948   1.811  0.1536  0.5474  1.2677
 8618SOL    HW237509   3.606   7.108   1.837 -2.5295  0.3367  0.6897
 8619SOL     OW37510   4.368   3.496   4.489 -0.4971 -0.2627  0.3843
 8619SOL    HW137511   4.293   3.463   4.547 -0.8671  0.5099  0.3555
 8619SOL    HW237512   4.338   3.578   4.440  0.3628  0.0329  0.3455
 8620SOL     OW37513   0.055   9.025   0.394 -0.2286 -0.2424  0.7287
 8620SOL    HW137514   0.101   8.962   0.332  1.9479  1.1006  0.9243
 8620SOL    HW237515   0.079   9.003   0.488 -2.3863 -1.3749  1.0468
 8621SOL     OW37516   9.910   4.493   0.471 -0.5002 -0.3137 -0.2121
 8621SOL    HW137517   9.832   4.553   0.488  0.2619  0.9576 -1.0696
 8621SOL    HW237518   9.885   4.427   0.399 -0.3049  1.0726 -1.5762
 8622SOL     OW37519   4.578   5.520   0.741 -0.2500 -0.0883  0.1020
 8622SOL    HW137520   4.601   5.580   0.818 -2.1578  2.0572 -0.9297
 8622SOL    HW237521   4.640   5.538   0.665  0.0652 -0.4161  0.2842
 8623SOL     OW37522   1.935   7.549   0.233 -0.4448  0.3574  0.4259
 8623SOL    HW137523   1.855   7.601   0.203 -0.8898  0.0388  1.0491
 8623SOL    HW237524   1.925   7.525   0.330  1.2574  1.8900  1.0111
 8624SOL     OW37525   1.482   8.388   6.035 -0.8629 -0.0184  0.0205
 8624SOL    HW137526   1.521   8.458   5.974  0.4880 -1.0327 -0.3085
 8624SOL    HW237527   1.552   8.319   6.055 -2.1385 -1.1980  0.4684
 8625SOL     OW37528   9.320   6.931   3.821 -0.6412  0.0823  0.6230
 8625SOL    HW137529   9.264   6.911   3.740 -0.0385 -0.5541  0.3526
 8625SOL    HW237530   9.411   6.960   3.792 -0.8905  1.3145  1.0583
 8626SOL     OW37531   0.290   8.339   3.145 -0.7382 -0.0463 -0.4727
 8626SOL    HW137532   0.212   8.276   3.133 -1.7799  1.3524 -1.1610
 8626SOL    HW237533   0.298   8.365   3.241  0.0112 -1.6153 -0.0947
 8627SOL     OW37534   4.422   3.022   4.130  0.4080 -0.0009 -0.2347
 8627SOL    HW137535   4.435   2.944   4.190 -0.0418  2.1735  2.7836
 8627SOL    HW237536   4.324   3.038   4.117  0.4893  0.6565 -0.0340
 8628SOL     OW37537   3.530   4.020   5.625 -0.2148  0.3919 -0.1000
 8628SOL    HW137538   3.489   4.111   5.632  0.1189  0.6906 -1.7810
 8628SOL    HW237539   3.630   4.029   5.629 -0.1763  0.1318 -0.4251
 8629SOL     OW37540   6.390   8.371   3.429 -0.8209  0.2827  0.4819
 8629SOL    HW137541   6.374   8.273   3.446 -0.7941  0.3397  0.8527
 8629SOL    HW237542   6.373   8.391   3.333 -2.3868  0.2282  0.7274
 8630SOL     OW37543   1.071   1.903   2.211  0.7297  0.2883 -0.5636
 8630SOL    HW137544   1.082   1.902   2.310  0.3290 -0.7059 -0.5264
 8630SOL    HW237545   0.993   1.846   2.185  1.0163  0.2994 -1.4721
 8631SOL     OW37546   0.197   4.312   2.743 -0.1833 -0.3525  0.1092
 8631SOL    HW137547   0.221   4.235   2.802  0.4734 -0.0467  0.2430
 8631SOL    HW237548   0.149   4.381   2.797 -0.2350 -0.3995  0.1238
 8632SOL     OW37549   1.395   3.059   3.261  0.4679  0.3007  0.0657
 8632SOL    HW137550   1.312   3.004   3.274 -0.2345  1.2381 -0.4001
 8632SOL    HW237551   1.373   3.140   3.206  1.8183  0.2517 -0.5597
 8633SOL     OW37552   9.669   8.275   0.314  0.4006 -0.6390  0.1255
 8633SOL    HW137553   9.643   8.316   0.227  0.6861 -0.2926  0.2042
 8633SOL    HW237554   9.762   8.240   0.308  1.2721  1.4516  1.0104
 8634SOL     OW37555   8.785   6.983   3.472  0.1565  0.0843  0.1170
 8634SOL    HW137556   8.698   6.952   3.511 -0.6736  1.0911 -0.8923
 8634SOL    HW237557   8.769   7.066   3.417  1.8278  0.5358  0.2929
 8635SOL     OW37558   2.461   6.726   8.172 -0.5336 -0.4132  0.0935
 8635SOL    HW137559   2.375   6.727   8.223 -0.5235 -1.5371  0.1490
 8635SOL    HW237560   2.515   6.806   8.195 -2.4117  1.3180 -1.3946
 8636SOL     OW37561   8.542   5.052   6.548  0.1947  0.1015  0.0997
 8636SOL    HW137562   8.580   5.057   6.641  0.8532  0.1828 -0.1695
 8636SOL    HW237563   8.617   5.050   6.482 -0.2474 -2.0545 -0.3400
 8637SOL     OW37564   2.323   6.095   5.126  0.1862 -0.1030 -0.0561
 8637SOL    HW137565   2.301   6.173   5.184  0.4619 -1.1004  1.3998
 8637SOL    HW237566   2.393   6.039   5.169 -0.6817 -1.6849 -0.6286
 8638SOL     OW37567   9.754   9.405   2.126 -0.1205 -0.2645  0.2006
 8638SOL    HW137568   9.766   9.504   2.121 -2.2287  0.0950  1.3639
 8638SOL    HW237569   9.812   9.367   2.198  1.7611 -0.0893 -1.2116
 8639SOL     OW37570   8.837   3.401   4.996 -0.2174 -0.4051  0.2875
 8639SOL    HW137571   8.852   3.478   5.057 -0.5105 -1.4119  1.6633
 8639SOL    HW237572   8.786   3.431   4.915  1.2685  1.1815 -0.0657
 8640SOL     OW37573   5.299   1.929   5.665  0.2690 -0.1471  0.4694
 8640SOL    HW137574   5.205   1.896   5.660  0.4517 -0.6571  0.3632
 8640SOL    HW237575   5.323   1.977   5.581  0.3809 -0.7545  0.1599
 8641SOL     OW37576   5.771   2.386   0.742 -0.2760  0.2088  0.2335
 8641SOL    HW137577   5.698   2.445   0.708  1.3189  1.3170 -1.3371
 8641SOL    HW237578   5.780   2.306   0.683  0.7078  0.7901 -0.4259
 8642SOL     OW37579   2.916   7.625   2.530  0.2532  0.4964 -0.0299
 8642SOL    HW137580   2.965   7.639   2.616  1.6791  0.6634 -0.8654
 8642SOL    HW237581   2.842   7.560   2.545  0.8011  0.1303  1.2014
 8643SOL     OW37582   3.918   9.040   5.451 -0.2733  0.6542  0.0889
 8643SOL    HW137583   3.930   9.092   5.366 -0.3603  0.1343 -0.2410
 8643SOL    HW237584   3.844   8.974   5.440 -1.2957  1.6055  1.0551
 8644SOL     OW37585   3.417   6.347   5.997  0.3378 -0.2478 -0.2644
 8644SOL    HW137586   3.396   6.439   5.962 -0.8898  0.3518  1.9135
 8644SOL    HW237587   3.419   6.350   6.097  1.3298 -2.3958 -0.2029
 8645SOL     OW37588   7.959   0.389   4.659 -0.5668 -0.1585  0.1616
 8645SOL    HW137589   8.008   0.304   4.678  0.0051  0.3948  1.2291
 8645SOL    HW237590   7.912   0.420   4.742 -0.2463  0.8902 -0.0318
 8646SOL     OW37591   1.565   8.093   5.758  0.5870 -0.6735  0.8514
 8646SOL    HW137592   1.489   8.029   5.771 -0.6888  0.6927  0.2867
 8646SOL    HW237593   1.641   8.067   5.816 -1.2093 -0.6614  3.2751
 8647SOL     OW37594   6.402   8.977   7.105  0.0645  0.2173  0.5056
 8647SOL    HW137595   6.472   8.906   7.104  0.2003  0.2701  3.0296
 8647SOL    HW237596   6.312   8.936   7.090  0.0934 -0.5872  2.3602
 8648SOL     OW37597   5.531   0.909   5.553  0.3992 -0.1739 -0.4180
 8648SOL    HW137598   5.600   0.979   5.534  1.5111 -1.2329 -0.3291
 8648SOL    HW237599   5.518   0.851   5.472  2.2403 -2.2036  0.6844
 8649SOL     OW37600   0.981   9.691   3.067 -0.0421  0.1777  0.0491
 8649SOL    HW137601   1.038   9.726   3.141 -0.0957  0.8649 -0.2291
 8649SOL    HW237602   1.023   9.609   3.029  1.2892  1.2351 -0.8152
 8650SOL     OW37603   0.774   4.906   7.994  0.6796 -0.1858 -0.0289
 8650SOL    HW137604   0.708   4.953   7.936 -0.5316 -0.6430  0.9418
 8650SOL    HW237605   0.788   4.813   7.960 -0.7140 -0.7505  0.9153
 8651SOL     OW37606   3.549   1.690   4.597 -0.0385 -0.3806  0.1640
 8651SOL    HW137607   3.492   1.704   4.678 -1.6478  0.6230 -1.1063
 8651SOL    HW237608   3.521   1.606   4.550 -0.9669  0.4808 -0.8461
 8652SOL     OW37609   8.104   1.566   2.217  0.1589 -0.2413 -0.3649
 8652SOL    HW137610   8.190   1.618   2.216  1.0946 -1.7553 -1.4715
 8652SOL    HW237611   8.047   1.595   2.140  0.8840 -1.1719 -1.2615
 8653SOL     OW37612   7.601   9.252   4.556  0.3520 -0.5767  0.2868
 8653SOL    HW137613   7.513   9.298   4.571 -0.7257 -2.4105 -0.3699
 8653SOL    HW237614   7.622   9.252   4.458  0.9832 -0.3294  0.4236
 8654SOL     OW37615   1.451   5.015   5.503  0.3015  0.2332 -0.0045
 8654SOL    HW137616   1.364   5.061   5.523  1.1193  1.4706  0.8029
 8654SOL    HW237617   1.502   5.069   5.435  1.5379  0.8497  1.3998
 8655SOL     OW37618   2.472   1.330   4.855 -0.5461 -0.4191  0.0768
 8655SOL    HW137619   2.438   1.240   4.883 -0.2994 -0.8087 -0.8494
 8655SOL    HW237620   2.564   1.321   4.818 -1.0197  0.0077 -1.2456
 8656SOL     OW37621   6.457   1.203   2.794 -0.2450 -0.1350 -0.3505
 8656SOL    HW137622   6.460   1.261   2.874 -0.8221  1.2939 -1.3508
 8656SOL    HW237623   6.455   1.107   2.822 -0.6437  0.3576  1.3337
 8657SOL     OW37624   8.152   9.063   7.575 -0.7092 -0.1715  0.8668
 8657SOL    HW137625   8.217   9.084   7.503 -3.2635  0.9778 -1.1696
 8657SOL    HW237626   8.149   9.139   7.640  1.0844 -0.9096  1.8471
 8658SOL     OW37627   0.290   6.624   5.415 -0.4199  0.0282 -0.0491
 8658SOL    HW137628   0.261   6.549   5.357 -1.9743  0.1765  0.4999
 8658SOL    HW237629   0.295   6.708   5.361  1.1654 -0.4195 -0.6268
 8659SOL     OW37630   4.110   7.490   2.891 -0.0350 -0.3087 -0.3773
 8659SOL    HW137631   4.051   7.530   2.821 -2.8861 -2.1949  0.8716
 8659SOL    HW237632   4.182   7.437   2.847 -1.3929 -0.9180 -1.9180
 8660SOL     OW37633   0.951   0.980   0.290  0.0709 -0.0643 -0.7749
 8660SOL    HW137634   0.972   1.052   0.223  0.2468  0.2144 -0.4196
 8660SOL    HW237635   0.879   0.921   0.253  0.7138 -0.3820 -1.5426
 8661SOL     OW37636   4.786   3.206   1.885  0.1656 -0.3716 -0.4273
 8661SOL    HW137637   4.782   3.226   1.983  1.6990 -2.2489  0.0460
 8661SOL    HW237638   4.711   3.144   1.861  0.5711 -0.9693 -0.1672
 8662SOL     OW37639   9.470   7.894   2.948 -0.3627 -0.0317 -0.5895
 8662SOL    HW137640   9.414   7.816   2.919 -0.1005 -0.1979 -0.6504
 8662SOL    HW237641   9.428   7.937   3.028  0.8529 -1.8468  1.0741
 8663SOL     OW37642   9.042   9.637   3.171 -0.4230 -0.4012  0.5113
 8663SOL    HW137643   9.087   9.554   3.137 -1.7479 -1.2489  0.8124
 8663SOL    HW237644   9.063   9.648   3.268 -2.5385 -1.9646  1.1932
 8664SOL     OW37645   1.568   5.106   7.982 -0.2320 -0.3245  0.0939
 8664SOL    HW137646   1.516   5.086   8.065 -2.6459  1.1641 -0.9974
 8664SOL    HW237647   1.652   5.155   8.007 -0.4477 -0.7413  1.7237
 8665SOL     OW37648   4.903   4.035   6.498  0.2937  0.2163  0.5345
 8665SOL    HW137649   4.859   4.016   6.586 -0.8653  1.9475  0.3616
 8665SOL    HW237650   4.956   4.119   6.505  0.9398 -0.1234 -0.1770
 8666SOL     OW37651   2.683   5.715   0.188 -0.1105 -0.3112 -0.3192
 8666SOL    HW137652   2.665   5.639   0.125  0.2990 -0.0049 -0.8083
 8666SOL    HW237653   2.665   5.802   0.142 -0.3566 -0.1021  0.1684
 8667SOL     OW37654   5.327   2.790   4.234  0.0716 -0.7557  0.0978
 8667SOL    HW137655   5.414   2.811   4.189 -0.0014  0.6493  0.5659
 8667SOL    HW237656   5.340   2.791   4.334 -0.9760  1.9771  0.2535
 8668SOL     OW37657   8.083   0.614   2.085  0.0939  0.0724 -0.3977
 8668SOL    HW137658   8.048   0.546   2.021  0.3495  0.2586 -0.7360
 8668SOL    HW237659   8.019   0.624   2.161  0.4160 -1.1013  0.0438
 8669SOL     OW37660   4.619   0.020   6.067  0.1508  0.0318  0.0731
 8669SOL    HW137661   4.651   0.059   6.154  3.4599 -1.3960 -0.4590
 8669SOL    HW237662   4.649   0.078   5.991 -1.4596  0.4588 -0.2767
 8670SOL     OW37663   0.508   1.143   5.380 -0.1708  0.0312  0.4644
 8670SOL    HW137664   0.506   1.088   5.297 -0.4058  0.3901  0.2344
 8670SOL    HW237665   0.442   1.218   5.373  1.5138  1.4996 -0.0207
 8671SOL     OW37666   3.758   5.036   2.404  0.5512  0.0858  0.1742
 8671SOL    HW137667   3.691   5.049   2.477  0.1133 -1.4867  0.0501
 8671SOL    HW237668   3.839   5.091   2.425 -0.2022  0.8944  1.0355
 8672SOL     OW37669   3.485   6.152   4.069  0.4968 -0.3221  0.1112
 8672SOL    HW137670   3.402   6.196   4.103  0.7126  0.1292  0.0625
 8672SOL    HW237671   3.478   6.054   4.082 -0.5921 -0.4156 -1.0779
 8673SOL     OW37672   9.837   0.072   5.589 -0.6798  0.2926  0.6446
 8673SOL    HW137673   9.852  -0.027   5.586  0.1323  0.4274  0.2164
 8673SOL    HW237674   9.743   0.090   5.616 -1.1057 -0.6146 -0.1943
 8674SOL     OW37675   1.779   8.622   3.769  0.0305 -0.5945  0.2403
 8674SOL    HW137676   1.808   8.561   3.696  2.9920 -1.4488  2.0380
 8674SOL    HW237677   1.846   8.695   3.780  0.2090 -1.0891  2.7571
 8675SOL     OW37678   8.060   8.985   1.023 -0.4651 -0.3028 -0.2776
 8675SOL    HW137679   8.034   8.938   0.939 -1.1879 -1.3156  0.4968
 8675SOL    HW237680   7.981   8.988   1.085 -1.0675  3.7368 -1.0968
 8676SOL     OW37681   8.559   2.748   0.071  0.3725  0.0287 -0.0257
 8676SOL    HW137682   8.654   2.780   0.068  1.1221 -2.2070 -1.5555
 8676SOL    HW237683   8.544   2.699   0.157  0.7379  0.0289  0.0414
 8677SOL     OW37684   9.731   1.368   0.005  0.6352  0.0123 -0.0014
 8677SOL    HW137685   9.778   1.310  -0.061  0.0005 -1.4068  0.7891
 8677SOL    HW237686   9.760   1.344   0.098 -0.2075  0.4246  0.3760
 8678SOL     OW37687   4.322   5.361   3.635 -0.3472  0.2013  0.9243
 8678SOL    HW137688   4.346   5.292   3.568 -1.1242  0.8878 -0.0872
 8678SOL    HW237689   4.378   5.350   3.717  1.1637 -0.1564 -0.1408
 8679SOL     OW37690   5.870   8.394   6.010  0.2014  0.3483 -0.3674
 8679SOL    HW137691   5.929   8.400   6.091 -1.6461 -0.5330  1.0794
 8679SOL    HW237692   5.778   8.365   6.038 -0.9311  1.7201 -2.5833
 8680SOL     OW37693   1.810   8.390   5.962 -0.2203 -0.0565 -0.5262
 8680SOL    HW137694   1.726   8.423   5.918 -0.4871 -2.1929 -1.7064
 8680SOL    HW237695   1.795   8.297   5.998  1.2562  0.0419  0.3980
 8681SOL     OW37696   2.502   9.060   3.961 -0.4741  0.6415 -0.3428
 8681SOL    HW137697   2.587   9.023   3.998 -0.1199  1.7404 -0.0359
 8681SOL    HW237698   2.458   8.992   3.902  0.8477  0.2436 -0.8750
 8682SOL     OW37699   5.449   1.080   7.361 -0.5155  0.2649  0.0853
 8682SOL    HW137700   5.501   1.015   7.416 -0.3063  1.1962  0.9976
 8682SOL    HW237701   5.433   1.041   7.270 -1.1325 -1.3956  0.8892
 8683SOL     OW37702   1.338   5.469   2.546 -0.1667 -0.2937  0.1141
 8683SOL    HW137703   1.258   5.479   2.487 -1.1684  0.3155  1.5778
 8683SOL    HW237704   1.398   5.548   2.534  0.2541 -0.7707 -1.0147
 8684SOL     OW37705   7.855   7.654   7.200 -0.0469  0.1798  0.8621
 8684SOL    HW137706   7.879   7.580   7.262  0.8654  0.5185  0.9105
 8684SOL    HW237707   7.840   7.738   7.252  3.8087  1.2539  0.3930
 8685SOL     OW37708   8.980   5.741   2.304  0.3485 -0.4469 -0.2536
 8685SOL    HW137709   8.972   5.777   2.211 -0.9790  0.8133  0.3348
 8685SOL    HW237710   8.889   5.726   2.342  0.8861 -0.8280  0.8985
 8686SOL     OW37711   4.094   2.954   7.094  0.3342 -0.3495  0.6699
 8686SOL    HW137712   3.997   2.978   7.092 -0.0206 -1.7749 -0.0727
 8686SOL    HW237713   4.147   3.030   7.133 -0.8049  1.3800 -1.0549
 8687SOL     OW37714   5.110   9.442   2.019  0.0788 -0.2777  0.0973
 8687SOL    HW137715   5.104   9.364   1.956  0.8808  0.8744 -1.4399
 8687SOL    HW237716   5.024   9.452   2.068 -0.8691 -0.6784 -1.4617
 8688SOL     OW37717   1.603   8.209   6.428 -0.2200 -0.0501 -0.0583
 8688SOL    HW137718   1.551   8.293   6.411 -0.5216 -0.1622  0.3018
 8688SOL    HW237719   1.635   8.209   6.523  0.2136 -0.1035 -0.2063
 8689SOL     OW37720   7.970   4.912   2.123 -0.0974  0.1657 -0.0416
 8689SOL    HW137721   7.900   4.884   2.057 -0.0142  0.7700 -0.3969
 8689SOL    HW237722   7.934   4.904   2.216  0.1032 -1.5894 -0.1062
 8690SOL     OW37723   2.220   7.013   8.124 -0.1518  0.2548  0.1393
 8690SOL    HW137724   2.136   7.004   8.072 -1.0365  1.3116  1.3639
 8690SOL    HW237725   2.268   7.097   8.096 -0.5642  0.7561  0.9351
 8691SOL     OW37726   3.012   4.397   8.040  0.6547 -0.4514 -0.3071
 8691SOL    HW137727   3.098   4.431   8.077  1.3000 -0.7744 -1.4720
 8691SOL    HW237728   2.989   4.310   8.083 -0.7248  1.1170  2.2864
 8692SOL     OW37729   7.461   3.418   2.156  0.0380  0.3752 -0.1589
 8692SOL    HW137730   7.493   3.443   2.247  0.1308  1.8070 -0.5572
 8692SOL    HW237731   7.396   3.343   2.162 -0.1955  0.6692  1.1149
 8693SOL     OW37732   1.559   1.219   1.018  0.4355 -0.4272 -0.1777
 8693SOL    HW137733   1.492   1.289   0.992  0.9787 -0.4508 -1.7073
 8693SOL    HW237734   1.545   1.193   1.113  0.4228  1.9956  0.5255
 8694SOL     OW37735   5.185   7.399   3.850  0.1961 -0.9532  0.7099
 8694SOL    HW137736   5.120   7.474   3.846 -0.8763 -1.9828 -2.0616
 8694SOL    HW237737   5.202   7.375   3.946 -1.9306  0.6586  1.5226
 8695SOL     OW37738   8.225   9.788   5.038  0.3769 -0.7282 -0.9237
 8695SOL    HW137739   8.195   9.717   4.974 -0.3618 -0.5429 -0.7878
 8695SOL    HW237740   8.147   9.846   5.062  0.7836 -0.4193 -0.3355
 8696SOL     OW37741   8.628   9.114   7.275 -0.2868  0.0851 -0.0732
 8696SOL    HW137742   8.658   9.020   7.291  1.2053  0.4391 -0.7166
 8696SOL    HW237743   8.707   9.175   7.273 -1.0779  1.1012 -1.4280
 8697SOL     OW37744   7.287   5.078   2.057  0.2950 -0.0727  0.5145
 8697SOL    HW137745   7.266   5.123   1.970  0.6099  0.8405  0.9054
 8697SOL    HW237746   7.208   5.084   2.118  0.6404  0.7311  0.8888
 8698SOL     OW37747   9.200   5.154   1.088  0.2021 -0.0473  0.2372
 8698SOL    HW137748   9.299   5.171   1.084  0.3541 -1.0077 -0.4266
 8698SOL    HW237749   9.159   5.211   1.158  1.5979 -1.3352  2.1561
 8699SOL     OW37750   1.071   4.605   1.404 -0.0646 -0.2511  0.0657
 8699SOL    HW137751   1.015   4.559   1.473  0.8154 -0.8624  0.3789
 8699SOL    HW237752   1.074   4.550   1.321  0.2960 -0.3556  0.1459
 8700SOL     OW37753   0.051   9.223   7.972  0.3586  0.1347  0.0347
 8700SOL    HW137754   0.112   9.181   7.906 -0.1450 -0.6739  0.0806
 8700SOL    HW237755   0.022   9.313   7.939  0.1095 -0.2662 -0.8477
 8701SOL     OW37756   7.074   7.325   4.933  0.1129 -0.3708 -0.1390
 8701SOL    HW137757   7.075   7.268   5.015  0.2402 -0.3574 -0.1311
 8701SOL    HW237758   6.989   7.377   4.930  0.4008  0.1322  0.3308
 8702SOL     OW37759   3.712   1.514   0.738 -0.1207 -0.1778 -0.7231
 8702SOL    HW137760   3.748   1.524   0.830  0.2206 -1.2543 -0.7313
 8702SOL    HW237761   3.623   1.468   0.741  0.8734 -2.2109 -1.0598
 8703SOL     OW37762   1.977   7.456   3.026  0.0842  0.2740 -0.2369
 8703SOL    HW137763   2.009   7.492   2.938 -2.3097 -1.1708 -1.7473
 8703SOL    HW237764   2.001   7.359   3.033 -0.2511  0.2390  0.4484
 8704SOL     OW37765   2.623   4.367   5.480  0.1622  0.4937 -0.7009
 8704SOL    HW137766   2.593   4.399   5.390 -1.3645  0.6537 -0.1497
 8704SOL    HW237767   2.577   4.281   5.502 -0.2463  0.9815  0.3640
 8705SOL     OW37768   4.912   0.860   6.991  0.1458  0.3405 -0.3029
 8705SOL    HW137769   4.887   0.955   7.006 -0.5050  0.1124  0.0816
 8705SOL    HW237770   4.833   0.801   7.010 -0.0775 -0.1233 -2.4345
 8706SOL     OW37771   8.665   6.910   6.699 -0.2998  0.0772  0.0873
 8706SOL    HW137772   8.612   6.825   6.708  1.0252 -0.6091  1.7131
 8706SOL    HW237773   8.730   6.917   6.775  1.2478  1.4050 -1.3157
 8707SOL     OW37774   7.738   3.458   2.667  0.3175  0.2112 -0.0417
 8707SOL    HW137775   7.673   3.530   2.691 -0.2749 -0.8608  1.6751
 8707SOL    HW237776   7.710   3.373   2.712  2.2082 -0.5589 -0.3174
 8708SOL     OW37777   4.369   9.171   1.152 -0.2897  0.1154 -0.1867
 8708SOL    HW137778   4.340   9.111   1.227 -1.4006  1.1045  0.1888
 8708SOL    HW237779   4.290   9.196   1.097  0.2745  0.7303 -0.7211
 8709SOL     OW37780   9.092   1.583   5.910 -0.1346 -0.2571 -0.2510
 8709SOL    HW137781   9.189   1.579   5.887  0.2548 -1.4229  1.4310
 8709SOL    HW237782   9.076   1.529   5.993 -2.0264  0.8835  0.1482
 8710SOL     OW37783   3.563   5.748   5.860  0.2284 -0.5980 -0.1658
 8710SOL    HW137784   3.595   5.821   5.801  1.7092 -2.0744 -1.2346
 8710SOL    HW237785   3.642   5.694   5.893 -0.8108 -1.6095  0.7317
 8711SOL     OW37786   3.133   7.418   2.509  0.1387 -0.1709 -0.0466
 8711SOL    HW137787   3.140   7.374   2.599  0.7197 -0.1543 -0.0848
 8711SOL    HW237788   3.079   7.502   2.518 -2.3590 -1.7057 -0.2721
 8712SOL     OW37789   1.636   2.819   1.894 -0.0494  0.5909 -0.0766
 8712SOL    HW137790   1.678   2.747   1.838 -0.2119  0.6533 -0.2821
 8712SOL    HW237791   1.627   2.787   1.988  2.4943  1.3844  0.4775
 8713SOL     OW37792   6.760   1.660   3.913  0.0981 -0.1968 -0.6553
 8713SOL    HW137793   6.815   1.677   3.995  0.0376  0.0626 -0.6661
 8713SOL    HW237794   6.666   1.691   3.930  0.2841  0.6436 -1.1106
 8714SOL     OW37795   9.119   5.783   7.402 -0.3216 -0.2694 -0.1132
 8714SOL    HW137796   9.038   5.839   7.421 -1.3907 -1.6394 -0.5918
 8714SOL    HW237797   9.123   5.707   7.467 -1.3905 -2.2439 -2.2545
 8715SOL     OW37798   2.327   9.973   2.671 -0.0228 -0.3533  0.3658
 8715SOL    HW137799   2.273  10.023   2.738 -0.1741  2.2018 -1.5970
 8715SOL    HW237800   2.424   9.977   2.697  0.1111  2.0958 -0.4486
 8716SOL     OW37801   8.984   8.068   2.751 -0.4488 -0.1849 -0.2506
 8716SOL    HW137802   9.007   8.143   2.812 -2.3777 -0.5064  0.9105
 8716SOL    HW237803   8.918   8.100   2.682 -0.6271 -0.5989 -0.2725
 8717SOL     OW37804   4.707   4.490   3.888 -0.5465  0.1725  0.3601
 8717SOL    HW137805   4.713   4.394   3.912 -0.1832  0.5019  1.5833
 8717SOL    HW237806   4.685   4.498   3.791 -1.1220 -1.1419  0.3729
 8718SOL     OW37807   1.115   6.057   3.775 -0.5853  0.4286  0.8521
 8718SOL    HW137808   1.113   6.122   3.699  1.8739  0.1533  0.5364
 8718SOL    HW237809   1.067   6.097   3.853 -0.2701  2.0674  0.2359
 8719SOL     OW37810   0.959   4.817   4.410  0.1679 -0.4053 -0.8595
 8719SOL    HW137811   0.914   4.881   4.472  0.7391  0.1038 -0.9672
 8719SOL    HW237812   0.891   4.755   4.372 -0.1366 -0.9445  0.5400
 8720SOL     OW37813   9.104   5.966   4.045 -0.5240  0.5773  0.0969
 8720SOL    HW137814   9.165   5.908   4.098  0.5124 -0.1444 -1.8596
 8720SOL    HW237815   9.124   6.062   4.064 -1.0227  0.3275  1.9573
 8721SOL     OW37816   2.120   4.471   1.551  0.8179 -0.5028  0.0452
 8721SOL    HW137817   2.187   4.433   1.488  0.1090  0.0032 -1.0405
 8721SOL    HW237818   2.033   4.483   1.503 -0.2216 -1.7129  1.5813
 8722SOL     OW37819   4.657   8.761   3.546 -0.4524  0.2502  0.1552
 8722SOL    HW137820   4.741   8.815   3.544  0.1869 -0.7347  0.1173
 8722SOL    HW237821   4.622   8.756   3.639 -0.0822  0.0827  0.2855
 8723SOL     OW37822   7.977   1.761   1.614  0.3659 -0.1954 -0.0032
 8723SOL    HW137823   8.056   1.823   1.622  0.5219 -0.0778 -2.1976
 8723SOL    HW237824   7.893   1.813   1.627  0.5767  0.0457  0.4250
 8724SOL     OW37825   2.566   2.410   3.044  0.1564 -0.0849  0.3196
 8724SOL    HW137826   2.467   2.401   3.044  0.2843 -1.6136 -0.5222
 8724SOL    HW237827   2.598   2.435   2.953  0.5124  0.8367  0.6917
 8725SOL     OW37828   0.282   8.171   6.706 -0.0463 -0.1831  0.0809
 8725SOL    HW137829   0.328   8.168   6.794  0.4161  0.1829 -0.1424
 8725SOL    HW237830   0.350   8.171   6.633 -0.3910  0.6539 -0.2498
 8726SOL     OW37831   5.196   2.734   3.731  0.2490  0.0851 -0.4910
 8726SOL    HW137832   5.186   2.655   3.670  1.8225  0.6632 -1.5360
 8726SOL    HW237833   5.145   2.811   3.693  2.2538  0.8122 -1.7811
 8727SOL     OW37834   1.480   1.652   1.544 -0.1939 -0.1150  0.2116
 8727SOL    HW137835   1.493   1.657   1.643 -0.7171 -1.8304  0.3795
 8727SOL    HW237836   1.502   1.741   1.503  2.6927 -0.1643  1.5340
 8728SOL     OW37837   2.703   2.481   6.907 -0.3593  0.2206 -0.5159
 8728SOL    HW137838   2.748   2.570   6.906  0.2452 -0.0805 -0.3346
 8728SOL    HW237839   2.615   2.488   6.861 -0.0648  0.7857 -1.0014
 8729SOL     OW37840   8.807   7.178   5.866 -0.1031  0.4024  0.2973
 8729SOL    HW137841   8.728   7.239   5.873 -0.0573  0.4026  0.7817
 8729SOL    HW237842   8.874   7.217   5.802  0.3999  1.3648  1.4036
 8730SOL     OW37843   8.714   8.476   1.387  0.0722 -0.4170  0.6292
 8730SOL    HW137844   8.710   8.505   1.482  0.7113 -0.1818  0.5838
 8730SOL    HW237845   8.693   8.553   1.327  2.5300  0.1762  0.4815
 8731SOL     OW37846   0.400   0.864   3.238  0.2509  0.2402  0.0180
 8731SOL    HW137847   0.421   0.819   3.325  2.0172 -0.6536 -0.8392
 8731SOL    HW237848   0.479   0.919   3.209 -0.2649  0.4002 -1.1057
 8732SOL     OW37849   3.181   2.211   2.712  0.2507  0.1862 -0.4063
 8732SOL    HW137850   3.251   2.146   2.680  0.2674 -0.1028  0.2116
 8732SOL    HW237851   3.190   2.297   2.662  1.8297  0.5745  0.4948
 8733SOL     OW37852   0.882   5.103   0.956 -1.0569  1.0856 -0.1657
 8733SOL    HW137853   0.957   5.053   0.913 -2.1274 -1.7468  1.1577
 8733SOL    HW237854   0.864   5.187   0.904  1.5031  0.6802 -1.8020
 8734SOL     OW37855   3.197   2.359   7.626  0.2001  0.2689 -0.0467
 8734SOL    HW137856   3.276   2.338   7.569  0.0750 -1.2615  0.3337
 8734SOL    HW237857   3.225   2.363   7.722 -0.4991 -1.9772  0.2628
 8735SOL     OW37858   0.745   7.106   2.394 -0.0815 -0.4179 -0.0857
 8735SOL    HW137859   0.840   7.136   2.408  0.6671 -3.0266  0.8306
 8735SOL    HW237860   0.690   7.131   2.474 -0.1220  0.9371 -0.5355
 8736SOL     OW37861   8.012   3.379   1.165 -0.1341  0.5992  0.9481
 8736SOL    HW137862   8.111   3.365   1.167 -0.0958  0.7606  0.3325
 8736SOL    HW237863   7.978   3.386   1.259  0.5516  1.3327  1.1498
 8737SOL     OW37864   0.447   1.321   7.070  0.4703 -0.1692  0.0354
 8737SOL    HW137865   0.472   1.363   7.158  0.2494  0.7608 -0.3326
 8737SOL    HW237866   0.432   1.223   7.083  0.7990 -0.1079  0.9640
 8738SOL     OW37867   8.247   0.095   5.533  0.1568 -0.1252  0.4074
 8738SOL    HW137868   8.290   0.074   5.445  0.2744 -0.0134  0.4385
 8738SOL    HW237869   8.148   0.088   5.524  0.0589  1.8803 -0.2553
 8739SOL     OW37870   4.548   9.963   4.082  0.8168  0.0083 -0.1866
 8739SOL    HW137871   4.627   9.903   4.092 -0.9039 -2.2261  0.4326
 8739SOL    HW237872   4.564  10.027   4.006  3.5956  0.2807  0.5761
 8740SOL     OW37873   3.210   7.888   3.965 -0.3208  0.2164  0.2187
 8740SOL    HW137874   3.248   7.980   3.975 -1.0641  0.7129 -1.3680
 8740SOL    HW237875   3.118   7.893   3.927 -0.4967 -1.1750  0.4097
 8741SOL     OW37876   0.850   5.920   7.348  0.5050  0.3853  0.4897
 8741SOL    HW137877   0.906   5.915   7.430 -1.3753  3.2345  2.0234
 8741SOL    HW237878   0.862   6.009   7.304 -0.0400 -0.3507 -1.2329
 8742SOL     OW37879   9.392   4.681   6.313 -0.3134  0.3358  0.0438
 8742SOL    HW137880   9.315   4.744   6.303  0.2689  0.9422 -0.6607
 8742SOL    HW237881   9.365   4.605   6.372 -1.5845  0.3498 -0.4911
 8743SOL     OW37882   1.858   4.688   7.485  0.1305  0.2475 -0.3654
 8743SOL    HW137883   1.770   4.644   7.502 -0.0569  0.5198 -0.6128
 8743SOL    HW237884   1.921   4.623   7.443  0.2147 -0.0926  0.2858
 8744SOL     OW37885   7.395   0.333   0.182 -0.4584 -0.0699  0.2684
 8744SOL    HW137886   7.378   0.412   0.122 -0.9259  0.9182  1.6866
 8744SOL    HW237887   7.474   0.353   0.240 -2.8593  0.9346  3.2974
 8745SOL     OW37888   4.712   6.525   2.051  0.0595  0.1176  0.1415
 8745SOL    HW137889   4.739   6.453   2.115 -0.5260 -1.1109 -0.9894
 8745SOL    HW237890   4.678   6.604   2.103 -2.9673 -1.8724  1.3024
 8746SOL     OW37891   2.333   3.756   4.606  0.1822 -0.1666  0.5216
 8746SOL    HW137892   2.408   3.723   4.549  1.3014  1.2341  1.1345
 8746SOL    HW237893   2.318   3.693   4.681 -1.0211 -1.8065 -1.0599
 8747SOL     OW37894   1.847   2.531   1.889 -0.7735 -0.4574  0.2629
 8747SOL    HW137895   1.934   2.502   1.847 -0.2426  0.3073  0.8293
 8747SOL    HW237896   1.772   2.485   1.843 -0.2878  1.1553 -2.2637
 8748SOL     OW37897   9.292   5.378   1.612 -0.1477 -0.2758 -0.1324
 8748SOL    HW137898   9.281   5.359   1.709  0.8901  1.4951  0.3627
 8748SOL    HW237899   9.298   5.477   1.598 -1.0701 -0.4652 -2.0896
 8749SOL     OW37900   6.279   5.024   2.053 -0.3063 -0.0765 -0.0926
 8749SOL    HW137901   6.340   5.090   2.096 -2.8253  2.1241  0.2295
 8749SOL    HW237902   6.285   5.032   1.953 -0.2149  0.2499 -0.0595
 8750SOL     OW37903   8.576   8.228   8.108  0.2221  0.2259 -0.0799
 8750SOL    HW137904   8.493   8.228   8.053 -0.6406  0.3570  1.1772
 8750SOL    HW237905   8.599   8.134   8.134  0.4127  0.1977 -0.3554
 8751SOL     OW37906   2.098   2.353   5.875  0.3126  0.2508  0.1988
 8751SOL    HW137907   2.123   2.415   5.949  0.9350  0.0200  0.1916
 8751SOL    HW237908   2.052   2.272   5.912 -0.8402  0.8849  0.1727
 8752SOL     OW37909   3.945   9.864   2.705 -0.9196  0.1697  0.4256
 8752SOL    HW137910   4.011   9.813   2.649 -1.4827 -0.8493  0.6700
 8752SOL    HW237911   3.937   9.957   2.670 -0.0231  0.0326 -0.1656
 8753SOL     OW37912   8.421   0.611   4.396 -0.1594  0.4794  0.2834
 8753SOL    HW137913   8.520   0.602   4.401 -0.3190 -2.0075 -0.3034
 8753SOL    HW237914   8.393   0.621   4.300 -0.5014  0.7382  0.4097
 8754SOL     OW37915   9.647   6.223   0.159 -0.6679 -0.0695  0.4101
 8754SOL    HW137916   9.595   6.162   0.219 -1.0881  0.4621  0.6010
 8754SOL    HW237917   9.665   6.178   0.072 -0.9144 -0.4888  0.5749
 8755SOL     OW37918   0.431   8.449   3.793 -0.0927  0.0997  0.3869
 8755SOL    HW137919   0.441   8.350   3.803  1.1722  0.1544 -0.1686
 8755SOL    HW237920   0.442   8.493   3.882  1.4448 -0.1186  0.3202
 8756SOL     OW37921   9.497   9.395   7.719 -0.3197  0.2678 -0.5726
 8756SOL    HW137922   9.478   9.413   7.815 -1.2763 -0.1178 -0.6916
 8756SOL    HW237923   9.547   9.473   7.680  3.1031 -1.0153  1.0840
 8757SOL     OW37924   6.101   0.119   3.356 -0.2443  0.3421 -0.0199
 8757SOL    HW137925   6.045   0.147   3.435 -1.4198  1.1087 -1.1035
 8757SOL    HW237926   6.095   0.020   3.345 -0.0490  0.2211  0.8639
 8758SOL     OW37927   6.656   1.215   5.767 -0.6323  0.5674 -0.1586
 8758SOL    HW137928   6.623   1.296   5.719 -1.0228  0.1713 -0.5609
 8758SOL    HW237929   6.721   1.242   5.838 -2.8910  1.4791  1.6094
 8759SOL     OW37930   3.303   6.119   7.370  0.4386  0.1751  0.0712
 8759SOL    HW137931   3.284   6.208   7.411  0.6934  0.0112  0.5560
 8759SOL    HW237932   3.379   6.075   7.418 -0.1510 -0.6128  0.3095
 8760SOL     OW37933   7.828   4.469   7.790  0.9190  0.5074  0.3413
 8760SOL    HW137934   7.876   4.521   7.720 -1.7398  2.0079 -0.4662
 8760SOL    HW237935   7.855   4.373   7.785  1.0393  0.6455 -2.5309
 8761SOL     OW37936   4.319   2.296   0.403  0.3457 -0.6837 -0.2223
 8761SOL    HW137937   4.279   2.300   0.495  0.4758 -0.3490 -0.1822
 8761SOL    HW237938   4.266   2.231   0.348  0.1174 -0.7040  0.0153
 8762SOL     OW37939   6.098   5.296   0.174 -0.0611  0.4226 -0.3305
 8762SOL    HW137940   6.138   5.291   0.083 -0.6561 -1.0840 -0.5203
 8762SOL    HW237941   6.056   5.385   0.187 -2.3306 -0.2900 -2.5332
 8763SOL     OW37942   2.150   4.303   1.302 -0.3828  0.0046 -0.3460
 8763SOL    HW137943   2.246   4.275   1.301  0.5257  2.8896  0.8231
 8763SOL    HW237944   2.126   4.345   1.215  0.0213  1.1588  0.0928
 8764SOL     OW37945   1.019   3.521   7.415 -0.8685  0.2529  0.0131
 8764SOL    HW137946   0.930   3.565   7.404 -0.0661  2.1294  0.8607
 8764SOL    HW237947   1.014   3.454   7.489 -1.4294  0.8229  0.4966
 8765SOL     OW37948   0.780   2.593   0.164 -0.1398  0.3252  0.4491
 8765SOL    HW137949   0.801   2.502   0.201 -0.2200 -0.6973 -1.8971
 8765SOL    HW237950   0.688   2.593   0.126  1.2228  0.1697 -3.0343
 8766SOL     OW37951   2.866   6.515   0.801  0.4607 -0.0393  0.1425
 8766SOL    HW137952   2.776   6.489   0.837 -0.2558  1.3344 -0.6082
 8766SOL    HW237953   2.931   6.441   0.818 -0.8224 -1.0891  0.6241
 8767SOL     OW37954   1.150   9.064   2.583 -0.1462 -0.2978 -0.5357
 8767SOL    HW137955   1.208   9.095   2.658 -0.5224 -0.6625 -0.0918
 8767SOL    HW237956   1.207   9.035   2.506  0.3205 -2.1291  0.4645
 8768SOL     OW37957   7.973   7.381   6.628 -0.5878  0.1384  0.5452
 8768SOL    HW137958   7.974   7.326   6.545 -1.1897  0.6614  0.1893
 8768SOL    HW237959   7.888   7.435   6.632 -0.8723 -0.3810  1.8209
 8769SOL     OW37960   0.629   1.095   7.606 -0.2459  0.3495 -0.2749
 8769SOL    HW137961   0.539   1.134   7.627  0.2063  1.1354  0.2504
 8769SOL    HW237962   0.651   1.113   7.510 -0.0417  1.4039 -0.0405
 8770SOL     OW37963   9.753   1.075   7.791 -0.0309  0.2421 -0.1610
 8770SOL    HW137964   9.694   1.132   7.735 -0.1630  1.9908  1.6773
 8770SOL    HW237965   9.701   1.038   7.868  0.8264  0.3262  0.4684
 8771SOL     OW37966   2.184   9.791   2.071 -0.1135  0.1597 -0.0829
 8771SOL    HW137967   2.148   9.704   2.107 -0.5844  0.6597  0.6716
 8771SOL    HW237968   2.112   9.860   2.072 -0.0588  0.2581 -1.7735
 8772SOL     OW37969   7.382   9.235   5.061  0.2041 -0.3422  0.0508
 8772SOL    HW137970   7.344   9.325   5.082 -0.4896 -0.4996 -0.5251
 8772SOL    HW237971   7.420   9.236   4.969  0.2811 -0.6200  0.0795
 8773SOL     OW37972   7.687   8.121   6.328 -0.6409 -0.1685 -0.5073
 8773SOL    HW137973   7.674   8.023   6.316 -0.1724 -0.5348  1.7189
 8773SOL    HW237974   7.768   8.151   6.279 -1.1370 -0.7673 -1.7075
 8774SOL     OW37975   3.575   8.320   0.719  0.4376  0.1582  0.7173
 8774SOL    HW137976   3.650   8.272   0.765  1.0374  0.2980 -0.1023
 8774SOL    HW237977   3.607   8.409   0.688 -0.1927  0.3930  0.7374
 8775SOL     OW37978   3.491   6.188   4.769  0.2313  0.0978 -0.2156
 8775SOL    HW137979   3.513   6.247   4.847  0.8219 -0.1769 -0.1683
 8775SOL    HW237980   3.472   6.096   4.801  0.3323  0.0191 -0.3808
 8776SOL     OW37981   7.816   3.703   2.212  0.1504  1.0184  0.0695
 8776SOL    HW137982   7.806   3.724   2.310 -1.0502  1.7358 -0.1949
 8776SOL    HW237983   7.805   3.786   2.159  0.1463  0.5164 -0.7194
 8777SOL     OW37984   1.424   4.281   4.857 -0.2536  0.2392  0.7145
 8777SOL    HW137985   1.350   4.327   4.808  0.0150  2.9447  2.7378
 8777SOL    HW237986   1.499   4.262   4.794 -2.8154 -3.1106 -1.5157
 8778SOL     OW37987   4.799   4.865   4.277  0.3713 -0.0976  0.2765
 8778SOL    HW137988   4.852   4.849   4.193  0.9665  0.3823  0.5526
 8778SOL    HW237989   4.805   4.961   4.301  1.2778 -0.4676  1.5798
 8779SOL     OW37990   0.402   1.835   1.261  0.1293 -0.6011  0.2840
 8779SOL    HW137991   0.439   1.763   1.202  0.7865 -0.9653  1.1205
 8779SOL    HW237992   0.327   1.798   1.315 -0.4910 -0.2600 -0.3335
 8780SOL     OW37993   2.705   4.129   7.279  0.4148 -0.4774  0.4419
 8780SOL    HW137994   2.739   4.208   7.228 -2.1504  0.8303  0.6658
 8780SOL    HW237995   2.746   4.128   7.370 -0.3634  1.2622  0.8322
 8781SOL     OW37996   7.394   0.408   0.586  0.0372 -0.5158 -0.1806
 8781SOL    HW137997   7.327   0.335   0.582 -2.4411  1.6226  0.5661
 8781SOL    HW237998   7.406   0.448   0.495  0.5337 -1.1040 -0.3731
 8782SOL     OW37999   3.200   1.141   5.646  0.1753 -0.0643 -0.2840
 8782SOL    HW138000   3.213   1.229   5.693 -2.8611  0.9713 -1.2329
 8782SOL    HW238001   3.160   1.075   5.710 -2.7732  0.9655 -1.0008
 8783SOL     OW38002   6.500   1.047   4.979  0.4555  0.3806 -0.2373
 8783SOL    HW138003   6.534   1.105   4.904  0.7897  0.6651  0.1335
 8783SOL    HW238004   6.411   1.008   4.953  0.6474  0.3451 -0.8496
 8784SOL     OW38005   2.319   4.848   7.538 -0.2961  0.5728 -0.6163
 8784SOL    HW138006   2.271   4.934   7.558  1.2941  1.1089  1.0253
 8784SOL    HW238007   2.284   4.776   7.597 -1.0463  0.2827 -1.4075
 8785SOL     OW38008   5.617   0.924   2.415  0.5065 -0.0873  0.1697
 8785SOL    HW138009   5.638   0.926   2.318  3.2833 -2.6063  0.6456
 8785SOL    HW238010   5.536   0.868   2.431  2.7782 -3.7001 -0.3610
 8786SOL     OW38011   9.420   6.269   7.858 -0.0356 -0.1505 -0.1188
 8786SOL    HW138012   9.374   6.273   7.769 -1.5516  1.3576  0.6992
 8786SOL    HW238013   9.404   6.180   7.900  0.0368 -0.5895 -1.0223
 8787SOL     OW38014   3.061   7.055   1.001  0.1378 -0.3874  0.4008
 8787SOL    HW138015   3.033   7.141   0.959 -0.4614 -1.6506 -1.9009
 8787SOL    HW238016   2.993   7.027   1.069 -1.6892 -0.9106 -1.5695
 8788SOL     OW38017   2.796   4.584   5.912  0.1456 -0.7383  0.1214
 8788SOL    HW138018   2.708   4.536   5.915 -0.1385 -0.2094  0.5289
 8788SOL    HW238019   2.803   4.644   5.992  0.2124  0.3698 -0.6926
 8789SOL     OW38020   4.135   2.902   1.405 -0.3620 -0.3395 -0.6869
 8789SOL    HW138021   4.193   2.870   1.330 -1.0569  0.5289 -1.6009
 8789SOL    HW238022   4.159   2.996   1.428 -1.1641 -0.1045 -0.8146
 8790SOL     OW38023   3.265   0.487   4.768  0.2656 -0.1645 -0.3409
 8790SOL    HW138024   3.235   0.501   4.674  0.2944  0.8016 -0.2143
 8790SOL    HW238025   3.338   0.419   4.770 -1.6568 -2.2859 -0.6870
 8791SOL     OW38026   0.851   1.961   1.218 -0.0307 -0.5825  0.3530
 8791SOL    HW138027   0.797   1.991   1.139 -1.3619 -3.4446  0.1088
 8791SOL    HW238028   0.789   1.946   1.296  0.9884  0.0680  1.2982
 8792SOL     OW38029   8.558   8.165   6.104 -0.1358  0.4195  0.7582
 8792SOL    HW138030   8.644   8.127   6.138 -0.0173  0.2679  0.2845
 8792SOL    HW238031   8.492   8.091   6.092  0.1366  0.3467 -0.2922
 8793SOL     OW38032   0.812   8.471   1.004 -0.0785  0.1652  0.0082
 8793SOL    HW138033   0.715   8.454   0.983  0.3925 -1.1643 -1.1909
 8793SOL    HW238034   0.848   8.539   0.940 -0.3163  0.9755  0.7246
 8794SOL     OW38035   1.293   0.663   3.595  0.4541 -0.2510  0.2240
 8794SOL    HW138036   1.331   0.680   3.504 -2.5881  1.2393 -0.8327
 8794SOL    HW238037   1.249   0.573   3.596 -1.5651  0.7083 -0.5255
 8795SOL     OW38038   9.079   1.797   4.661  1.1137  0.1084  0.1636
 8795SOL    HW138039   9.073   1.877   4.601 -1.1152 -0.4053 -0.3611
 8795SOL    HW238040   9.075   1.714   4.605 -1.2522 -0.3772  1.0019
 8796SOL     OW38041   0.591   4.116   1.783 -0.1192 -0.2773  0.9666
 8796SOL    HW138042   0.601   4.196   1.724  0.8947 -0.5637  0.7465
 8796SOL    HW238043   0.495   4.087   1.784  0.2630 -1.9689 -2.8249
 8797SOL     OW38044   6.252   9.367   6.571  0.1258  0.5481 -0.3549
 8797SOL    HW138045   6.267   9.423   6.490 -0.1689  0.8682 -0.1903
 8797SOL    HW238046   6.221   9.276   6.544  1.3401  0.2126 -0.6573
 8798SOL     OW38047   0.620   3.609   1.351 -0.6437 -0.8182 -0.3532
 8798SOL    HW138048   0.585   3.519   1.377 -0.2390 -1.3016 -1.4202
 8798SOL    HW238049   0.656   3.605   1.257  3.2122 -0.6253  0.9997
 8799SOL     OW38050   6.916   7.164   7.197  0.3350  0.3796  0.0741
 8799SOL    HW138051   6.853   7.160   7.275  0.0721 -0.3169 -0.1692
 8799SOL    HW238052   6.866   7.191   7.115  0.3130 -0.3789 -0.1616
 8800SOL     OW38053   0.847   5.449   5.176  0.2657 -0.1153 -0.1306
 8800SOL    HW138054   0.835   5.352   5.199  0.4335  0.2547  1.5259
 8800SOL    HW238055   0.780   5.474   5.106  0.2715 -1.4434 -0.6296
 8801SOL     OW38056   2.042   6.704   2.046 -0.0313 -0.4291 -0.5048
 8801SOL    HW138057   2.122   6.704   1.986 -0.4192 -0.3078 -1.0299
 8801SOL    HW238058   2.068   6.673   2.137  0.6915 -0.0240 -0.5709
 8802SOL     OW38059   7.472   9.167   5.304 -0.3665  0.0930 -0.2919
 8802SOL    HW138060   7.537   9.234   5.340 -2.1801  0.3215  2.6431
 8802SOL    HW238061   7.444   9.195   5.212 -0.0848  2.6333  0.3642
 8803SOL     OW38062   2.992   3.805   0.075 -0.9060  0.5802  0.0702
 8803SOL    HW138063   2.977   3.807  -0.024 -0.3657 -1.6624 -0.0965
 8803SOL    HW238064   3.076   3.853   0.098 -0.2668 -0.1274 -0.7482
 8804SOL     OW38065   6.739   9.398   6.774  0.0969  0.6011 -0.2745
 8804SOL    HW138066   6.746   9.405   6.873 -1.1211  0.6953 -0.1915
 8804SOL    HW238067   6.704   9.308   6.749  0.2017  0.6524 -0.6165
 8805SOL     OW38068   7.152   2.556   1.060 -0.0153 -0.3833 -1.1285
 8805SOL    HW138069   7.145   2.457   1.049  0.2648 -0.6954  1.3821
 8805SOL    HW238070   7.081   2.588   1.122  2.5741  0.3635  1.5578
 8806SOL     OW38071   1.435   3.446   1.955 -0.0439 -0.1510  0.1293
 8806SOL    HW138072   1.405   3.415   2.046  0.5922  1.2586  0.8290
 8806SOL    HW238073   1.479   3.370   1.907 -0.7264 -1.0143  0.8373
 8807SOL     OW38074   9.682   3.286   3.600  0.0404  0.1399 -0.5588
 8807SOL    HW138075   9.782   3.282   3.595 -0.0714 -0.8145 -2.3841
 8807SOL    HW238076   9.643   3.210   3.549 -1.6590  1.6002 -1.4819
 8808SOL     OW38077   7.654   9.640   3.046 -0.2663  0.0054 -0.2481
 8808SOL    HW138078   7.621   9.606   2.958  2.1172 -1.6132 -0.5637
 8808SOL    HW238079   7.674   9.562   3.106  1.9389  0.9256  0.2668
 8809SOL     OW38080   1.922   8.068   5.926 -0.2139 -0.5294  0.4153
 8809SOL    HW138081   1.977   8.114   5.996  0.4856 -0.3694 -0.2282
 8809SOL    HW238082   1.866   7.997   5.969  1.7918 -1.9009  0.8975
 8810SOL     OW38083   8.970   1.188   1.385 -0.3048  0.2587  0.3531
 8810SOL    HW138084   9.040   1.117   1.392 -1.9445 -1.4882 -0.3988
 8810SOL    HW238085   8.936   1.192   1.292 -2.6836 -0.4168  1.1603
 8811SOL     OW38086   0.975   3.506   6.400  0.0050  0.0204 -0.0922
 8811SOL    HW138087   0.889   3.500   6.451  0.1307 -1.5334 -0.0365
 8811SOL    HW238088   1.037   3.434   6.431  0.5566 -0.1409 -1.5507
 8812SOL     OW38089   2.188   8.355   4.130  0.3971  0.8313 -0.1832
 8812SOL    HW138090   2.097   8.316   4.142  1.0466 -1.0767 -1.2479
 8812SOL    HW238091   2.227   8.379   4.219  0.1705 -1.4167  0.5495
 8813SOL     OW38092   6.871   3.036   1.076 -0.1071  0.2787 -0.1284
 8813SOL    HW138093   6.853   2.993   1.164 -0.3506 -0.2537 -0.4358
 8813SOL    HW238094   6.785   3.074   1.039 -0.0984  0.0769 -0.3584
 8814SOL     OW38095   3.234   6.033   0.566 -1.1367 -0.0783 -0.2479
 8814SOL    HW138096   3.245   5.944   0.610  0.3544 -0.5912 -1.5791
 8814SOL    HW238097   3.324   6.067   0.538 -2.0003  0.2152 -2.8323
 8815SOL     OW38098   8.413   1.548   1.682  0.2449  0.1591  0.1607
 8815SOL    HW138099   8.465   1.492   1.747 -0.7573 -0.5490  0.3729
 8815SOL    HW238100   8.316   1.525   1.689  0.2724 -0.9643 -2.6054
 8816SOL     OW38101   0.159   6.451   0.256  0.6107 -0.0303  0.5651
 8816SOL    HW138102   0.136   6.537   0.211 -1.9617 -0.2851  1.3386
 8816SOL    HW238103   0.075   6.402   0.280  2.0166 -2.8358  0.0042
 8817SOL     OW38104   8.983   7.750   5.851 -0.6169 -0.1183  0.2541
 8817SOL    HW138105   8.928   7.833   5.857 -1.8126 -0.9124  0.4295
 8817SOL    HW238106   9.071   7.765   5.897 -0.7452  1.1006  0.1205
 8818SOL     OW38107   7.260   0.998   1.953 -1.1401 -0.2581 -0.2075
 8818SOL    HW138108   7.336   0.940   1.924 -0.5434 -0.7038  2.1177
 8818SOL    HW238109   7.174   0.957   1.924 -0.5363 -0.0286 -2.4019
 8819SOL     OW38110   7.872   6.023   5.194  0.0155 -0.2804 -0.1699
 8819SOL    HW138111   7.872   6.086   5.117 -0.3747  1.7643  1.4723
 8819SOL    HW238112   7.863   6.074   5.279  0.5722 -2.4968  1.2538
 8820SOL     OW38113   1.512   0.689   5.223  0.3071 -0.5855  0.2209
 8820SOL    HW138114   1.612   0.684   5.222  0.3096 -0.8859  1.0325
 8820SOL    HW238115   1.476   0.648   5.140  0.8182 -1.8705  0.6198
 8821SOL     OW38116   3.301   7.497   5.023 -0.4863 -0.2054  0.2897
 8821SOL    HW138117   3.399   7.490   5.041 -0.5002 -4.2490 -0.7515
 8821SOL    HW238118   3.261   7.566   5.083  2.4419 -0.7407  2.9917
 8822SOL     OW38119   8.690   2.044   0.961  0.8839  0.2650  0.1765
 8822SOL    HW138120   8.672   2.066   1.057 -1.6607 -0.3114 -0.1315
 8822SOL    HW238121   8.605   2.051   0.909  1.5764 -2.4902 -1.4370
 8823SOL     OW38122   4.960   3.273   0.227  0.4425  0.2380 -0.3248
 8823SOL    HW138123   4.904   3.298   0.306 -1.0224 -1.4241 -0.8234
 8823SOL    HW238124   4.948   3.176   0.207  1.4999  0.4557 -2.0351
 8824SOL     OW38125   5.193   8.837   4.779  0.0949  0.1329 -0.5038
 8824SOL    HW138126   5.278   8.849   4.830 -0.3619 -1.5190  0.6790
 8824SOL    HW238127   5.167   8.923   4.736  0.8434  1.3688  1.4942
 8825SOL     OW38128   9.562   1.889   1.091  0.4901  0.3465  0.2061
 8825SOL    HW138129   9.540   1.938   1.007 -0.5333  0.3615  0.4754
 8825SOL    HW238130   9.535   1.944   1.170  0.4489 -0.1278  0.5259
 8826SOL     OW38131   9.645   6.467   3.792 -0.2261 -0.3347  0.4313
 8826SOL    HW138132   9.609   6.431   3.706  0.6017 -0.5768  0.1758
 8826SOL    HW238133   9.587   6.541   3.825  0.2601  0.7462 -1.0948
 8827SOL     OW38134   9.093   8.327   3.234 -0.0272 -0.4397 -0.2654
 8827SOL    HW138135   9.148   8.294   3.311  0.1247 -0.1551 -0.2513
 8827SOL    HW238136   9.047   8.249   3.191 -2.5644 -0.2492  2.0016
 8828SOL     OW38137   7.110   2.586   0.722 -0.0287  0.8347 -0.1680
 8828SOL    HW138138   7.141   2.611   0.814 -0.7767 -1.6862  0.8471
 8828SOL    HW238139   7.188   2.579   0.660  0.9460 -0.9439  1.2005
 8829SOL     OW38140   1.136   7.232   1.131 -0.2979 -0.2474  0.1826
 8829SOL    HW138141   1.234   7.219   1.149 -0.0826 -1.0072 -1.4561
 8829SOL    HW238142   1.107   7.168   1.060 -2.1860 -0.6072  1.2578
 8830SOL     OW38143   3.424   8.774   5.566 -0.8627 -0.3047  0.2337
 8830SOL    HW138144   3.356   8.726   5.510 -1.2165 -0.3185  0.6699
 8830SOL    HW238145   3.511   8.725   5.563 -0.7866 -0.1368 -0.5599
 8831SOL     OW38146   8.306   9.167   1.415  0.4526  0.1900  0.6715
 8831SOL    HW138147   8.318   9.209   1.325  1.0463  0.0433  0.6791
 8831SOL    HW238148   8.229   9.209   1.461 -0.0835  0.0207 -0.0513
 8832SOL     OW38149   0.503   2.416   1.899 -0.2001  0.1269 -0.0541
 8832SOL    HW138150   0.533   2.505   1.935  1.9704 -1.6025  2.6172
 8832SOL    HW238151   0.424   2.384   1.952  0.1712 -0.3756  0.1925
 8833SOL     OW38152   6.110   1.530   4.225  0.2328  0.3487 -0.1106
 8833SOL    HW138153   6.198   1.491   4.253  0.0367 -0.4439 -0.5694
 8833SOL    HW238154   6.083   1.601   4.290 -0.4636 -1.7986  2.0719
 8834SOL     OW38155   0.521   4.130   8.167  0.0030  0.3210 -0.2359
 8834SOL    HW138156   0.562   4.066   8.102 -1.4486 -1.2178  0.3410
 8834SOL    HW238157   0.423   4.113   8.173 -0.0304  1.0801  1.6516
 8835SOL     OW38158   4.007   1.315   4.203  0.0234 -0.4340  0.0999
 8835SOL    HW138159   3.985   1.346   4.296  1.5973 -1.2568  0.7508
 8835SOL    HW238160   4.021   1.395   4.144 -1.8579  0.1003  0.3412
 8836SOL     OW38161   6.696   2.097   0.815 -0.0246  0.0472  0.4803
 8836SOL    HW138162   6.782   2.148   0.817  0.8374 -1.3544  0.5362
 8836SOL    HW238163   6.693   2.039   0.734 -0.7677 -0.1570  0.6471
 8837SOL     OW38164   1.510   9.127   7.970 -0.0550 -0.0167 -0.1169
 8837SOL    HW138165   1.538   9.208   8.022  1.2497  0.4405 -1.4714
 8837SOL    HW238166   1.441   9.076   8.021 -0.6517  1.7765  0.9133
 8838SOL     OW38167   7.005   5.560   1.848 -0.7805  0.2202 -0.6187
 8838SOL    HW138168   7.094   5.603   1.836  0.1499 -1.4298  0.1918
 8838SOL    HW238169   6.964   5.591   1.934 -1.2230  1.3799 -1.2470
 8839SOL     OW38170   7.810   9.728   6.206 -0.3826  0.3583  0.3520
 8839SOL    HW138171   7.895   9.774   6.232 -1.4391  1.3074  2.2307
 8839SOL    HW238172   7.806   9.639   6.251  1.3964 -1.4162 -2.8329
 8840SOL     OW38173   4.811   5.033   0.428  0.4336  0.6457 -0.1074
 8840SOL    HW138174   4.760   4.954   0.464  1.6183  0.3160  0.9141
 8840SOL    HW238175   4.848   5.086   0.505 -0.0493  2.0056 -0.7987
 8841SOL     OW38176   3.507   7.221   5.042  0.0590  0.1582  0.0939
 8841SOL    HW138177   3.526   7.309   5.087 -1.0048 -0.1439  1.1547
 8841SOL    HW238178   3.559   7.216   4.957  0.9916  1.3509  0.5665
 8842SOL     OW38179   4.071   1.420   2.636  0.6349 -0.5627  0.5062
 8842SOL    HW138180   4.146   1.419   2.570  1.1903 -0.5176  1.1248
 8842SOL    HW238181   4.005   1.349   2.612 -0.5320  1.1812 -1.6035
 8843SOL     OW38182   0.633   2.345   6.710  0.1508  0.4780 -0.4123
 8843SOL    HW138183   0.676   2.369   6.624 -0.6171 -0.4794 -1.0834
 8843SOL    HW238184   0.534   2.333   6.696 -0.1789  1.5882  0.8661
 8844SOL     OW38185   3.727   8.323   1.146 -0.7805 -0.2331 -0.1168
 8844SOL    HW138186   3.740   8.415   1.109 -0.7449 -0.8386 -1.6499
 8844SOL    HW238187   3.766   8.255   1.084 -1.3345 -1.3341  0.6984
 8845SOL     OW38188   1.195   0.137   6.704  0.1340  0.6267 -0.2911
 8845SOL    HW138189   1.221   0.210   6.641 -1.1970 -0.6640 -2.3954
 8845SOL    HW238190   1.275   0.080   6.723  0.3722  0.5901 -1.3894
 8846SOL     OW38191   6.250   7.862   4.360 -0.0040 -0.1229 -0.4813
 8846SOL    HW138192   6.196   7.914   4.294 -1.8407  0.7463  1.6690
 8846SOL    HW238193   6.273   7.920   4.438 -0.7219 -2.0855  1.2148
 8847SOL     OW38194   9.813   0.219   3.267 -0.2743 -0.4989  1.0886
 8847SOL    HW138195   9.785   0.123   3.254  1.9112 -0.9701 -0.5298
 8847SOL    HW238196   9.913   0.225   3.265 -0.3758  1.7720  1.6106
 8848SOL     OW38197   9.819   0.091   8.121 -0.3433  0.3123 -0.0346
 8848SOL    HW138198   9.797  -0.000   8.086  0.5462  0.3709 -0.7688
 8848SOL    HW238199   9.887   0.134   8.062  0.5876  0.7395  1.3306
 8849SOL     OW38200   9.428   4.250   2.655  0.2275 -0.4208 -0.0637
 8849SOL    HW138201   9.484   4.170   2.678 -0.7201 -1.6070 -1.7832
 8849SOL    HW238202   9.332   4.231   2.675  0.0033  0.3115 -0.4071
 8850SOL     OW38203   0.153   3.138   4.493  0.4089 -0.3528 -0.3107
 8850SOL    HW138204   0.196   3.048   4.506 -1.7117 -1.4328 -0.5741
 8850SOL    HW238205   0.081   3.150   4.561 -0.9408  0.1362 -1.8088
 8851SOL     OW38206   0.499   1.949   6.938  0.2182  0.3437 -0.0289
 8851SOL    HW138207   0.402   1.932   6.919 -0.3203  2.1059  0.9752
 8851SOL    HW238208   0.515   1.945   7.036  1.1191  0.2513 -0.1766
 8852SOL     OW38209   2.775   0.971   7.772  0.5442  0.0803 -0.0232
 8852SOL    HW138210   2.833   1.046   7.741 -0.7402  0.8234 -0.6599
 8852SOL    HW238211   2.682   0.983   7.736  0.1661 -1.4688  0.3968
 8853SOL     OW38212   2.289   6.263   0.411 -0.2840  0.3255  0.1268
 8853SOL    HW138213   2.299   6.348   0.359 -0.2732 -0.9270 -1.9517
 8853SOL    HW238214   2.228   6.200   0.363  1.3727 -1.6906  0.5643
 8854SOL     OW38215   9.421   2.973   3.700 -0.3238  0.9524  0.2987
 8854SOL    HW138216   9.401   3.044   3.633  0.8478  0.1334 -0.9646
 8854SOL    HW238217   9.519   2.973   3.720 -0.0801 -1.1654 -0.7579
 8855SOL     OW38218   6.629   0.135   2.255 -0.5145 -0.5461 -0.2881
 8855SOL    HW138219   6.593   0.051   2.295  0.6323 -1.0887 -0.3900
 8855SOL    HW238220   6.702   0.113   2.190 -0.0655  0.5354 -0.1645
 8856SOL     OW38221   3.217   1.485   4.499 -0.2116  0.3990  0.2098
 8856SOL    HW138222   3.312   1.457   4.482  0.5603  2.2294  1.3497
 8856SOL    HW238223   3.180   1.528   4.416  1.2467  3.0884  0.8739
 8857SOL     OW38224   0.553   5.283   1.059  0.0944  0.0418 -0.2051
 8857SOL    HW138225   0.563   5.313   0.964  0.0584  0.0135 -0.2176
 8857SOL    HW238226   0.465   5.238   1.071  0.0453  0.1586 -0.1282
 8858SOL     OW38227   1.205   8.368   3.422  0.0562 -0.2402  0.4403
 8858SOL    HW138228   1.144   8.292   3.443 -0.8718  0.3051 -0.3081
 8858SOL    HW238229   1.168   8.422   3.346  1.5465 -0.0182 -0.1475
 8859SOL     OW38230   5.163   0.985   6.919  0.0404  0.4364 -0.1294
 8859SOL    HW138231   5.149   1.084   6.926  1.2772  0.5902  0.2971
 8859SOL    HW238232   5.084   0.938   6.957 -0.8856  1.2515 -0.9927
 8860SOL     OW38233   1.811   1.009   5.816  0.1174  0.0174  0.2134
 8860SOL    HW138234   1.891   1.058   5.781  0.4162 -0.4878  0.1723
 8860SOL    HW238235   1.738   1.010   5.747  0.1797  0.2738  0.1528
 8861SOL     OW38236   5.906   5.065   0.531 -0.4853 -0.5191  0.1824
 8861SOL    HW138237   5.984   5.075   0.593 -1.1084 -1.0214  1.0524
 8861SOL    HW238238   5.844   4.995   0.566 -2.3076  1.2223  0.5103
 8862SOL     OW38239   8.349   5.089   1.366 -0.6012 -0.1906  0.4494
 8862SOL    HW138240   8.312   4.999   1.342  0.4445 -0.3697 -0.5059
 8862SOL    HW238241   8.445   5.094   1.340 -1.1732  1.9161 -1.4378
 8863SOL     OW38242   8.276   4.362   7.129  0.2034  0.2081 -0.1010
 8863SOL    HW138243   8.231   4.359   7.218 -0.3183 -0.2179 -0.3741
 8863SOL    HW238244   8.237   4.292   7.070  0.0316  0.9794 -0.9084
 8864SOL     OW38245   6.678   1.049   1.075 -0.6372  0.1082  0.2388
 8864SOL    HW138246   6.680   1.084   1.168  0.1711 -2.8638  1.4093
 8864SOL    HW238247   6.758   1.082   1.025 -1.4813  2.3454  0.3222
 8865SOL     OW38248   0.138   2.035   7.588 -0.2744 -0.0481 -0.0950
 8865SOL    HW138249   0.156   2.017   7.685 -0.0676 -1.1760 -0.3371
 8865SOL    HW238250   0.040   2.036   7.572 -0.3292  0.9579  0.2749
 8866SOL     OW38251   8.346   6.212   0.173 -0.4557  0.4921 -0.5265
 8866SOL    HW138252   8.400   6.236   0.092 -1.3600 -0.2521 -1.3566
 8866SOL    HW238253   8.396   6.240   0.255  0.8168  0.5795 -1.3100
 8867SOL     OW38254   3.919   4.653   3.410 -0.6217 -0.0433  0.2442
 8867SOL    HW138255   3.979   4.674   3.333  1.7646 -1.9773  1.5138
 8867SOL    HW238256   3.957   4.577   3.462 -3.2808 -0.1358  2.1453
 8868SOL     OW38257   0.773   1.206   2.708  0.6840  0.4422  0.0117
 8868SOL    HW138258   0.691   1.262   2.695  1.4716  1.5327 -0.2507
 8868SOL    HW238259   0.831   1.248   2.778  0.3477 -1.0817  1.2242
 8869SOL     OW38260   0.305   6.924   1.462  0.1738 -0.3434  0.4282
 8869SOL    HW138261   0.349   6.950   1.548 -0.4348 -0.3419  0.7425
 8869SOL    HW238262   0.221   6.977   1.450  0.4672 -0.0446 -0.3691
 8870SOL     OW38263   7.543   2.212   0.416 -0.0326  0.2713  0.2936
 8870SOL    HW138264   7.573   2.285   0.477 -0.2734 -1.0495  2.0305
 8870SOL    HW238265   7.498   2.140   0.469  0.6662 -1.3971 -1.3069
 8871SOL     OW38266   9.351   0.395   6.369  0.2508 -0.4843  0.1895
 8871SOL    HW138267   9.408   0.315   6.387  0.1067 -0.2180  1.8830
 8871SOL    HW238268   9.255   0.366   6.364  0.3620 -0.6710 -0.9231
 8872SOL     OW38269   4.544   9.793   6.227 -0.2597  0.3186 -0.2002
 8872SOL    HW138270   4.606   9.865   6.196  0.9783 -0.6276  0.0518
 8872SOL    HW238271   4.551   9.715   6.165 -1.3117  0.2604 -0.2507
 8873SOL     OW38272   9.018   7.113   2.416 -0.0663  0.1353  0.6202
 8873SOL    HW138273   8.943   7.052   2.390 -1.2001  1.2018  1.3169
 8873SOL    HW238274   9.000   7.205   2.381  1.7674  0.0232 -0.6642
 8874SOL     OW38275   3.599   8.778   5.063 -0.2372 -0.0775 -0.1802
 8874SOL    HW138276   3.600   8.875   5.087  0.8637 -0.3926  1.1110
 8874SOL    HW238277   3.656   8.764   4.982 -1.2659  0.4998 -1.0210
 8875SOL     OW38278   2.185   2.345   1.208  0.2778  0.3488  0.4692
 8875SOL    HW138279   2.238   2.398   1.141  2.1035 -0.8504  0.9360
 8875SOL    HW238280   2.119   2.288   1.160  1.1489 -0.0326 -0.3039
 8876SOL     OW38281   1.630   7.939   5.473  0.1570 -0.2380  0.5766
 8876SOL    HW138282   1.639   7.868   5.543 -0.0485 -0.5944  0.2441
 8876SOL    HW238283   1.624   8.029   5.517  0.8593 -0.3831  0.9790
 8877SOL     OW38284   4.103   1.258   1.570 -0.2050 -0.6897 -0.3648
 8877SOL    HW138285   4.086   1.255   1.472 -0.0613 -0.4390 -0.3979
 8877SOL    HW238286   4.196   1.225   1.589 -0.7384 -2.1107 -0.1803
 8878SOL     OW38287   4.667   1.204   7.519 -0.1864  0.6774 -0.4450
 8878SOL    HW138288   4.601   1.174   7.588  0.4671  0.5138  0.1191
 8878SOL    HW238289   4.623   1.267   7.455 -1.5892 -1.4522 -1.6354
 8879SOL     OW38290   3.143   7.285   3.077  0.3775 -0.3103 -0.2817
 8879SOL    HW138291   3.214   7.268   3.145  1.6546 -1.6372 -1.9031
 8879SOL    HW238292   3.114   7.198   3.037 -0.9718  0.3795 -0.8294
 8880SOL     OW38293   8.389   6.317   3.262  0.4924 -0.0286 -0.6202
 8880SOL    HW138294   8.378   6.309   3.362  1.8107 -0.0178 -0.4576
 8880SOL    HW238295   8.377   6.412   3.235 -1.4337 -0.2806 -0.6872
 8881SOL     OW38296   8.052   5.381   5.956 -0.6440  0.0917 -0.2445
 8881SOL    HW138297   8.044   5.448   6.030 -0.1843  0.5475 -0.6051
 8881SOL    HW238298   8.142   5.338   5.958 -1.5189 -1.7396  1.0094
 8882SOL     OW38299   8.041   4.910   0.757 -0.1991 -0.1406 -0.0537
 8882SOL    HW138300   7.961   4.883   0.705  0.2605 -1.4013 -0.1234
 8882SOL    HW238301   8.070   4.834   0.816  1.2135  0.1328 -0.3802
 8883SOL     OW38302   1.214   5.615   7.440  0.2447  0.1738  1.1229
 8883SOL    HW138303   1.269   5.692   7.473  0.5485  0.1391  0.7001
 8883SOL    HW238304   1.247   5.587   7.349 -2.0583  1.7624 -0.2393
 8884SOL     OW38305   2.130   4.853   1.174 -0.2883 -0.2261 -0.5525
 8884SOL    HW138306   2.169   4.866   1.265 -0.4241  0.3121 -0.5701
 8884SOL    HW238307   2.203   4.838   1.108 -0.1670 -0.1715 -0.4313
 8885SOL     OW38308   0.648   4.280   2.288  0.1833  0.2362 -0.5237
 8885SOL    HW138309   0.592   4.212   2.336  1.9699 -0.1039  1.1565
 8885SOL    HW238310   0.613   4.371   2.309 -0.5097 -0.0345 -0.4884
 8886SOL     OW38311   2.514   4.937   1.057 -0.2552 -0.8255  0.4829
 8886SOL    HW138312   2.449   4.870   1.021 -1.0786 -0.6888  1.6982
 8886SOL    HW238313   2.473   5.028   1.053 -0.9267 -0.9804  3.0695
 8887SOL     OW38314   2.062   5.182   2.116  0.3924  0.5984  1.0929
 8887SOL    HW138315   1.964   5.166   2.128  0.0411  1.9776  0.1657
 8887SOL    HW238316   2.078   5.227   2.028  1.8902  0.1381  1.1164
 8888SOL     OW38317   1.702   8.036   6.992 -0.8331  0.4868  0.2054
 8888SOL    HW138318   1.793   8.078   6.989 -1.2708  1.5980  1.7471
 8888SOL    HW238319   1.706   7.944   6.954  0.7625  0.8417 -0.5078
 8889SOL     OW38320   4.165   5.027   4.175 -0.2338 -0.0653 -0.4624
 8889SOL    HW138321   4.126   5.003   4.086 -1.8696  0.2905  0.1456
 8889SOL    HW238322   4.092   5.037   4.242  1.0305 -1.0205  1.1012
 8890SOL     OW38323   0.457   3.725   3.484  0.4100  0.5739 -0.0138
 8890SOL    HW138324   0.469   3.815   3.526  0.7630  0.0687  0.9729
 8890SOL    HW238325   0.433   3.736   3.387 -1.2301  1.7554  0.5181
 8891SOL     OW38326   8.600   5.657   1.288  0.4895 -0.0494 -0.4862
 8891SOL    HW138327   8.607   5.656   1.388 -1.2071  0.9339 -0.3276
 8891SOL    HW238328   8.689   5.678   1.248  0.8416  1.0874  0.8715
 8892SOL     OW38329   9.428   9.893   6.708  0.2161 -0.4385  0.5646
 8892SOL    HW138330   9.369   9.822   6.671  0.3036 -0.0131 -0.3965
 8892SOL    HW238331   9.393   9.983   6.682 -0.7737 -0.0469  3.0486
 8893SOL     OW38332   2.252   4.726   0.309  0.6387 -0.6410 -0.3391
 8893SOL    HW138333   2.220   4.631   0.308 -0.0616 -0.4368  1.1600
 8893SOL    HW238334   2.332   4.733   0.370  0.9673 -0.3434 -0.7978
 8894SOL     OW38335   3.324   2.873   2.185  0.0514  0.6288 -0.3554
 8894SOL    HW138336   3.358   2.856   2.093  0.5282  1.0367 -0.2524
 8894SOL    HW238337   3.271   2.957   2.186  0.0372  0.6192 -0.2605
 8895SOL     OW38338   6.762   9.408   3.463 -0.1170  0.2029  0.2109
 8895SOL    HW138339   6.699   9.438   3.534 -0.3051  1.4947 -0.4961
 8895SOL    HW238340   6.772   9.479   3.394  1.3974 -0.3503 -0.1726
 8896SOL     OW38341   3.028   2.531   6.687  0.0027  0.0146 -0.6762
 8896SOL    HW138342   3.051   2.512   6.783  0.3702  1.4975 -0.4603
 8896SOL    HW238343   2.940   2.488   6.665 -0.4331  0.2555  0.5346
 8897SOL     OW38344   1.190   6.465   2.988 -0.3339 -0.0293 -0.0412
 8897SOL    HW138345   1.256   6.399   3.023 -1.0475 -0.2174  0.9523
 8897SOL    HW238346   1.162   6.526   3.061 -0.4925  0.7041 -0.7054
 8898SOL     OW38347   2.147   3.578   3.103 -0.1150 -0.4672 -0.0267
 8898SOL    HW138348   2.175   3.526   3.022  0.7071  1.1865 -0.8313
 8898SOL    HW238349   2.074   3.529   3.150  1.6947 -3.1176  0.1128
 8899SOL     OW38350   0.357   3.209   3.380 -0.5958 -0.6139 -0.6797
 8899SOL    HW138351   0.357   3.259   3.466  0.9004 -0.3438 -0.8220
 8899SOL    HW238352   0.276   3.232   3.328  0.8144  2.9120 -1.4541
 8900SOL     OW38353   2.107   0.696   5.452 -0.2811  0.4901 -0.1111
 8900SOL    HW138354   2.058   0.778   5.482 -1.3052 -0.3028  0.4133
 8900SOL    HW238355   2.070   0.665   5.364 -0.6285 -0.0092  0.2040
 8901SOL     OW38356   0.720   7.520   3.860  0.1905  0.1536  0.0625
 8901SOL    HW138357   0.755   7.596   3.805  0.6264 -0.6900 -0.8552
 8901SOL    HW238358   0.774   7.513   3.944  0.8900  0.1652 -0.3754
 8902SOL     OW38359   3.055   3.162   2.450  0.1591 -0.2833  0.3855
 8902SOL    HW138360   3.010   3.221   2.517 -2.2415 -3.4349  1.6419
 8902SOL    HW238361   2.995   3.150   2.371  0.2092 -1.8610  0.5899
 8903SOL     OW38362   2.497   8.882   1.822 -0.2427  0.5247  0.1076
 8903SOL    HW138363   2.427   8.953   1.810 -0.3380  0.1882 -1.4802
 8903SOL    HW238364   2.456   8.792   1.808  0.2550  0.2615  0.3287
 8904SOL     OW38365   6.847   7.199   3.960  0.1080 -0.0925 -0.2324
 8904SOL    HW138366   6.885   7.265   4.024  0.3428 -0.1799 -0.2799
 8904SOL    HW238367   6.773   7.241   3.908 -0.2902 -0.1139  0.3114
 8905SOL     OW38368   4.315   3.235   3.427  0.0979 -0.0621  0.4423
 8905SOL    HW138369   4.263   3.293   3.490  1.2099  1.6517 -0.1562
 8905SOL    HW238370   4.261   3.156   3.402 -1.8021  1.1300  0.6638
 8906SOL     OW38371   9.158   1.167   0.199 -0.2214  0.3612  0.3071
 8906SOL    HW138372   9.208   1.231   0.257  0.0308 -0.6650  1.2454
 8906SOL    HW238373   9.221   1.126   0.133 -0.0087 -0.2631  0.8969
 8907SOL     OW38374   9.525   5.730   3.393  0.2161  0.1044 -0.4419
 8907SOL    HW138375   9.430   5.701   3.390  0.3962 -0.6072  0.3375
 8907SOL    HW238376   9.572   5.698   3.310 -0.2343  0.5121 -0.8574
 8908SOL     OW38377   0.478   8.176   3.487 -0.1418 -0.4137  0.0695
 8908SOL    HW138378   0.439   8.193   3.578  0.5925  1.4545  0.0582
 8908SOL    HW238379   0.459   8.081   3.460 -0.8286 -0.8413  1.9383
 8909SOL     OW38380   2.919   1.413   6.914 -0.6144  0.1779 -0.0651
 8909SOL    HW138381   2.841   1.474   6.898 -1.1557 -0.3546  0.5433
 8909SOL    HW238382   2.896   1.320   6.887 -0.2683 -0.0257  0.3245
 8910SOL     OW38383   2.208   9.005   5.403 -0.5476 -0.5792 -0.0280
 8910SOL    HW138384   2.263   8.970   5.479 -2.8172 -4.2605  0.0569
 8910SOL    HW238385   2.126   9.050   5.438 -0.9432 -1.1152 -0.2573
 8911SOL     OW38386   0.378   1.101   1.003 -0.2271  0.1077 -0.0708
 8911SOL    HW138387   0.326   1.118   1.086  2.0897  1.6695  1.1186
 8911SOL    HW238388   0.422   1.011   1.009 -2.0427 -0.8627 -0.7321
 8912SOL     OW38389   7.978   8.094   2.335  0.5084  0.0273  0.6344
 8912SOL    HW138390   7.892   8.143   2.323  1.2848  1.5004  0.9210
 8912SOL    HW238391   8.032   8.099   2.251  1.3985  1.2898  1.2675
 8913SOL     OW38392   8.776   8.966   6.086 -0.1414 -0.1488  0.0102
 8913SOL    HW138393   8.691   9.017   6.071 -1.1205 -0.9328  2.5742
 8913SOL    HW238394   8.849   9.029   6.111 -0.2614  0.4122 -1.0297
 8914SOL     OW38395   8.611   3.100   5.733 -0.2038 -0.0197  0.1305
 8914SOL    HW138396   8.601   3.140   5.824  0.9210 -1.0451  0.7152
 8914SOL    HW238397   8.595   3.001   5.738 -2.3945  0.2120 -1.1979
 8915SOL     OW38398   9.192   5.162   8.173  0.1010  0.3496  0.5882
 8915SOL    HW138399   9.289   5.139   8.182 -0.0868 -0.2398  1.1618
 8915SOL    HW238400   9.162   5.146   8.079 -0.0789 -1.9897  1.0277
 8916SOL     OW38401   6.671   7.885   6.056 -0.0553 -0.0378  0.1106
 8916SOL    HW138402   6.592   7.826   6.039  0.4156 -0.1439 -1.7220
 8916SOL    HW238403   6.728   7.844   6.128 -0.1034 -1.4671 -0.6494
 8917SOL     OW38404   8.660   9.678   1.916 -0.4135  0.2783 -0.5960
 8917SOL    HW138405   8.638   9.769   1.880  1.2412  0.1468 -1.9889
 8917SOL    HW238406   8.634   9.609   1.848 -0.2160 -0.1876 -0.1946
 8918SOL     OW38407   8.903   7.602   6.316 -0.1299  0.2417  0.7476
 8918SOL    HW138408   8.836   7.663   6.275  1.1886  0.8914 -0.5214
 8918SOL    HW238409   8.904   7.614   6.415  0.9270  3.1501  0.4156
 8919SOL     OW38410   4.735   3.971   1.925 -0.1057 -0.1623  0.4157
 8919SOL    HW138411   4.702   4.065   1.927 -1.5787 -0.6912  1.4443
 8919SOL    HW238412   4.713   3.929   1.837 -0.0616  0.2385  0.2163
 8920SOL     OW38413   8.943   0.868   5.526  0.2614  0.3441 -0.3591
 8920SOL    HW138414   8.855   0.914   5.533 -0.9272 -1.6590 -1.6151
 8920SOL    HW238415   8.966   0.825   5.613  0.8303  2.2885  0.4716
 8921SOL     OW38416   9.293   5.799   4.145 -0.0463  0.1538  0.1864
 8921SOL    HW138417   9.265   5.704   4.152 -0.8396  0.2635 -1.2304
 8921SOL    HW238418   9.393   5.805   4.144  0.0038 -0.6872 -0.0157
 8922SOL     OW38419   2.938   6.771   3.581  0.7696 -0.0523 -0.2509
 8922SOL    HW138420   2.850   6.801   3.618  0.9839  0.4174 -0.1279
 8922SOL    HW238421   3.012   6.808   3.637  1.0200 -1.1623  0.1682
 8923SOL     OW38422   0.250   5.247   0.893 -0.0419  0.3608 -0.5774
 8923SOL    HW138423   0.251   5.195   0.808  1.0028  1.1971 -1.0925
 8923SOL    HW238424   0.196   5.331   0.880 -0.6655  0.0332 -0.1298
 8924SOL     OW38425   5.275   2.445   0.156  0.2576  0.3630 -0.6327
 8924SOL    HW138426   5.264   2.490   0.067 -0.6977  0.3643 -0.5170
 8924SOL    HW238427   5.352   2.488   0.205 -0.3763  1.5999 -0.6942
 8925SOL     OW38428   4.544   3.900   1.343 -0.0602  0.0609  0.5295
 8925SOL    HW138429   4.470   3.887   1.278  1.6416 -1.5654 -1.1613
 8925SOL    HW238430   4.600   3.978   1.315 -0.9936  1.1582  1.6863
 8926SOL     OW38431   3.370   3.858   1.936  0.0485 -0.2351 -0.4345
 8926SOL    HW138432   3.311   3.855   2.016  1.0864  2.3990  0.4793
 8926SOL    HW238433   3.440   3.787   1.944  0.4702  0.3385  1.2785
 8927SOL     OW38434   4.250   9.301   6.905 -0.1254 -0.2678  0.6167
 8927SOL    HW138435   4.328   9.241   6.918 -0.4732 -1.5203 -2.6082
 8927SOL    HW238436   4.165   9.248   6.913 -0.6344  0.7408  2.3319
 8928SOL     OW38437   6.944   4.951   1.641 -0.2707 -0.2515  0.3265
 8928SOL    HW138438   6.891   4.866   1.642  0.3450 -0.6726 -1.8336
 8928SOL    HW238439   7.011   4.949   1.716  1.0726 -2.5649 -0.8776
 8929SOL     OW38440   3.918   4.330   0.592 -0.0594  0.2002 -0.1883
 8929SOL    HW138441   3.911   4.276   0.676  1.5570 -0.1117 -0.2307
 8929SOL    HW238442   3.842   4.394   0.587  0.0739  0.5554  1.7763
 8930SOL     OW38443   9.336   5.672   7.251  0.2769  0.1356 -0.5067
 8930SOL    HW138444   9.254   5.707   7.295 -0.5306 -1.3105 -0.8305
 8930SOL    HW238445   9.314   5.639   7.159  1.0488 -0.9873 -0.3039
 8931SOL     OW38446   3.661   7.161   4.827  0.2970 -0.5949  0.1174
 8931SOL    HW138447   3.695   7.087   4.768 -0.7049  0.0892 -1.3595
 8931SOL    HW238448   3.720   7.241   4.817 -1.1461  0.2769 -1.7249
 8932SOL     OW38449   2.489   8.767   3.068  0.2346  1.0871  1.0932
 8932SOL    HW138450   2.549   8.815   3.003 -0.2949  0.9872  0.5157
 8932SOL    HW238451   2.527   8.774   3.160  1.7410  0.0181  0.5699
 8933SOL     OW38452   4.918   1.052   1.403  0.6115  0.1566 -0.3149
 8933SOL    HW138453   4.887   1.147   1.410  0.6312  0.1457 -0.0651
 8933SOL    HW238454   4.875   0.999   1.476  0.4872 -0.0566 -0.5433
 8934SOL     OW38455   7.423   3.355   2.554 -0.1906  0.0905  0.1220
 8934SOL    HW138456   7.373   3.273   2.583 -0.9939  0.5534  0.0710
 8934SOL    HW238457   7.376   3.436   2.590  0.0176  0.5715 -0.6900
 8935SOL     OW38458   3.471   2.037   0.022  0.1728  0.3833  0.0046
 8935SOL    HW138459   3.378   2.064   0.044 -0.2591  0.7412 -2.1499
 8935SOL    HW238460   3.535   2.108   0.051 -0.6596  2.2706 -2.5761
 8936SOL     OW38461   4.814   6.381   2.748  0.9459  0.5667 -0.5587
 8936SOL    HW138462   4.907   6.397   2.783  0.0533 -0.1341  2.2579
 8936SOL    HW238463   4.805   6.284   2.723  0.5366  0.2959  0.6045
 8937SOL     OW38464   7.964   8.091   4.483  0.3345 -0.0520  0.1500
 8937SOL    HW138465   7.889   8.060   4.424  0.4209  1.0984 -0.5936
 8937SOL    HW238466   8.015   8.012   4.517  1.4232 -0.7016 -2.8265
 8938SOL     OW38467   1.778   3.718   7.064 -0.8960 -0.0656 -0.2378
 8938SOL    HW138468   1.756   3.668   6.981 -0.4906 -0.8927  0.1500
 8938SOL    HW238469   1.788   3.654   7.140  2.5384  0.3145 -0.3194
 8939SOL     OW38470   6.816   9.993   1.515 -0.5366 -0.0578  0.2443
 8939SOL    HW138471   6.887  10.058   1.489  0.7538 -1.4651  0.1178
 8939SOL    HW238472   6.846   9.941   1.595 -2.9396  1.7376  2.3584
 8940SOL     OW38473   8.136   6.029   1.688 -0.3756 -0.3665  0.3469
 8940SOL    HW138474   8.182   5.964   1.628 -1.0685 -1.8589  1.4130
 8940SOL    HW238475   8.063   5.983   1.738 -1.4457  1.4288  0.4775
 8941SOL     OW38476   7.573   9.034   7.214  0.1003  0.2847  0.2803
 8941SOL    HW138477   7.574   9.010   7.117 -1.6504 -0.2366  0.3811
 8941SOL    HW238478   7.514   9.113   7.229  1.6967  1.4257  0.7052
 8942SOL     OW38479   0.155   6.283   6.032 -0.2407  0.2398 -0.1844
 8942SOL    HW138480   0.248   6.247   6.034  0.2514  1.5330  1.0639
 8942SOL    HW238481   0.090   6.208   6.048  0.6834 -0.3599  0.8931
 8943SOL     OW38482   5.487   0.030   3.909  0.5407  0.7282 -0.1662
 8943SOL    HW138483   5.508  -0.016   3.996  0.3557 -0.3174 -0.6630
 8943SOL    HW238484   5.389   0.020   3.889  0.4974  1.3523 -0.2834
 8944SOL     OW38485   0.447   9.626   5.017  0.2135 -0.2037  0.2922
 8944SOL    HW138486   0.423   9.540   5.063 -0.0378 -0.2193  0.1323
 8944SOL    HW238487   0.520   9.608   4.950  0.0230 -0.3304  0.1169
 8945SOL     OW38488   1.610   1.251   5.139 -0.2542  0.2957 -0.3319
 8945SOL    HW138489   1.606   1.219   5.045  1.4223  0.5171 -0.4939
 8945SOL    HW238490   1.611   1.351   5.141  1.2418  0.2976 -0.1849
 8946SOL     OW38491   9.417   4.415   0.462  0.0431 -0.1273 -0.4726
 8946SOL    HW138492   9.500   4.391   0.411  1.6809  1.2611  1.4887
 8946SOL    HW238493   9.408   4.355   0.541 -1.3621 -0.8844 -1.1750
 8947SOL     OW38494   7.809   9.531   5.271  0.0624  0.0580 -0.1563
 8947SOL    HW138495   7.832   9.620   5.309  1.6728 -0.3675 -0.0715
 8947SOL    HW238496   7.882   9.466   5.292 -0.9463 -1.2121 -0.4654
 8948SOL     OW38497   6.383   4.110   0.909  0.6897 -0.0451 -0.0573
 8948SOL    HW138498   6.355   4.043   0.978 -0.8387 -1.0182 -1.5754
 8948SOL    HW238499   6.308   4.125   0.845  1.7200  1.6424 -0.8969
 8949SOL     OW38500   7.666   4.021   3.524  0.1819  0.1420 -0.6595
 8949SOL    HW138501   7.580   3.972   3.541  0.4087 -0.3676 -0.9804
 8949SOL    HW238502   7.682   4.086   3.599 -1.2033  1.2726 -1.3203
 8950SOL     OW38503   9.440   1.018   2.546  0.4623  0.2432  0.2277
 8950SOL    HW138504   9.483   1.036   2.457 -0.0747 -0.9578 -0.2810
 8950SOL    HW238505   9.507   0.977   2.607  0.2244 -1.0451 -0.3625
 8951SOL     OW38506   4.860   2.506   3.283  0.2389  0.6544  0.5327
 8951SOL    HW138507   4.768   2.527   3.249  0.4972  1.7346  0.4697
 8951SOL    HW238508   4.857   2.422   3.337 -0.4272 -0.3805 -1.0769
 8952SOL     OW38509   9.941   4.503   7.127  0.4786 -0.4026  0.0181
 8952SOL    HW138510   9.914   4.480   7.220  1.6185 -0.2894  0.3808
 8952SOL    HW238511   9.890   4.584   7.096 -0.5082 -0.9384  0.2313
 8953SOL     OW38512   6.431   9.490   7.343 -0.1505  0.1891 -0.0577
 8953SOL    HW138513   6.530   9.485   7.356  0.0689  1.4998 -1.1271
 8953SOL    HW238514   6.393   9.397   7.341  1.1234 -0.3359 -0.2010
 8954SOL     OW38515   4.759   1.326   2.441 -0.4968 -0.7845 -0.5787
 8954SOL    HW138516   4.791   1.419   2.460 -1.8800  0.0297 -2.1778
 8954SOL    HW238517   4.670   1.313   2.484 -1.2972 -0.6291 -2.1607
 8955SOL     OW38518   2.087   5.741   3.715  0.2560  0.0525 -0.3635
 8955SOL    HW138519   2.082   5.791   3.801 -0.0831 -0.0976 -0.2938
 8955SOL    HW238520   2.169   5.769   3.664  0.1628  0.5431 -0.2436
 8956SOL     OW38521   1.029   7.854   4.720  0.5609 -0.4383 -0.8139
 8956SOL    HW138522   0.936   7.844   4.684  0.2720 -0.7205 -0.0059
 8956SOL    HW238523   1.092   7.802   4.662 -0.0547 -1.7754 -0.3130
 8957SOL     OW38524   3.328   2.509   0.324 -0.0773  0.2986  0.3154
 8957SOL    HW138525   3.360   2.550   0.239 -0.2689  0.7750  0.4713
 8957SOL    HW238526   3.403   2.457   0.366 -0.5041 -1.4639 -1.0620
 8958SOL     OW38527   1.688   8.294   0.771  0.0371  0.2348  0.4830
 8958SOL    HW138528   1.610   8.352   0.797  0.1043  1.5006 -1.9970
 8958SOL    HW238529   1.657   8.199   0.763 -1.2698  0.7118 -0.4140
 8959SOL     OW38530   6.242   9.962   4.130  0.8305 -0.3554 -0.1889
 8959SOL    HW138531   6.291  10.022   4.192 -0.4439 -0.0431  0.5373
 8959SOL    HW238532   6.167   9.917   4.179 -0.6564  0.4635 -1.6773
 8960SOL     OW38533   0.661   7.671   3.399 -0.1823 -0.3999  0.0866
 8960SOL    HW138534   0.672   7.759   3.445  2.3502 -0.2779 -0.6373
 8960SOL    HW238535   0.749   7.622   3.400 -0.7201 -1.5108 -2.3116
 8961SOL     OW38536   7.440   4.852   0.302  0.3931  0.0066  0.8765
 8961SOL    HW138537   7.398   4.853   0.211  0.2112 -0.6204  0.9528
 8961SOL    HW238538   7.372   4.882   0.369  1.8009  5.0109  0.2945
 8962SOL     OW38539   4.429   1.858   6.614  0.1648 -0.1865  0.3452
 8962SOL    HW138540   4.434   1.760   6.593 -0.2403  0.1464 -1.3878
 8962SOL    HW238541   4.452   1.911   6.533 -2.1759  1.1691  0.4999
 8963SOL     OW38542   5.998   4.965   8.000 -0.0286  0.0708  0.3416
 8963SOL    HW138543   5.901   4.986   8.000 -0.1925 -0.6459  0.3678
 8963SOL    HW238544   6.029   4.955   7.905  0.3302  1.6500  0.2873
 8964SOL     OW38545   9.091   7.863   5.413 -0.3050  0.5591  0.1068
 8964SOL    HW138546   9.087   7.817   5.502 -2.8804  0.0702 -0.2281
 8964SOL    HW238547   9.132   7.801   5.346  2.0274  1.0718  0.9882
 8965SOL     OW38548   2.957   3.070   4.296 -0.0079  0.3171 -0.0184
 8965SOL    HW138549   2.944   3.078   4.197 -2.5463  0.7069  0.3127
 8965SOL    HW238550   2.870   3.085   4.342  0.8946 -1.1073  2.2257
 8966SOL     OW38551   1.738   6.010   4.951  0.5050  0.4376  0.0805
 8966SOL    HW138552   1.789   6.038   4.870  0.8265  0.5348  0.3108
 8966SOL    HW238553   1.798   6.017   5.031 -0.1631  1.4786  0.4942
 8967SOL     OW38554   3.237   5.932   1.928  0.2698 -0.1880  0.2906
 8967SOL    HW138555   3.261   5.857   1.989  1.8801 -0.6142 -0.8346
 8967SOL    HW238556   3.244   5.901   1.833  0.9042  1.3528 -0.1804
 8968SOL     OW38557   0.114   6.886   5.545  0.0548  0.2989 -0.1257
 8968SOL    HW138558   0.085   6.903   5.639 -0.9977  0.8333 -0.5349
 8968SOL    HW238559   0.142   6.791   5.535  1.4839  0.5898  1.0566
 8969SOL     OW38560   1.999   0.449   5.535 -0.0086  0.0498 -0.4211
 8969SOL    HW138561   2.020   0.533   5.584 -0.6705  0.3599 -0.6740
 8969SOL    HW238562   1.998   0.466   5.437  1.1702 -0.5399 -0.5497
 8970SOL     OW38563   7.511   6.052   7.843  0.3683 -0.5207  0.4367
 8970SOL    HW138564   7.508   6.001   7.757  0.6128  1.4389 -0.7472
 8970SOL    HW238565   7.490   5.989   7.918  2.5479 -2.7916 -0.7706
 8971SOL     OW38566   1.325   4.204   7.607 -0.3777 -0.7801 -0.2493
 8971SOL    HW138567   1.264   4.282   7.591 -0.0006 -0.0137  1.8866
 8971SOL    HW238568   1.320   4.176   7.703  1.9454 -1.2719 -0.2289
 8972SOL     OW38569   4.776   2.863   1.254 -0.2357 -0.1531 -0.0488
 8972SOL    HW138570   4.781   2.889   1.350 -1.0510 -0.4506  0.0724
 8972SOL    HW238571   4.778   2.763   1.246  0.5362 -0.1192 -0.3843
 8973SOL     OW38572   9.746   6.765   1.615 -0.0264  0.1193  0.7273
 8973SOL    HW138573   9.767   6.764   1.713 -1.6265 -0.9284  1.0734
 8973SOL    HW238574   9.654   6.730   1.600  0.8125 -1.3097 -1.3086
 8974SOL     OW38575   8.433   9.594   6.128 -0.1843 -0.2453  0.1489
 8974SOL    HW138576   8.365   9.668   6.130 -0.5884 -0.6343  0.7312
 8974SOL    HW238577   8.505   9.613   6.195 -0.6473 -0.7257  0.7826
 8975SOL     OW38578   3.530   9.710   0.587 -0.1558  0.0764 -1.1873
 8975SOL    HW138579   3.433   9.733   0.595  0.1540  0.7894  0.7425
 8975SOL    HW238580   3.547   9.624   0.635  0.5425  1.0632  0.3840
 8976SOL     OW38581   8.571   9.419   0.385  0.3782 -0.1660 -0.3172
 8976SOL    HW138582   8.647   9.446   0.443 -0.8064  0.2355  1.0656
 8976SOL    HW238583   8.523   9.501   0.353  1.5889 -0.3296 -2.6705
 8977SOL     OW38584   7.605   1.634   0.659  0.4794  0.4713  0.2246
 8977SOL    HW138585   7.573   1.660   0.751 -0.7664 -1.2545  0.2968
 8977SOL    HW238586   7.659   1.550   0.665  2.5395  1.7258 -0.3160
 8978SOL     OW38587   3.283   0.707   4.243 -0.1983  0.0767 -0.4765
 8978SOL    HW138588   3.216   0.755   4.186 -0.7280 -0.2643 -0.1550
 8978SOL    HW238589   3.368   0.694   4.193  0.1633  1.9039 -0.3548
 8979SOL     OW38590   9.692   5.807   4.605  0.4675  0.6052 -0.5518
 8979SOL    HW138591   9.663   5.875   4.672  0.7620 -0.1643  0.3745
 8979SOL    HW238592   9.780   5.834   4.565  0.6185  0.7332 -0.1315
 8980SOL     OW38593   2.114   8.323   3.426  0.8878 -0.0302  0.7879
 8980SOL    HW138594   2.187   8.322   3.495  2.9144  0.8312 -1.3017
 8980SOL    HW238595   2.153   8.340   3.336 -1.9765  1.1422 -0.2989
 8981SOL     OW38596   9.793   1.920   0.639 -0.2553 -0.5133  0.1100
 8981SOL    HW138597   9.842   1.883   0.561 -0.1626 -2.2050  0.9528
 8981SOL    HW238598   9.697   1.935   0.615 -0.0199 -0.1490 -0.5959
 8982SOL     OW38599   1.666   8.903   2.200  0.0928  0.2655 -0.2316
 8982SOL    HW138600   1.646   8.830   2.266 -1.8068  0.4040 -0.6300
 8982SOL    HW238601   1.629   8.989   2.234  1.0608  0.7654 -0.4479
 8983SOL     OW38602   9.401   5.133   4.346  0.1941  0.0094 -0.0804
 8983SOL    HW138603   9.408   5.085   4.433 -0.5146 -0.3514 -0.2153
 8983SOL    HW238604   9.457   5.087   4.277  0.2077 -0.1036  0.0075
 8984SOL     OW38605   2.708   2.005   6.180 -0.0790  0.5818 -0.2352
 8984SOL    HW138606   2.640   2.074   6.205 -0.5028 -0.0888  0.4695
 8984SOL    HW238607   2.756   1.974   6.262  1.9765  1.9692 -0.8526
 8985SOL     OW38608   1.448   6.717   1.334 -0.0062  0.4667 -0.3792
 8985SOL    HW138609   1.371   6.721   1.398  0.3667  0.0386  0.1010
 8985SOL    HW238610   1.498   6.631   1.347  0.6816  0.8371 -0.5324
 8986SOL     OW38611   7.511   5.806   0.086 -0.5143  0.3842 -0.4223
 8986SOL    HW138612   7.522   5.718   0.040  1.1947  0.2089  0.2941
 8986SOL    HW238613   7.466   5.793   0.174  0.4349  0.1056  0.0334
 8987SOL     OW38614   9.066   3.150   5.197  0.3203  0.0976 -0.6627
 8987SOL    HW138615   8.978   3.174   5.238  1.1669  0.2097  1.1482
 8987SOL    HW238616   9.096   3.222   5.135 -0.5744  0.3377 -0.8139
 8988SOL     OW38617   0.695   3.670   0.210  0.2445  0.1678 -0.3853
 8988SOL    HW138618   0.692   3.682   0.309  0.7765  0.9719 -0.4627
 8988SOL    HW238619   0.790   3.669   0.179  0.0481  1.4970 -1.0669
 8989SOL     OW38620   1.186   9.438   6.556 -0.1205 -0.2203 -0.0277
 8989SOL    HW138621   1.223   9.347   6.572  0.5716 -0.0908 -0.8408
 8989SOL    HW238622   1.145   9.473   6.640 -0.9032 -1.5095  0.1323
 8990SOL     OW38623   9.311   0.039   2.894  0.2060  0.6315  0.0808
 8990SOL    HW138624   9.314   0.137   2.877  1.6873  0.8596  1.4717
 8990SOL    HW238625   9.265   0.022   2.981 -0.9576  0.0143 -0.6480
 8991SOL     OW38626   8.882   7.081   2.677 -0.1452 -0.4381  0.5451
 8991SOL    HW138627   8.793   7.127   2.670 -0.6944 -1.5036  0.5490
 8991SOL    HW238628   8.942   7.116   2.605 -0.8490 -0.3498 -0.0088
 8992SOL     OW38629   3.461   0.491   0.025  0.1006 -0.0046  0.2704
 8992SOL    HW138630   3.520   0.447   0.093  1.2851 -0.0636 -0.7617
 8992SOL    HW238631   3.488   0.587   0.015  0.4255 -0.1892 -0.6417
 8993SOL     OW38632   4.003   4.315   7.651  0.6886 -0.2067  0.2330
 8993SOL    HW138633   3.919   4.260   7.643  0.1871  0.5975 -0.0408
 8993SOL    HW238634   3.992   4.380   7.726  1.4892 -0.8355  0.9050
 8994SOL     OW38635   7.685   7.160   6.431  0.1334 -0.0767 -0.1892
 8994SOL    HW138636   7.704   7.076   6.481 -1.8243 -0.1624  0.4519
 8994SOL    HW238637   7.665   7.234   6.496  5.2705  1.8611 -0.5624
 8995SOL     OW38638   2.403   3.325   3.828  0.3088 -0.5719  0.0011
 8995SOL    HW138639   2.393   3.284   3.918  1.6644  0.1743  0.5038
 8995SOL    HW238640   2.313   3.350   3.792 -0.1256  0.3721  1.7226
 8996SOL     OW38641   5.875   0.071   2.626  0.3185  0.4503 -0.2327
 8996SOL    HW138642   5.853   0.158   2.583  1.5139  1.8047  1.8219
 8996SOL    HW238643   5.863  -0.003   2.560  2.4046  2.4828 -2.9679
 8997SOL     OW38644   8.284   5.144   7.881 -0.0168  0.2404  0.1170
 8997SOL    HW138645   8.216   5.188   7.940 -0.7064 -0.0795 -0.4333
 8997SOL    HW238646   8.375   5.178   7.904 -0.5314  1.9410 -0.2889
 8998SOL     OW38647   5.092   2.121   3.259 -0.0040  0.2348  0.2008
 8998SOL    HW138648   5.110   2.206   3.210 -0.1596  1.6423  2.4958
 8998SOL    HW238649   5.158   2.051   3.232  0.6882  1.3608 -1.0376
 8999SOL     OW38650   1.215   4.596   0.554 -0.5331 -0.3924 -0.4321
 8999SOL    HW138651   1.132   4.649   0.536 -0.2471  0.1149 -0.2855
 8999SOL    HW238652   1.197   4.526   0.622 -0.7095  0.0641 -0.0104
 9000SOL     OW38653   4.235   5.041   3.841 -0.2119 -0.0313  0.3616
 9000SOL    HW138654   4.302   5.062   3.913 -0.5682  0.5446  0.5298
 9000SOL    HW238655   4.144   5.066   3.872 -0.5724 -1.2853  0.3223
 9001SOL     OW38656   3.044   0.161   6.345 -0.2247  0.5045  0.1602
 9001SOL    HW138657   2.948   0.172   6.370 -0.4020 -0.2251 -0.1766
 9001SOL    HW238658   3.054   0.174   6.246 -0.0923 -0.1285  0.0865
 9002SOL     OW38659   8.918   3.108   7.156 -0.1756  0.6020  0.1434
 9002SOL    HW138660   8.905   3.073   7.248  4.0769  1.1645  1.0630
 9002SOL    HW238661   8.972   3.043   7.102 -0.0372  1.6319 -0.9917
 9003SOL     OW38662   1.913   5.809   5.879 -0.1776  0.2805 -0.2233
 9003SOL    HW138663   1.924   5.719   5.920  0.8384  0.3376 -0.3751
 9003SOL    HW238664   1.843   5.805   5.807 -0.3406 -0.3125 -0.0295
 9004SOL     OW38665   2.943   5.405   6.997 -0.4449  0.0569  0.4195
 9004SOL    HW138666   2.952   5.312   7.032  3.4441  0.2510  0.0719
 9004SOL    HW238667   2.979   5.411   6.904 -1.0149  1.8172  0.2775
 9005SOL     OW38668   2.682   6.594   0.543  0.3993  0.0987  0.2747
 9005SOL    HW138669   2.599   6.577   0.595  1.2204  1.5349  2.0790
 9005SOL    HW238670   2.696   6.692   0.531  0.7470 -0.1672 -1.8313
 9006SOL     OW38671   2.714   8.674   1.383 -0.1424  0.1827 -0.2287
 9006SOL    HW138672   2.667   8.762   1.382 -1.5830 -0.5662 -0.4186
 9006SOL    HW238673   2.664   8.610   1.442  2.0631  0.1042  1.6252
 9007SOL     OW38674   6.848   9.413   2.042 -0.0216  0.6363  0.5330
 9007SOL    HW138675   6.880   9.434   1.950  1.6565 -1.7264  0.5190
 9007SOL    HW238676   6.910   9.455   2.109 -1.3042  2.4488  0.6292
 9008SOL     OW38677   7.823   8.846   1.185  0.1991  0.5725  0.1634
 9008SOL    HW138678   7.920   8.828   1.201  0.6620  1.2136 -1.7071
 9008SOL    HW238679   7.790   8.789   1.110 -0.6810  0.8952  0.2920
 9009SOL     OW38680   0.153   3.231   2.700 -0.6956  0.0416  0.3985
 9009SOL    HW138681   0.128   3.328   2.698 -0.0970  0.1845 -0.3832
 9009SOL    HW238682   0.250   3.223   2.725 -0.9513 -0.4003  1.2738
 9010SOL     OW38683   2.370   0.667   5.363  0.0311 -0.4093  0.1522
 9010SOL    HW138684   2.438   0.724   5.410 -0.2336  1.8161 -2.1025
 9010SOL    HW238685   2.282   0.678   5.408  0.1959  0.1990  0.3342
 9011SOL     OW38686   0.154   4.611   0.098  0.0329 -0.2663  0.4129
 9011SOL    HW138687   0.251   4.619   0.121 -0.3213 -0.0376  1.8808
 9011SOL    HW238688   0.139   4.526   0.047  0.8432 -0.8798  1.1654
 9012SOL     OW38689   4.150   5.856   2.261  0.0171  0.0558 -0.2116
 9012SOL    HW138690   4.074   5.795   2.238 -0.4843  1.0144 -1.1423
 9012SOL    HW238691   4.190   5.828   2.348 -0.9679 -0.8647 -0.0422
 9013SOL     OW38692   7.013   0.930   5.036  0.4194 -0.1638 -0.0442
 9013SOL    HW138693   6.937   0.905   4.976 -1.6113  0.3337  2.2543
 9013SOL    HW238694   7.051   0.847   5.077 -0.4427 -0.2414  0.6185
 9014SOL     OW38695   2.540   2.382   1.653 -0.2346  0.2759  0.6072
 9014SOL    HW138696   2.474   2.354   1.722 -0.7303 -0.0194  0.0257
 9014SOL    HW238697   2.495   2.386   1.563  0.5762 -0.0950  0.1751
 9015SOL     OW38698   9.164   0.092   3.642  0.1804  0.2450 -0.1589
 9015SOL    HW138699   9.262   0.114   3.644 -0.1882  1.8153  1.1881
 9015SOL    HW238700   9.121   0.123   3.726 -1.0437 -2.6394  0.3309
 9016SOL     OW38701   6.986   2.580   4.134  0.0288  0.1296  0.6078
 9016SOL    HW138702   6.993   2.487   4.169 -0.9743 -0.2162 -0.0709
 9016SOL    HW238703   6.890   2.601   4.114  0.4507  0.6284 -1.0395
 9017SOL     OW38704   4.239   8.749   7.874  0.3126  0.1805 -0.8217
 9017SOL    HW138705   4.251   8.821   7.943  0.2351  0.6391 -1.2888
 9017SOL    HW238706   4.233   8.661   7.920  3.8226  0.0662 -0.4354
 9018SOL     OW38707   7.769   8.030   4.698 -0.5080  0.0538  0.2823
 9018SOL    HW138708   7.794   8.018   4.602  0.4633  0.2905  0.4931
 9018SOL    HW238709   7.851   8.054   4.750 -1.3199  1.5711  0.8917
 9019SOL     OW38710   8.804   0.038   4.003  0.2104  0.6123 -0.0777
 9019SOL    HW138711   8.726  -0.021   4.017 -1.0469  2.6930  1.9847
 9019SOL    HW238712   8.879  -0.014   3.963 -1.4993 -1.8764 -0.1142
 9020SOL     OW38713   3.905   2.388   1.338 -0.0198 -0.0445  0.3262
 9020SOL    HW138714   3.960   2.357   1.416  2.1388  2.1874 -0.2435
 9020SOL    HW238715   3.957   2.378   1.254 -0.9351  0.9701 -0.3821
 9021SOL     OW38716   0.990   8.554   4.486 -0.2663  0.5050 -0.1600
 9021SOL    HW138717   0.909   8.607   4.459 -1.0348  0.6883  2.4058
 9021SOL    HW238718   0.962   8.478   4.543  1.3030 -0.0418 -0.1033
 9022SOL     OW38719   4.109   3.789   5.135  0.3064 -0.2965 -0.1080
 9022SOL    HW138720   4.058   3.728   5.075  0.5491 -1.4903  0.8541
 9022SOL    HW238721   4.204   3.794   5.104  0.2035 -0.1450 -0.3941
 9023SOL     OW38722   9.979   5.416   4.837 -0.2689  0.0893  0.2037
 9023SOL    HW138723  10.050   5.486   4.848  0.4231 -0.9565  2.5233
 9023SOL    HW238724   9.892   5.450   4.871 -0.3809  0.5383 -0.5208
 9024SOL     OW38725   5.035   0.541   1.195 -0.4251  0.1710  0.3350
 9024SOL    HW138726   5.097   0.466   1.172  0.2179  1.4548 -2.3401
 9024SOL    HW238727   5.088   0.614   1.239  0.0410  1.2512 -1.9152
 9025SOL     OW38728   0.258   2.528   2.283  0.0751  1.0888 -0.5628
 9025SOL    HW138729   0.356   2.539   2.270  0.2770 -0.5016 -0.5804
 9025SOL    HW238730   0.214   2.617   2.290  2.0014  1.7978  3.2422
 9026SOL     OW38731  -0.001   4.470   4.919  0.5157  0.1673  0.0238
 9026SOL    HW138732   0.032   4.380   4.890 -0.5547 -1.2489  3.0127
 9026SOL    HW238733   0.007   4.478   5.019  0.0414  3.1872 -0.1261
 9027SOL     OW38734   2.020   9.729   6.844  0.1822  0.4856  0.0043
 9027SOL    HW138735   1.982   9.638   6.862 -2.1786  1.6793  1.3417
 9027SOL    HW238736   2.021   9.781   6.929  1.3275  1.7857 -0.7973
 9028SOL     OW38737   4.883   1.741   6.161 -0.4890 -0.0601  0.0991
 9028SOL    HW138738   4.930   1.662   6.202 -0.8026 -0.2471  0.0966
 9028SOL    HW238739   4.917   1.825   6.203 -0.7970 -0.2496  0.7284
 9029SOL     OW38740   4.992   9.614   6.619 -0.1255 -0.1248 -0.3517
 9029SOL    HW138741   4.893   9.604   6.619 -0.0213 -1.4423  1.6239
 9029SOL    HW238742   5.029   9.581   6.533 -1.4587  1.1520 -1.4383
 9030SOL     OW38743   1.192   5.683   6.268 -0.7967  0.0542 -0.4962
 9030SOL    HW138744   1.225   5.604   6.319  3.1176  1.6256 -0.3982
 9030SOL    HW238745   1.164   5.754   6.333  2.7291  1.4678 -0.3937
 9031SOL     OW38746   8.139   8.777   5.613 -0.0068  0.3407 -0.6167
 9031SOL    HW138747   8.235   8.803   5.604  0.2619 -0.0733  0.9321
 9031SOL    HW238748   8.081   8.856   5.592  0.6282  0.4008 -2.2558
 9032SOL     OW38749   6.849   8.691   5.944  0.2215  0.4697 -0.2954
 9032SOL    HW138750   6.847   8.620   5.873  0.9642  0.6809 -0.5291
 9032SOL    HW238751   6.804   8.656   6.026  0.5894 -0.2863 -0.4059
 9033SOL     OW38752   2.706   3.442   6.251  0.3954  0.5120 -0.3728
 9033SOL    HW138753   2.731   3.537   6.233 -0.5685  0.8246 -0.0882
 9033SOL    HW238754   2.748   3.383   6.181 -0.4808  1.3472 -1.6278
 9034SOL     OW38755   1.752   7.775   7.767  0.5501  0.0640 -0.3861
 9034SOL    HW138756   1.676   7.795   7.705 -0.1200  2.3088  1.1180
 9034SOL    HW238757   1.825   7.729   7.716 -2.6017 -4.0953 -1.4385
 9035SOL     OW38758   4.393   1.932   2.588  0.4841 -0.1167 -0.4573
 9035SOL    HW138759   4.384   1.881   2.503  1.1694 -1.0591  0.0241
 9035SOL    HW238760   4.485   1.918   2.626 -0.8275 -2.3676  2.0863
 9036SOL     OW38761   0.823   8.145   1.333  0.3575  0.0327 -0.0599
 9036SOL    HW138762   0.864   8.212   1.272  1.7887 -1.2112 -0.4999
 9036SOL    HW238763   0.774   8.192   1.406  1.9732  1.5564  0.0710
 9037SOL     OW38764   8.618   6.433   3.659 -0.1263  0.3335  0.3056
 9037SOL    HW138765   8.669   6.376   3.724 -1.0114  0.9337  1.5477
 9037SOL    HW238766   8.682   6.472   3.593  0.6704 -1.0230  0.2397
 9038SOL     OW38767   7.808   2.139   0.673 -0.0088 -0.3262  0.0487
 9038SOL    HW138768   7.893   2.132   0.726  0.3002 -1.2392 -0.5707
 9038SOL    HW238769   7.787   2.051   0.631 -0.8257  0.1152 -0.4768
 9039SOL     OW38770   1.018   6.579   8.186 -0.1267  0.3785  0.2047
 9039SOL    HW138771   1.035   6.509   8.116  2.5323  0.7226  0.4767
 9039SOL    HW238772   0.961   6.651   8.148 -0.6605 -0.6023 -0.8867
 9040SOL     OW38773   9.379   4.397   5.659  0.2210  0.5818  0.1260
 9040SOL    HW138774   9.418   4.339   5.587 -0.9297  0.6941 -0.6127
 9040SOL    HW238775   9.359   4.487   5.621 -1.4116  0.3030  0.2720
 9041SOL     OW38776   8.663   0.431   5.279  0.0119 -0.5667 -0.2108
 9041SOL    HW138777   8.578   0.478   5.259 -0.3794 -0.7686  0.8948
 9041SOL    HW238778   8.660   0.338   5.242 -0.2877 -0.5991 -0.1065
 9042SOL     OW38779   1.887   8.962   4.961  0.6909 -0.8052  0.3637
 9042SOL    HW138780   1.800   8.964   4.914  0.8948  0.1734  0.0177
 9042SOL    HW238781   1.906   8.869   4.993  0.3675 -1.3865 -1.1135
 9043SOL     OW38782   4.395   8.520   5.450 -0.1950 -0.0216 -0.1898
 9043SOL    HW138783   4.354   8.429   5.446 -0.2325 -0.0510  0.8451
 9043SOL    HW238784   4.461   8.529   5.375 -1.6881 -0.1476 -1.5606
 9044SOL     OW38785   8.361   5.368   3.424  0.0126 -0.1290  0.8607
 9044SOL    HW138786   8.391   5.443   3.483 -1.7086 -1.1512  3.1468
 9044SOL    HW238787   8.276   5.394   3.378 -0.4174 -0.5476  1.4115
 9045SOL     OW38788   7.392   0.230   5.156  0.0932  0.2392  0.2384
 9045SOL    HW138789   7.320   0.194   5.097 -0.3312 -1.4684  1.7372
 9045SOL    HW238790   7.406   0.168   5.233  3.5511  0.2629 -0.2945
 9046SOL     OW38791   3.915   6.732   3.790 -0.3917  0.3326  0.8279
 9046SOL    HW138792   3.891   6.806   3.853  1.0969  1.6148 -0.0766
 9046SOL    HW238793   3.995   6.759   3.736  0.0289 -1.8541  0.3294
 9047SOL     OW38794   2.468   3.685   4.210 -0.4939  0.0010  0.2032
 9047SOL    HW138795   2.496   3.639   4.294 -0.3089 -0.5980 -0.1833
 9047SOL    HW238796   2.386   3.740   4.228  0.4781  1.1439  1.1462
 9048SOL     OW38797   2.020   4.442   2.533  0.1879  0.5417  0.0279
 9048SOL    HW138798   1.975   4.522   2.494 -0.1513  0.4767  0.2735
 9048SOL    HW238799   2.004   4.363   2.474 -1.5224  0.1326  0.9824
 9049SOL     OW38800   6.820   9.609   1.402  0.2773 -1.3260  0.6333
 9049SOL    HW138801   6.834   9.536   1.470 -0.2482 -0.5391  1.5933
 9049SOL    HW238802   6.735   9.657   1.422  1.1097  0.2000  0.5871
 9050SOL     OW38803   7.453   7.342   0.083 -0.3932 -0.1417  0.3957
 9050SOL    HW138804   7.373   7.403   0.092  1.4595  2.1854  1.9379
 9050SOL    HW238805   7.455   7.303  -0.009 -1.6083  2.2153 -0.6852
 9051SOL     OW38806   1.909   9.772   4.795  0.1081  0.3069  0.4647
 9051SOL    HW138807   1.816   9.757   4.828 -0.1266 -0.9015 -0.7166
 9051SOL    HW238808   1.971   9.709   4.840  0.5525  1.8268  2.0461
 9052SOL     OW38809   9.116   4.371   2.914  0.0630 -0.0508 -0.5575
 9052SOL    HW138810   9.114   4.335   3.007  1.1927 -0.9167 -0.8545
 9052SOL    HW238811   9.112   4.295   2.849  1.2053  0.4263 -1.1979
 9053SOL     OW38812   1.323   2.025   1.471 -0.1653  0.2106 -0.2651
 9053SOL    HW138813   1.369   2.114   1.482  1.9497 -0.6940 -1.5017
 9053SOL    HW238814   1.233   2.040   1.430  0.2264  1.7846 -0.6170
 9054SOL     OW38815   0.156   0.565   3.860  0.6656 -0.1482  0.3152
 9054SOL    HW138816   0.082   0.576   3.794  0.8388  0.8286  0.2726
 9054SOL    HW238817   0.214   0.646   3.859  1.1210 -0.4524  1.1147
 9055SOL     OW38818   2.552   7.203   7.340 -0.5847 -0.0360 -0.1405
 9055SOL    HW138819   2.582   7.235   7.250  0.1738 -1.6784 -0.4948
 9055SOL    HW238820   2.454   7.179   7.335 -0.1182 -1.8749 -1.0634
 9056SOL     OW38821   7.845   6.234   1.448 -0.3345 -0.2583  0.2680
 9056SOL    HW138822   7.777   6.282   1.503 -0.9296 -0.1914 -0.5193
 9056SOL    HW238823   7.834   6.260   1.352  1.8642  1.0251  0.3322
 9057SOL     OW38824   2.335   2.701   2.535  0.4581 -0.3478  0.3166
 9057SOL    HW138825   2.249   2.664   2.499 -0.2660  2.3506 -0.8218
 9057SOL    HW238826   2.319   2.749   2.621  1.4745 -2.9196  2.0246
 9058SOL     OW38827   1.289   8.665   6.244 -0.3692 -0.3117  0.0509
 9058SOL    HW138828   1.241   8.627   6.324  0.8421  1.0351  1.4589
 9058SOL    HW238829   1.272   8.764   6.240  1.5590  0.0434  0.0765
 9059SOL     OW38830   4.324   3.689   0.465 -0.3227  0.5689  0.1197
 9059SOL    HW138831   4.364   3.605   0.503 -0.2548  0.3709 -0.3923
 9059SOL    HW238832   4.243   3.714   0.519 -0.2415  0.2723  0.3813
 9060SOL     OW38833   0.074   8.699   0.790  0.2024  0.0858  0.7676
 9060SOL    HW138834   0.123   8.639   0.726  0.6021  0.7010  0.4878
 9060SOL    HW238835  -0.012   8.729   0.748  0.1961  0.0364  0.7469
 9061SOL     OW38836   8.417   6.951   2.144  0.8867  0.1882 -0.1855
 9061SOL    HW138837   8.366   6.990   2.221  2.1595  0.6080  0.4538
 9061SOL    HW238838   8.439   6.856   2.163  1.3900  0.3557  0.0524
 9062SOL     OW38839   3.165   1.382   2.270 -0.6789 -0.4719  0.2900
 9062SOL    HW138840   3.199   1.382   2.176 -1.2033  0.5219  0.0914
 9062SOL    HW238841   3.071   1.348   2.272 -0.6621 -0.5087  0.4536
 9063SOL     OW38842   9.274   8.176   6.774 -0.2868  0.2583  0.3536
 9063SOL    HW138843   9.354   8.118   6.762 -0.1564  0.6255 -0.6295
 9063SOL    HW238844   9.205   8.126   6.827  0.7318  0.0892  1.5338
 9064SOL     OW38845   1.370   3.799   5.018  0.1418  0.5700  0.4385
 9064SOL    HW138846   1.296   3.731   5.025  0.2554  0.5212  1.1668
 9064SOL    HW238847   1.444   3.761   4.962 -0.0719  0.3367  0.3103
 9065SOL     OW38848   8.733   2.177   3.725 -0.4788  0.0842  0.0508
 9065SOL    HW138849   8.780   2.227   3.798  0.9292 -1.5351  0.2722
 9065SOL    HW238850   8.664   2.116   3.765  0.8971 -1.4597  0.1280
 9066SOL     OW38851   6.852   4.295   0.721 -0.6995 -0.1039  0.1056
 9066SOL    HW138852   6.812   4.347   0.797  1.8131  3.7358 -1.0958
 9066SOL    HW238853   6.790   4.295   0.644 -1.2915 -0.0548  0.5788
 9067SOL     OW38854   7.934   1.018   3.247 -0.2088  0.7982 -0.0000
 9067SOL    HW138855   7.880   0.934   3.246 -1.0729  1.3418 -0.1702
 9067SOL    HW238856   7.904   1.076   3.323 -0.6321  1.5883 -0.7561
 9068SOL     OW38857   7.734   3.427   7.201 -0.5571  0.3500  0.3375
 9068SOL    HW138858   7.832   3.446   7.196 -0.7093  1.1413  0.3315
 9068SOL    HW238859   7.684   3.513   7.204 -1.1794 -0.0618  1.8237
 9069SOL     OW38860   1.596   9.135   6.067  0.0303 -0.0423 -0.7560
 9069SOL    HW138861   1.520   9.082   6.030  0.8864 -0.1174 -2.4545
 9069SOL    HW238862   1.677   9.077   6.073  0.1444  0.2208  0.4197
 9070SOL     OW38863   8.491   5.370   1.247  0.5924  0.6844  0.2594
 9070SOL    HW138864   8.547   5.294   1.280  2.0864  0.7161 -2.0396
 9070SOL    HW238865   8.546   5.454   1.247 -0.0149  1.0839 -0.3203
 9071SOL     OW38866   9.312   5.044   7.013 -0.0077  0.3715  0.1288
 9071SOL    HW138867   9.410   5.029   7.021 -0.4432 -2.8604  0.0824
 9071SOL    HW238868   9.295   5.124   6.955  2.5800  2.0436  1.6016
 9072SOL     OW38869   0.024   2.312   7.216 -0.0104 -0.3234  0.0035
 9072SOL    HW138870   0.076   2.330   7.300  0.5218 -0.5117 -0.2790
 9072SOL    HW238871   0.051   2.378   7.146 -0.2629 -0.3292 -0.0975
 9073SOL     OW38872   5.771   0.570   6.312 -0.2699  0.1157 -0.1583
 9073SOL    HW138873   5.699   0.611   6.369 -0.2506  1.7436 -1.2592
 9073SOL    HW238874   5.793   0.479   6.346 -5.2690 -1.8741 -1.7695
 9074SOL     OW38875   5.375   2.071   4.514 -0.1780  0.1274 -0.8003
 9074SOL    HW138876   5.387   1.977   4.547 -1.3291  0.6962  1.3610
 9074SOL    HW238877   5.283   2.082   4.478 -0.0025  0.4051 -1.1625
 9075SOL     OW38878   4.177   7.800   6.969  0.2198  0.2153  0.1040
 9075SOL    HW138879   4.124   7.857   7.031 -0.9518 -0.8544  0.1079
 9075SOL    HW238880   4.125   7.783   6.885 -0.7819 -3.3187  1.3311
 9076SOL     OW38881   9.448   2.106   3.376  0.4837 -0.0337  0.0255
 9076SOL    HW138882   9.521   2.175   3.374 -1.3419  1.9462  0.3062
 9076SOL    HW238883   9.360   2.151   3.390 -0.7897 -2.4183 -0.1139
 9077SOL     OW38884   7.976   3.772   7.318  0.0499  0.6311  0.4030
 9077SOL    HW138885   7.940   3.714   7.391 -1.1162  0.3155 -0.4065
 9077SOL    HW238886   7.906   3.838   7.291 -0.0954 -0.2787 -1.5034
 9078SOL     OW38887   2.023   1.346   4.134  0.0744 -0.6055 -0.0410
 9078SOL    HW138888   1.994   1.296   4.052  1.7396 -0.6193 -0.6488
 9078SOL    HW238889   2.028   1.284   4.211 -1.5380 -0.5880  0.0892
 9079SOL     OW38890   0.876   0.804   1.484  0.4259 -0.2950 -0.1591
 9079SOL    HW138891   0.962   0.830   1.440  1.0543 -1.4573  0.3645
 9079SOL    HW238892   0.814   0.767   1.416 -0.7483  3.1426 -1.0522
 9080SOL     OW38893   5.579   1.316   5.838  0.7054  0.1281  0.2394
 9080SOL    HW138894   5.564   1.217   5.846 -2.1176  0.5687  0.7830
 9080SOL    HW238895   5.559   1.345   5.745  1.3098  0.2393  0.1412
 9081SOL     OW38896   8.505   1.419   6.447 -0.2423  0.1120 -0.1085
 9081SOL    HW138897   8.415   1.460   6.460 -0.5348 -0.3547 -0.6383
 9081SOL    HW238898   8.556   1.422   6.533 -0.4767  1.0691 -0.0041
 9082SOL     OW38899   7.938   2.907   2.193 -0.0926 -0.2493 -0.2794
 9082SOL    HW138900   7.892   2.931   2.108 -0.0097 -1.9229 -0.8306
 9082SOL    HW238901   7.872   2.909   2.268 -0.6420 -0.7617 -0.7386
 9083SOL     OW38902   0.983   0.544   0.030  0.6492  0.0397  0.2716
 9083SOL    HW138903   0.896   0.509   0.066  0.5081  0.8049  0.6906
 9083SOL    HW238904   1.014   0.620   0.087  1.6696 -0.3239  0.2045
 9084SOL     OW38905   3.767   9.781   1.669 -0.0703 -0.0402  0.5097
 9084SOL    HW138906   3.717   9.777   1.756  1.3054 -3.0613  1.2182
 9084SOL    HW238907   3.716   9.731   1.600 -1.1083  2.2721 -0.4831
 9085SOL     OW38908   2.706   7.763   5.384  0.3641 -0.2100 -0.1098
 9085SOL    HW138909   2.728   7.668   5.403  0.4676 -0.5800 -1.9449
 9085SOL    HW238910   2.661   7.770   5.294 -0.6558  1.3361  0.4937
 9086SOL     OW38911   5.621   5.968   0.839  0.3919  0.1930 -0.2423
 9086SOL    HW138912   5.577   5.878   0.846  0.4038  0.3610  2.4767
 9086SOL    HW238913   5.569   6.026   0.776 -1.3474 -0.7385  0.3125
 9087SOL     OW38914   7.136   3.775   6.054  0.1596 -0.2805 -0.2086
 9087SOL    HW138915   7.173   3.799   5.964 -0.4788 -0.0985 -0.4210
 9087SOL    HW238916   7.037   3.780   6.052  0.1388 -0.3855  0.4808
 9088SOL     OW38917   9.964   3.858   6.539  0.0646 -0.9698 -0.3570
 9088SOL    HW138918   9.903   3.933   6.564  1.5709 -0.3546  1.5220
 9088SOL    HW238919   9.959   3.843   6.440 -2.6461 -0.5337 -0.3334
 9089SOL     OW38920   8.424   2.296   0.464 -0.5119 -0.0401 -0.1862
 9089SOL    HW138921   8.344   2.355   0.454 -1.5343 -1.4736 -0.7343
 9089SOL    HW238922   8.478   2.324   0.543 -0.4903  2.1603 -0.9475
 9090SOL     OW38923   1.944   2.409   7.940 -0.5999 -0.5266  0.3920
 9090SOL    HW138924   1.959   2.313   7.915 -0.9487 -0.7544  1.0209
 9090SOL    HW238925   1.930   2.415   8.039 -0.0791  0.2389  0.4208
 9091SOL     OW38926   9.192   8.332   5.094  0.4193  0.2831 -0.2164
 9091SOL    HW138927   9.180   8.305   5.189  0.9623 -2.4851 -0.9052
 9091SOL    HW238928   9.103   8.342   5.050  0.1732  1.4159  0.5001
 9092SOL     OW38929   8.664   7.650   2.498 -0.0461  0.3233  0.1384
 9092SOL    HW138930   8.568   7.664   2.523  0.3872 -0.3757  2.2597
 9092SOL    HW238931   8.669   7.587   2.420 -1.2481 -0.4567  0.6788
 9093SOL     OW38932   9.062   2.459   3.774 -0.7482  0.4224 -0.3727
 9093SOL    HW138933   9.045   2.391   3.844 -1.9451 -2.0707 -2.9840
 9093SOL    HW238934   8.976   2.490   3.734 -0.1569  2.6026 -0.0619
 9094SOL     OW38935   9.560   3.210   3.847  0.3463 -0.1421  0.1349
 9094SOL    HW138936   9.618   3.238   3.770 -0.7961 -0.3136 -0.8190
 9094SOL    HW238937   9.595   3.126   3.887  0.7392 -0.2592 -0.4455
 9095SOL     OW38938   5.815   0.408   1.153  0.5376 -0.2270  0.0740
 9095SOL    HW138939   5.897   0.358   1.128  0.4421 -0.7403  0.7646
 9095SOL    HW238940   5.809   0.492   1.099  2.0489  0.3271  0.7420
 9096SOL     OW38941   9.433   7.022   6.572  0.8932  0.0687 -0.8589
 9096SOL    HW138942   9.452   6.969   6.655  1.1059 -0.4416 -1.2365
 9096SOL    HW238943   9.354   6.984   6.525 -0.8791  1.9515  0.4966
 9097SOL     OW38944   9.624   1.856   8.180  0.2352 -0.0906  0.0778
 9097SOL    HW138945   9.678   1.793   8.237  2.0731 -1.1762 -2.7537
 9097SOL    HW238946   9.614   1.817   8.089 -0.8118  2.6147 -0.9918
 9098SOL     OW38947   9.880   3.359   1.338 -0.5095 -0.1587 -0.2478
 9098SOL    HW138948   9.830   3.387   1.420 -1.5785 -0.2854 -0.8600
 9098SOL    HW238949   9.833   3.393   1.257  1.4671  1.4541 -0.7584
 9099SOL     OW38950   1.592   6.396   1.861  0.3055  0.4485 -0.2516
 9099SOL    HW138951   1.671   6.451   1.887  0.9823 -1.0656  1.0014
 9099SOL    HW238952   1.524   6.399   1.933  1.9038 -3.2303  1.5803
 9100SOL     OW38953   2.520   0.228   6.959 -0.4796  0.5931 -0.1869
 9100SOL    HW138954   2.484   0.321   6.959  1.0996  1.2401  2.0359
 9100SOL    HW238955   2.472   0.174   6.890 -2.1861  2.7390 -0.7407
 9101SOL     OW38956   8.544   2.753   4.010  0.5356  0.2514 -0.0084
 9101SOL    HW138957   8.545   2.843   3.966 -1.3418  0.7154  0.8462
 9101SOL    HW238958   8.554   2.765   4.109 -1.1620 -0.3814  0.2458
 9102SOL     OW38959   8.364   0.661   3.427  0.9334 -0.2778 -0.0964
 9102SOL    HW138960   8.400   0.736   3.371  0.2008  0.4998  0.4687
 9102SOL    HW238961   8.419   0.652   3.510  1.4488 -0.8253 -0.4940
 9103SOL     OW38962   0.151   1.097   2.985  0.2261 -0.0566 -0.2548
 9103SOL    HW138963   0.054   1.118   2.975  0.1611  0.6035  1.6069
 9103SOL    HW238964   0.164   1.043   3.068  1.4323 -0.2517 -0.5738
 9104SOL     OW38965   7.935   4.628   7.580  0.4121  0.2758 -0.1852
 9104SOL    HW138966   7.926   4.562   7.505 -3.2544  0.6576 -0.1342
 9104SOL    HW238967   7.897   4.716   7.553 -0.9881  0.4280  2.0873
 9105SOL     OW38968   1.478   2.768   5.502  0.1319 -0.1859 -0.8665
 9105SOL    HW138969   1.556   2.807   5.550  0.2305 -1.2828 -0.1063
 9105SOL    HW238970   1.503   2.681   5.461 -0.6791 -0.5521 -0.6124
 9106SOL     OW38971   1.917   7.934   4.037 -0.0203 -0.4185 -0.1532
 9106SOL    HW138972   1.997   7.947   3.979 -0.5612  1.1117 -0.5880
 9106SOL    HW238973   1.836   7.970   3.990 -0.7302 -0.6671  0.8689
 9107SOL     OW38974   3.513   6.114   1.711 -0.2705 -0.2285  0.1574
 9107SOL    HW138975   3.446   6.186   1.693 -0.8441 -0.6727  0.4996
 9107SOL    HW238976   3.567   6.138   1.792 -0.2921 -0.0708  0.1255
 9108SOL     OW38977   1.991   1.279   2.024 -0.1431  0.2258  0.4255
 9108SOL    HW138978   1.934   1.210   2.067 -0.5177  0.2419 -0.0372
 9108SOL    HW238979   1.968   1.286   1.927 -0.7694  1.6626  0.6531
 9109SOL     OW38980   3.519   4.572   5.922  0.0143  0.1984  0.0691
 9109SOL    HW138981   3.452   4.503   5.895  0.2989 -0.6830  1.6006
 9109SOL    HW238982   3.474   4.641   5.979  0.2528  0.0346  0.4491
 9110SOL     OW38983   1.203   5.402   3.690  0.6922  0.1871  0.3746
 9110SOL    HW138984   1.294   5.360   3.688  0.4396 -0.4752  2.1104
 9110SOL    HW238985   1.212   5.500   3.703  1.1904  0.3396 -0.9566
 9111SOL     OW38986   2.921   4.058   4.675 -0.2387  0.8920 -0.1917
 9111SOL    HW138987   2.997   4.043   4.738 -0.3868 -2.2916 -0.6786
 9111SOL    HW238988   2.954   4.051   4.581 -1.5135 -3.3180 -0.4251
 9112SOL     OW38989   3.826   8.927   6.847 -0.1495 -0.2291 -0.6005
 9112SOL    HW138990   3.796   8.994   6.915  0.0363 -0.3814 -0.3672
 9112SOL    HW238991   3.749   8.904   6.788 -0.7042 -1.1954  0.4727
 9113SOL     OW38992   3.634   5.988   5.717 -0.3908 -0.4815 -0.3030
 9113SOL    HW138993   3.699   6.053   5.679  2.0831 -2.3619  0.6008
 9113SOL    HW238994   3.553   6.037   5.750  0.6284  1.9040 -1.2747
 9114SOL     OW38995   3.058   1.595   6.688  0.0719 -1.0169  0.3254
 9114SOL    HW138996   3.124   1.636   6.750  1.3211 -1.5623 -0.6190
 9114SOL    HW238997   3.038   1.502   6.716  0.6594 -1.2734 -0.1122
 9115SOL     OW38998   4.648   7.670   5.446 -0.4175  0.6870  0.5139
 9115SOL    HW138999   4.564   7.688   5.496 -0.3963 -1.2065  1.2745
 9115SOL    HW239000   4.672   7.573   5.455  1.6065  1.1162 -0.0629
 9116SOL     OW39001   3.882   5.807   2.390 -0.1474  0.2027  0.0273
 9116SOL    HW139002   3.800   5.751   2.378  0.8134 -1.0991 -0.6492
 9116SOL    HW239003   3.860   5.886   2.446 -1.3233 -1.3364  1.8020
 9117SOL     OW39004   5.410   9.971   3.561  0.1963 -0.1412 -0.5647
 9117SOL    HW139005   5.469  10.048   3.587  0.6535 -0.0290 -1.8919
 9117SOL    HW239006   5.394   9.913   3.641 -0.7423  1.7111  0.6318
 9118SOL     OW39007   2.757   1.862   8.173 -0.2314 -0.7744  0.2009
 9118SOL    HW139008   2.668   1.849   8.217  0.1693  0.4901  1.4386
 9118SOL    HW239009   2.751   1.837   8.077 -2.2417  0.4706 -0.0172
 9119SOL     OW39010   9.587   9.525   5.738  0.1867 -0.1768 -0.1638
 9119SOL    HW139011   9.618   9.607   5.785  0.6795  0.0254 -0.8355
 9119SOL    HW239012   9.556   9.457   5.805  0.3021  0.3424  0.4136
 9120SOL     OW39013   7.587   3.109   6.689 -0.2235  0.3709 -0.2617
 9120SOL    HW139014   7.509   3.094   6.628 -1.7790  1.0430  1.4981
 9120SOL    HW239015   7.594   3.033   6.754  0.1905  0.6180 -0.0138
 9121SOL     OW39016   2.495   7.283   3.643 -0.3184 -0.6887  0.1707
 9121SOL    HW139017   2.474   7.376   3.611 -0.1776 -0.4858  0.6574
 9121SOL    HW239018   2.588   7.259   3.618 -1.2259 -1.7334 -2.3297
 9122SOL     OW39019   5.291   1.365   4.954  0.0471  0.1380  0.0728
 9122SOL    HW139020   5.301   1.464   4.940 -1.3815  0.3453  0.4440
 9122SOL    HW239021   5.261   1.322   4.869  1.4765 -0.1127 -0.3233
 9123SOL     OW39022   3.022   3.202   1.771  0.8497 -0.0470  0.1490
 9123SOL    HW139023   3.004   3.255   1.854  1.3525 -0.0290  0.2495
 9123SOL    HW239024   2.969   3.117   1.773  0.2136  0.3431  0.0920
 9124SOL     OW39025   4.139   2.107   0.304 -0.5000 -0.1479  0.3488
 9124SOL    HW139026   4.069   2.148   0.244  0.1656 -0.2993 -0.5349
 9124SOL    HW239027   4.118   2.010   0.318 -0.7836 -0.0584  0.5461
 9125SOL     OW39028   3.815   9.942   3.791  0.2640 -0.2811 -0.9026
 9125SOL    HW139029   3.881   9.910   3.723  0.1405 -1.6427 -0.3932
 9125SOL    HW239030   3.766  10.021   3.754  1.7251  0.3699 -1.5334
 9126SOL     OW39031   1.559   8.477   6.798 -0.2999 -1.0004 -0.4795
 9126SOL    HW139032   1.562   8.387   6.755  0.2583 -1.1648 -0.1004
 9126SOL    HW239033   1.482   8.529   6.761 -0.9268 -1.8167 -0.3324
 9127SOL     OW39034   4.740   2.766   4.993  0.2551  0.6155 -0.0276
 9127SOL    HW139035   4.834   2.733   5.003  0.6613  1.7857  0.1081
 9127SOL    HW239036   4.739   2.847   4.935 -0.7718  0.1660 -0.6451
 9128SOL     OW39037   9.902   2.598   2.039 -0.0147  0.1952  0.0989
 9128SOL    HW139038   9.861   2.598   1.948  1.1844 -0.4685 -0.4555
 9128SOL    HW239039   9.966   2.522   2.047  0.1012  0.4097  1.4088
 9129SOL     OW39040   9.403   5.256   5.681  0.0669 -0.6041 -0.1833
 9129SOL    HW139041   9.394   5.172   5.735 -1.0119 -1.0263 -0.9931
 9129SOL    HW239042   9.426   5.233   5.587  0.0106  0.0136 -0.3480
 9130SOL     OW39043   8.249   4.618   3.859 -0.1596 -0.2185 -0.4491
 9130SOL    HW139044   8.194   4.556   3.803 -0.3177 -1.5081  1.0882
 9130SOL    HW239045   8.277   4.570   3.942 -1.6854  2.2799  1.5791
 9131SOL     OW39046   3.616   7.792   4.024 -0.3179 -0.5638 -0.6362
 9131SOL    HW139047   3.668   7.707   4.035  1.3709 -0.0508 -3.9235
 9131SOL    HW239048   3.678   7.870   4.033 -1.6123  0.2950  1.0516
 9132SOL     OW39049   3.538   0.404   1.468  0.4795  0.5280 -0.1280
 9132SOL    HW139050   3.502   0.475   1.408 -1.7081  2.0506  2.8465
 9132SOL    HW239051   3.468   0.334   1.482  0.9584  0.2100  0.7010
 9133SOL     OW39052   2.951   8.784   5.100 -0.3039  0.9636  0.0735
 9133SOL    HW139053   3.021   8.777   5.170  1.3247 -0.4238 -1.6174
 9133SOL    HW239054   2.863   8.809   5.141  0.6621  0.3691  2.5376
 9134SOL     OW39055   9.449   2.159   3.673 -0.5173 -0.1159  0.0847
 9134SOL    HW139056   9.464   2.249   3.631  0.2081 -0.2039  0.1423
 9134SOL    HW239057   9.524   2.098   3.647  0.0299 -0.1271  1.6270
 9135SOL     OW39058   3.980   3.037   6.266  0.7182  0.0048  0.0670
 9135SOL    HW139059   4.072   3.076   6.261  0.4636  0.6900  0.5336
 9135SOL    HW239060   3.919   3.088   6.204  0.8429 -1.0158 -0.9112
 9136SOL     OW39061   5.245   9.108   7.678  0.6932 -0.7831  0.6059
 9136SOL    HW139062   5.261   9.200   7.714 -0.0298 -0.9455  1.3496
 9136SOL    HW239063   5.331   9.071   7.643  0.5652  1.0056 -1.6764
 9137SOL     OW39064   6.198   1.212   1.678 -0.1096  0.2767 -0.6768
 9137SOL    HW139065   6.134   1.283   1.708 -1.3993 -0.0259 -2.6033
 9137SOL    HW239066   6.209   1.144   1.750 -1.1796  0.8852  0.0720
 9138SOL     OW39067   0.842   4.419   1.070  0.2949 -0.6135  0.2197
 9138SOL    HW139068   0.750   4.457   1.075  0.5255  0.0486 -0.3843
 9138SOL    HW239069   0.851   4.365   0.986  0.0408 -1.8141  0.9619
 9139SOL     OW39070   1.264   0.504   6.216  0.3222  0.2899  0.4645
 9139SOL    HW139071   1.286   0.431   6.151  1.3681  1.2344 -0.2726
 9139SOL    HW239072   1.349   0.548   6.247 -0.1965  0.1294  2.1550
 9140SOL     OW39073   0.108   7.728   7.863 -0.1394  0.3035  0.0139
 9140SOL    HW139074   0.051   7.725   7.782  1.0417  0.0750 -0.8251
 9140SOL    HW239075   0.169   7.649   7.864  0.2271  0.5862  0.8498
 9141SOL     OW39076   8.800   9.169   3.180  0.0816  0.2521  0.1123
 9141SOL    HW139077   8.781   9.222   3.098  2.7551 -0.6888 -1.1830
 9141SOL    HW239078   8.833   9.230   3.252  0.0964  0.7518 -0.3163
 9142SOL     OW39079   9.035   5.367   2.112  0.7033  0.0976  0.2559
 9142SOL    HW139080   9.130   5.350   2.141  0.9397  0.8130 -0.0889
 9142SOL    HW239081   8.981   5.396   2.191  0.8471 -0.0001  0.3898
 9143SOL     OW39082   5.471   0.984   8.048 -0.6690  0.3021  0.3405
 9143SOL    HW139083   5.401   0.986   7.976 -1.1499 -0.6619  0.7638
 9143SOL    HW239084   5.504   1.076   8.065 -0.8977  0.6025 -0.7819
 9144SOL     OW39085   0.792   8.635   6.444  0.1055  0.2163  0.3313
 9144SOL    HW139086   0.701   8.673   6.432 -0.4276  0.4263  4.5368
 9144SOL    HW239087   0.857   8.686   6.387 -2.1932  0.5411 -2.1410
 9145SOL     OW39088   3.394   6.533   3.867  0.0775  0.2142 -0.1265
 9145SOL    HW139089   3.438   6.527   3.957  0.8881  0.8598 -0.4755
 9145SOL    HW239090   3.295   6.528   3.878  0.0553  2.5023  1.0205
 9146SOL     OW39091   0.426   3.844   2.144 -0.2643 -0.7992  0.2725
 9146SOL    HW139092   0.419   3.936   2.105 -2.1021 -0.9231  0.2792
 9146SOL    HW239093   0.457   3.781   2.073  0.4729 -0.2822  0.1246
 9147SOL     OW39094   2.293   7.383   5.816 -0.2421 -0.1225  0.1367
 9147SOL    HW139095   2.294   7.374   5.716 -3.0559 -0.7266  0.1261
 9147SOL    HW239096   2.363   7.323   5.855 -0.7331 -1.7398 -1.3742
 9148SOL     OW39097   1.691   5.825   2.234 -0.0416  0.4420 -0.5674
 9148SOL    HW139098   1.757   5.759   2.199  0.2949 -0.2599  1.3144
 9148SOL    HW239099   1.737   5.888   2.297 -0.3550  2.5123 -2.3522
 9149SOL     OW39100   3.816   8.255   6.218  0.3687 -0.0398  0.1653
 9149SOL    HW139101   3.751   8.193   6.174  0.9500  0.2923 -1.1648
 9149SOL    HW239102   3.813   8.344   6.174  1.3252  0.1491  0.4678
 9150SOL     OW39103   1.013   4.421   8.184 -0.8014 -0.3216 -0.4176
 9150SOL    HW139104   1.004   4.410   8.283 -0.9132 -0.8228 -0.4803
 9150SOL    HW239105   1.045   4.513   8.163 -0.3241 -0.3637  0.1146
 9151SOL     OW39106   3.777   8.569   1.443 -0.1840 -0.4893 -0.2829
 9151SOL    HW139107   3.778   8.643   1.377  3.5675  0.2335  0.4680
 9151SOL    HW239108   3.841   8.498   1.415  0.1076 -1.0206  1.6371
 9152SOL     OW39109   8.432   9.510   5.614 -0.1951 -0.0443 -0.2217
 9152SOL    HW139110   8.379   9.442   5.564 -0.9600  1.1129 -1.0070
 9152SOL    HW239111   8.499   9.552   5.553  1.5225 -1.3658  0.7163
 9153SOL     OW39112   1.371   9.732   5.158  0.9039 -0.5881 -0.9130
 9153SOL    HW139113   1.423   9.817   5.147  0.6203 -0.5551 -1.9743
 9153SOL    HW239114   1.433   9.654   5.152  1.2163 -0.4577  0.3854
 9154SOL     OW39115   8.015   4.872   0.382 -0.4550  0.2322  0.2835
 9154SOL    HW139116   8.093   4.932   0.399  0.3074 -0.4488 -0.7734
 9154SOL    HW239117   7.954   4.873   0.462  1.0113  0.1715  1.4254
 9155SOL     OW39118   0.809   7.925   3.251 -0.0821 -0.0525 -0.5999
 9155SOL    HW139119   0.771   8.015   3.271 -0.2899 -0.0026 -1.2214
 9155SOL    HW239120   0.850   7.925   3.160  0.3179 -0.4561 -0.4204
 9156SOL     OW39121   1.490   8.341   5.645  0.2201  0.4111 -0.3015
 9156SOL    HW139122   1.496   8.255   5.697  0.1170  0.4969 -0.1476
 9156SOL    HW239123   1.400   8.347   5.602 -0.7605  1.7062  1.8870
 9157SOL     OW39124   2.113   3.178   1.861  0.3238  0.1264 -0.4140
 9157SOL    HW139125   2.161   3.259   1.895 -0.3149 -1.0453  3.5614
 9157SOL    HW239126   2.026   3.206   1.820 -0.1070  1.4794  1.3285
 9158SOL     OW39127   2.912   9.456   2.155 -0.3267 -0.0128 -0.2949
 9158SOL    HW139128   2.937   9.549   2.128  0.3212 -0.2923 -0.6617
 9158SOL    HW239129   2.943   9.391   2.086 -2.2400 -0.3555 -0.8392
 9159SOL     OW39130   8.536   2.110   4.877  0.3860 -0.9307 -0.7011
 9159SOL    HW139131   8.524   2.160   4.963 -1.3097 -1.0060 -0.8767
 9159SOL    HW239132   8.599   2.034   4.892  2.0189  0.5142 -0.1333
 9160SOL     OW39133   2.905   6.913   4.859  1.0967 -0.4290 -0.2646
 9160SOL    HW139134   2.952   6.936   4.774  0.3846 -0.9952 -0.8146
 9160SOL    HW239135   2.818   6.868   4.839  0.1766  0.8599  0.7473
 9161SOL     OW39136   7.313   2.667   1.854 -0.4546 -0.1469  0.0816
 9161SOL    HW139137   7.314   2.575   1.894 -0.4815 -0.6025 -0.9391
 9161SOL    HW239138   7.348   2.662   1.760 -1.0597  0.7807 -0.1919
 9162SOL     OW39139   7.562   1.989   4.075  0.1458  0.2251  0.5750
 9162SOL    HW139140   7.655   2.027   4.068  0.8016 -1.4497  0.0662
 9162SOL    HW239141   7.567   1.891   4.091 -1.5488  0.3610  2.1136
 9163SOL     OW39142   1.696   1.876   4.525 -0.5423 -0.3202  0.1135
 9163SOL    HW139143   1.721   1.971   4.547  1.0107 -0.6916  0.0471
 9163SOL    HW239144   1.661   1.872   4.432  0.6555  0.0009 -0.3668
 9164SOL     OW39145   4.514   0.378   2.686 -0.2128 -0.0321 -0.7916
 9164SOL    HW139146   4.577   0.433   2.741 -0.3799 -1.0597  0.4458
 9164SOL    HW239147   4.551   0.369   2.593  1.3646 -0.4261 -0.1465
 9165SOL     OW39148   7.950   2.562   1.465 -0.1853 -0.0948  0.1911
 9165SOL    HW139149   7.939   2.641   1.525 -0.0223 -0.2313  0.3986
 9165SOL    HW239150   7.939   2.591   1.370 -0.5071  0.1081  0.2904
 9166SOL     OW39151   4.183   1.238   5.291  0.2064 -0.3330  0.3158
 9166SOL    HW139152   4.180   1.295   5.209 -0.5256 -2.1444 -0.9249
 9166SOL    HW239153   4.105   1.261   5.350 -0.5310 -0.6077 -0.5492
 9167SOL     OW39154   0.762   5.628   2.029  0.6760 -0.1930  0.5264
 9167SOL    HW139155   0.707   5.595   1.952 -0.4916  2.4095  0.2132
 9167SOL    HW239156   0.737   5.577   2.111  0.3788 -1.4841 -0.3329
 9168SOL     OW39157   2.425   5.287   2.983  0.3650  0.3358  0.7039
 9168SOL    HW139158   2.412   5.281   3.082 -1.1753  0.9692  0.5530
 9168SOL    HW239159   2.385   5.372   2.949 -1.0135 -0.8794 -0.7616
 9169SOL     OW39160   8.297   9.131   1.031  0.0391  0.0009  0.1378
 9169SOL    HW139161   8.251   9.202   1.083  0.0796  0.2330 -0.1429
 9169SOL    HW239162   8.228   9.068   0.993 -0.0885  0.7037 -0.8033
 9170SOL     OW39163   0.173   0.913   5.365  0.8000  0.4722  0.1046
 9170SOL    HW139164   0.157   1.012   5.369 -0.0185  0.4001 -1.0587
 9170SOL    HW239165   0.100   0.870   5.313  0.8093 -0.8392  1.1605
 9171SOL     OW39166   1.223   1.737   1.387  0.0472 -0.0744  0.0596
 9171SOL    HW139167   1.246   1.673   1.460  0.7538  0.1664  0.0547
 9171SOL    HW239168   1.252   1.829   1.413 -1.5645  0.3667  0.3551
 9172SOL     OW39169   2.138   9.336   1.979  0.6562 -0.4317 -0.2672
 9172SOL    HW139170   2.148   9.248   2.025  0.1785  0.5889  1.8484
 9172SOL    HW239171   2.067   9.329   1.909  1.0891 -1.8889 -0.5755
 9173SOL     OW39172   3.585   2.409   4.157 -0.0459  0.5386  0.0762
 9173SOL    HW139173   3.508   2.406   4.221  0.2847 -0.2704  0.4520
 9173SOL    HW239174   3.667   2.372   4.202 -0.2124 -1.5975 -1.3242
 9174SOL     OW39175   5.215   8.649   5.173 -0.1932  0.3175  0.4305
 9174SOL    HW139176   5.140   8.616   5.116 -0.9176 -1.2193  2.2071
 9174SOL    HW239177   5.204   8.747   5.190 -1.9090  0.0648  0.8257
 9175SOL     OW39178   7.202   1.945   8.186 -0.6552 -0.3587  0.3111
 9175SOL    HW139179   7.275   2.009   8.160  1.1566 -2.9092 -1.1152
 9175SOL    HW239180   7.158   1.909   8.104 -2.3781 -0.1842  1.1342
 9176SOL     OW39181   1.507   9.068   2.919 -0.4094  0.4362  0.6137
 9176SOL    HW139182   1.595   9.025   2.902 -0.1730  1.4836 -0.8862
 9176SOL    HW239183   1.509   9.113   3.009  0.7832  0.9405  0.3469
 9177SOL     OW39184   8.977   7.229   1.740 -0.3571  0.7589  0.0889
 9177SOL    HW139185   8.888   7.188   1.720  1.0008 -0.9544 -2.7917
 9177SOL    HW239186   9.046   7.157   1.744  1.2124  2.2684  0.3701
 9178SOL     OW39187   1.905   1.533   0.630  0.5203 -0.1774 -0.4243
 9178SOL    HW139188   1.940   1.502   0.719  1.6866 -0.2445 -0.8998
 9178SOL    HW239189   1.860   1.622   0.641  2.0676  0.5657 -0.0472
 9179SOL     OW39190   2.536   5.474   3.318  0.5987 -0.3339 -0.5202
 9179SOL    HW139191   2.489   5.562   3.326  0.2868 -0.3268 -2.3680
 9179SOL    HW239192   2.476   5.407   3.275  1.2176 -1.1526 -0.1169
 9180SOL     OW39193   4.526   2.407   7.793 -0.1203  0.2284  0.3374
 9180SOL    HW139194   4.625   2.415   7.794 -0.0853  0.0048 -0.9522
 9180SOL    HW239195   4.501   2.310   7.801 -0.1613  0.0072 -2.1057
 9181SOL     OW39196   9.995   2.384   0.069  0.4176  0.1344 -0.3110
 9181SOL    HW139197  10.021   2.447   0.142 -3.4974  1.1998  0.3093
 9181SOL    HW239198   9.991   2.433  -0.018 -0.2358  0.1666 -0.2640
 9182SOL     OW39199   2.406   4.747   7.970 -0.0581 -0.0939  0.4849
 9182SOL    HW139200   2.415   4.835   8.017 -0.8427  0.1856  0.1297
 9182SOL    HW239201   2.327   4.750   7.909 -0.9404 -1.5006  1.5040
 9183SOL     OW39202   2.896   9.781   6.972  0.3115 -0.0025  0.2403
 9183SOL    HW139203   2.919   9.690   7.008  1.4979 -0.7534 -2.2411
 9183SOL    HW239204   2.854   9.771   6.882  1.8166  1.9382 -0.7262
 9184SOL     OW39205   1.844   5.890   3.924  0.6301  0.2944 -0.6846
 9184SOL    HW139206   1.931   5.869   3.969  0.4320  0.3029 -0.2970
 9184SOL    HW239207   1.797   5.804   3.903 -0.0466  0.3372  0.6383
 9185SOL     OW39208   3.955   1.139   1.759  0.4868 -0.5143 -0.2750
 9185SOL    HW139209   4.021   1.171   1.691 -0.1979  0.3570 -0.5328
 9185SOL    HW239210   3.876   1.098   1.712  0.7174 -1.3214  0.0283
 9186SOL     OW39211   0.864   2.860   3.009  0.0428 -0.3328  0.2578
 9186SOL    HW139212   0.824   2.896   2.925  1.1038 -0.2314 -0.2111
 9186SOL    HW239213   0.904   2.770   2.991 -1.2137 -1.0691  1.0568
 9187SOL     OW39214   9.838   7.479   6.936  0.4821 -0.2215  0.4625
 9187SOL    HW139215   9.811   7.396   6.886  0.9726  1.6580 -3.0837
 9187SOL    HW239216   9.936   7.475   6.955  1.0250  0.6438 -1.9968
 9188SOL     OW39217   9.898   2.649   2.442  0.5127  0.5801 -0.0346
 9188SOL    HW139218   9.969   2.663   2.373  0.2013 -0.8208 -0.6423
 9188SOL    HW239219   9.825   2.592   2.405 -0.0473  0.4797  1.1881
 9189SOL     OW39220   9.070   4.501   6.366 -0.3177  0.1137  1.0974
 9189SOL    HW139221   9.100   4.557   6.443  0.3003 -0.3155  1.1696
 9189SOL    HW239222   9.032   4.414   6.400 -0.8616  0.2939  0.9619
 9190SOL     OW39223   9.699   2.709   5.379 -0.2197 -0.0335 -0.4988
 9190SOL    HW139224   9.703   2.766   5.461  0.2450 -1.4520  0.4856
 9190SOL    HW239225   9.616   2.653   5.380 -0.4124  0.2304 -1.1921
 9191SOL     OW39226   2.063   6.656   0.448 -0.9844  0.3557 -0.3951
 9191SOL    HW139227   1.995   6.692   0.384 -1.7169 -1.7232 -0.8352
 9191SOL    HW239228   2.117   6.584   0.403 -0.2650  0.1533  0.7517
 9192SOL     OW39229   5.082   9.940   4.373  0.3562  0.3409  0.4558
 9192SOL    HW139230   5.059  10.013   4.437  0.0074 -0.4421  1.2293
 9192SOL    HW239231   5.164   9.892   4.406 -0.0826 -0.3470  0.5430
 9193SOL     OW39232   5.537   9.728   1.561 -0.0179  0.6230  0.0212
 9193SOL    HW139233   5.539   9.788   1.481  0.4023  1.1476  0.4218
 9193SOL    HW239234   5.496   9.777   1.639 -0.0779  0.2445  0.2267
 9194SOL     OW39235   2.636   7.525   3.884  0.4393 -0.5716  0.2732
 9194SOL    HW139236   2.591   7.525   3.795  0.6628 -3.6305  0.1019
 9194SOL    HW239237   2.602   7.601   3.940 -1.1687  0.1653 -1.6710
 9195SOL     OW39238   7.355   4.552   0.312 -0.5297 -0.0571 -0.3167
 9195SOL    HW139239   7.280   4.572   0.249 -1.2396 -1.9005 -0.0982
 9195SOL    HW239240   7.435   4.520   0.261 -0.5014  0.1854 -0.4211
 9196SOL     OW39241   4.693   9.251   7.790 -0.1695 -0.1620  0.1122
 9196SOL    HW139242   4.671   9.264   7.693  0.8234  1.2423  0.0518
 9196SOL    HW239243   4.615   9.279   7.846 -0.4964 -0.3060 -0.2722
 9197SOL     OW39244   6.322   1.873   0.555 -0.4318 -0.0250  0.2270
 9197SOL    HW139245   6.267   1.815   0.494 -0.5433  1.0587 -0.7065
 9197SOL    HW239246   6.273   1.959   0.573  0.7255  0.7262 -0.1776
 9198SOL     OW39247   0.618   3.295   1.979  0.4872  0.9631  0.2411
 9198SOL    HW139248   0.640   3.324   1.886  1.2289 -0.1283  0.0696
 9198SOL    HW239249   0.618   3.195   1.983  1.0151  1.0103  1.5497
 9199SOL     OW39250   7.901   8.721   7.872  0.1210  0.4074 -0.2460
 9199SOL    HW139251   7.899   8.814   7.909  0.7282 -0.1149  1.1598
 9199SOL    HW239252   7.983   8.709   7.816  0.1507  0.6634 -0.2558
 9200SOL     OW39253   9.631   1.016   5.193  0.3886  0.0405 -0.0649
 9200SOL    HW139254   9.693   0.993   5.268 -1.5805  1.4000  2.0721
 9200SOL    HW239255   9.677   1.077   5.128  1.8714 -0.5082  0.4615
 9201SOL     OW39256   0.063   5.105   1.640  0.2342  0.3421  0.6453
 9201SOL    HW139257  -0.003   5.041   1.680  0.1170  0.2233  0.2595
 9201SOL    HW239258   0.029   5.138   1.552  0.1713  1.1427  0.9664
 9202SOL     OW39259   0.450   7.304   5.845  0.1234 -0.4209  0.3542
 9202SOL    HW139260   0.454   7.220   5.790 -1.4741 -0.6151  0.5245
 9202SOL    HW239261   0.395   7.372   5.798  1.9214  0.7851 -0.0736
 9203SOL     OW39262   2.563   3.558   4.834 -0.0951 -0.2890 -0.2394
 9203SOL    HW139263   2.607   3.540   4.745 -0.8967  2.2378 -1.1901
 9203SOL    HW239264   2.464   3.551   4.824 -0.2204  0.7373  0.2891
 9204SOL     OW39265   1.185   6.204   4.987  0.4981  0.0881 -0.0030
 9204SOL    HW139266   1.091   6.172   4.984  0.3542  0.4863  0.2836
 9204SOL    HW239267   1.247   6.128   4.963  0.2178 -0.6813  1.6200
 9205SOL     OW39268   2.739   5.301   3.351  0.2171 -0.6327 -0.2394
 9205SOL    HW139269   2.785   5.323   3.265  1.9626  2.4914  1.4318
 9205SOL    HW239270   2.666   5.367   3.368  0.2846 -0.8609  0.9936
 9206SOL     OW39271   6.615   9.748   4.133  0.1962 -0.4665 -0.1768
 9206SOL    HW139272   6.640   9.776   4.226  1.0070  0.5206 -0.6804
 9206SOL    HW239273   6.682   9.783   4.068 -0.9837 -0.1664 -1.2632
 9207SOL     OW39274   0.532   9.246   5.002 -0.0315 -0.0019 -0.1106
 9207SOL    HW139275   0.480   9.281   5.079 -0.3112 -1.5247  0.3974
 9207SOL    HW239276   0.623   9.288   5.001 -0.5261  1.0824  0.2166
 9208SOL     OW39277   4.439   9.531   7.623 -0.2606  0.2862  0.1945
 9208SOL    HW139278   4.449   9.564   7.717  0.2849  0.5317  0.0494
 9208SOL    HW239279   4.381   9.594   7.572  2.3654  2.1239 -0.6328
 9209SOL     OW39280   8.422   6.193   5.501  0.4894 -0.2520  0.3506
 9209SOL    HW139281   8.470   6.238   5.426  0.3359 -0.8473 -0.1065
 9209SOL    HW239282   8.380   6.108   5.469 -1.1778  0.4341  0.6695
 9210SOL     OW39283   5.482   0.789   1.802  0.0837  0.1218  0.6638
 9210SOL    HW139284   5.473   0.749   1.894  0.8977  1.9651  1.5655
 9210SOL    HW239285   5.494   0.888   1.810  0.3240  0.2744 -1.4421
 9211SOL     OW39286   1.987   2.896   0.757  0.2399  0.0361 -0.1509
 9211SOL    HW139287   1.995   2.861   0.664  0.4931 -1.4322  0.4181
 9211SOL    HW239288   1.895   2.932   0.771 -0.6678 -2.2695 -0.1052
 9212SOL     OW39289   2.557   5.833   7.218 -0.1457 -0.1549 -0.1576
 9212SOL    HW139290   2.579   5.930   7.224  2.8680 -0.7228 -1.2945
 9212SOL    HW239291   2.641   5.779   7.216 -1.7357 -2.7267 -0.7636
 9213SOL     OW39292   5.233   7.793   5.264  0.6017 -0.2894 -0.3413
 9213SOL    HW139293   5.136   7.815   5.269  0.5469 -0.7908  0.9247
 9213SOL    HW239294   5.270   7.782   5.356  1.7410 -0.6330 -0.8256
 9214SOL     OW39295   8.238   5.795   2.714  0.0402 -0.8544 -0.8453
 9214SOL    HW139296   8.314   5.735   2.691 -0.1844 -1.8723  0.9983
 9214SOL    HW239297   8.191   5.761   2.796  0.5601  2.3672  0.8716
 9215SOL     OW39298   5.178   6.134   1.633 -0.1198 -0.4278  0.1831
 9215SOL    HW139299   5.230   6.114   1.716  1.1385 -0.7753 -0.6603
 9215SOL    HW239300   5.097   6.076   1.630 -0.2852 -0.2665  1.2620
 9216SOL     OW39301   0.088   9.667   5.842 -0.3442 -0.1194 -0.5503
 9216SOL    HW139302   0.031   9.592   5.876 -0.6476 -0.2120 -1.2535
 9216SOL    HW239303   0.045   9.754   5.864  0.6618 -0.0982  1.4435
 9217SOL     OW39304   4.700   1.083   7.116 -0.0907  0.1837  0.0962
 9217SOL    HW139305   4.709   0.985   7.131  1.2152  0.1735 -0.6830
 9217SOL    HW239306   4.644   1.123   7.189 -0.7422 -1.1433  0.3473
 9218SOL     OW39307   3.173   5.959   2.318 -0.1755  0.2499 -0.0611
 9218SOL    HW139308   3.149   5.911   2.233 -1.3489 -0.4653  0.6642
 9218SOL    HW239309   3.097   6.018   2.346 -0.4411 -0.7401  1.3535
 9219SOL     OW39310   2.276   5.888   7.222  0.0093  0.1927 -0.1089
 9219SOL    HW139311   2.255   5.972   7.172  2.4816  1.7599  1.3828
 9219SOL    HW239312   2.372   5.888   7.249 -0.1613 -2.7352  0.6769
 9220SOL     OW39313   0.649   7.638   7.226  0.0869  0.2389 -0.2706
 9220SOL    HW139314   0.668   7.675   7.316  2.0755 -0.6810 -0.2897
 9220SOL    HW239315   0.683   7.701   7.156 -0.8596  0.6398 -0.3733
 9221SOL     OW39316   9.306   6.901   7.899  0.1221  0.2292 -0.2851
 9221SOL    HW139317   9.290   6.994   7.865 -1.1162 -0.0872 -0.5689
 9221SOL    HW239318   9.335   6.904   7.994  0.7293  0.9470 -0.4901
 9222SOL     OW39319   9.541   1.443   7.190 -0.2795 -0.1774  0.0313
 9222SOL    HW139320   9.606   1.449   7.114  0.0074 -2.4139  0.0705
 9222SOL    HW239321   9.513   1.348   7.203 -1.6496  0.4110  1.6400
 9223SOL     OW39322   0.119   2.077   6.351  0.0118  0.0490 -0.1172
 9223SOL    HW139323   0.047   2.126   6.303  2.2460  1.8703 -1.7520
 9223SOL    HW239324   0.130   1.986   6.311 -1.1271 -0.1011 -0.0880
 9224SOL     OW39325   1.442   1.972   3.716 -0.8268  0.2268  0.5777
 9224SOL    HW139326   1.440   1.923   3.629 -3.1515 -0.7643  1.1447
 9224SOL    HW239327   1.404   2.063   3.704  0.3825  0.6931  0.2258
 9225SOL     OW39328   0.922   7.834   4.444 -0.7088 -0.2482 -0.7467
 9225SOL    HW139329   0.920   7.862   4.348  0.7288 -0.8660 -0.9775
 9225SOL    HW239330   0.981   7.754   4.453 -2.2309 -1.2605  0.3898
 9226SOL     OW39331   0.469   6.179   7.068  0.3717  0.4198 -0.4442
 9226SOL    HW139332   0.512   6.103   7.020 -0.9126 -1.5403  1.3862
 9226SOL    HW239333   0.485   6.169   7.166 -0.6808  1.9627 -0.1068
 9227SOL     OW39334   7.613   1.510   7.948 -0.0580  0.1577 -0.2215
 9227SOL    HW139335   7.682   1.444   7.976  0.2631 -0.1298 -1.6121
 9227SOL    HW239336   7.641   1.551   7.860 -1.3789  0.4570 -0.5084
 9228SOL     OW39337   1.599   7.701   2.910 -0.3012 -0.3031  0.1190
 9228SOL    HW139338   1.647   7.748   2.836 -2.8305 -0.3280 -1.6065
 9228SOL    HW239339   1.536   7.766   2.954  0.3339 -0.6036  1.4765
 9229SOL     OW39340   4.378   1.371   4.937 -0.3145 -0.5155  0.0305
 9229SOL    HW139341   4.464   1.326   4.964 -1.1038 -2.2583 -0.2527
 9229SOL    HW239342   4.346   1.428   5.012  1.3913  0.6306 -0.0773
 9230SOL     OW39343   1.762   1.869   6.106  0.0418 -0.0633  0.7916
 9230SOL    HW139344   1.759   1.891   6.203 -2.3519  2.1513  0.2802
 9230SOL    HW239345   1.669   1.863   6.070  0.8886  0.8413 -1.7054
 9231SOL     OW39346   9.899   8.126   7.124  0.0654 -0.7372 -0.0563
 9231SOL    HW139347   9.913   8.036   7.167 -0.0082 -0.0360  1.4676
 9231SOL    HW239348   9.860   8.189   7.191  3.0039  1.3150 -0.1414
 9232SOL     OW39349   1.407   2.099   5.095 -0.0392  0.6048 -0.5918
 9232SOL    HW139350   1.462   2.051   5.163  0.3816  0.8475 -0.7591
 9232SOL    HW239351   1.426   2.060   5.004  1.4638  2.1031 -0.9420
 9233SOL     OW39352   9.040   2.106   6.197  0.2494 -0.0691  0.3177
 9233SOL    HW139353   8.988   2.101   6.112 -0.7324 -0.1535  0.9186
 9233SOL    HW239354   9.103   2.028   6.203 -2.1390 -1.9572  1.2797
 9234SOL     OW39355   8.047   3.549   1.632  0.6586  0.3678 -0.0565
 9234SOL    HW139356   7.983   3.550   1.709 -0.7159  0.5800 -1.1604
 9234SOL    HW239357   8.091   3.459   1.626  0.2966  0.1420  0.5787
 9235SOL     OW39358   0.945   6.899   3.326 -0.2977 -0.5519 -0.4877
 9235SOL    HW139359   0.890   6.910   3.409 -0.2709  1.0916 -0.6737
 9235SOL    HW239360   0.888   6.863   3.252 -1.0578  0.7802 -0.5702
 9236SOL     OW39361   3.489   4.405   7.533  0.0266 -0.5490 -0.3750
 9236SOL    HW139362   3.527   4.398   7.440  0.8664 -0.9650 -0.0114
 9236SOL    HW239363   3.393   4.431   7.528 -0.0910 -1.1485 -1.3856
 9237SOL     OW39364   1.191   0.701   6.523 -0.4367  0.0427 -0.0417
 9237SOL    HW139365   1.222   0.750   6.441  0.4016  1.2653  0.9694
 9237SOL    HW239366   1.172   0.606   6.501 -0.4601  0.4329 -1.7084
 9238SOL     OW39367   2.373   1.857   2.881  0.2204 -0.3613 -0.3417
 9238SOL    HW139368   2.356   1.760   2.897  1.6856 -0.4169  1.0565
 9238SOL    HW239369   2.353   1.879   2.786  1.5249 -2.3987 -1.1195
 9239SOL     OW39370   7.866   0.833   4.067  0.5226  0.3311 -0.3570
 9239SOL    HW139371   7.866   0.743   4.024  3.3046 -0.0786  0.4172
 9239SOL    HW239372   7.896   0.902   4.001  0.4806  0.3722 -0.3335
 9240SOL     OW39373   9.062   7.627   3.739  0.2767 -0.2409  0.5266
 9240SOL    HW139374   9.004   7.708   3.739 -0.1480 -0.4886  3.8237
 9240SOL    HW239375   9.132   7.636   3.667 -0.3931  2.5605  0.1784
 9241SOL     OW39376   9.401   1.940   5.193 -0.4477 -0.1282  0.0261
 9241SOL    HW139377   9.447   1.940   5.104 -0.7168 -1.1969 -0.1221
 9241SOL    HW239378   9.469   1.933   5.266 -0.2453  0.4492 -0.1009
 9242SOL     OW39379   6.717   1.078   6.830 -0.3445  0.1991  0.1065
 9242SOL    HW139380   6.705   0.984   6.800 -0.3642  0.0018  0.7283
 9242SOL    HW239381   6.628   1.119   6.851 -0.4625  0.8472 -1.6329
 9243SOL     OW39382   3.530   8.333   7.865 -0.2599 -0.7321  0.2015
 9243SOL    HW139383   3.508   8.345   7.962 -1.3749 -2.2324  0.1472
 9243SOL    HW239384   3.457   8.371   7.809  1.3385  2.0479 -0.1360
 9244SOL     OW39385   8.581   2.389   4.732  0.2224 -0.3069  0.5285
 9244SOL    HW139386   8.495   2.406   4.779  0.0745 -0.7928  0.4378
 9244SOL    HW239387   8.656   2.390   4.799  0.2326  0.7496  0.5138
 9245SOL     OW39388   7.722   8.403   2.448 -0.5713  0.0158 -0.3260
 9245SOL    HW139389   7.783   8.417   2.526 -0.8664  0.5930 -0.1945
 9245SOL    HW239390   7.751   8.323   2.396 -1.4830 -1.5001  1.4530
 9246SOL     OW39391   9.610   8.049   2.772 -0.3225 -0.1463  0.0245
 9246SOL    HW139392   9.520   8.080   2.741  0.5343  2.1415 -0.3238
 9246SOL    HW239393   9.599   7.989   2.851 -2.2716 -2.0820 -1.6806
 9247SOL     OW39394   8.315   3.638   2.653 -0.3887  0.1248  0.0271
 9247SOL    HW139395   8.321   3.538   2.656 -3.5591 -0.0993  2.7591
 9247SOL    HW239396   8.367   3.676   2.729  3.5094  0.8603 -2.8411
 9248SOL     OW39397   2.212   9.782   5.669  0.9705 -0.1711 -0.1217
 9248SOL    HW139398   2.225   9.699   5.723 -0.6806 -1.0985 -1.1080
 9248SOL    HW239399   2.179   9.757   5.577  1.8285  1.4880 -0.8999
 9249SOL     OW39400   4.061   9.722   3.194  0.2358 -0.8919 -0.4467
 9249SOL    HW139401   4.130   9.728   3.266 -0.8458 -0.8619  0.5917
 9249SOL    HW239402   4.097   9.765   3.111  0.1975  2.2908  1.0822
 9250SOL     OW39403   6.629   7.463   5.347  0.1741  0.1267  0.4721
 9250SOL    HW139404   6.716   7.475   5.299  0.1664  0.4396  0.5328
 9250SOL    HW239405   6.646   7.428   5.439  0.1980 -0.3461  0.2847
 9251SOL     OW39406   0.799   6.406   3.904  0.6339  0.6400  0.0347
 9251SOL    HW139407   0.894   6.424   3.931  0.3125  0.5154  1.3158
 9251SOL    HW239408   0.744   6.487   3.924 -0.1007 -0.3618  2.2316
 9252SOL     OW39409   7.370   1.736   0.560  0.0407 -0.1213  0.1500
 9252SOL    HW139410   7.338   1.802   0.629  2.2540  0.6805  0.4264
 9252SOL    HW239411   7.461   1.702   0.585 -0.7709 -2.8245 -0.3229
 9253SOL     OW39412   4.361   7.199   3.607 -0.1792  0.0428  0.2493
 9253SOL    HW139413   4.274   7.194   3.558  0.7960  0.4894 -1.5910
 9253SOL    HW239414   4.397   7.292   3.602  0.7063 -0.2858  0.4221
 9254SOL     OW39415   9.586   4.602   4.252  0.0930 -0.2755  0.9172
 9254SOL    HW139416   9.619   4.509   4.238 -0.9292 -0.4550 -0.3815
 9254SOL    HW239417   9.638   4.645   4.326  1.4389 -1.4316  0.6637
 9255SOL     OW39418   0.736   7.669   0.488 -0.0586  0.3885 -0.1947
 9255SOL    HW139419   0.834   7.683   0.479  0.0468  0.8962  1.6301
 9255SOL    HW239420   0.688   7.733   0.427  0.6991  1.5183  0.3818
 9256SOL     OW39421   5.783   3.634   0.185  0.4899  0.1616 -0.6784
 9256SOL    HW139422   5.812   3.704   0.250  2.1695 -0.2243 -0.9880
 9256SOL    HW239423   5.689   3.605   0.206  0.5239  1.0274  0.7040
 9257SOL     OW39424   4.018   0.162   2.289  0.0739 -0.3870 -0.0253
 9257SOL    HW139425   4.094   0.108   2.325 -0.0019 -0.1880  0.4426
 9257SOL    HW239426   4.001   0.137   2.194  1.6966  0.6185 -0.6052
 9258SOL     OW39427   2.824   4.955   0.618 -0.3037 -0.1550  0.2794
 9258SOL    HW139428   2.805   4.878   0.679 -3.5985 -0.0530 -0.5011
 9258SOL    HW239429   2.915   4.945   0.579  0.0086 -2.7309  1.5309
 9259SOL     OW39430   7.599   0.421   6.325 -0.1604  0.3904  0.2041
 9259SOL    HW139431   7.525   0.450   6.387 -0.4559  3.6896 -1.5725
 9259SOL    HW239432   7.564   0.415   6.232  1.1244 -1.0643 -0.1995
 9260SOL     OW39433   0.918   8.941   5.418 -0.4578  0.3066 -0.0649
 9260SOL    HW139434   0.927   8.842   5.408 -2.7586  0.1125 -0.4379
 9260SOL    HW239435   0.822   8.967   5.412  0.1201  2.5867 -0.0587
 9261SOL     OW39436   1.018   0.630   4.673 -0.4881  0.1726 -0.0482
 9261SOL    HW139437   0.985   0.674   4.756 -1.3671 -0.1571 -0.2164
 9261SOL    HW239438   1.074   0.694   4.621 -1.1461  0.8470  0.0721
 9262SOL     OW39439   0.771   6.610   2.795  0.6339 -0.3822 -0.0187
 9262SOL    HW139440   0.678   6.582   2.771  0.2293  2.3505 -1.9656
 9262SOL    HW239441   0.836   6.569   2.731  0.5778 -0.8550  0.2271
 9263SOL     OW39442   6.675   2.479   3.563 -0.7946  0.1661 -0.3836
 9263SOL    HW139443   6.740   2.456   3.489 -0.5456  1.1319 -0.4669
 9263SOL    HW239444   6.648   2.575   3.555 -0.6263  0.3268  0.8947
 9264SOL     OW39445   4.694   9.077   5.339  0.3058 -0.0633  0.3784
 9264SOL    HW139446   4.692   8.995   5.397  2.0492  0.7297  1.6115
 9264SOL    HW239447   4.612   9.132   5.356  0.2243 -0.4376  1.2065
 9265SOL     OW39448   8.262   2.388   7.919  0.9399 -0.7714  0.6429
 9265SOL    HW139449   8.163   2.395   7.932  0.8949 -0.5873  0.2092
 9265SOL    HW239450   8.293   2.297   7.946  0.1900 -1.9008 -2.0843
 9266SOL     OW39451   8.847   7.956   6.187 -0.0293  0.0417  0.4482
 9266SOL    HW139452   8.921   7.889   6.178 -2.0969 -2.1628 -0.6729
 9266SOL    HW239453   8.845   7.991   6.281 -0.3220 -3.1704  1.6873
 9267SOL     OW39454   1.037   0.035   3.055 -0.6382  0.2459 -0.5697
 9267SOL    HW139455   1.034   0.127   3.094  1.2016  0.9250 -1.9149
 9267SOL    HW239456   1.065  -0.030   3.125 -1.0330  0.8654  0.1675
 9268SOL     OW39457   2.527   8.590   0.635  0.6203 -1.3267  0.0174
 9268SOL    HW139458   2.501   8.642   0.717 -2.4366 -0.7162 -1.2597
 9268SOL    HW239459   2.551   8.653   0.561 -0.0677 -1.7759 -0.6000
 9269SOL     OW39460   3.329   7.990   7.407 -0.5474  0.8165 -0.2223
 9269SOL    HW139461   3.362   8.018   7.497  0.7061 -0.4108 -0.2790
 9269SOL    HW239462   3.348   7.893   7.394 -2.1432  0.6182 -1.1878
 9270SOL     OW39463   6.257   0.286   2.864  0.0258 -0.6148  0.4184
 9270SOL    HW139464   6.201   0.232   2.927  1.8068 -1.1845  1.5549
 9270SOL    HW239465   6.335   0.324   2.913 -1.8732  4.1975 -0.0508
 9271SOL     OW39466   2.342   9.566   4.650  0.5329 -0.1177 -0.2782
 9271SOL    HW139467   2.252   9.577   4.607 -0.1503 -1.7498  0.6862
 9271SOL    HW239468   2.413   9.601   4.589 -0.7555  1.1429 -1.0695
 9272SOL     OW39469   3.638   3.981   0.697  0.5507 -0.1276  0.7929
 9272SOL    HW139470   3.686   4.048   0.640 -1.9737  1.6203  0.6569
 9272SOL    HW239471   3.646   4.006   0.793  1.7101 -1.0505  0.9528
 9273SOL     OW39472   1.155   4.259   1.951 -0.3892  0.2052 -0.5641
 9273SOL    HW139473   1.230   4.321   1.929 -0.8630  0.7593 -0.6323
 9273SOL    HW239474   1.090   4.258   1.875 -1.1612  0.8099  0.0768
 9274SOL     OW39475   7.204   0.787   6.085 -0.0833  0.0922 -0.3806
 9274SOL    HW139476   7.162   0.745   6.166 -0.0120  1.2786  0.2755
 9274SOL    HW239477   7.136   0.843   6.038 -0.1294 -0.6117 -1.1674
 9275SOL     OW39478   9.543   5.563   6.116  0.6816 -0.0645  0.4867
 9275SOL    HW139479   9.494   5.502   6.053  1.6059 -1.1572  0.8137
 9275SOL    HW239480   9.613   5.614   6.066  2.4898 -2.0917  0.8757
 9276SOL     OW39481   5.834   5.646   1.684  0.7041 -0.3499 -0.4460
 9276SOL    HW139482   5.870   5.709   1.614  0.0212  0.4655 -0.0718
 9276SOL    HW239483   5.740   5.621   1.660  0.0118  0.9412  0.8305
 9277SOL     OW39484   6.061   1.516   6.176 -0.0612 -0.0097  0.1046
 9277SOL    HW139485   6.110   1.431   6.157  0.2052 -0.0914  1.1244
 9277SOL    HW239486   6.106   1.592   6.129  0.7661 -0.1566  0.6445
 9278SOL     OW39487   9.387   8.289   2.284 -0.0744 -0.4527 -0.1246
 9278SOL    HW139488   9.423   8.305   2.192 -1.7771  2.0436 -0.3735
 9278SOL    HW239489   9.305   8.232   2.279 -0.0092 -0.5482 -0.1146
 9279SOL     OW39490   9.862   1.274   3.781 -0.0122  0.0933 -0.1730
 9279SOL    HW139491   9.815   1.352   3.739 -0.2499 -0.0598 -0.1895
 9279SOL    HW239492   9.842   1.191   3.730  0.4447  0.0610 -0.3024
 9280SOL     OW39493   6.123   7.878   6.626 -0.8974 -0.5441 -0.1603
 9280SOL    HW139494   6.038   7.887   6.677 -1.0449  0.0172 -0.4981
 9280SOL    HW239495   6.148   7.967   6.588  0.6972 -0.3472  1.3057
 9281SOL     OW39496   1.857   9.973   6.002 -0.7570  0.8979  0.0119
 9281SOL    HW139497   1.759   9.964   5.985 -0.6164  2.3064 -1.6147
 9281SOL    HW239498   1.906   9.901   5.953 -0.9811 -0.0475  1.1385
 9282SOL     OW39499   4.314   6.936   0.484  0.2704  0.0458 -0.3878
 9282SOL    HW139500   4.220   6.919   0.512 -0.0528  2.0364 -0.1956
 9282SOL    HW239501   4.366   6.973   0.561 -0.0001  3.2541 -1.6654
 9283SOL     OW39502   6.819   8.482   6.143  0.0664 -0.3904  0.2283
 9283SOL    HW139503   6.881   8.463   6.066 -0.7501  0.4879 -0.6624
 9283SOL    HW239504   6.856   8.556   6.198  0.6701 -1.0423  0.7224
 9284SOL     OW39505   9.930   7.857   6.279 -0.3739 -0.2503 -0.0570
 9284SOL    HW139506   9.976   7.773   6.252 -0.3249  0.2731 -1.6365
 9284SOL    HW239507   9.861   7.881   6.210 -0.6537  0.7974  0.5775
 9285SOL     OW39508   7.775   9.702   5.932 -0.2124  0.5682  0.1120
 9285SOL    HW139509   7.677   9.719   5.918 -0.2929  0.9551  1.1311
 9285SOL    HW239510   7.796   9.704   6.030  0.9586  1.2524 -0.1389
 9286SOL     OW39511   0.935   8.249   6.551 -0.2685 -0.1224  0.1746
 9286SOL    HW139512   0.866   8.283   6.615  0.8092  0.4974  1.0290
 9286SOL    HW239513   0.908   8.158   6.519 -1.7706  0.3591  0.0236
 9287SOL     OW39514   3.267   0.919   0.623  0.2372  0.0481  0.0407
 9287SOL    HW139515   3.280   1.010   0.582  2.3238 -0.9657 -1.6476
 9287SOL    HW239516   3.171   0.892   0.614 -0.6066  2.4066  1.3360
 9288SOL     OW39517   2.483   9.790   2.991 -0.3370  0.6522  0.1417
 9288SOL    HW139518   2.582   9.805   2.989 -0.1192 -0.2541  2.0836
 9288SOL    HW239519   2.454   9.743   2.908  0.7233  1.6884 -0.8265
 9289SOL     OW39520   1.851   1.442   1.608  0.5677  0.3218 -1.0120
 9289SOL    HW139521   1.762   1.465   1.568  0.3556  0.6182 -0.3765
 9289SOL    HW239522   1.922   1.445   1.538 -0.0047 -0.4051 -1.6302
 9290SOL     OW39523   2.458   6.897   7.517  0.8024  0.1445 -0.1106
 9290SOL    HW139524   2.385   6.892   7.584  0.2258 -0.6782 -0.7864
 9290SOL    HW239525   2.535   6.948   7.555  0.3671 -0.0644  1.0605
 9291SOL     OW39526   0.178   3.474   7.312 -0.0341  0.1487 -0.0209
 9291SOL    HW139527   0.181   3.569   7.280  1.4847 -0.8872 -3.1452
 9291SOL    HW239528   0.165   3.413   7.234 -2.1425 -2.1729  2.0964
 9292SOL     OW39529   2.523   3.009   1.843 -0.2514 -0.2070  0.3529
 9292SOL    HW139530   2.517   3.100   1.884 -1.2304 -1.0425  2.1587
 9292SOL    HW239531   2.444   2.994   1.783  0.0306  0.2156 -0.1239
 9293SOL     OW39532   9.555   2.414   5.007 -1.1600  0.0565 -0.2091
 9293SOL    HW139533   9.615   2.340   5.039  1.1842  1.8363 -0.4070
 9293SOL    HW239534   9.504   2.382   4.927 -1.3065 -1.8452  0.5984
 9294SOL     OW39535   7.109   9.898   4.682 -0.5200 -0.1090 -0.1938
 9294SOL    HW139536   7.129   9.823   4.619  0.7897  0.0301  0.0449
 9294SOL    HW239537   7.167   9.977   4.659 -0.4011  0.1193  0.8618
 9295SOL     OW39538   1.588   8.751   6.824 -0.0865 -0.0880  0.4137
 9295SOL    HW139539   1.613   8.656   6.802 -1.2224 -0.1922 -0.4561
 9295SOL    HW239540   1.650   8.813   6.776 -0.0775 -0.3694  0.0566
 9296SOL     OW39541   2.183   6.208   6.723  0.3179  0.3377  0.1899
 9296SOL    HW139542   2.117   6.160   6.666  0.3075 -0.4791  0.8736
 9296SOL    HW239543   2.275   6.198   6.684  0.2222  0.3278 -0.0321
 9297SOL     OW39544   0.644   6.425   4.959 -0.1576  0.6012  0.5792
 9297SOL    HW139545   0.661   6.453   5.053 -0.3919  1.1429  0.4622
 9297SOL    HW239546   0.549   6.442   4.935 -0.3555 -0.4996  0.5688
 9298SOL     OW39547   0.406   8.616   5.332 -0.2000 -0.2325  0.5603
 9298SOL    HW139548   0.418   8.520   5.305  1.1368  0.3846 -1.1413
 9298SOL    HW239549   0.323   8.652   5.289 -1.1331 -0.8232  1.8275
 9299SOL     OW39550   3.081   9.589   7.286  0.1282 -0.3650 -0.0023
 9299SOL    HW139551   3.044   9.545   7.204 -0.4619 -1.8127  1.0249
 9299SOL    HW239552   3.009   9.601   7.354  0.7495  0.2293  0.5639
 9300SOL     OW39553   3.464   9.186   7.595  0.2902 -0.2961 -0.3580
 9300SOL    HW139554   3.477   9.236   7.680  0.1823 -0.1882 -0.4057
 9300SOL    HW239555   3.416   9.100   7.614 -0.0769 -0.0923 -0.3660
 9301SOL     OW39556   1.528   4.958   2.749  0.7058 -0.0933  0.1546
 9301SOL    HW139557   1.623   4.984   2.769  1.6745 -2.6208 -1.0522
 9301SOL    HW239558   1.512   4.865   2.781 -1.3416  0.2422  0.1479
 9302SOL     OW39559   4.258   3.009   6.667 -0.0436  0.0931  0.7101
 9302SOL    HW139560   4.348   2.974   6.640 -1.3795 -2.9450 -0.1031
 9302SOL    HW239561   4.238   3.093   6.616  0.6805 -1.4017 -2.1862
 9303SOL     OW39562   7.966   7.581   2.952  0.3065 -0.0236  0.2014
 9303SOL    HW139563   7.939   7.666   2.906 -1.8474  0.9688  3.1924
 9303SOL    HW239564   8.063   7.586   2.977  0.4504  1.1117 -0.5527
 9304SOL     OW39565   9.942   7.896   4.318  0.1497 -0.3427  0.0731
 9304SOL    HW139566   9.966   7.878   4.223  0.3944 -0.8252  0.2278
 9304SOL    HW239567   9.966   7.991   4.340 -1.8617  0.4493 -0.9608
 9305SOL     OW39568   6.013   1.424   1.851  0.4045  0.4771 -0.0883
 9305SOL    HW139569   5.930   1.478   1.837  0.8375  1.2051  0.1374
 9305SOL    HW239570   6.088   1.484   1.879  1.7551  0.2879 -3.0456
 9306SOL     OW39571   7.175   3.959   2.524  0.6923 -0.5388  0.1286
 9306SOL    HW139572   7.243   4.033   2.530 -0.0510  0.1578  0.1283
 9306SOL    HW239573   7.115   3.963   2.604 -1.5515  1.0863 -1.5517
 9307SOL     OW39574   1.235   3.282   1.234  0.7528  0.0275  0.2022
 9307SOL    HW139575   1.229   3.310   1.330 -1.7124  0.7496 -0.1273
 9307SOL    HW239576   1.160   3.219   1.212  1.7613 -0.7755 -1.0604
 9308SOL     OW39577   3.878   2.962   3.816 -0.5099  0.1500  0.3102
 9308SOL    HW139578   3.875   2.987   3.719  0.2629  1.1920  0.5416
 9308SOL    HW239579   3.786   2.945   3.849 -0.6715 -1.6141 -0.9590
 9309SOL     OW39580   0.588   8.689   1.616 -0.3785 -0.4859  0.1523
 9309SOL    HW139581   0.493   8.659   1.630 -0.6563 -0.3539 -1.4312
 9309SOL    HW239582   0.589   8.772   1.560  0.6955 -0.6933 -0.1398
 9310SOL     OW39583   5.576   0.467   3.093 -0.2965  0.3832 -0.6761
 9310SOL    HW139584   5.586   0.373   3.127  1.1182  1.1260  1.0148
 9310SOL    HW239585   5.512   0.467   3.016 -2.2909 -1.5849  0.8988
 9311SOL     OW39586   2.428   8.876   3.768  0.1554 -0.0167  0.2104
 9311SOL    HW139587   2.340   8.832   3.747  0.0091  0.0377  0.7156
 9311SOL    HW239588   2.496   8.846   3.701  0.1298 -1.2576  0.7188
 9312SOL     OW39589   7.514   3.870   6.989 -0.0886  0.8305  0.0528
 9312SOL    HW139590   7.481   3.964   6.989 -1.1493  0.4704  0.1339
 9312SOL    HW239591   7.511   3.833   6.896 -2.8752 -0.1872  0.4855
 9313SOL     OW39592   2.087   8.522   2.871 -0.2301  0.3138  0.5004
 9313SOL    HW139593   2.011   8.569   2.917 -0.6825 -0.4104  0.4942
 9313SOL    HW239594   2.172   8.571   2.890 -0.6481  0.9487  0.7693
 9314SOL     OW39595   4.041   1.828   7.661  0.2050 -0.5901  0.2638
 9314SOL    HW139596   4.082   1.792   7.744 -0.3459  0.5211  1.0310
 9314SOL    HW239597   4.051   1.927   7.659 -1.5715 -0.4024  0.0030
 9315SOL     OW39598   3.413   4.870   3.794 -0.1096 -0.1801 -0.1593
 9315SOL    HW139599   3.470   4.842   3.872 -0.7573  0.9228  0.7156
 9315SOL    HW239600   3.387   4.789   3.741 -0.7724 -1.0955  1.5272
 9316SOL     OW39601   8.019   9.269   6.044 -0.1473 -0.1336 -0.2323
 9316SOL    HW139602   7.998   9.355   5.997 -1.2288 -0.8785 -1.1439
 9316SOL    HW239603   8.118   9.257   6.049  0.0679  1.9084  1.2873
 9317SOL     OW39604   5.138   2.635   4.763  0.4129  0.0363  0.0279
 9317SOL    HW139605   5.209   2.704   4.758  0.4797  0.0292  0.8789
 9317SOL    HW239606   5.131   2.588   4.675 -0.8315  2.2958 -1.1127
 9318SOL     OW39607   8.694   0.748   0.280  0.8921 -0.4700 -0.3901
 9318SOL    HW139608   8.755   0.799   0.220  0.4432 -0.5670 -0.9298
 9318SOL    HW239609   8.721   0.652   0.281  0.2927 -0.6550 -1.2218
 9319SOL     OW39610   8.893   4.915   3.852 -0.1213 -0.4334 -0.7345
 9319SOL    HW139611   8.898   5.011   3.822  0.2366 -0.1239  0.3128
 9319SOL    HW239612   8.804   4.898   3.893  0.1368 -0.3052 -0.1124
 9320SOL     OW39613   7.500   6.987   6.207 -0.6561  0.0015 -0.2235
 9320SOL    HW139614   7.585   6.937   6.223 -0.4607 -0.0275 -1.2840
 9320SOL    HW239615   7.428   6.952   6.266 -0.2984 -0.9476 -0.3454
 9321SOL     OW39616   0.415   6.634   0.551  0.1618 -0.0928 -0.0407
 9321SOL    HW139617   0.459   6.682   0.627 -3.7081  0.1471  2.2012
 9321SOL    HW239618   0.474   6.560   0.520  2.9705  1.4325  1.4215
 9322SOL     OW39619   7.383   8.825   2.992  0.0054  0.8470 -0.5871
 9322SOL    HW139620   7.365   8.872   3.078 -3.0883 -1.3863  0.0510
 9322SOL    HW239621   7.482   8.818   2.978  0.5484  2.3228  2.1408
 9323SOL     OW39622   1.739   4.244   8.182  0.0773  0.1582  0.8173
 9323SOL    HW139623   1.684   4.281   8.257  0.4660 -0.4062  1.3799
 9323SOL    HW239624   1.834   4.274   8.191  0.0175  0.5283  0.2511
 9324SOL     OW39625   9.490   6.049   0.278  0.3135 -0.6864  0.4805
 9324SOL    HW139626   9.437   5.984   0.333  0.1367 -0.7657  0.2187
 9324SOL    HW239627   9.443   6.064   0.191  2.0306 -2.7458 -0.8380
 9325SOL     OW39628   4.414   2.766   1.281  0.9329  0.7213  0.3951
 9325SOL    HW139629   4.459   2.704   1.345  0.5712  2.1162  2.0349
 9325SOL    HW239630   4.385   2.715   1.200  3.4861 -0.6208  0.2604
 9326SOL     OW39631   2.084   6.508   6.430  0.2184 -0.1094  0.1773
 9326SOL    HW139632   1.999   6.485   6.383 -0.4286  0.2099  1.1807
 9326SOL    HW239633   2.072   6.495   6.529  1.1436  0.5181  0.3756
 9327SOL     OW39634   6.022   0.378   4.952 -0.6014 -0.0451  0.2072
 9327SOL    HW139635   6.121   0.389   4.945 -0.3061 -1.4408  1.7132
 9327SOL    HW239636   5.981   0.463   4.984  0.0059  0.7795 -1.1483
 9328SOL     OW39637   8.079   3.093   2.931  0.2050 -0.3671  0.2345
 9328SOL    HW139638   8.119   3.142   3.008  1.4411  1.1467 -1.3470
 9328SOL    HW239639   7.980   3.084   2.945 -0.0950  2.8208  0.4446
 9329SOL     OW39640   2.238   3.506   5.692  0.0826 -0.1740 -0.3055
 9329SOL    HW139641   2.140   3.517   5.702  0.0316 -1.2885  0.5061
 9329SOL    HW239642   2.283   3.518   5.780  0.5768 -0.5828 -0.4944
 9330SOL     OW39643   1.098   5.481   2.431  0.0211 -0.1950  0.1419
 9330SOL    HW139644   1.054   5.421   2.365  1.6754 -0.2042 -0.9939
 9330SOL    HW239645   1.127   5.566   2.386  3.0960 -1.0902  0.2777
 9331SOL     OW39646   6.867   8.557   6.529 -0.3538  0.1601  0.3809
 9331SOL    HW139647   6.817   8.636   6.564  0.4263  0.6575  0.3950
 9331SOL    HW239648   6.830   8.473   6.570 -1.0868  0.5259  0.4803
 9332SOL     OW39649   4.016   6.573   3.368 -0.3629 -0.2216  0.9383
 9332SOL    HW139650   3.983   6.498   3.310  1.2799  1.4856 -2.3403
 9332SOL    HW239651   3.941   6.635   3.389 -0.6398  0.1190 -0.9577
 9333SOL     OW39652   8.066   4.408   3.767  0.4848  0.5762 -0.1281
 9333SOL    HW139653   8.134   4.343   3.798  0.7877  2.0030  2.3240
 9333SOL    HW239654   7.990   4.412   3.832 -1.0467  0.4074 -1.8448
 9334SOL     OW39655   4.207   8.463   0.733  0.2226 -0.1764  0.2973
 9334SOL    HW139656   4.270   8.502   0.801 -1.3044  1.1557  0.9872
 9334SOL    HW239657   4.216   8.514   0.647  0.4006 -0.2843  0.2512
 9335SOL     OW39658   0.453   7.485   7.140 -0.2750 -0.3841  0.2164
 9335SOL    HW139659   0.466   7.442   7.051 -0.3721  0.8042 -0.3746
 9335SOL    HW239660   0.535   7.536   7.165 -0.9779  0.9029 -0.0877
 9336SOL     OW39661   3.388   4.958   7.938 -0.0345  0.5783  0.7657
 9336SOL    HW139662   3.316   5.007   7.890 -0.9762 -1.0395  0.4622
 9336SOL    HW239663   3.348   4.907   8.015  0.8295 -0.0333  0.8234
 9337SOL     OW39664   9.032   2.300   3.547  0.3365  0.4088 -0.0551
 9337SOL    HW139665   9.023   2.348   3.459 -0.7574  0.6566  0.1928
 9337SOL    HW239666   9.096   2.351   3.605 -0.0879  1.0634 -0.1509
 9338SOL     OW39667   9.753   1.728   3.572 -0.1663  0.3136 -0.1322
 9338SOL    HW139668   9.736   1.698   3.478  0.3126  1.6326 -0.6432
 9338SOL    HW239669   9.850   1.746   3.584  0.0935 -1.8161  1.2131
 9339SOL     OW39670   9.280   2.534   6.825 -0.1755  0.2798 -0.1679
 9339SOL    HW139671   9.251   2.528   6.729  0.5133  2.0427 -0.5153
 9339SOL    HW239672   9.327   2.449   6.851  0.0349 -0.0342 -1.5367
 9340SOL     OW39673   5.310   0.691   3.341 -0.4275  0.1470 -0.3814
 9340SOL    HW139674   5.220   0.647   3.341  0.0394 -0.8283 -0.2414
 9340SOL    HW239675   5.333   0.720   3.434  0.0287 -0.9167 -0.1591
 9341SOL     OW39676   1.811   8.802   7.106 -0.0673  0.2666 -0.1893
 9341SOL    HW139677   1.807   8.890   7.153 -2.1461  0.4288 -0.6041
 9341SOL    HW239678   1.760   8.734   7.159 -1.2999  0.1322 -1.5095
 9342SOL     OW39679   6.162   1.645   4.938 -0.0698 -0.4199  1.0905
 9342SOL    HW139680   6.201   1.699   4.863 -0.0421 -0.9510  0.7216
 9342SOL    HW239681   6.155   1.549   4.910 -0.3865 -0.5588  1.6412
 9343SOL     OW39682   1.662   1.771   4.088  1.3094  0.5195  0.1469
 9343SOL    HW139683   1.632   1.772   3.993 -0.4916  0.6556  0.6816
 9343SOL    HW239684   1.750   1.817   4.096  2.0968 -0.6160 -1.6302
 9344SOL     OW39685   7.930   2.010   1.949  0.2064  0.1843 -0.2496
 9344SOL    HW139686   7.866   2.035   2.022  0.2379  0.0586 -0.1786
 9344SOL    HW239687   8.020   2.048   1.970 -0.2901  2.0018 -1.3089
 9345SOL     OW39688   0.376   7.272   3.600  0.2466  0.5607  0.4356
 9345SOL    HW139689   0.422   7.287   3.688 -0.2002  1.2212  0.5573
 9345SOL    HW239690   0.409   7.339   3.534  0.2004  0.3915  0.2429
 9346SOL     OW39691   9.743   9.336   2.679  0.2511 -0.9248 -0.5222
 9346SOL    HW139692   9.814   9.268   2.660  2.3461  1.0827 -0.0801
 9346SOL    HW239693   9.707   9.372   2.592  1.9203  0.1967 -0.7739
 9347SOL     OW39694   3.984   0.421   4.938  0.3259  0.3725 -0.3723
 9347SOL    HW139695   3.956   0.328   4.913  2.5131 -0.9897  2.0252
 9347SOL    HW239696   4.083   0.429   4.931  0.3314  1.9964  1.1102
 9348SOL     OW39697   7.152   9.016   5.211  0.5247 -0.4269  0.1852
 9348SOL    HW139698   7.163   9.073   5.292  1.8532 -0.5821  0.1377
 9348SOL    HW239699   7.219   8.941   5.215  0.7053 -0.3473 -1.1173
 9349SOL     OW39700   1.641   6.644   0.601  0.0421 -0.2196  0.2942
 9349SOL    HW139701   1.560   6.601   0.639 -0.4627 -0.6376 -1.2234
 9349SOL    HW239702   1.718   6.581   0.606  0.3397  0.2388  1.8895
 9350SOL     OW39703   9.219   2.102   2.800 -0.7011 -0.6597 -0.6202
 9350SOL    HW139704   9.283   2.036   2.762 -0.1049  0.0689 -0.9031
 9350SOL    HW239705   9.132   2.057   2.821 -0.7392 -1.2486 -2.0301
 9351SOL     OW39706   1.468   4.726   7.272  0.8272  0.2356 -0.2791
 9351SOL    HW139707   1.466   4.640   7.323 -0.5787  0.0637 -0.5903
 9351SOL    HW239708   1.484   4.802   7.335  0.2899 -0.0887  0.2539
 9352SOL     OW39709   8.931   5.905   5.499  0.6833 -0.0581  0.1075
 9352SOL    HW139710   8.974   5.821   5.464 -1.2140 -0.1883 -2.0552
 9352SOL    HW239711   8.842   5.883   5.539  0.4909  0.8192  0.1794
 9353SOL     OW39712   3.147   3.314   6.658 -0.3084 -0.0907 -0.1680
 9353SOL    HW139713   3.129   3.311   6.560 -0.6115 -1.0766 -0.0822
 9353SOL    HW239714   3.065   3.347   6.706 -1.3389 -2.8124  0.0496
 9354SOL     OW39715   7.631   7.345   6.633 -0.2513  0.2674  0.3148
 9354SOL    HW139716   7.562   7.388   6.574  0.6545  0.3761 -0.6794
 9354SOL    HW239717   7.681   7.416   6.683  0.3073  0.2992 -0.2805
 9355SOL     OW39718   0.238   9.350   7.691  0.3712 -0.1263 -0.1617
 9355SOL    HW139719   0.277   9.373   7.603  2.4051  1.7060  1.1828
 9355SOL    HW239720   0.268   9.258   7.718  1.3690  0.1058 -0.4643
 9356SOL     OW39721   9.124   8.148   0.841 -0.1997  0.0005 -0.7185
 9356SOL    HW139722   9.116   8.203   0.924  1.3583  2.1621 -1.9381
 9356SOL    HW239723   9.220   8.124   0.826 -0.3255  0.4662 -2.3813
 9357SOL     OW39724   5.806   2.272   4.391  0.3159 -0.3661 -0.0729
 9357SOL    HW139725   5.881   2.215   4.424 -0.9184 -1.4269  0.9397
 9357SOL    HW239726   5.721   2.219   4.390 -0.7166  1.2333  0.2199
 9358SOL     OW39727   6.775   0.473   4.581 -0.5489  0.0505  0.0919
 9358SOL    HW139728   6.743   0.444   4.671  0.2326 -1.1185  0.0024
 9358SOL    HW239729   6.729   0.419   4.510  1.8182 -1.9336 -0.0264
 9359SOL     OW39730   1.257   1.057   3.816  0.2701 -0.4745  0.7912
 9359SOL    HW139731   1.218   1.119   3.884 -1.6047 -1.6306  0.7944
 9359SOL    HW239732   1.357   1.068   3.814  0.0112  2.1639  1.1235
 9360SOL     OW39733   7.826   1.463   1.652  0.7403  1.1914  0.7326
 9360SOL    HW139734   7.822   1.559   1.622  0.4280  0.7961 -0.5133
 9360SOL    HW239735   7.779   1.405   1.585  2.6779 -0.0846  0.4324
 9361SOL     OW39736   2.237   0.348   5.032  0.1552 -0.5993 -0.0895
 9361SOL    HW139737   2.294   0.382   4.957 -2.4030 -1.0659 -2.3247
 9361SOL    HW239738   2.249   0.249   5.041 -0.2332 -0.6895 -0.5268
 9362SOL     OW39739   1.137   5.856   3.084 -0.1549  0.1557 -0.3856
 9362SOL    HW139740   1.169   5.799   3.009 -2.4543 -1.8266  0.0568
 9362SOL    HW239741   1.042   5.883   3.067 -0.5367  0.1103  1.5598
 9363SOL     OW39742   4.069   3.516   1.146 -0.5545  0.1454 -0.0662
 9363SOL    HW139743   4.163   3.486   1.130 -0.7723 -2.0875  2.5177
 9363SOL    HW239744   4.070   3.605   1.193  0.3528 -0.8363  1.8273
 9364SOL     OW39745   7.341   5.849   7.683  0.0309 -0.0593  0.4655
 9364SOL    HW139746   7.399   5.911   7.631  0.7014  0.4299  1.7629
 9364SOL    HW239747   7.314   5.772   7.626 -0.2174  1.0680 -0.9462
 9365SOL     OW39748   8.221   2.805   6.726  0.4942 -0.6026 -0.4494
 9365SOL    HW139749   8.178   2.889   6.691  0.4287 -1.1338 -1.6869
 9365SOL    HW239750   8.307   2.789   6.676  1.1478 -0.5949  0.6636
 9366SOL     OW39751   0.683   0.262   3.921  0.0210  0.3387 -0.3255
 9366SOL    HW139752   0.600   0.304   3.957 -0.4047 -1.1663  0.4989
 9366SOL    HW239753   0.699   0.293   3.828 -1.7651  0.2095 -0.6862
 9367SOL     OW39754   0.998   3.927   5.907  0.6977 -0.3358 -0.0851
 9367SOL    HW139755   1.056   3.870   5.965  1.3258 -2.5776 -2.8167
 9367SOL    HW239756   1.056   3.982   5.847  0.0433  1.6794  1.0682
 9368SOL     OW39757   3.626   7.273   3.743 -0.0757  0.7315  0.0559
 9368SOL    HW139758   3.643   7.363   3.783 -0.1746  0.2984  1.1165
 9368SOL    HW239759   3.532   7.269   3.710 -0.4788  0.6028  1.1848
 9369SOL     OW39760   3.975   8.815   0.492 -0.9343 -0.1900 -0.0907
 9369SOL    HW139761   4.055   8.771   0.534 -1.6700 -1.1251  0.3549
 9369SOL    HW239762   4.005   8.889   0.432  0.3190 -1.1615 -0.6743
 9370SOL     OW39763   0.945   1.689   5.264  0.0150  0.4448  0.1577
 9370SOL    HW139764   0.971   1.599   5.298  0.7132  0.0164 -1.4247
 9370SOL    HW239765   0.874   1.679   5.194  2.2473  0.8213 -2.2322
 9371SOL     OW39766   2.704   9.258   6.190  0.3070  0.1712 -0.1166
 9371SOL    HW139767   2.688   9.356   6.186  1.8641  0.4037 -0.7553
 9371SOL    HW239768   2.775   9.238   6.257  0.3940 -0.4747 -0.3948
 9372SOL     OW39769   4.333   9.008   5.757 -0.4276  0.3728 -0.3279
 9372SOL    HW139770   4.284   9.063   5.690  1.4262 -0.1902 -2.1807
 9372SOL    HW239771   4.279   8.926   5.778 -1.1682  0.7136 -0.8717
 9373SOL     OW39772   5.822   3.037   0.660  0.0124  0.1223  0.3533
 9373SOL    HW139773   5.849   2.965   0.596 -0.9987  0.0080  0.0437
 9373SOL    HW239774   5.897   3.056   0.723  1.2750  0.7748 -1.3385
 9374SOL     OW39775   0.855   4.760   3.488 -0.0060 -0.1166 -0.1087
 9374SOL    HW139776   0.844   4.850   3.444  0.6070  0.5049  0.9982
 9374SOL    HW239777   0.951   4.745   3.511  0.0533 -1.4989 -1.1959
 9375SOL     OW39778   8.370   1.069   1.055  0.1269  0.1405 -0.8248
 9375SOL    HW139779   8.465   1.071   1.086 -0.3346  0.7836  0.5581
 9375SOL    HW239780   8.352   1.149   0.998  0.0640  0.6804 -0.0443
 9376SOL     OW39781   0.474   9.365   6.569 -0.1947  0.1777  0.0168
 9376SOL    HW139782   0.528   9.345   6.651 -1.5724  2.6252  1.5554
 9376SOL    HW239783   0.522   9.434   6.514 -1.0181  1.2593  0.6402
 9377SOL     OW39784   9.013   8.804   6.411 -0.4109 -0.8090 -0.1494
 9377SOL    HW139785   9.022   8.857   6.495  0.5283 -1.6436  0.2881
 9377SOL    HW239786   9.101   8.761   6.389  0.1267  1.6683 -3.0948
 9378SOL     OW39787   4.010   4.230   6.903 -0.0712 -0.0898  0.3955
 9378SOL    HW139788   4.000   4.223   6.804 -0.6059 -0.1068  0.4461
 9378SOL    HW239789   3.968   4.316   6.935 -0.3828 -0.3366  0.6653
 9379SOL     OW39790   6.878   0.289   7.278  0.1810  0.0154  0.1078
 9379SOL    HW139791   6.946   0.257   7.344  0.7785  1.0129 -0.0133
 9379SOL    HW239792   6.868   0.388   7.285  1.1781  0.3020 -2.1636
 9380SOL     OW39793   9.227   4.890   6.441  0.2693 -0.5284 -0.0818
 9380SOL    HW139794   9.159   4.955   6.406  0.5723  0.4340  1.0708
 9380SOL    HW239795   9.314   4.938   6.456  0.1815 -0.9397  1.8257
 9381SOL     OW39796   2.396   2.418   2.290  0.5722  0.5368 -0.5165
 9381SOL    HW139797   2.421   2.327   2.323 -0.0283 -0.4458 -2.6564
 9381SOL    HW239798   2.320   2.410   2.225  1.1995  2.4569 -1.5217
 9382SOL     OW39799   8.710   6.733   0.317  0.5812  0.3026  0.1616
 9382SOL    HW139800   8.645   6.662   0.292  0.2866  0.5753  0.1542
 9382SOL    HW239801   8.802   6.704   0.292  0.6160 -0.6410  1.3711
 9383SOL     OW39802   9.343   7.502   3.470 -0.0335 -0.5554 -0.2847
 9383SOL    HW139803   9.426   7.529   3.422 -0.2885 -1.0108 -0.9823
 9383SOL    HW239804   9.321   7.407   3.448  0.5527 -1.1827  1.7298
 9384SOL     OW39805   9.374   6.349   6.018  0.2207 -0.0218  0.0077
 9384SOL    HW139806   9.428   6.421   6.063  0.7795 -1.5231  1.7765
 9384SOL    HW239807   9.352   6.378   5.924 -0.1787  2.7637  0.9170
 9385SOL     OW39808   9.540   8.741   3.750  0.1484 -0.3390 -0.1653
 9385SOL    HW139809   9.465   8.676   3.739  0.2914 -0.5731  0.2052
 9385SOL    HW239810   9.602   8.708   3.821 -0.2155  0.5986  0.6177
 9386SOL     OW39811   1.012   8.504   3.985 -0.5233 -0.2378 -0.4490
 9386SOL    HW139812   1.066   8.431   4.026  0.2523  0.0162 -1.0037
 9386SOL    HW239813   1.054   8.592   4.005 -1.1737  0.0189 -0.2098
 9387SOL     OW39814   0.506   9.623   0.338 -0.0364 -0.1059  0.6715
 9387SOL    HW139815   0.457   9.709   0.352 -1.5337 -1.0890  1.6343
 9387SOL    HW239816   0.443   9.546   0.351  1.1665 -1.3425 -0.6646
 9388SOL     OW39817   1.686   8.186   4.022  0.2515 -0.7121 -0.6118
 9388SOL    HW139818   1.693   8.113   3.954 -2.0617 -0.4368 -1.1645
 9388SOL    HW239819   1.606   8.171   4.080 -1.3698  2.3800 -1.9344
 9389SOL     OW39820   5.290   7.586   2.776  0.2615  0.3405 -0.1173
 9389SOL    HW139821   5.328   7.605   2.866  0.6769 -0.0077 -0.2230
 9389SOL    HW239822   5.243   7.498   2.778  0.0386  0.4583 -0.1691
 9390SOL     OW39823   9.411   8.935   3.904 -0.1820  0.4034  0.4313
 9390SOL    HW139824   9.433   8.852   3.852  0.3733  0.0224  1.2441
 9390SOL    HW239825   9.316   8.932   3.933 -0.3325  0.3413 -0.0657
 9391SOL     OW39826   2.537   5.159   6.411 -0.2273 -0.5587 -0.1411
 9391SOL    HW139827   2.549   5.063   6.433  0.3366 -0.6978 -1.0269
 9391SOL    HW239828   2.557   5.174   6.314  3.0039  1.0136  0.7022
 9392SOL     OW39829   1.610   6.630   5.173 -0.6694 -0.5597 -0.6577
 9392SOL    HW139830   1.640   6.552   5.229 -0.2757 -0.4672 -0.7390
 9392SOL    HW239831   1.535   6.601   5.113 -1.2116 -0.6164  0.0363
 9393SOL     OW39832   3.856   4.068   1.529  0.4810 -0.1267  0.3094
 9393SOL    HW139833   3.950   4.053   1.499  0.3295  1.8121 -1.2574
 9393SOL    HW239834   3.794   4.020   1.468  0.3766 -0.2263  0.4922
 9394SOL     OW39835   3.573   9.327   2.604  0.5683  0.3144 -0.4714
 9394SOL    HW139836   3.567   9.318   2.505 -0.0171 -0.0264 -0.4087
 9394SOL    HW239837   3.555   9.239   2.648  0.8692  0.4502 -0.0628
 9395SOL     OW39838   8.703   9.339   1.356 -0.7170  0.5334  0.0107
 9395SOL    HW139839   8.713   9.285   1.272  1.1132 -0.5714  0.9003
 9395SOL    HW239840   8.627   9.303   1.410 -0.6245 -0.0375 -0.2353
 9396SOL     OW39841   3.813   8.090   6.503 -0.2102 -0.1434 -0.4347
 9396SOL    HW139842   3.788   8.129   6.415 -0.2965  0.7601 -0.0089
 9396SOL    HW239843   3.912   8.076   6.507 -0.1830  0.0188 -0.5858
 9397SOL     OW39844   0.258   3.971   1.253  0.3284 -0.1028  0.4262
 9397SOL    HW139845   0.204   3.892   1.282  0.3469  0.5405  2.2463
 9397SOL    HW239846   0.352   3.962   1.287  1.1202 -0.6937 -1.8210
 9398SOL     OW39847   4.527   1.504   6.303 -0.0480  0.5072 -0.1166
 9398SOL    HW139848   4.560   1.589   6.262  2.2416  0.2487  1.0564
 9398SOL    HW239849   4.495   1.522   6.396 -2.7668  0.6408 -1.0374
 9399SOL     OW39850   7.531   1.928   1.275  0.6683 -0.0111  0.1456
 9399SOL    HW139851   7.489   2.013   1.243 -0.9674 -0.9342 -0.2422
 9399SOL    HW239852   7.569   1.878   1.197  1.0966  0.0806  0.2951
 9400SOL     OW39853   8.691   5.822   5.576  0.2524 -0.1010 -0.1355
 9400SOL    HW139854   8.601   5.845   5.611 -1.3425  0.2174 -4.1197
 9400SOL    HW239855   8.709   5.725   5.593 -0.9702 -0.2405  0.4486
 9401SOL     OW39856   5.321   2.752   0.208  0.4388  0.5574 -0.1473
 9401SOL    HW139857   5.223   2.751   0.188  0.0908 -2.4406  1.3206
 9401SOL    HW239858   5.337   2.786   0.300  0.4665 -1.7472  0.7328
 9402SOL     OW39859   2.331   1.224   7.999  0.1926  0.6374 -0.2767
 9402SOL    HW139860   2.418   1.211   8.047 -0.1168  0.2009  0.1728
 9402SOL    HW239861   2.263   1.258   8.064 -0.1187  0.4537 -0.5074
 9403SOL     OW39862   3.938   6.649   2.271 -0.4292 -0.2207 -0.2642
 9403SOL    HW139863   3.856   6.609   2.311  0.7944 -2.8316 -0.2770
 9403SOL    HW239864   3.938   6.748   2.287 -2.8970 -0.3687  0.8860
 9404SOL     OW39865   9.367   7.455   5.707 -0.3283  0.0643  0.1364
 9404SOL    HW139866   9.302   7.454   5.783  2.0715 -1.6346  2.2550
 9404SOL    HW239867   9.344   7.382   5.643 -1.9032  1.0140 -0.4265
 9405SOL     OW39868   2.718   2.674   7.764 -0.7989 -0.0562 -0.4023
 9405SOL    HW139869   2.786   2.747   7.753  0.7953 -1.6577 -1.3126
 9405SOL    HW239870   2.726   2.608   7.690 -1.5547 -1.7145  0.9439
 9406SOL     OW39871   6.804   2.144   1.584 -0.5477 -0.4720 -0.1636
 9406SOL    HW139872   6.784   2.073   1.517  1.3082  0.0246 -1.3135
 9406SOL    HW239873   6.835   2.102   1.670 -0.5887 -1.0802 -0.4453
 9407SOL     OW39874   4.251   8.133   2.842  0.0865 -0.5817 -0.2556
 9407SOL    HW139875   4.270   8.057   2.779  0.5538  0.3412 -1.2484
 9407SOL    HW239876   4.234   8.216   2.789 -0.4653  0.0001  0.8233
 9408SOL     OW39877   2.706   1.061   0.869 -0.1213 -0.4642 -0.4519
 9408SOL    HW139878   2.674   1.079   0.776 -1.2216  0.6070  0.1124
 9408SOL    HW239879   2.628   1.065   0.932  0.7259 -0.4582  0.6120
 9409SOL     OW39880   4.773   0.938   1.054  0.2860 -0.3008  0.0141
 9409SOL    HW139881   4.714   0.994   1.113  0.6282 -0.6881  0.7267
 9409SOL    HW239882   4.784   0.847   1.095  0.2587 -0.6829 -0.8165
 9410SOL     OW39883   2.067   8.579   2.576 -0.3077  0.3706  0.2196
 9410SOL    HW139884   2.070   8.575   2.676  1.1735  0.8406  0.2091
 9410SOL    HW239885   1.994   8.641   2.547  1.3702  2.8758  1.1116
 9411SOL     OW39886   2.072   5.271   1.864 -0.2367 -0.1387 -0.0149
 9411SOL    HW139887   2.100   5.207   1.793  0.3898 -0.8664  0.8753
 9411SOL    HW239888   1.972   5.271   1.871 -0.3313  0.3898 -1.2974
 9412SOL     OW39889   8.440   8.659   4.494 -0.5160 -0.6414  0.3887
 9412SOL    HW139890   8.469   8.689   4.403 -2.2627 -4.0215 -1.3692
 9412SOL    HW239891   8.341   8.670   4.502 -0.5525 -1.6167  1.3830
 9413SOL     OW39892   2.997   4.798   2.854  0.3950  0.0999  0.5933
 9413SOL    HW139893   2.917   4.858   2.863 -0.8019 -1.2015 -0.9514
 9413SOL    HW239894   3.027   4.768   2.944 -0.5229  1.0532  1.2259
 9414SOL     OW39895   8.600   7.590   3.660 -0.2147 -0.1879  0.0110
 9414SOL    HW139896   8.561   7.503   3.690 -0.9029 -0.2012 -0.9090
 9414SOL    HW239897   8.536   7.636   3.599  0.7590  0.3023 -0.6511
 9415SOL     OW39898   5.957   0.662   2.481 -0.1892  0.3250 -0.0772
 9415SOL    HW139899   6.008   0.748   2.488 -0.7306  0.7754 -1.4912
 9415SOL    HW239900   5.898   0.652   2.561  1.0679  0.4730  0.8903
 9416SOL     OW39901   3.970   5.234   2.365  0.3428 -0.3263  0.3447
 9416SOL    HW139902   3.952   5.273   2.275 -1.0246  0.5484  0.9924
 9416SOL    HW239903   3.945   5.300   2.436  0.2702 -1.4696  1.3950
 9417SOL     OW39904   0.214   5.306   0.364  0.0293  0.1989  0.3292
 9417SOL    HW139905   0.303   5.273   0.397  0.2367 -1.4142 -1.7465
 9417SOL    HW239906   0.150   5.230   0.359 -0.4555  0.7056 -1.4480
 9418SOL     OW39907   8.570   4.156   5.044 -0.5516 -0.0900  0.0295
 9418SOL    HW139908   8.591   4.095   4.968 -0.2981 -1.6242  1.3076
 9418SOL    HW239909   8.539   4.244   5.008 -0.4549 -0.7901 -1.8387
 9419SOL     OW39910   0.946   8.354   5.680 -0.5109  0.2566 -0.1822
 9419SOL    HW139911   0.848   8.338   5.671 -0.5237  0.1203  0.2003
 9419SOL    HW239912   0.996   8.272   5.653 -0.5643 -0.3087  1.4240
 9420SOL     OW39913   0.637   3.052   4.159 -0.1861 -0.0323  0.6877
 9420SOL    HW139914   0.699   2.989   4.205  0.4954 -0.7755 -1.1807
 9420SOL    HW239915   0.601   3.118   4.225 -0.6914 -2.1847  2.6353
 9421SOL     OW39916   5.828   2.440   5.294  0.4750 -0.2787  0.3398
 9421SOL    HW139917   5.747   2.440   5.237  1.1768  0.2242 -0.6725
 9421SOL    HW239918   5.802   2.432   5.390 -0.7941  0.4296  0.0554
 9422SOL     OW39919   1.904   4.087   4.367  0.3534 -0.6287 -0.4950
 9422SOL    HW139920   1.924   4.143   4.448 -1.3826 -0.6333 -0.0265
 9422SOL    HW239921   1.850   4.142   4.302 -0.2185 -1.3309 -0.6201
 9423SOL     OW39922   8.405   8.556   1.202  0.2339  0.3282 -0.1926
 9423SOL    HW139923   8.467   8.627   1.236 -0.6270  0.5508  0.9375
 9423SOL    HW239924   8.453   8.499   1.136  2.2035 -0.5918  1.9558
 9424SOL     OW39925   4.880   1.108   4.392  0.2851  0.0178  0.5245
 9424SOL    HW139926   4.921   1.140   4.307  1.6143 -1.1222  0.7103
 9424SOL    HW239927   4.888   1.008   4.397 -2.5885 -0.2537  0.5443
 9425SOL     OW39928   8.944   7.373   1.967  0.2586 -0.4212 -0.7028
 9425SOL    HW139929   8.936   7.336   1.875  1.3669 -0.4253 -0.8052
 9425SOL    HW239930   8.934   7.473   1.963  0.3887 -0.4135 -0.8315
 9426SOL     OW39931   0.892   9.926   6.314 -0.2411  0.4939  0.0631
 9426SOL    HW139932   0.929   9.845   6.269 -1.2250 -0.0855  0.2873
 9426SOL    HW239933   0.898  10.004   6.252  1.7775  0.5253  0.2587
 9427SOL     OW39934   4.351   0.657   2.437 -0.0070 -0.2268  0.1830
 9427SOL    HW139935   4.335   0.560   2.419  0.4310 -0.4670  1.0832
 9427SOL    HW239936   4.297   0.712   2.373 -1.9717 -1.0330  1.0994
 9428SOL     OW39937   4.977   6.209   1.133  0.1647  0.1631 -0.3356
 9428SOL    HW139938   4.945   6.267   1.058  1.2501  1.9246  0.5255
 9428SOL    HW239939   4.912   6.213   1.208 -0.2027 -0.4578 -0.6154
 9429SOL     OW39940   1.756   5.646   5.179  0.0865 -0.1786  0.1419
 9429SOL    HW139941   1.711   5.681   5.097  1.2510 -0.0665 -0.4585
 9429SOL    HW239942   1.720   5.555   5.201  0.2445 -0.4843 -0.8640
 9430SOL     OW39943   4.384   7.820   6.332  0.6843  0.1893 -0.3592
 9430SOL    HW139944   4.483   7.809   6.331  0.6356 -0.4155  0.8300
 9430SOL    HW239945   4.344   7.760   6.401 -0.4563  0.8710 -0.4059
 9431SOL     OW39946   9.720   2.351   3.540 -0.0107  0.7063  0.0864
 9431SOL    HW139947   9.777   2.269   3.547 -0.2961  0.5737  0.8700
 9431SOL    HW239948   9.672   2.350   3.452 -0.1858 -0.0734  0.1853
 9432SOL     OW39949   7.633   4.721   6.137 -0.1582  0.5783 -0.2468
 9432SOL    HW139950   7.646   4.670   6.222  0.7945  2.1992  0.5981
 9432SOL    HW239951   7.592   4.660   6.068 -2.6603 -0.2685  1.8862
 9433SOL     OW39952   6.542   8.885   4.154  0.5841 -0.3993  0.0295
 9433SOL    HW139953   6.567   8.889   4.057 -0.2896  2.3896 -0.1163
 9433SOL    HW239954   6.444   8.904   4.164  0.8524  0.2629  1.5211
 9434SOL     OW39955   3.137   6.474   1.426 -0.1573 -0.1715 -0.4784
 9434SOL    HW139956   3.137   6.547   1.357 -1.4285  0.6313  0.3615
 9434SOL    HW239957   3.150   6.386   1.380  0.1870  0.4583 -1.6288
 9435SOL     OW39958   2.303   9.270   2.476 -0.3053 -0.0528 -0.0480
 9435SOL    HW139959   2.352   9.310   2.399  2.6630 -1.4517  1.0002
 9435SOL    HW239960   2.247   9.339   2.521  0.3627  1.5102 -1.5959
 9436SOL     OW39961   2.549   4.823   1.525  0.1152 -0.7002 -0.7590
 9436SOL    HW139962   2.452   4.800   1.532 -0.0677  0.2038 -0.1077
 9436SOL    HW239963   2.566   4.868   1.438 -0.1426 -0.4510 -0.6826
 9437SOL     OW39964   3.376   1.541   1.162 -0.3443  0.0321 -0.2682
 9437SOL    HW139965   3.419   1.594   1.089 -1.4872  0.2525 -0.8108
 9437SOL    HW239966   3.405   1.446   1.156  0.5290  0.2935 -0.2436
 9438SOL     OW39967   3.619   8.245   5.399  0.7064 -0.0329 -0.2617
 9438SOL    HW139968   3.614   8.262   5.498 -0.0947  2.0958 -0.6373
 9438SOL    HW239969   3.649   8.151   5.383  1.3513 -0.2531  2.0050
 9439SOL     OW39970   8.964   9.536   4.940 -0.1892 -0.7463  0.0328
 9439SOL    HW139971   8.972   9.458   4.879  0.2898 -1.9164  1.5536
 9439SOL    HW239972   9.054   9.559   4.978 -0.7062 -1.0627  1.5140
 9440SOL     OW39973   3.791   6.713   3.500  0.3995 -0.1251 -0.2119
 9440SOL    HW139974   3.780   6.750   3.592  0.5792 -0.6077  0.0048
 9440SOL    HW239975   3.719   6.646   3.482  0.5097 -0.2136 -0.3302
 9441SOL     OW39976   1.661   2.318   6.393 -0.2565  0.0731 -0.9359
 9441SOL    HW139977   1.604   2.393   6.360  1.4069  0.6631 -2.6054
 9441SOL    HW239978   1.751   2.353   6.417  0.2894 -1.2550 -0.9826
 9442SOL     OW39979   7.733   7.838   4.910  0.2516  0.4040 -0.3359
 9442SOL    HW139980   7.722   7.880   4.820 -2.5739  0.9444  0.2110
 9442SOL    HW239981   7.644   7.811   4.945  1.3800 -0.3343  2.0601
 9443SOL     OW39982   3.814   1.762   4.174  0.3478 -0.1428 -0.0488
 9443SOL    HW139983   3.778   1.782   4.083  1.0138  0.4052 -0.1936
 9443SOL    HW239984   3.745   1.786   4.243  0.5190  1.1256 -0.3094
 9444SOL     OW39985   9.524   9.169   2.782 -0.4645  0.1569  0.2414
 9444SOL    HW139986   9.621   9.171   2.757 -0.5358  0.2359 -0.0296
 9444SOL    HW239987   9.516   9.154   2.881 -0.1903 -1.0439  0.0918
 9445SOL     OW39988   2.447   2.765   6.681  0.2620  0.4534  0.0975
 9445SOL    HW139989   2.425   2.753   6.778 -0.6229  0.6024 -0.0819
 9445SOL    HW239990   2.466   2.862   6.664  0.9718  0.3375  0.2376
 9446SOL     OW39991   4.776   7.287   2.601  0.2324 -0.0150 -0.3275
 9446SOL    HW139992   4.862   7.252   2.564 -0.9585  0.2462 -3.5181
 9446SOL    HW239993   4.780   7.387   2.604 -0.3112  0.0514 -1.4732
 9447SOL     OW39994   0.477   5.532   5.573 -0.2485 -0.2692  0.0673
 9447SOL    HW139995   0.574   5.521   5.594 -0.1319 -0.6711 -0.6452
 9447SOL    HW239996   0.432   5.580   5.648  0.6598  0.6655  0.0299
 9448SOL     OW39997   3.290   3.472   3.225 -0.1026  0.1907  0.5982
 9448SOL    HW139998   3.224   3.463   3.151  0.3382 -1.1335  0.3496
 9448SOL    HW239999   3.312   3.569   3.239 -1.2899  0.5566 -0.0141
 9449SOL     OW40000   5.347   7.560   4.102 -0.2482 -0.2058 -0.2586
 9449SOL    HW140001   5.298   7.483   4.142 -0.1842  0.4214  1.0711
 9449SOL    HW240002   5.433   7.528   4.061  0.2901 -0.7039  1.2123
 9450SOL     OW40003   8.673   6.167   2.222  0.2660 -0.5965  0.5907
 9450SOL    HW140004   8.665   6.079   2.270  0.1052 -0.6162  0.5310
 9450SOL    HW240005   8.601   6.173   2.152 -0.1392 -0.1309  1.0470
 9451SOL     OW40006   1.275   8.585   6.747 -0.4559 -0.3125 -0.4003
 9451SOL    HW140007   1.269   8.590   6.648  0.8693  1.3600 -0.4255
 9451SOL    HW240008   1.205   8.522   6.782 -1.7116  0.0001 -2.2828
 9452SOL     OW40009   9.544   9.611   1.676 -0.1381 -0.2539  0.3389
 9452SOL    HW140010   9.533   9.617   1.576  0.7839 -2.0961  0.1087
 9452SOL    HW240011   9.510   9.523   1.708 -0.1505  0.2098  1.6308
 9453SOL     OW40012   1.235   5.224   2.641 -0.2445 -0.1329  0.4191
 9453SOL    HW140013   1.136   5.209   2.639 -0.2623 -0.1192  0.9402
 9453SOL    HW240014   1.256   5.314   2.602 -0.6002  0.5840  1.8339
 9454SOL     OW40015   5.245   2.516   4.283 -0.0960  0.1616  0.0365
 9454SOL    HW140016   5.335   2.559   4.271  0.3311 -0.5490  0.6282
 9454SOL    HW240017   5.220   2.469   4.199  0.7972 -0.9294  0.3560
 9455SOL     OW40018   2.768   2.283   6.025 -0.5887 -0.8974  0.3457
 9455SOL    HW140019   2.678   2.327   6.024 -0.3521 -0.4192 -0.5831
 9455SOL    HW240020   2.783   2.238   5.937 -0.0254 -1.2065  0.6011
 9456SOL     OW40021   1.528   0.017   3.265 -0.0381  0.3269  0.2416
 9456SOL    HW140022   1.540   0.016   3.166 -1.4786  0.7518  0.0455
 9456SOL    HW240023   1.588   0.085   3.306  2.0557 -1.2520 -0.1087
 9457SOL     OW40024   7.140   1.400   5.081 -0.1375 -0.5158  0.0429
 9457SOL    HW140025   7.214   1.360   5.026 -0.2445 -0.4307 -0.1630
 9457SOL    HW240026   7.104   1.330   5.143  1.8354  0.1442  1.9676
 9458SOL     OW40027   1.169   4.640   6.188 -0.5549 -0.3955  0.2967
 9458SOL    HW140028   1.084   4.615   6.141 -0.9492  0.6988  0.4080
 9458SOL    HW240029   1.175   4.739   6.194 -0.2877 -0.5151  2.1859
 9459SOL     OW40030   6.849   0.493   0.829  0.0272  0.2374  0.5333
 9459SOL    HW140031   6.775   0.482   0.764  0.7237  1.0702 -0.4128
 9459SOL    HW240032   6.936   0.470   0.786  0.8131  3.3389  0.3060
 9460SOL     OW40033   2.329   5.789   3.605  0.3302 -0.4616 -0.2969
 9460SOL    HW140034   2.309   5.741   3.520 -2.4494 -0.3578  0.2732
 9460SOL    HW240035   2.310   5.887   3.592  0.8094 -0.3044  0.1820
 9461SOL     OW40036   7.844   4.668   2.822 -0.4873  0.3873 -0.6883
 9461SOL    HW140037   7.929   4.665   2.769  1.9421 -0.5066  3.0820
 9461SOL    HW240038   7.817   4.575   2.846 -2.8669  0.6257 -2.2216
 9462SOL     OW40039   2.754   9.877   5.375 -0.0920  0.0873 -0.7108
 9462SOL    HW140040   2.758   9.953   5.440  0.1658  0.3078 -0.9805
 9462SOL    HW240041   2.668   9.881   5.324 -0.4402 -0.2754 -0.1580
 9463SOL     OW40042   9.006   7.735   0.997  0.8232 -0.0353  0.4326
 9463SOL    HW140043   8.958   7.647   1.003  1.1968 -0.2544  0.1605
 9463SOL    HW240044   9.001   7.781   1.086  0.1871 -0.1003  0.4328
 9464SOL     OW40045   7.779   8.338   7.624 -0.1323 -0.2111 -0.1132
 9464SOL    HW140046   7.705   8.270   7.621 -0.8882  0.5843  0.3742
 9464SOL    HW240047   7.761   8.410   7.557  0.3993 -0.2128 -0.2592
 9465SOL     OW40048   3.361   9.465   4.589  0.0591  0.2844 -0.2484
 9465SOL    HW140049   3.418   9.401   4.639 -0.2313 -1.8145 -2.5382
 9465SOL    HW240050   3.272   9.423   4.569 -0.1241  1.3516 -1.8107
 9466SOL     OW40051   1.915   7.685   5.340 -0.1469 -0.5965  0.2626
 9466SOL    HW140052   1.992   7.663   5.399 -0.8500 -1.2583  0.9471
 9466SOL    HW240053   1.833   7.637   5.372 -0.9754  0.5193 -0.1286
 9467SOL     OW40054   4.110   7.435   4.579  0.0027  0.2436  0.3301
 9467SOL    HW140055   4.049   7.425   4.500  0.2927  0.5099  0.0696
 9467SOL    HW240056   4.130   7.344   4.616  0.2794  0.0745 -0.2238
 9468SOL     OW40057   3.368   8.824   2.768  0.6238 -0.3002 -0.3329
 9468SOL    HW140058   3.428   8.751   2.737  0.1051 -0.5560 -0.7599
 9468SOL    HW240059   3.394   8.853   2.859 -0.3694 -2.3741  0.6565
 9469SOL     OW40060   8.562   3.207   7.293 -0.5302  0.2216  0.7429
 9469SOL    HW140061   8.526   3.291   7.254  1.1472  0.7676  0.3597
 9469SOL    HW240062   8.598   3.225   7.385 -0.3333 -0.1055  0.7316
 9470SOL     OW40063   9.261   3.838   6.821 -0.6124  0.4353  0.6047
 9470SOL    HW140064   9.267   3.898   6.900  2.2067  2.0158 -0.7387
 9470SOL    HW240065   9.200   3.880   6.753  1.6094  2.0405 -0.4712
 9471SOL     OW40066   4.562   5.716   1.349  0.0931 -0.1596  0.2073
 9471SOL    HW140067   4.643   5.771   1.327  0.8284 -1.3874 -0.1750
 9471SOL    HW240068   4.508   5.764   1.419  1.9983 -0.0831  1.6924
 9472SOL     OW40069   6.669   3.920   1.414  0.1652 -0.3698 -0.2061
 9472SOL    HW140070   6.704   3.992   1.474  0.9807  0.1032 -1.2445
 9472SOL    HW240071   6.701   3.936   1.321 -3.6255  0.6558 -1.4232
 9473SOL     OW40072   9.583   2.665   0.977 -0.2100 -0.4333  0.0563
 9473SOL    HW140073   9.589   2.710   0.888 -2.3817 -0.5862 -0.2024
 9473SOL    HW240074   9.602   2.568   0.966 -0.5956 -0.4744 -0.2827
 9474SOL     OW40075   2.831   2.973   2.342  1.0199 -0.3261  0.8358
 9474SOL    HW140076   2.771   3.025   2.280  1.0432 -1.7195 -0.3575
 9474SOL    HW240077   2.855   2.886   2.301 -0.0740 -1.8945  3.3774
 9475SOL     OW40078   0.497   3.954   1.416 -0.4085  0.1722 -0.3172
 9475SOL    HW140079   0.515   3.895   1.338  0.9826  0.0601  0.0793
 9475SOL    HW240080   0.583   3.994   1.448 -0.9341  0.0126  1.3176
 9476SOL     OW40081   5.169   8.629   2.581 -0.4381  0.1188 -0.1888
 9476SOL    HW140082   5.258   8.627   2.536 -1.0752 -0.2052 -1.4409
 9476SOL    HW240083   5.181   8.610   2.679  1.0522  1.7664 -0.0337
 9477SOL     OW40084   8.779   3.801   2.048 -0.3957  0.1014  0.8500
 9477SOL    HW140085   8.848   3.778   1.979 -1.6884  0.5148 -0.6179
 9477SOL    HW240086   8.717   3.724   2.060 -0.2297  0.0667  1.4913
 9478SOL     OW40087   0.913   0.572   3.645 -0.3086  0.1888  0.0579
 9478SOL    HW140088   0.953   0.567   3.554 -0.0884  0.6594  0.1308
 9478SOL    HW240089   0.973   0.525   3.711 -0.4888 -0.1877 -0.0467
 9479SOL     OW40090   1.321   6.377   4.826  0.0059  0.1517 -0.5439
 9479SOL    HW140091   1.291   6.309   4.893 -0.3177 -0.6425 -1.4796
 9479SOL    HW240092   1.393   6.338   4.769 -0.4152  0.4860 -1.3050
 9480SOL     OW40093   9.716   2.662   4.222 -0.3388 -0.1678  0.4538
 9480SOL    HW140094   9.686   2.678   4.128 -0.2838  0.9303  0.6179
 9480SOL    HW240095   9.658   2.592   4.264  0.2743 -1.3857 -0.7165
 9481SOL     OW40096   9.921   9.787   3.454 -0.2051  0.5906 -0.2450
 9481SOL    HW140097   9.892   9.698   3.488 -1.0620  0.0494 -2.2770
 9481SOL    HW240098   9.997   9.776   3.390 -0.1339  1.3222 -0.2953
 9482SOL     OW40099   8.811   0.181   7.475 -0.7654  0.4545 -0.0500
 9482SOL    HW140100   8.834   0.251   7.543  0.3622  1.8464 -1.7953
 9482SOL    HW240101   8.739   0.216   7.414 -1.3132 -0.5270  0.0210
 9483SOL     OW40102   4.001   4.506   6.109  0.4768  0.1984  0.2458
 9483SOL    HW140103   3.951   4.479   6.026 -0.7494 -2.0127  1.6555
 9483SOL    HW240104   3.962   4.591   6.145  0.0284  0.3544 -0.5914
 9484SOL     OW40105   3.284   4.638   1.221 -0.1953 -0.5858  0.3554
 9484SOL    HW140106   3.313   4.713   1.161 -1.7750  0.7769  1.2415
 9484SOL    HW240107   3.200   4.664   1.269  0.8064 -1.7869  2.8845
 9485SOL     OW40108   8.562   6.089   1.161 -0.6844 -0.5134  0.0482
 9485SOL    HW140109   8.646   6.037   1.141 -0.6071  0.0587 -1.1538
 9485SOL    HW240110   8.573   6.138   1.248 -0.1101 -1.1426  0.3351
 9486SOL     OW40111   5.960   1.584   2.902 -0.3545 -0.5652  0.3904
 9486SOL    HW140112   5.900   1.646   2.954  0.7295  0.6652  0.2082
 9486SOL    HW240113   5.994   1.512   2.961 -0.4292 -0.1165  0.9816
 9487SOL     OW40114   2.310   4.001   3.356  0.3575 -0.4694  0.3869
 9487SOL    HW140115   2.328   3.923   3.416 -0.9948 -0.8784  0.2750
 9487SOL    HW240116   2.283   3.967   3.266 -1.5506  0.1171  0.7228
 9488SOL     OW40117   0.389   7.098   7.304 -0.4589  0.0458 -0.1722
 9488SOL    HW140118   0.428   7.189   7.321 -0.7791  0.0849  0.3947
 9488SOL    HW240119   0.291   7.099   7.326 -0.6066 -0.2615 -0.8078
 9489SOL     OW40120   9.853   4.757   4.019 -0.1742 -0.0218  0.3790
 9489SOL    HW140121   9.828   4.786   4.111 -1.6973 -1.9761  0.5979
 9489SOL    HW240122   9.865   4.658   4.016  2.3289  0.2800 -0.9767
 9490SOL     OW40123   0.543   6.426   2.173  0.2504  0.0586 -0.4591
 9490SOL    HW140124   0.555   6.342   2.121  0.0536 -1.0764  1.3265
 9490SOL    HW240125   0.620   6.439   2.235  0.7875  1.7317 -1.4101
 9491SOL     OW40126   1.131   7.369   1.770 -0.6689  0.1703 -0.4728
 9491SOL    HW140127   1.160   7.428   1.846 -1.4431 -1.7088  1.3532
 9491SOL    HW240128   1.209   7.315   1.738 -0.6872 -0.2035  0.0961
 9492SOL     OW40129   4.155   1.650   1.055  0.0372  0.1300 -0.2813
 9492SOL    HW140130   4.085   1.579   1.047  1.6825 -1.6601  0.6777
 9492SOL    HW240131   4.128   1.715   1.126 -0.0287 -1.3256  1.0614
 9493SOL     OW40132   1.303   2.510   7.116  0.0490 -0.3188 -0.0450
 9493SOL    HW140133   1.261   2.572   7.183 -0.8631  0.7648 -1.5937
 9493SOL    HW240134   1.390   2.476   7.152  0.9028  2.4004  0.5587
 9494SOL     OW40135   1.245   3.068   0.386  0.1530  0.4716  0.0179
 9494SOL    HW140136   1.159   3.118   0.374  0.3193  0.8781  0.4946
 9494SOL    HW240137   1.320   3.119   0.345  0.2474  0.3773  0.0716
 9495SOL     OW40138   8.606   6.698   3.800 -0.0049 -0.5799  0.4237
 9495SOL    HW140139   8.575   6.757   3.726  0.4964 -1.1069 -0.2045
 9495SOL    HW240140   8.591   6.602   3.775  0.6428 -0.7770  0.7846
 9496SOL     OW40141   7.283   7.795   4.622 -0.3262  0.1964 -0.6032
 9496SOL    HW140142   7.354   7.860   4.650 -1.6211  1.3953  0.0022
 9496SOL    HW240143   7.239   7.757   4.703 -0.1999 -0.7506 -0.9741
 9497SOL     OW40144   7.918   8.013   5.017  0.8077 -0.8746  0.4714
 9497SOL    HW140145   7.849   7.941   5.020  0.6022 -0.6812  0.4102
 9497SOL    HW240146   7.983   7.994   4.943  0.2802 -0.5669 -0.0765
 9498SOL     OW40147   7.171   9.084   4.810  0.2400  0.1113 -0.1450
 9498SOL    HW140148   7.227   9.032   4.875  2.0352  0.2123 -1.5725
 9498SOL    HW240149   7.149   9.026   4.731  0.5282  0.8877 -0.8037
 9499SOL     OW40150   4.116   4.161   0.500 -0.4155  0.1137  0.4158
 9499SOL    HW140151   4.033   4.215   0.507 -0.7198 -0.3925  0.7815
 9499SOL    HW240152   4.129   4.108   0.585 -0.6745 -1.1720 -0.3289
 9500SOL     OW40153   2.405   8.140   8.154 -0.5217 -0.3755  0.1143
 9500SOL    HW140154   2.499   8.156   8.184 -0.5779  0.9137 -0.3606
 9500SOL    HW240155   2.363   8.227   8.128 -1.6406 -1.0221 -0.2914
 9501SOL     OW40156   2.673   5.533   0.455  0.3754  0.0265  0.2426
 9501SOL    HW140157   2.643   5.438   0.448  2.5019 -0.7768  1.4402
 9501SOL    HW240158   2.689   5.570   0.363 -0.0593 -0.9182 -0.2113
 9502SOL     OW40159   1.319   0.956   7.350  0.7943  0.0126 -0.0763
 9502SOL    HW140160   1.379   0.881   7.376 -0.6612 -1.4289 -0.8069
 9502SOL    HW240161   1.298   1.011   7.432  2.6511  0.2378  0.2754
 9503SOL     OW40162   3.722   8.177   5.711 -0.2283  0.5147 -0.1213
 9503SOL    HW140163   3.695   8.084   5.735  0.3295  1.2227  3.4566
 9503SOL    HW240164   3.822   8.185   5.716 -0.3306  1.5196  0.3636
 9504SOL     OW40165   2.778   4.048   0.668  0.1268 -0.5209 -0.0433
 9504SOL    HW140166   2.699   4.053   0.729  0.0717  0.4728 -0.1818
 9504SOL    HW240167   2.803   3.953   0.653  0.0887 -0.7809  1.4690
 9505SOL     OW40168   4.647   7.381   3.080 -0.2064 -0.4230  0.3067
 9505SOL    HW140169   4.642   7.450   3.007 -3.4671 -0.5869  0.3063
 9505SOL    HW240170   4.667   7.426   3.167 -0.8665  0.3565  0.0632
 9506SOL     OW40171   1.229   6.643   4.666 -0.3542  0.0161  0.8124
 9506SOL    HW140172   1.182   6.567   4.711 -0.1444 -1.0582 -0.7203
 9506SOL    HW240173   1.326   6.641   4.691 -0.4555  0.0884  1.2008
 9507SOL     OW40174   7.209   0.595   5.846  0.0991 -0.3345 -0.4516
 9507SOL    HW140175   7.131   0.612   5.786  1.7641  2.3057 -1.9776
 9507SOL    HW240176   7.189   0.632   5.937 -0.4950  0.2807 -0.8250
 9508SOL     OW40177   4.878   2.094   4.441  0.9353  0.4819 -0.2531
 9508SOL    HW140178   4.811   2.167   4.448  1.0433  0.5797 -0.2462
 9508SOL    HW240179   4.831   2.006   4.436  0.7866  0.5821 -0.7208
 9509SOL     OW40180   2.162   1.477   5.498 -0.1976 -0.2945  0.5476
 9509SOL    HW140181   2.121   1.402   5.447  0.7936 -0.7262  0.3596
 9509SOL    HW240182   2.231   1.523   5.442 -0.8788  0.8420  0.6211
 9510SOL     OW40183   4.110   8.233   4.513 -0.4626 -0.7802 -0.0939
 9510SOL    HW140184   4.024   8.229   4.464 -1.6853 -0.8347  2.0105
 9510SOL    HW240185   4.115   8.319   4.565  0.9703 -0.5437 -0.5806
 9511SOL     OW40186   7.793   1.460   3.791  0.1028 -0.5708 -0.0994
 9511SOL    HW140187   7.745   1.374   3.774 -0.5856 -0.4937  1.3917
 9511SOL    HW240188   7.837   1.491   3.706 -1.5679 -1.1940 -1.2169
 9512SOL     OW40189   0.688   6.388   0.795  0.8207  0.0599 -0.4173
 9512SOL    HW140190   0.696   6.396   0.894  0.1995 -1.2204 -0.2454
 9512SOL    HW240191   0.779   6.372   0.756  0.9728 -0.1821  0.0265
 9513SOL     OW40192   8.847   1.521   4.222  0.6606 -0.0701 -0.2067
 9513SOL    HW140193   8.826   1.423   4.227 -0.2247  0.0866 -0.7437
 9513SOL    HW240194   8.767   1.570   4.190 -0.0103  1.2389  3.2246
 9514SOL     OW40195   6.906   1.394   1.352  0.7553 -0.4874 -0.8257
 9514SOL    HW140196   6.895   1.294   1.352 -0.1435 -0.3925 -0.2654
 9514SOL    HW240197   6.999   1.417   1.326  1.4432 -1.5284  0.6740
 9515SOL     OW40198   6.619   9.445   5.455  0.3057 -0.3909  0.1215
 9515SOL    HW140199   6.715   9.457   5.430 -0.2238 -0.1115 -1.9450
 9515SOL    HW240200   6.564   9.446   5.371 -1.6809  1.2786  1.4040
 9516SOL     OW40201   4.152   2.851   2.838 -0.0753  0.4966  0.0982
 9516SOL    HW140202   4.114   2.892   2.755  1.0921  0.7168 -0.3313
 9516SOL    HW240203   4.146   2.751   2.833 -2.2361  0.5691  0.8187
 9517SOL     OW40204   1.097   2.451   3.176  0.0152 -0.2406 -0.4517
 9517SOL    HW140205   1.176   2.412   3.129  0.1225  0.8634 -1.2049
 9517SOL    HW240206   1.129   2.510   3.251 -0.1189 -0.6781 -0.0502
 9518SOL     OW40207   1.828   5.981   0.499 -0.4611 -0.2381  0.0743
 9518SOL    HW140208   1.730   5.974   0.515 -0.5548 -0.2303 -0.4971
 9518SOL    HW240209   1.877   5.962   0.584 -0.9507 -0.4227  0.3154
 9519SOL     OW40210   4.978   9.871   6.763  0.0439  0.6911  0.1689
 9519SOL    HW140211   4.887   9.914   6.757  0.5612  1.7272 -0.3178
 9519SOL    HW240212   4.975   9.781   6.720 -0.5379  1.0853 -0.6339
 9520SOL     OW40213   3.323   1.668   6.074  0.3300  0.1016 -0.2994
 9520SOL    HW140214   3.412   1.658   6.031  0.5494 -1.5710  0.5200
 9520SOL    HW240215   3.251   1.652   6.006  0.6214  2.0404 -1.1009
 9521SOL     OW40216   2.452   6.580   2.150  0.0424 -0.3378  0.1505
 9521SOL    HW140217   2.476   6.513   2.221  0.3831 -0.7251 -0.3287
 9521SOL    HW240218   2.496   6.667   2.170  0.7352 -0.6563  0.0121
 9522SOL     OW40219   0.549   1.433   5.698  0.4396  0.2082  0.4802
 9522SOL    HW140220   0.596   1.403   5.781 -0.4899 -0.5243  0.7516
 9522SOL    HW240221   0.450   1.434   5.715  0.4353  3.8897  0.6315
 9523SOL     OW40222   3.114   6.848   3.401 -0.4549 -0.1854  0.3821
 9523SOL    HW140223   3.186   6.893   3.454 -1.5112  0.9609  0.8870
 9523SOL    HW240224   3.035   6.832   3.460 -0.9482 -0.6038 -0.3906
 9524SOL     OW40225   0.074   8.024   0.498 -0.1640  0.2515 -0.0244
 9524SOL    HW140226   0.017   7.953   0.539 -0.5283  0.3243 -0.4032
 9524SOL    HW240227   0.068   8.107   0.553  0.4713 -0.0839  0.5697
 9525SOL     OW40228   9.166   8.408   2.625  1.1147  0.4742  0.5890
 9525SOL    HW140229   9.265   8.397   2.617  1.1588  0.4186  1.1688
 9525SOL    HW240230   9.121   8.329   2.583  1.4055 -1.2085  3.3298
 9526SOL     OW40231   7.171   2.509   0.120  0.8131 -0.3519 -0.1675
 9526SOL    HW140232   7.151   2.606   0.110  1.1727 -0.1764  0.7453
 9526SOL    HW240233   7.270   2.495   0.117  0.7327 -0.7998 -1.1490
 9527SOL     OW40234   8.450   0.653   5.201  0.0666 -0.0747  0.3405
 9527SOL    HW140235   8.451   0.648   5.101  2.1714 -0.6500  0.3604
 9527SOL    HW240236   8.495   0.738   5.231 -0.3919  0.0077  0.8034
 9528SOL     OW40237   9.567   3.456   7.400  0.6046 -0.4204 -0.4514
 9528SOL    HW140238   9.650   3.512   7.412  1.2351 -1.1246 -1.4637
 9528SOL    HW240239   9.545   3.411   7.486  0.4106  0.9483  0.2321
 9529SOL     OW40240   0.884   2.772   4.023  0.1898  0.1007 -0.0137
 9529SOL    HW140241   0.791   2.735   4.033  0.2642  0.1045  0.7771
 9529SOL    HW240242   0.884   2.842   3.951  0.0657 -1.4296 -1.5203
 9530SOL     OW40243   1.006   7.587   5.388 -0.3759  0.6685 -0.1080
 9530SOL    HW140244   1.038   7.670   5.434 -0.9670  1.3605 -0.9370
 9530SOL    HW240245   1.074   7.514   5.400  1.2456  1.9431 -1.3559
 9531SOL     OW40246   9.604   6.983   5.310  0.0062 -0.4742 -0.0014
 9531SOL    HW140247   9.672   6.998   5.238  0.3415 -0.5348  0.3045
 9531SOL    HW240248   9.570   6.889   5.304  1.4538 -1.0712  1.1364
 9532SOL     OW40249   1.499   7.219   2.378  0.1460 -0.2258  0.2973
 9532SOL    HW140250   1.569   7.225   2.450  0.3737 -0.6913  0.1114
 9532SOL    HW240251   1.515   7.291   2.310  0.9220 -0.8408 -0.1737
 9533SOL     OW40252   0.572   4.656   5.865 -0.5710  0.1939  0.4929
 9533SOL    HW140253   0.566   4.673   5.964  0.9636  2.3220  0.2446
 9533SOL    HW240254   0.625   4.573   5.849 -0.7353 -0.1039  1.4400
 9534SOL     OW40255   1.205   5.566   1.163  0.2696  0.3129  0.0510
 9534SOL    HW140256   1.124   5.619   1.140 -1.9631 -3.2032 -0.5409
 9534SOL    HW240257   1.230   5.583   1.258 -1.3179  1.2165  0.3254
 9535SOL     OW40258   1.259   5.019   4.331 -0.7469 -0.2854 -0.1365
 9535SOL    HW140259   1.252   5.119   4.331  4.6005  0.2755  1.7383
 9535SOL    HW240260   1.267   4.986   4.237 -0.6479  1.2378 -0.6810
 9536SOL     OW40261   4.243   0.411   4.895 -0.2870  0.2065  0.2056
 9536SOL    HW140262   4.321   0.387   4.952  0.3728 -0.9167 -1.1547
 9536SOL    HW240263   4.271   0.414   4.799 -1.7243  0.6446 -0.2147
 9537SOL     OW40264   9.173   0.495   4.832  0.1922 -0.0843 -0.3493
 9537SOL    HW140265   9.196   0.515   4.927 -1.7427 -3.2513  0.8601
 9537SOL    HW240266   9.236   0.427   4.796 -0.7373 -0.9012 -0.4479
 9538SOL     OW40267   2.823   6.393   2.754 -0.1321  0.0269 -0.4432
 9538SOL    HW140268   2.811   6.413   2.851 -0.7306  0.2770 -0.5685
 9538SOL    HW240269   2.879   6.311   2.744 -2.9508 -2.0657  0.1952
 9539SOL     OW40270   7.400   7.136   5.850  0.0941 -0.4452 -0.4368
 9539SOL    HW140271   7.340   7.216   5.852 -0.3874 -0.7927 -0.7519
 9539SOL    HW240272   7.363   7.065   5.909 -0.0086 -0.7985 -0.9162
 9540SOL     OW40273   7.161   6.444   5.652 -0.3110 -0.5270 -0.0885
 9540SOL    HW140274   7.149   6.483   5.560 -0.7466 -1.9846 -0.6518
 9540SOL    HW240275   7.244   6.389   5.655  0.4741  0.6592  0.8055
 9541SOL     OW40276   6.416   1.416   7.731 -0.4725 -0.6721 -0.1419
 9541SOL    HW140277   6.503   1.455   7.762  0.6193 -0.2172 -3.6251
 9541SOL    HW240278   6.432   1.323   7.697 -1.3888 -0.6403 -0.6640
 9542SOL     OW40279   8.167   5.630   4.506  0.6495  0.3403 -0.6979
 9542SOL    HW140280   8.081   5.679   4.495  0.6872  0.2731 -1.3248
 9542SOL    HW240281   8.194   5.629   4.602  1.0501  2.2461 -0.7819
 9543SOL     OW40282   2.320   6.912   6.205  0.2737  0.5515  0.3095
 9543SOL    HW140283   2.296   6.987   6.266  1.0104  0.1592  1.0899
 9543SOL    HW240284   2.288   6.933   6.112 -0.7961  1.1768  0.8054
 9544SOL     OW40285   2.635   0.685   1.991 -0.3355 -0.0443 -0.1214
 9544SOL    HW140286   2.709   0.723   1.937 -1.1610  1.0940 -0.4749
 9544SOL    HW240287   2.649   0.587   2.004  1.1769  0.1524 -0.2445
 9545SOL     OW40288   3.536   9.757   7.086 -0.2797 -0.1782  0.0075
 9545SOL    HW140289   3.493   9.820   7.021 -0.6687  1.4088  1.7422
 9545SOL    HW240290   3.585   9.810   7.156  1.4597 -1.8862  0.1160
 9546SOL     OW40291   9.955   6.417   2.601  0.1492 -0.2629  0.4017
 9546SOL    HW140292   9.871   6.373   2.631  0.0975 -0.4904 -0.0619
 9546SOL    HW240293   9.935   6.487   2.532  0.3742 -0.6339 -0.0473
 9547SOL     OW40294   8.752   5.057   1.528 -0.3140 -0.3921 -0.2083
 9547SOL    HW140295   8.786   5.144   1.564 -2.4007  0.3962 -0.0429
 9547SOL    HW240296   8.703   5.008   1.601  0.6577 -1.6152 -0.3619
 9548SOL     OW40297   4.072   2.125   7.667  0.0720  0.1855 -0.3237
 9548SOL    HW140298   4.086   2.138   7.765 -0.5146  0.4831 -0.2808
 9548SOL    HW240299   4.051   2.213   7.624 -0.8172 -0.1267 -0.5299
 9549SOL     OW40300   8.888   8.468   3.358 -0.3432 -0.0523  0.4180
 9549SOL    HW140301   8.964   8.411   3.326  0.1017  0.5325  0.4191
 9549SOL    HW240302   8.808   8.410   3.375  0.6538 -0.9500  2.2101
 9550SOL     OW40303   0.293   1.834   3.693 -0.3020 -0.4330  0.1832
 9550SOL    HW140304   0.355   1.786   3.755  1.4416  1.0763 -0.3480
 9550SOL    HW240305   0.278   1.927   3.726  0.8068  0.4590 -1.7310
 9551SOL     OW40306   4.032   8.007   5.609 -0.1025 -0.2676  0.1817
 9551SOL    HW140307   3.964   7.933   5.614 -1.4218  1.0250  1.8534
 9551SOL    HW240308   4.058   8.034   5.702  1.3238  0.5178 -0.4437
 9552SOL     OW40309   5.174   4.317   7.554 -0.2732 -0.2560 -0.0767
 9552SOL    HW140310   5.167   4.234   7.608 -0.1583 -1.3761 -1.7613
 9552SOL    HW240311   5.203   4.295   7.461  2.0690  1.8839  0.0688
 9553SOL     OW40312   0.533   3.164   6.823  0.1130 -0.1839  0.4906
 9553SOL    HW140313   0.511   3.171   6.920 -2.4372  0.0370 -0.0560
 9553SOL    HW240314   0.506   3.073   6.790 -1.2922  0.5817 -0.5186
 9554SOL     OW40315   0.781   4.772   2.792  0.6306  0.2453  0.0322
 9554SOL    HW140316   0.755   4.862   2.757  1.9282  0.7361  0.2836
 9554SOL    HW240317   0.729   4.753   2.875 -1.6726 -0.4611 -1.5478
 9555SOL     OW40318   3.948   2.660   1.495 -0.0622  0.0022  0.0655
 9555SOL    HW140319   3.935   2.576   1.443  0.5540 -0.1470  0.1533
 9555SOL    HW240320   3.979   2.733   1.433  0.3856 -0.0986  0.1714
 9556SOL     OW40321   3.632   5.363   7.240  0.2637  0.0896 -0.0945
 9556SOL    HW140322   3.713   5.375   7.182  0.6671  0.8289  0.6149
 9556SOL    HW240323   3.576   5.445   7.237  0.6093  0.3779  1.0579
 9557SOL     OW40324   5.808   7.584   5.868 -0.2504 -0.6788 -0.3841
 9557SOL    HW140325   5.718   7.543   5.853 -0.2224 -0.6433 -0.6388
 9557SOL    HW240326   5.797   7.681   5.887 -0.3425 -0.8582  0.5324
 9558SOL     OW40327   7.134   1.911   0.948  0.4668  0.4432  0.2873
 9558SOL    HW140328   7.162   1.952   0.860 -2.2009 -1.6947 -1.6264
 9558SOL    HW240329   7.212   1.862   0.987  1.7252  1.4997 -0.7875
 9559SOL     OW40330   0.589   8.188   4.079 -0.0801  0.1308 -0.4354
 9559SOL    HW140331   0.642   8.117   4.034  2.0048  0.5639  1.2755
 9559SOL    HW240332   0.579   8.267   4.019 -3.0469 -1.8055 -2.6413
 9560SOL     OW40333   6.419   2.147   5.906 -0.3777  0.5817 -0.4417
 9560SOL    HW140334   6.517   2.163   5.921 -0.7850  2.2636  0.5160
 9560SOL    HW240335   6.393   2.182   5.817 -0.2758  0.9123 -0.3433
 9561SOL     OW40336   7.826   9.851   1.839  0.0783 -0.1018  0.1035
 9561SOL    HW140337   7.912   9.898   1.857  0.2866 -0.1810 -0.6825
 9561SOL    HW240338   7.845   9.758   1.808 -0.2489  0.4292 -1.7068
 9562SOL     OW40339   3.971   3.070   4.682  0.1634  0.1686  0.3126
 9562SOL    HW140340   4.062   3.029   4.688 -0.1687 -0.4828  0.9707
 9562SOL    HW240341   3.904   2.999   4.661 -0.2737  0.5608  0.3733
 9563SOL     OW40342   2.295   2.676   1.531  0.4448  0.2092  0.0439
 9563SOL    HW140343   2.320   2.705   1.623  1.1381 -2.8686  0.8710
 9563SOL    HW240344   2.378   2.658   1.478  0.1133 -2.9979  0.5026
 9564SOL     OW40345   8.454   5.458   2.525  0.2039 -0.5059  0.3066
 9564SOL    HW140346   8.384   5.393   2.555 -0.2592 -0.3370 -0.3929
 9564SOL    HW240347   8.448   5.470   2.426  0.7010  0.1276  0.3490
 9565SOL     OW40348   1.994   6.104   6.560  0.2095  0.1958  0.3411
 9565SOL    HW140349   1.903   6.122   6.597  0.3071  1.0673  0.1853
 9565SOL    HW240350   1.995   6.122   6.462  0.0169 -1.8703 -0.0621
 9566SOL     OW40351   5.427   1.266   5.163 -0.0590  0.4258  0.2196
 9566SOL    HW140352   5.364   1.302   5.095 -0.7365 -0.2179  0.4916
 9566SOL    HW240353   5.375   1.214   5.231  0.8051 -0.3919  0.2597
 9567SOL     OW40354   5.526   7.495   5.854 -0.1160 -0.2956  0.0597
 9567SOL    HW140355   5.429   7.509   5.874  0.1799 -0.6329  1.8605
 9567SOL    HW240356   5.557   7.561   5.785 -2.0556 -1.3954 -1.9103
 9568SOL     OW40357   1.165   9.835   3.212  0.2266 -0.3627  0.6728
 9568SOL    HW140358   1.120   9.824   3.300  1.1479  1.3595  1.3698
 9568SOL    HW240359   1.260   9.802   3.218  0.0682 -0.9328  0.1164
 9569SOL     OW40360   9.435   5.773   7.723 -0.1515  0.4402 -0.1956
 9569SOL    HW140361   9.533   5.751   7.722 -0.3421 -0.4108 -0.9149
 9569SOL    HW240362   9.396   5.745   7.811  0.2493  0.7846  0.0941
 9570SOL     OW40363   7.046   8.895   5.980 -0.1744 -0.3913 -0.0982
 9570SOL    HW140364   6.979   8.821   5.988  0.5080 -1.3371 -2.8349
 9570SOL    HW240365   7.013   8.975   6.031 -3.2093 -0.9820 -1.0346
 9571SOL     OW40366   7.853   2.177   5.246 -0.3374  0.1183 -0.6208
 9571SOL    HW140367   7.760   2.150   5.224 -0.0387 -0.1908 -1.5272
 9571SOL    HW240368   7.879   2.138   5.334 -1.2386  0.6302 -0.1304
 9572SOL     OW40369   3.969   4.116   0.137  0.3235 -0.3558  0.1189
 9572SOL    HW140370   3.925   4.195   0.095 -0.2637 -0.6182  0.2337
 9572SOL    HW240371   4.007   4.057   0.066  1.8193  0.6344  0.0846
 9573SOL     OW40372   1.266   7.931   7.679  0.3194  0.2171 -0.1673
 9573SOL    HW140373   1.317   7.911   7.763  0.6217  0.1918 -0.3602
 9573SOL    HW240374   1.204   8.007   7.696  0.0508 -0.0803  0.2130
 9574SOL     OW40375   3.261   7.065   1.219 -0.2389  0.7076 -0.2532
 9574SOL    HW140376   3.332   7.116   1.172 -0.8516  2.0375  0.2499
 9574SOL    HW240377   3.194   7.032   1.153 -0.1869  1.0912 -0.4964
 9575SOL     OW40378   1.808   4.995   3.595 -0.4005  0.0565  0.3791
 9575SOL    HW140379   1.744   4.924   3.563 -0.3068 -0.6578  1.7382
 9575SOL    HW240380   1.791   5.013   3.692 -0.1302  1.6019  0.1365
 9576SOL     OW40381   2.081   7.644   1.278  0.7634 -0.4057  0.5356
 9576SOL    HW140382   2.070   7.669   1.181 -2.1246 -3.1275  0.0847
 9576SOL    HW240383   2.066   7.724   1.335 -0.7021  0.5431 -1.1518
 9577SOL     OW40384   1.642   9.116   5.608  0.4050  0.0869  0.9157
 9577SOL    HW140385   1.695   9.201   5.617  0.0249  0.2512  1.6265
 9577SOL    HW240386   1.662   9.074   5.519  1.6217  0.2140  1.1126
 9578SOL     OW40387   4.578   7.532   6.254 -0.4537  0.3899 -1.2083
 9578SOL    HW140388   4.486   7.506   6.285 -0.5054  1.5414 -0.3839
 9578SOL    HW240389   4.641   7.529   6.331  0.0508  0.3048 -1.6237
 9579SOL     OW40390   3.608   5.643   8.187 -0.1003 -0.2202 -0.1685
 9579SOL    HW140391   3.589   5.545   8.177  1.3395 -0.4068 -1.2647
 9579SOL    HW240392   3.681   5.669   8.124 -1.2681  1.8082 -0.7257
 9580SOL     OW40393   2.836   3.338   6.012 -0.1899 -0.2765 -0.0584
 9580SOL    HW140394   2.930   3.322   6.041  0.1070 -0.3620 -1.0630
 9580SOL    HW240395   2.835   3.368   5.917 -1.2504 -1.3561 -0.4069
 9581SOL     OW40396   1.888   5.136   5.988  0.3015  0.9146 -0.0297
 9581SOL    HW140397   1.906   5.043   6.019  0.4645  1.1609  0.6102
 9581SOL    HW240398   1.791   5.158   6.000  0.2804  0.8620 -0.0999
 9582SOL     OW40399   2.894   5.692   7.104  0.2637  0.3587 -0.0878
 9582SOL    HW140400   2.923   5.772   7.051  1.8884  1.1120  1.8695
 9582SOL    HW240401   2.898   5.611   7.046  3.5178  0.9203 -0.7719
 9583SOL     OW40402   9.149   9.582   3.756 -0.0625  0.4545  0.6391
 9583SOL    HW140403   9.171   9.675   3.728  2.3622 -0.7482 -1.6280
 9583SOL    HW240404   9.222   9.546   3.814 -0.9445 -0.1112  1.4294
 9584SOL     OW40405   2.572   5.311   0.327  0.0487 -0.0317 -0.3625
 9584SOL    HW140406   2.476   5.286   0.340 -0.0965  0.2407 -0.9057
 9584SOL    HW240407   2.597   5.298   0.231  0.7456 -0.7592 -0.0934
 9585SOL     OW40408   2.120   7.102   6.375  0.0068 -0.1960 -0.8446
 9585SOL    HW140409   2.076   7.012   6.373 -0.1463 -0.1427 -0.1000
 9585SOL    HW240410   2.085   7.158   6.300 -2.3295  0.3718  0.6349
 9586SOL     OW40411   9.021   0.931   3.699 -0.5176  0.0581 -0.0590
 9586SOL    HW140412   9.052   1.013   3.748  0.2233 -1.2639  1.7245
 9586SOL    HW240413   8.942   0.955   3.643  0.0168  2.1275  0.0082
 9587SOL     OW40414   5.686   8.015   4.200 -0.2612  0.5221  0.4009
 9587SOL    HW140415   5.605   7.998   4.257 -0.1234 -0.9487  0.1709
 9587SOL    HW240416   5.754   7.944   4.217  0.6500  1.2830 -0.0358
 9588SOL     OW40417   9.245   6.309   7.638  0.0922  0.3508  0.0265
 9588SOL    HW140418   9.202   6.253   7.567 -0.2909 -1.4168  1.6345
 9588SOL    HW240419   9.175   6.363   7.684  0.4922  2.4674 -1.7110
 9589SOL     OW40420   8.535   6.339   6.197  0.3616 -0.2589  0.5288
 9589SOL    HW140421   8.578   6.416   6.149  0.3058 -0.5998 -0.0695
 9589SOL    HW240422   8.578   6.254   6.169  0.7972 -0.3943  1.6200
 9590SOL     OW40423   9.531   0.997   4.126  0.0957 -0.1828 -0.4134
 9590SOL    HW140424   9.452   0.936   4.132  0.1684 -0.2181  0.1795
 9590SOL    HW240425   9.533   1.040   4.035 -0.9055  0.2153 -0.2545
 9591SOL     OW40426   9.642   4.358   7.047  0.6758 -0.1167  0.6792
 9591SOL    HW140427   9.652   4.420   7.125  0.4726  2.4106 -1.2282
 9591SOL    HW240428   9.549   4.322   7.044 -0.2799  2.2947 -0.1376
 9592SOL     OW40429   2.645   8.597   2.635 -0.2411 -0.3449  0.0370
 9592SOL    HW140430   2.547   8.613   2.625 -0.3387 -0.7607  0.3045
 9592SOL    HW240431   2.675   8.530   2.567 -0.1597 -0.2838  0.0128
 9593SOL     OW40432   9.811   6.450   6.186  0.1024  0.5539 -0.4998
 9593SOL    HW140433   9.846   6.359   6.166 -0.3862  0.5262 -1.2669
 9593SOL    HW240434   9.716   6.457   6.155  0.0493  1.2429 -0.2109
 9594SOL     OW40435   2.501   3.760   2.501 -0.0760  0.2839 -0.2215
 9594SOL    HW140436   2.401   3.767   2.502 -0.1240 -0.1383 -1.6793
 9594SOL    HW240437   2.529   3.683   2.558 -0.6943 -0.7295 -1.2671
 9595SOL     OW40438   9.605   3.709   3.584 -0.0096  0.1205 -0.3250
 9595SOL    HW140439   9.618   3.715   3.683  1.5408  1.5601 -0.6062
 9595SOL    HW240440   9.549   3.628   3.563 -0.0663 -0.3885  1.6868
 9596SOL     OW40441   1.825   5.316   3.174 -0.3484  0.1378 -0.6166
 9596SOL    HW140442   1.865   5.246   3.233  4.0394  2.6756 -0.3569
 9596SOL    HW240443   1.765   5.374   3.229 -2.6437 -2.2704 -0.4696
 9597SOL     OW40444   8.945   6.581   4.527  0.0504  0.4725 -0.1412
 9597SOL    HW140445   8.968   6.551   4.434 -1.6046  1.0367 -0.7522
 9597SOL    HW240446   8.967   6.678   4.536  1.0547  0.2099  0.3631
 9598SOL     OW40447   6.165   7.966   2.790 -0.7357 -0.0633  0.3962
 9598SOL    HW140448   6.157   8.001   2.697  0.1304 -0.7082  0.0727
 9598SOL    HW240449   6.088   7.905   2.809  0.5077 -2.0834 -0.8705
 9599SOL     OW40450   6.635   9.460   4.209  0.2693 -0.1846 -0.5564
 9599SOL    HW140451   6.630   9.552   4.171  0.1822 -0.4990 -1.3183
 9599SOL    HW240452   6.605   9.461   4.305 -1.0239  0.3376 -0.9621
 9600SOL     OW40453   7.891   0.653   0.746 -0.3644 -0.0038 -0.2010
 9600SOL    HW140454   7.913   0.702   0.662 -0.7524 -0.2307 -0.4331
 9600SOL    HW240455   7.802   0.609   0.737  0.1359 -1.0291 -0.1028
 9601SOL     OW40456   6.954   3.462   2.429 -0.6161 -0.1049  0.0247
 9601SOL    HW140457   7.004   3.539   2.467  0.9546 -0.7290 -0.7217
 9601SOL    HW240458   6.990   3.377   2.467 -2.6667 -0.4766  1.2217
 9602SOL     OW40459   4.997   0.405   4.100  0.3483  0.1296  0.2029
 9602SOL    HW140460   4.978   0.318   4.054 -1.6792  0.7457 -0.1700
 9602SOL    HW240461   5.039   0.468   4.035  1.3715 -0.4011  0.3417
 9603SOL     OW40462   0.664   7.885   6.501  0.3046  0.0465  0.0043
 9603SOL    HW140463   0.724   7.945   6.448  0.3765  1.3386  1.5241
 9603SOL    HW240464   0.603   7.940   6.558 -2.6456 -1.2186 -1.7933
 9604SOL     OW40465   5.039   4.834   8.169 -0.6216  0.1151 -0.0787
 9604SOL    HW140466   5.080   4.900   8.106 -0.7958  0.0749 -0.2374
 9604SOL    HW240467   5.048   4.866   8.263  0.2992 -0.1727 -0.0616
 9605SOL     OW40468   6.519   1.829   2.047 -0.2072 -0.1531 -0.0985
 9605SOL    HW140469   6.480   1.914   2.011  1.8596  0.7026 -0.3823
 9605SOL    HW240470   6.447   1.760   2.053 -1.8858  1.5530 -0.0223
 9606SOL     OW40471   2.629   8.821   5.539 -0.4931  0.2747 -0.2526
 9606SOL    HW140472   2.663   8.730   5.562  0.4678  0.0652 -2.3062
 9606SOL    HW240473   2.705   8.879   5.511 -1.1103  1.6939  0.9699
 9607SOL     OW40474   5.582   7.944   2.962 -0.8530  0.8121  0.7214
 9607SOL    HW140475   5.598   7.980   2.870 -0.5134  1.0632  0.8774
 9607SOL    HW240476   5.629   7.857   2.973 -1.2234  0.5864  0.5248
 9608SOL     OW40477   9.275   1.264   8.034  0.3429  0.1311 -0.1545
 9608SOL    HW140478   9.268   1.164   8.042  1.1493  0.0209 -0.8261
 9608SOL    HW240479   9.330   1.300   8.109  1.4824 -0.1098 -0.8653
 9609SOL     OW40480   8.030   7.555   6.993  0.1235 -0.1080 -0.0910
 9609SOL    HW140481   8.024   7.463   7.032  0.3177 -0.0093  0.1704
 9609SOL    HW240482   7.969   7.617   7.042 -0.7890 -0.3283 -0.9342
 9610SOL     OW40483   5.204   8.150   6.447  0.2243 -0.6827 -0.1384
 9610SOL    HW140484   5.140   8.215   6.488 -0.0442 -2.1997  1.8800
 9610SOL    HW240485   5.296   8.190   6.447  0.2268 -0.6390  1.9306
 9611SOL     OW40486   8.205   8.752   0.547 -0.0808 -0.2642 -0.3354
 9611SOL    HW140487   8.153   8.834   0.524 -2.2074 -1.4616  0.1448
 9611SOL    HW240488   8.233   8.705   0.463  1.8167  1.3506 -0.6257
 9612SOL     OW40489   3.686   8.146   3.601 -0.1212  0.0245  0.0553
 9612SOL    HW140490   3.635   8.103   3.676  1.1386  0.0172  0.9479
 9612SOL    HW240491   3.783   8.120   3.609 -0.2883 -1.7402 -2.8374
 9613SOL     OW40492   0.682   9.047   4.043  0.7377 -0.0338 -0.0027
 9613SOL    HW140493   0.651   9.140   4.063 -0.7663 -0.6618  0.5958
 9613SOL    HW240494   0.733   9.048   3.957 -1.6173  0.8877 -1.4419
 9614SOL     OW40495   7.711   3.992   7.325 -0.3548 -0.5423 -0.4883
 9614SOL    HW140496   7.678   4.085   7.342 -1.1561 -1.3192  2.3603
 9614SOL    HW240497   7.640   3.926   7.352  0.1980 -2.0080 -2.4888
 9615SOL     OW40498   3.200   3.493   2.151 -0.1103 -0.1482  0.0937
 9615SOL    HW140499   3.130   3.517   2.083  0.9250  0.1021 -0.8938
 9615SOL    HW240500   3.229   3.576   2.199 -0.1136 -0.1712  0.1340
 9616SOL     OW40501   3.876   2.229   0.962 -0.3104  0.5672  0.4767
 9616SOL    HW140502   3.933   2.155   0.925 -0.1009 -0.5518  2.9290
 9616SOL    HW240503   3.934   2.298   1.004 -0.5675  1.6691 -0.9360
 9617SOL     OW40504   7.744   8.409   2.042 -0.1000 -0.4005 -0.1574
 9617SOL    HW140505   7.793   8.493   2.064 -0.8954  0.2411 -0.8097
 9617SOL    HW240506   7.727   8.405   1.944  0.7958 -1.7998 -0.2565
 9618SOL     OW40507   9.324   5.991   4.474  0.1211  0.1958 -0.3009
 9618SOL    HW140508   9.389   5.979   4.398  0.4875  1.3359 -0.1689
 9618SOL    HW240509   9.338   5.918   4.541  0.1518 -0.5168 -1.0712
 9619SOL     OW40510   9.349   3.409   6.980 -0.2610 -0.1431  0.8305
 9619SOL    HW140511   9.305   3.389   7.068  2.6451 -1.3136  2.0582
 9619SOL    HW240512   9.326   3.337   6.914 -1.4808  0.1164  0.9516
 9620SOL     OW40513   5.241   1.233   7.996  0.1045 -0.0949 -0.4916
 9620SOL    HW140514   5.255   1.139   7.962 -0.0401 -0.8376  1.4431
 9620SOL    HW240515   5.312   1.292   7.957  0.6557 -1.1545 -1.1558
 9621SOL     OW40516   8.226   7.430   7.452  0.5554  0.0983  0.0948
 9621SOL    HW140517   8.151   7.424   7.518 -0.3619 -1.5747 -1.0336
 9621SOL    HW240518   8.212   7.509   7.392 -0.1353 -0.0065  0.1167
 9622SOL     OW40519   0.803   8.068   2.779 -0.2049  0.1968 -0.0056
 9622SOL    HW140520   0.859   8.099   2.856  1.4999 -0.4083 -0.9687
 9622SOL    HW240521   0.810   7.969   2.771 -2.1355  0.0231  0.3951
 9623SOL     OW40522   1.030   2.484   6.122  0.0626  0.2719  0.1490
 9623SOL    HW140523   0.992   2.560   6.175  0.0076  1.4690 -1.5372
 9623SOL    HW240524   1.097   2.520   6.057 -0.7215 -0.9900 -1.3809
 9624SOL     OW40525   8.428   3.504   3.414  0.3019 -0.1393 -0.0952
 9624SOL    HW140526   8.499   3.556   3.461 -0.2874  0.1262  0.5097
 9624SOL    HW240527   8.418   3.539   3.320  0.9346 -0.1503 -0.1711
 9625SOL     OW40528   0.485   6.418   6.955  0.0053 -0.3771 -0.4051
 9625SOL    HW140529   0.466   6.499   7.011  2.5984 -0.8208  1.1773
 9625SOL    HW240530   0.462   6.335   7.007  0.9345 -0.7522 -0.5915
 9626SOL     OW40531   0.219   0.774   7.332  0.5423 -0.1161 -0.1223
 9626SOL    HW140532   0.284   0.804   7.402  0.7310 -0.3783 -0.1826
 9626SOL    HW240533   0.136   0.740   7.376  0.2122  0.7642 -0.0663
 9627SOL     OW40534   6.758   0.854   0.869  0.3634  0.2330 -0.4056
 9627SOL    HW140535   6.795   0.777   0.921 -0.3419 -0.8677 -1.5056
 9627SOL    HW240536   6.700   0.910   0.929  1.6722  0.4874  0.6522
 9628SOL     OW40537   8.244   3.282   1.474  0.1409  0.0413 -0.4233
 9628SOL    HW140538   8.186   3.266   1.554 -0.8463  0.3239 -1.0663
 9628SOL    HW240539   8.223   3.214   1.404  0.5496  0.1857 -0.6841
 9629SOL     OW40540   8.688   0.153   5.213 -0.1575  0.4288  0.2226
 9629SOL    HW140541   8.687   0.087   5.138  1.3646  1.6944 -0.9526
 9629SOL    HW240542   8.750   0.120   5.285 -1.5093 -0.7161  0.8844
 9630SOL     OW40543   1.229   1.290   2.197  0.6679 -0.7619  0.2663
 9630SOL    HW140544   1.146   1.339   2.171  0.1783 -1.3342  0.7295
 9630SOL    HW240545   1.221   1.194   2.169  1.5811 -0.5988 -0.5556
 9631SOL     OW40546   6.953   1.878   2.977 -0.1300 -0.4066 -0.3152
 9631SOL    HW140547   6.928   1.956   3.035 -0.3167 -0.9523  0.3539
 9631SOL    HW240548   6.871   1.829   2.951 -0.0436 -0.1589 -1.0581
 9632SOL     OW40549   1.254   0.213   3.931  0.0325  0.5411 -0.3927
 9632SOL    HW140550   1.228   0.172   4.019  0.2614  1.0118 -0.1025
 9632SOL    HW240551   1.302   0.300   3.948 -1.8414  1.7345 -1.0271
 9633SOL     OW40552   3.358   4.697   2.800  0.0928 -0.2025  0.3821
 9633SOL    HW140553   3.260   4.698   2.778 -0.0374  0.6459  1.0181
 9633SOL    HW240554   3.400   4.783   2.772  0.3054  0.1408  1.7432
 9634SOL     OW40555   5.207   8.986   6.755  0.1169  0.1543  0.3600
 9634SOL    HW140556   5.271   8.956   6.825 -1.0595  2.1290  2.3623
 9634SOL    HW240557   5.184   9.083   6.769 -1.3217  0.1851 -1.8471
 9635SOL     OW40558   2.361   2.194   4.197 -0.0535  0.2444 -0.5337
 9635SOL    HW140559   2.290   2.250   4.239 -0.1655 -0.0238 -0.3645
 9635SOL    HW240560   2.352   2.198   4.097  0.1448  0.7914 -0.5295
 9636SOL     OW40561   9.319   4.691   3.696 -0.1276 -0.1822 -0.1662
 9636SOL    HW140562   9.417   4.706   3.692 -0.0090 -0.7821  0.3071
 9636SOL    HW240563   9.283   4.727   3.782  0.0696 -2.0289  0.7267
 9637SOL     OW40564   7.564   0.971   3.430  0.3048  0.3247  0.2055
 9637SOL    HW140565   7.542   0.914   3.351  2.3345 -1.5387  0.9246
 9637SOL    HW240566   7.583   0.912   3.509  1.9400  2.0122  1.1001
 9638SOL     OW40567   2.078   4.092   2.312 -0.1731  0.1371  0.7761
 9638SOL    HW140568   2.031   4.033   2.246 -0.9165  1.9566 -0.3711
 9638SOL    HW240569   2.164   4.124   2.272  0.5918 -0.7365  1.6863
 9639SOL     OW40570   8.110   5.459   1.946  0.1789 -0.2954  0.4762
 9639SOL    HW140571   8.171   5.472   2.023 -0.4675 -0.1047  0.9605
 9639SOL    HW240572   8.120   5.535   1.882  0.7849 -0.5029  0.3225
 9640SOL     OW40573   9.404   8.168   1.496  0.8670  0.9431 -0.3990
 9640SOL    HW140574   9.307   8.171   1.471  1.1785  1.6724 -1.5498
 9640SOL    HW240575   9.457   8.128   1.421  1.5375  1.1053 -0.0194
 9641SOL     OW40576   4.698   0.417   8.004  0.3883 -0.4516  0.4454
 9641SOL    HW140577   4.709   0.415   7.904  0.3059  0.2708  0.4155
 9641SOL    HW240578   4.759   0.351   8.046  0.5849 -0.6033 -0.0762
 9642SOL     OW40579   1.917   8.122   3.450 -0.3594  0.4332 -0.4836
 9642SOL    HW140580   1.961   8.212   3.451  0.0431  0.2355 -0.4255
 9642SOL    HW240581   1.942   8.074   3.367  0.7736 -0.2948  0.2750
 9643SOL     OW40582   1.537   7.727   6.294 -0.4883 -0.2262  0.1181
 9643SOL    HW140583   1.515   7.643   6.343  1.0212 -0.1922  0.8591
 9643SOL    HW240584   1.636   7.733   6.280 -0.7137  0.7428 -1.1756
 9644SOL     OW40585   2.993   3.736   0.878  0.1663 -0.2020 -0.8434
 9644SOL    HW140586   2.910   3.792   0.876 -0.3745 -0.9152  0.7999
 9644SOL    HW240587   3.007   3.700   0.970  2.1338 -0.3659 -1.1754
 9645SOL     OW40588   4.588   4.931   0.984  0.2557  0.8241  0.3962
 9645SOL    HW140589   4.688   4.933   0.973  0.2496  1.7255  0.4832
 9645SOL    HW240590   4.561   4.844   1.026  0.7795 -0.4346 -1.7805
 9646SOL     OW40591   3.885   4.473   5.863  0.5250  0.3024 -0.0336
 9646SOL    HW140592   3.836   4.561   5.867  1.3621  0.7397  1.1234
 9646SOL    HW240593   3.968   4.484   5.808 -1.0599 -0.6591 -2.7095
 9647SOL     OW40594   0.927   2.779   0.010  0.1599  0.1391  0.1677
 9647SOL    HW140595   0.879   2.717   0.072 -0.3086  0.4040  0.0705
 9647SOL    HW240596   0.904   2.756  -0.084 -0.3661  0.7371  0.1426
 9648SOL     OW40597   4.251   0.362   4.588  0.4534  0.0785 -0.7931
 9648SOL    HW140598   4.245   0.457   4.618  2.1704  0.2567 -0.9833
 9648SOL    HW240599   4.258   0.359   4.488  0.1845 -0.2619 -0.8042
 9649SOL     OW40600   0.909   3.622   3.563  0.4119  0.1257  0.4093
 9649SOL    HW140601   0.979   3.610   3.492  0.1520  0.5310  0.0770
 9649SOL    HW240602   0.929   3.563   3.640  0.4298 -0.6892 -0.2101
 9650SOL     OW40603   5.032   4.303   0.962 -0.6194 -0.6975  0.1685
 9650SOL    HW140604   5.098   4.259   0.901  0.9159 -0.8466  1.9159
 9650SOL    HW240605   5.077   4.376   1.013 -1.9584 -0.3983  0.9409
 9651SOL     OW40606   8.227   7.698   5.726 -0.0802 -0.3497 -0.0452
 9651SOL    HW140607   8.228   7.736   5.634 -0.0701  1.0223  0.5102
 9651SOL    HW240608   8.172   7.757   5.786  0.2063 -1.0345  0.9041
 9652SOL     OW40609   6.854   0.971   2.189 -0.6351 -0.2797  0.0097
 9652SOL    HW140610   6.906   0.942   2.270 -1.1878 -0.8081  0.1798
 9652SOL    HW240611   6.759   0.990   2.216 -0.8575 -0.6022 -0.5413
 9653SOL     OW40612   7.424   7.927   5.544  0.7545 -0.5089 -0.0409
 9653SOL    HW140613   7.454   7.940   5.450  1.8728 -0.1883  0.3470
 9653SOL    HW240614   7.328   7.953   5.553  1.1705  1.3230 -0.6851
 9654SOL     OW40615   6.400   4.497   7.813 -0.2685 -0.4257 -0.4744
 9654SOL    HW140616   6.378   4.494   7.911 -1.8311  1.5623 -0.7238
 9654SOL    HW240617   6.500   4.498   7.802 -0.0702  0.0203  1.1522
 9655SOL     OW40618   2.684   0.401   3.387 -0.1907 -0.4949  0.2629
 9655SOL    HW140619   2.604   0.365   3.339 -0.5720  0.8028 -0.1059
 9655SOL    HW240620   2.667   0.496   3.413  0.8780 -0.4967  1.0153
 9656SOL     OW40621   1.991   1.238   1.750  0.1753  0.5594  0.0671
 9656SOL    HW140622   1.923   1.167   1.766  1.3860 -0.9676 -1.3571
 9656SOL    HW240623   1.950   1.312   1.696 -0.7528  0.3691  0.5007
 9657SOL     OW40624   0.867   6.601   1.117  0.1931 -0.2091  0.1506
 9657SOL    HW140625   0.778   6.631   1.151 -0.9121 -0.3069 -2.5055
 9657SOL    HW240626   0.923   6.682   1.097 -0.7884  0.0308 -1.8523
 9658SOL     OW40627   0.980   9.431   1.649 -0.0849  0.1218  0.1822
 9658SOL    HW140628   0.900   9.477   1.608  0.5448  1.5848  0.5690
 9658SOL    HW240629   1.058   9.494   1.649  0.9375 -1.1249  0.2872
 9659SOL     OW40630   2.206   8.615   0.406  0.5410  0.2051 -0.2186
 9659SOL    HW140631   2.242   8.550   0.472 -0.0424  0.2472  0.1434
 9659SOL    HW240632   2.106   8.611   0.405  0.5204  0.6394 -0.6512
 9660SOL     OW40633   8.963   0.737   7.543  0.3318 -0.2431 -0.6585
 9660SOL    HW140634   9.010   0.728   7.631 -0.2911 -0.0076 -0.2946
 9660SOL    HW240635   8.881   0.793   7.555  0.3093 -0.1066 -1.4184
 9661SOL     OW40636   9.977   8.166   4.406 -0.3186 -0.1048 -0.2074
 9661SOL    HW140637   9.906   8.175   4.476 -0.4970  1.5791 -0.5836
 9661SOL    HW240638   9.949   8.216   4.324  0.2452 -1.3961 -1.2141
 9662SOL     OW40639   8.419   9.007   6.564 -0.3805 -0.6056 -0.6048
 9662SOL    HW140640   8.383   8.918   6.594  1.1613 -0.3341  2.1731
 9662SOL    HW240641   8.507   8.993   6.518  1.2479 -0.3057  2.3412
 9663SOL     OW40642   7.755   6.296   0.709  0.0884  0.6531 -0.2704
 9663SOL    HW140643   7.694   6.229   0.750 -0.6979  1.4509 -0.1248
 9663SOL    HW240644   7.839   6.302   0.763 -0.9357  1.6918  1.2575
 9664SOL     OW40645   8.151   9.136   1.925  0.5864 -0.1547 -0.3385
 9664SOL    HW140646   8.056   9.135   1.897  0.6308  0.5056 -0.5130
 9664SOL    HW240647   8.194   9.222   1.898  1.6532 -1.0679 -1.6301
 9665SOL     OW40648   5.667   4.048   0.720  0.0150 -0.0438 -0.2563
 9665SOL    HW140649   5.727   4.074   0.645  1.3253 -0.0157  0.7783
 9665SOL    HW240650   5.572   4.060   0.692  0.4364 -1.4151 -2.4037
 9666SOL     OW40651   0.157   9.925   2.799  0.0845 -0.8729  0.9668
 9666SOL    HW140652   0.154   9.969   2.889  1.4715  0.8040  0.2273
 9666SOL    HW240653   0.222   9.848   2.802 -0.9390 -1.7225  1.7610
 9667SOL     OW40654   7.872   7.211   2.454 -0.0196 -0.3723 -0.2931
 9667SOL    HW140655   7.787   7.206   2.402  0.0390  0.2827 -0.4508
 9667SOL    HW240656   7.933   7.137   2.426  1.0184  1.4466 -2.9241
 9668SOL     OW40657   4.829   8.425   5.209 -0.3440 -0.3113 -0.2461
 9668SOL    HW140658   4.927   8.432   5.227 -0.0861 -1.9813 -0.9878
 9668SOL    HW240659   4.814   8.398   5.114 -1.5305  0.2261 -0.2193
 9669SOL     OW40660   8.447   5.607   5.451  0.3756  0.2474  0.1999
 9669SOL    HW140661   8.363   5.658   5.430  0.4665  0.5704  0.6158
 9669SOL    HW240662   8.510   5.613   5.374 -0.6442 -1.3886 -0.8106
 9670SOL     OW40663   4.000   4.631   4.499 -0.0957  0.6521 -0.5376
 9670SOL    HW140664   3.988   4.725   4.530 -0.7006 -0.2115  1.9754
 9670SOL    HW240665   4.081   4.591   4.543  0.0954 -0.0516 -1.5005
 9671SOL     OW40666   8.468   0.080   4.132 -0.1022 -0.1259 -0.3464
 9671SOL    HW140667   8.520   0.063   4.216 -2.0194 -1.5969  0.5711
 9671SOL    HW240668   8.489   0.172   4.098  0.6644  0.5120  1.7734
 9672SOL     OW40669   0.840   1.927   8.099 -0.6785  0.4205 -0.5169
 9672SOL    HW140670   0.764   1.971   8.051 -3.7810 -3.5617  0.4610
 9672SOL    HW240671   0.858   1.837   8.058  3.1735  1.0433 -0.3456
 9673SOL     OW40672   0.024   7.789   4.682 -0.1748  0.1251  0.2711
 9673SOL    HW140673  -0.074   7.789   4.703  0.0392  0.3089  1.2985
 9673SOL    HW240674   0.075   7.826   4.760  0.9196 -2.1103  0.6542
 9674SOL     OW40675   3.555   3.805   4.706 -0.0755 -0.0306 -0.2009
 9674SOL    HW140676   3.480   3.819   4.770  0.7715 -0.4252  0.8958
 9674SOL    HW240677   3.540   3.720   4.655 -0.1953 -0.2918  0.2685
 9675SOL     OW40678   1.859   5.024   1.487  0.3678 -0.3994  0.4384
 9675SOL    HW140679   1.874   5.030   1.388 -0.8320 -1.5328  0.1849
 9675SOL    HW240680   1.762   5.008   1.506  0.0693  2.7294  1.9180
 9676SOL     OW40681   1.206   2.843   6.872  0.2205  0.2861  0.0821
 9676SOL    HW140682   1.171   2.775   6.808  0.9018  0.0455 -0.0324
 9676SOL    HW240683   1.155   2.836   6.958  0.4260 -0.5173  0.1476
 9677SOL     OW40684   6.848   1.308   7.167  0.1151  0.3922  0.6673
 9677SOL    HW140685   6.915   1.381   7.175  0.1935  0.6067 -1.4541
 9677SOL    HW240686   6.776   1.336   7.103  0.6488 -1.6830 -0.9224
 9678SOL     OW40687   9.295   8.883   2.970 -0.0670 -0.2147  0.3996
 9678SOL    HW140688   9.331   8.893   2.877 -3.0477 -1.4870 -0.9348
 9678SOL    HW240689   9.303   8.788   2.999 -0.7583 -0.1656  0.7614
 9679SOL     OW40690   9.036   6.974   0.108 -0.0129  0.0123  0.2671
 9679SOL    HW140691   8.939   6.956   0.090  0.4278 -2.0328 -0.2000
 9679SOL    HW240692   9.057   6.948   0.203  0.3010 -0.5401  0.0484
 9680SOL     OW40693   3.133   3.480   5.903 -0.8463  0.1430 -0.3701
 9680SOL    HW140694   3.098   3.429   5.824  0.8004 -2.2821  0.4115
 9680SOL    HW240695   3.110   3.432   5.987  0.2965  0.9678  0.4248
 9681SOL     OW40696   8.732   4.208   7.730 -0.4163  0.4040  0.2375
 9681SOL    HW140697   8.701   4.291   7.777  0.8763  1.4827 -0.7796
 9681SOL    HW240698   8.659   4.173   7.671 -0.7453  1.1892  0.1767
 9682SOL     OW40699   0.162   9.387   3.870 -0.3277 -0.6622 -0.3755
 9682SOL    HW140700   0.118   9.435   3.793 -1.0500  0.6506  0.8147
 9682SOL    HW240701   0.185   9.294   3.843 -1.0171 -0.3709 -2.0319
 9683SOL     OW40702   7.738   2.121   3.303 -0.3581 -0.3634 -0.1122
 9683SOL    HW140703   7.788   2.045   3.346 -1.8962 -0.4933  1.5048
 9683SOL    HW240704   7.803   2.181   3.257  0.9993 -2.0290 -0.4265
 9684SOL     OW40705   3.878   4.257   1.723 -0.2974  0.6753 -0.3973
 9684SOL    HW140706   3.940   4.335   1.712  0.8405 -0.1743 -0.1028
 9684SOL    HW240707   3.884   4.199   1.641 -0.8565  0.7002 -0.4542
 9685SOL     OW40708   4.287   0.288   7.728  0.2688  0.0269 -0.1272
 9685SOL    HW140709   4.264   0.355   7.799 -1.7839 -1.7988  0.9873
 9685SOL    HW240710   4.277   0.331   7.638  0.3201  1.6073  0.5925
 9686SOL     OW40711   5.688   9.728   5.356 -0.3023 -0.2414  0.1814
 9686SOL    HW140712   5.718   9.823   5.350 -0.4456 -0.2556 -0.7439
 9686SOL    HW240713   5.723   9.688   5.441  0.0358  0.5350  0.4159
 9687SOL     OW40714   1.894   2.677   1.419 -0.9114  0.6672 -0.1991
 9687SOL    HW140715   1.972   2.618   1.396 -0.3286  1.1614  0.4921
 9687SOL    HW240716   1.819   2.621   1.453  0.5275  0.4933  2.8868
 9688SOL     OW40717   8.558   5.747   4.104 -0.7771  0.8359 -0.2277
 9688SOL    HW140718   8.626   5.681   4.136  0.4503  1.0456 -2.3117
 9688SOL    HW240719   8.473   5.700   4.082 -0.2613  0.0975 -0.6713
 9689SOL     OW40720   3.320   3.485   2.700  0.0942  0.0532  0.4709
 9689SOL    HW140721   3.406   3.445   2.731 -0.1467 -1.3422 -0.5864
 9689SOL    HW240722   3.287   3.550   2.768  0.8311 -1.0841  1.9577
 9690SOL     OW40723   1.392   0.591   4.773 -0.0279  0.3379 -0.5649
 9690SOL    HW140724   1.489   0.582   4.749  0.7479  0.5070  2.2426
 9690SOL    HW240725   1.341   0.512   4.738  1.3157 -0.2579 -1.2197
 9691SOL     OW40726   9.094   3.601   6.252 -0.5715  0.6224  0.0286
 9691SOL    HW140727   9.016   3.664   6.247 -1.1635 -0.1446 -0.4678
 9691SOL    HW240728   9.097   3.558   6.342 -1.9633 -0.9206 -0.6474
 9692SOL     OW40729   1.156   0.018   5.908  0.2869 -0.3821  0.0935
 9692SOL    HW140730   1.186   0.019   5.813 -0.9122 -1.8990 -0.3091
 9692SOL    HW240731   1.057   0.024   5.913  0.4450  1.7537  1.3358
 9693SOL     OW40732   8.493   3.834   3.373  0.1536  0.3913 -0.2449
 9693SOL    HW140733   8.556   3.774   3.423  2.3514  0.2490 -3.0954
 9693SOL    HW240734   8.533   3.924   3.362 -1.9552  1.5980  1.5320
 9694SOL     OW40735   7.234   4.726   2.495 -0.0807  0.4040 -1.0153
 9694SOL    HW140736   7.234   4.626   2.506 -0.0686  0.5143  0.0405
 9694SOL    HW240737   7.328   4.758   2.483  0.0242  0.3928 -0.2766
 9695SOL     OW40738   7.286   1.574   7.785  0.3643  0.0232 -0.1474
 9695SOL    HW140739   7.269   1.529   7.873 -0.8721 -0.2948 -0.5375
 9695SOL    HW240740   7.216   1.643   7.769  0.7737  0.3065 -0.7347
 9696SOL     OW40741   9.520   9.168   0.755  0.2781 -0.4370 -0.0750
 9696SOL    HW140742   9.496   9.098   0.822 -0.4083 -0.5161 -0.4072
 9696SOL    HW240743   9.572   9.125   0.680 -0.5321 -0.6704 -0.5030
 9697SOL     OW40744   9.182   8.001   2.254  0.3233 -0.3145 -0.2165
 9697SOL    HW140745   9.131   8.076   2.212  0.2244  0.2379  0.8720
 9697SOL    HW240746   9.261   7.977   2.197  1.0923  1.4823  0.0790
 9698SOL     OW40747   2.421   0.227   3.956 -0.6802 -0.6074 -0.0516
 9698SOL    HW140748   2.462   0.150   4.005  0.3131  0.0949  0.2361
 9698SOL    HW240749   2.493   0.291   3.929 -1.7638  1.4973  1.9524
 9699SOL     OW40750   4.202   2.051   4.422 -0.6348  0.1219 -0.0158
 9699SOL    HW140751   4.224   2.143   4.389  2.6167 -0.7332 -0.4267
 9699SOL    HW240752   4.136   2.008   4.360 -0.8533  1.5342 -0.7835
 9700SOL     OW40753   1.110   6.964   6.062 -0.7126 -0.0343 -0.2264
 9700SOL    HW140754   1.021   6.920   6.062 -0.2860 -0.9796 -2.5948
 9700SOL    HW240755   1.105   7.049   6.008  0.0208 -0.5573 -1.1303
 9701SOL     OW40756   8.766   1.472   7.901  0.0030  0.1819  0.0858
 9701SOL    HW140757   8.793   1.514   7.987  0.2537 -0.1305  0.1585
 9701SOL    HW240758   8.847   1.456   7.844  0.0185 -1.0576  0.4395
 9702SOL     OW40759   0.203   2.967   5.434  0.3267  0.5027 -0.1327
 9702SOL    HW140760   0.118   2.930   5.397  0.8633 -1.0251  0.1433
 9702SOL    HW240761   0.217   3.059   5.398 -0.8517  0.3179 -1.1072
 9703SOL     OW40762   8.029   5.151   5.158 -0.2158 -0.1761 -0.1573
 9703SOL    HW140763   8.035   5.056   5.187 -1.0130  0.0153  0.6542
 9703SOL    HW240764   8.111   5.201   5.187  1.0421 -1.0142 -2.1496
 9704SOL     OW40765   0.120   7.075   7.421 -0.3555  0.0573  0.4556
 9704SOL    HW140766   0.066   7.140   7.367 -0.3111 -0.1270  0.1860
 9704SOL    HW240767   0.108   7.094   7.518 -1.5091 -0.4552  0.4270
 9705SOL     OW40768   1.107   0.966   2.985 -0.1321  0.4295 -0.4616
 9705SOL    HW140769   1.108   0.872   3.021 -1.9411  0.0100 -1.4317
 9705SOL    HW240770   1.200   1.003   2.986  0.2676 -0.5280  2.0998
 9706SOL     OW40771   5.452   3.565   8.128  0.2778  0.6198  0.3253
 9706SOL    HW140772   5.482   3.493   8.065  0.7536  1.0280  0.0792
 9706SOL    HW240773   5.407   3.637   8.076  1.9448  1.6469  0.2424
 9707SOL     OW40774   8.608   2.974   2.278 -0.3582 -0.2499 -0.0447
 9707SOL    HW140775   8.703   2.953   2.258 -0.1687 -0.1824  0.7696
 9707SOL    HW240776   8.559   2.890   2.304  0.4653  0.2592  3.4807
 9708SOL     OW40777   7.297   6.499   4.138 -0.2045 -0.1317  0.0833
 9708SOL    HW140778   7.387   6.531   4.108  0.0496 -1.0426 -0.1453
 9708SOL    HW240779   7.254   6.569   4.195  0.6651  0.2929  0.2306
 9709SOL     OW40780   3.011   6.210   5.770 -0.0397  0.6465 -0.1254
 9709SOL    HW140781   2.978   6.298   5.805  1.5427  0.3316  2.3122
 9709SOL    HW240782   2.981   6.136   5.831 -0.1004 -0.3398 -1.3261
 9710SOL     OW40783   8.546   6.204   6.792 -0.1682  0.4163 -0.0248
 9710SOL    HW140784   8.565   6.112   6.756  0.8135  1.4728 -2.2967
 9710SOL    HW240785   8.628   6.260   6.785 -0.5256  1.2339  2.1390
 9711SOL     OW40786   4.650   9.770   7.147  0.1501 -0.0347  0.0812
 9711SOL    HW140787   4.592   9.807   7.075 -0.3577 -0.1519  0.4219
 9711SOL    HW240788   4.704   9.843   7.188  0.3163  0.0580 -0.3097
 9712SOL     OW40789   8.317   9.364   1.210  0.0509  0.2502  0.1558
 9712SOL    HW140790   8.286   9.421   1.286 -0.4112 -1.3984  1.2315
 9712SOL    HW240791   8.377   9.417   1.150 -1.5478  2.2931  0.3052
 9713SOL     OW40792   9.295   0.737   5.900  0.5784 -0.1293 -0.8011
 9713SOL    HW140793   9.350   0.687   5.967  0.2762 -0.0768 -0.5133
 9713SOL    HW240794   9.355   0.774   5.829  0.8618 -0.4582 -0.7342
 9714SOL     OW40795   0.974   6.684   6.992  0.2156 -0.2447  0.4780
 9714SOL    HW140796   0.945   6.667   6.898  0.8084  0.1209  0.2271
 9714SOL    HW240797   0.927   6.765   7.027 -0.1275 -0.4737  0.5570
 9715SOL     OW40798   1.239   5.128   7.142 -0.0213  0.5419 -0.4861
 9715SOL    HW140799   1.272   5.193   7.211  0.4882  0.1428 -0.3541
 9715SOL    HW240800   1.309   5.117   7.071 -1.6499  3.1428 -2.5988
 9716SOL     OW40801   8.029   6.310   6.525  0.3583  0.6519  0.3147
 9716SOL    HW140802   8.017   6.406   6.499 -0.3524 -0.0053 -1.8652
 9716SOL    HW240803   7.943   6.276   6.564  0.7384  1.0002  1.4796
 9717SOL     OW40804   7.284   6.917   4.976 -0.3479 -0.2135 -0.3464
 9717SOL    HW140805   7.196   6.874   4.997  0.5392 -1.7750  0.2731
 9717SOL    HW240806   7.354   6.882   5.039  0.6782  1.1824 -0.6759
 9718SOL     OW40807   7.848   8.612   1.667 -0.8040  0.1619  0.2728
 9718SOL    HW140808   7.854   8.680   1.595  0.4708  0.4325  0.6320
 9718SOL    HW240809   7.864   8.655   1.756 -1.5655 -0.3163  0.6470
 9719SOL     OW40810   8.599   6.738   0.978 -0.0465  0.4566 -0.4673
 9719SOL    HW140811   8.613   6.791   1.062  0.3680  2.1688 -1.5768
 9719SOL    HW240812   8.673   6.671   0.968  0.1703  0.5751  0.2933
 9720SOL     OW40813   6.964   5.798   7.345  0.7046 -0.1555  0.0628
 9720SOL    HW140814   6.981   5.852   7.428 -1.4914 -0.5299  0.8004
 9720SOL    HW240815   7.015   5.838   7.269 -0.2389  2.5464  0.7678
 9721SOL     OW40816   0.581   7.799   3.126  0.4137  0.0501  0.7815
 9721SOL    HW140817   0.643   7.801   3.204  2.9473 -0.9067 -1.1495
 9721SOL    HW240818   0.579   7.889   3.082 -1.1926  0.6542  2.0500
 9722SOL     OW40819   7.387   0.991   6.142  0.5187  0.1221  0.2940
 9722SOL    HW140820   7.469   0.962   6.190  0.5562  0.7737  0.6395
 9722SOL    HW240821   7.330   0.912   6.122  1.4349 -0.3811 -0.3361
 9723SOL     OW40822   2.583   6.677   7.704 -0.5332 -0.4900 -0.3066
 9723SOL    HW140823   2.596   6.658   7.606  0.3849  0.3238 -0.3564
 9723SOL    HW240824   2.633   6.760   7.728  0.0778 -1.2359  1.0662
 9724SOL     OW40825   2.549   5.840   0.776  0.1342 -0.2222  0.2830
 9724SOL    HW140826   2.558   5.763   0.840 -0.2309  0.4118  1.1126
 9724SOL    HW240827   2.639   5.879   0.758  0.2951 -0.6953  0.0314
 9725SOL     OW40828   2.500   8.080   0.444  0.1712 -0.0073  0.2903
 9725SOL    HW140829   2.469   7.985   0.454  0.0248  0.2901  2.9505
 9725SOL    HW240830   2.571   8.084   0.374  0.0276 -2.0335 -0.0106
 9726SOL     OW40831   0.346   7.569   6.502  0.1017  0.4467 -0.8076
 9726SOL    HW140832   0.326   7.596   6.596  2.4667  5.0490 -1.5161
 9726SOL    HW240833   0.444   7.550   6.493 -0.2934 -1.0816 -2.1184
 9727SOL     OW40834   3.878   7.440   6.572  0.0840  0.0306  0.7564
 9727SOL    HW140835   3.957   7.421   6.512  0.6211  1.1050  1.1063
 9727SOL    HW240836   3.795   7.445   6.517  0.4484  0.1441  0.2134
 9728SOL     OW40837   7.621   5.636   0.613 -0.1316  0.0547  0.3551
 9728SOL    HW140838   7.525   5.615   0.595  0.0715 -1.0239  0.5267
 9728SOL    HW240839   7.659   5.687   0.535 -0.2417 -1.4223 -0.6711
 9729SOL     OW40840   6.958   7.980   2.884 -0.3152  0.0131  0.1256
 9729SOL    HW140841   6.910   7.940   2.963 -2.4593  1.5758 -0.3313
 9729SOL    HW240842   6.935   8.077   2.877 -0.0535 -0.0683 -2.3384
 9730SOL     OW40843   9.385   5.575   0.965  0.1339 -0.0697 -0.5285
 9730SOL    HW140844   9.458   5.604   0.903  2.1997 -1.4942  1.1586
 9730SOL    HW240845   9.349   5.486   0.936 -0.6716  0.4475 -1.1298
 9731SOL     OW40846   8.974   8.398   4.962  0.4597  0.3451  0.2129
 9731SOL    HW140847   8.900   8.377   4.897 -0.8658 -0.2624  1.8897
 9731SOL    HW240848   8.976   8.496   4.979 -1.8098  0.0524  2.3040
 9732SOL     OW40849   2.170   0.701   7.029  0.9109 -0.4469 -0.4575
 9732SOL    HW140850   2.116   0.749   7.098  0.1901  1.0682 -2.0532
 9732SOL    HW240851   2.121   0.618   7.001  0.3574 -0.1193 -0.4585
 9733SOL     OW40852   4.808   3.183   4.501  0.5869  1.1536 -0.2018
 9733SOL    HW140853   4.799   3.223   4.592 -0.0466  1.0802 -0.2313
 9733SOL    HW240854   4.871   3.238   4.446  0.0616  1.8683 -0.0968
 9734SOL     OW40855   3.132   8.875   7.379  0.0070  0.3699  0.6764
 9734SOL    HW140856   3.195   8.949   7.355  0.3500 -0.5110 -1.2584
 9734SOL    HW240857   3.046   8.913   7.411  0.2409  1.6231 -0.1620
 9735SOL     OW40858   6.817   5.264   0.162 -0.2925 -0.0658  0.1540
 9735SOL    HW140859   6.904   5.223   0.189  0.0192  1.5207  1.6818
 9735SOL    HW240860   6.809   5.266   0.063  0.3317 -2.4249  0.0363
 9736SOL     OW40861   4.438   3.683   5.498 -0.0627 -0.1071  0.8623
 9736SOL    HW140862   4.346   3.654   5.472  0.5297 -0.1108 -1.3492
 9736SOL    HW240863   4.504   3.642   5.435  1.0859  3.2334 -0.2218
 9737SOL     OW40864   7.951   0.463   1.827  0.4861  0.4265  0.6589
 9737SOL    HW140865   7.932   0.518   1.746  0.0629 -1.2149 -0.3571
 9737SOL    HW240866   7.867   0.453   1.881  0.1870 -0.6125 -0.0055
 9738SOL     OW40867   2.855   2.622   2.876  0.0414  0.1183 -0.1889
 9738SOL    HW140868   2.897   2.703   2.915 -0.5469 -0.3361  1.4397
 9738SOL    HW240869   2.796   2.648   2.799 -0.5391  1.3041  0.6370
 9739SOL     OW40870   8.950   0.962   0.904  0.2562 -0.2610  0.4126
 9739SOL    HW140871   8.940   0.989   0.808 -0.5195 -1.0187  0.2761
 9739SOL    HW240872   8.924   0.866   0.914  1.2777 -0.4687  1.2088
 9740SOL     OW40873   6.883   0.169   5.295  0.6695 -0.9294  0.0272
 9740SOL    HW140874   6.833   0.137   5.215  1.7421 -2.9350  0.1276
 9740SOL    HW240875   6.980   0.172   5.275  0.7833  0.3409  0.6902
 9741SOL     OW40876   1.910   4.933   5.497  0.3820 -0.0615 -0.1001
 9741SOL    HW140877   1.997   4.912   5.542  1.1601  2.7111 -0.2025
 9741SOL    HW240878   1.857   4.995   5.555 -1.6951 -1.9486  0.0921
 9742SOL     OW40879   7.834   7.100   7.953  0.2022  0.1150 -0.2012
 9742SOL    HW140880   7.925   7.122   7.991 -0.0238 -1.4658  1.3315
 9742SOL    HW240881   7.829   7.002   7.934 -1.3536  0.0983  0.2220
 9743SOL     OW40882   8.786   8.647   6.934  0.0358 -0.1890  0.3276
 9743SOL    HW140883   8.689   8.659   6.913 -0.0033  1.0441  1.1014
 9743SOL    HW240884   8.837   8.630   6.850 -0.7480 -0.0506 -0.1825
 9744SOL     OW40885   2.336   5.098   0.723  0.0077 -0.1124 -0.2148
 9744SOL    HW140886   2.405   5.028   0.704  0.5161 -0.0169  1.2408
 9744SOL    HW240887   2.337   5.120   0.820  0.2265  2.3058 -0.7429
 9745SOL     OW40888   1.514   2.144   1.141 -0.8623 -0.1899 -0.2294
 9745SOL    HW140889   1.438   2.090   1.176 -0.7014 -0.8298 -0.8525
 9745SOL    HW240890   1.521   2.131   1.042  1.0097 -1.3540  0.0328
 9746SOL     OW40891   2.683   9.324   6.868 -0.0470 -0.6514 -0.1621
 9746SOL    HW140892   2.631   9.354   6.948  0.5063  0.1970 -0.1224
 9746SOL    HW240893   2.734   9.241   6.892 -1.0165 -1.2278 -0.0654
 9747SOL     OW40894   9.098   7.136   2.116 -0.0404  0.2598 -0.0316
 9747SOL    HW140895   9.011   7.178   2.091  0.6764  2.1044  0.4026
 9747SOL    HW240896   9.127   7.172   2.205  1.1653 -0.2988 -0.1948
 9748SOL     OW40897   9.684   0.893   0.797  0.5470 -0.5494  0.5702
 9748SOL    HW140898   9.629   0.811   0.782  1.8353 -1.5365  1.1213
 9748SOL    HW240899   9.701   0.938   0.709  0.5202 -1.3367  0.1525
 9749SOL     OW40900   4.544   5.579   1.849 -0.1574 -0.1203 -0.2603
 9749SOL    HW140901   4.629   5.606   1.894  0.0646 -1.7651  0.3256
 9749SOL    HW240902   4.511   5.493   1.888 -0.9606 -0.5993 -1.9462
 9750SOL     OW40903   7.616   6.596   5.540  0.7659  0.2017  0.1401
 9750SOL    HW140904   7.564   6.668   5.587  0.6574  1.5825 -2.0226
 9750SOL    HW240905   7.611   6.512   5.593 -2.1064  0.8241  0.9680
 9751SOL     OW40906   3.467   3.497   6.544  0.0915 -0.2551  0.2477
 9751SOL    HW140907   3.411   3.499   6.462  0.0378 -2.4970  0.2105
 9751SOL    HW240908   3.521   3.414   6.546  0.0033 -0.2986  2.5398
 9752SOL     OW40909   3.121   9.267   1.223 -0.5869  0.3020  0.2000
 9752SOL    HW140910   3.051   9.310   1.167  0.2273  2.2938  0.6535
 9752SOL    HW240911   3.171   9.338   1.274  2.1941 -0.9862 -0.6361
 9753SOL     OW40912   6.608   8.454   3.574  0.4572  0.5547 -0.2636
 9753SOL    HW140913   6.580   8.500   3.658  0.4943  0.8959 -0.4362
 9753SOL    HW240914   6.530   8.446   3.512  0.3649  0.0612 -0.0910
 9754SOL     OW40915   0.689   9.806   7.397 -0.2302 -0.1710 -0.0374
 9754SOL    HW140916   0.647   9.812   7.487  0.2784 -0.1886  0.2006
 9754SOL    HW240917   0.681   9.712   7.362  0.5466 -0.4361  0.4666
 9755SOL     OW40918   1.845   9.657   6.107 -0.4114  0.5102  0.2302
 9755SOL    HW140919   1.900   9.695   6.181 -0.5746  0.4437  0.3862
 9755SOL    HW240920   1.875   9.694   6.019 -0.4318  0.8335  0.3618
 9756SOL     OW40921   1.529   2.448   0.858  0.0783 -0.0359  0.4157
 9756SOL    HW140922   1.456   2.403   0.910  0.1356 -0.5404  0.0498
 9756SOL    HW240923   1.504   2.452   0.762 -0.1870  1.2246  0.5199
 9757SOL     OW40924   2.573   7.889   7.023 -0.4285 -0.4189 -0.4489
 9757SOL    HW140925   2.603   7.908   6.930 -2.9980  0.3078 -1.1614
 9757SOL    HW240926   2.617   7.954   7.086  0.5850 -0.3078 -1.2639
 9758SOL     OW40927   1.056   0.946   5.339  0.2662  1.0930 -0.1490
 9758SOL    HW140928   0.976   0.947   5.398 -0.4325 -0.4448 -1.0427
 9758SOL    HW240929   1.136   0.977   5.390 -0.1105 -1.2556  1.9198
 9759SOL     OW40930   3.725   4.211   6.764 -0.2825 -0.5755 -0.1485
 9759SOL    HW140931   3.690   4.158   6.842 -1.0553  1.1299  0.6991
 9759SOL    HW240932   3.710   4.160   6.680 -0.0816 -2.1450  0.7394
 9760SOL     OW40933   3.557   2.923   4.532 -0.1524  0.2437  0.3531
 9760SOL    HW140934   3.484   2.856   4.546 -0.5296  0.8691  1.5023
 9760SOL    HW240935   3.646   2.878   4.541 -0.3413 -0.8843 -2.8110
 9761SOL     OW40936   3.752   8.664   4.844  0.5535  0.2806 -0.2438
 9761SOL    HW140937   3.816   8.588   4.837  0.7545  0.4861 -0.6433
 9761SOL    HW240938   3.697   8.670   4.760 -0.6578 -0.4859  0.4765
 9762SOL     OW40939   2.948   8.151   4.658 -0.1986  0.9855  0.3546
 9762SOL    HW140940   2.924   8.055   4.645  0.3326  1.2839 -3.1854
 9762SOL    HW240941   3.037   8.158   4.703  1.1469 -0.2534 -2.0347
 9763SOL     OW40942   9.199   2.258   5.763 -0.2187  0.3808 -0.1541
 9763SOL    HW140943   9.221   2.333   5.826  1.5317 -1.1526  1.1233
 9763SOL    HW240944   9.281   2.234   5.711 -0.5537 -1.1888  0.0432
 9764SOL     OW40945   4.649   8.356   6.824 -0.3114 -0.0200 -0.1192
 9764SOL    HW140946   4.687   8.281   6.878 -1.3533 -1.2700 -1.0976
 9764SOL    HW240947   4.615   8.428   6.886 -0.7828 -1.0758  0.8700
 9765SOL     OW40948   0.788   8.721   4.408  0.1091 -0.8062  0.0218
 9765SOL    HW140949   0.717   8.652   4.398 -0.1396 -0.9342  2.3746
 9765SOL    HW240950   0.752   8.811   4.383 -1.4242 -0.6069  2.7396
 9766SOL     OW40951   8.479   1.674   5.933 -0.1211  0.0237  0.1155
 9766SOL    HW140952   8.483   1.586   5.886  1.5043  0.5733 -0.8281
 9766SOL    HW240953   8.497   1.661   6.030 -2.1371 -0.9537  0.3764
 9767SOL     OW40954   9.582   3.239   2.119  0.2823 -0.2419 -0.5344
 9767SOL    HW140955   9.645   3.246   2.197  0.6432 -0.2697 -0.8250
 9767SOL    HW240956   9.618   3.172   2.053  0.4368  0.4552 -1.1606
 9768SOL     OW40957   8.125   7.288   6.175 -0.5026 -0.0165  0.1696
 9768SOL    HW140958   8.150   7.200   6.135  1.8882  1.4992 -1.7922
 9768SOL    HW240959   8.207   7.343   6.190 -1.9167  1.7524  1.7144
 9769SOL     OW40960   7.486   4.816   2.496 -0.1685 -0.1009  0.7305
 9769SOL    HW140961   7.522   4.825   2.589 -1.2140 -0.1187  1.1463
 9769SOL    HW240962   7.443   4.902   2.469 -2.9886 -1.1799  1.6157
 9770SOL     OW40963   0.395   4.293   5.894  0.5050 -0.3565 -0.1135
 9770SOL    HW140964   0.333   4.332   5.826  0.3054 -0.8793 -0.2335
 9770SOL    HW240965   0.466   4.241   5.847  0.7343 -0.1931  0.0493
 9771SOL     OW40966   8.642   7.784   5.184  0.2482  0.0060 -0.1875
 9771SOL    HW140967   8.598   7.797   5.273  0.9263 -1.0011  0.3076
 9771SOL    HW240968   8.621   7.693   5.149  0.5120  0.1632 -0.7631
 9772SOL     OW40969   0.216   4.725   2.734  0.1140  0.2101  0.1963
 9772SOL    HW140970   0.145   4.667   2.771  1.4084 -0.5682  1.5214
 9772SOL    HW240971   0.262   4.679   2.658 -0.5815  0.5773 -0.4456
 9773SOL     OW40972   1.569   4.000   1.280  0.4237 -0.2876  0.2689
 9773SOL    HW140973   1.628   3.923   1.303 -0.2134 -1.9895 -3.4678
 9773SOL    HW240974   1.481   3.991   1.328  0.4059 -1.8178 -0.0422
 9774SOL     OW40975   6.945   6.274   5.751 -0.9412 -0.2461 -0.0976
 9774SOL    HW140976   6.982   6.240   5.838  0.4645 -0.4326 -0.7441
 9774SOL    HW240977   7.016   6.328   5.705 -0.7056 -2.4745 -2.4054
 9775SOL     OW40978   2.054   4.198   3.054  0.2131  0.3914 -0.7775
 9775SOL    HW140979   2.113   4.264   3.101  0.5637  0.1966 -0.9451
 9775SOL    HW240980   2.109   4.144   2.990  0.4159 -1.8456  1.2280
 9776SOL     OW40981   2.260   8.207   6.522 -0.2075  0.2032  0.3776
 9776SOL    HW140982   2.185   8.160   6.570 -0.5974  2.1102  1.6850
 9776SOL    HW240983   2.321   8.249   6.589  0.1433  1.5320 -0.7663
 9777SOL     OW40984   6.100   1.201   2.871  1.1180 -0.3546 -0.5926
 9777SOL    HW140985   6.012   1.155   2.863  0.2083  1.0579  0.9258
 9777SOL    HW240986   6.131   1.231   2.781 -0.6608  0.4390 -0.9469
 9778SOL     OW40987   7.835   7.827   6.894  0.3500 -0.2278 -0.2068
 9778SOL    HW140988   7.811   7.804   6.800  0.8549 -1.9338  0.0795
 9778SOL    HW240989   7.753   7.860   6.942  0.3257  1.7722 -1.5393
 9779SOL     OW40990   7.701   1.647   7.709  0.0184 -0.2047  0.4347
 9779SOL    HW140991   7.776   1.711   7.693 -0.1039  0.2471  1.6546
 9779SOL    HW240992   7.614   1.691   7.687  0.0331 -0.4350 -0.1087
 9780SOL     OW40993   6.532   1.522   2.176 -0.0839  0.5860 -0.3274
 9780SOL    HW140994   6.489   1.478   2.254  0.4519  0.5411 -0.0527
 9780SOL    HW240995   6.463   1.564   2.118 -0.8116 -2.0822 -1.5077
 9781SOL     OW40996   7.724   2.644   0.737  0.0249 -0.4539 -0.5196
 9781SOL    HW140997   7.821   2.621   0.739  0.0524 -0.3094  1.9529
 9781SOL    HW240998   7.713   2.743   0.729  0.0679 -0.5087 -1.2801
 9782SOL     OW40999   7.414   5.790   6.585  0.5521 -0.0427  0.0878
 9782SOL    HW141000   7.435   5.757   6.493 -0.1710 -2.1547  0.6723
 9782SOL    HW241001   7.460   5.733   6.653 -0.4163  0.3649  1.1093
 9783SOL     OW41002   2.318   4.491   6.379 -0.1053 -0.2474  0.3871
 9783SOL    HW141003   2.227   4.512   6.343 -0.7954  0.9150  2.6661
 9783SOL    HW241004   2.357   4.413   6.330 -0.5160  1.8880 -3.4911
 9784SOL     OW41005   7.229   2.052   2.908  0.2125 -0.0125 -0.2937
 9784SOL    HW141006   7.205   2.147   2.930  1.3303  0.8309 -2.6275
 9784SOL    HW241007   7.327   2.039   2.922 -0.6292 -2.2029  4.7117
 9785SOL     OW41008   2.903   6.149   7.511  0.2901  0.0973 -0.0468
 9785SOL    HW141009   2.918   6.070   7.451  0.4019 -1.2353  1.7066
 9785SOL    HW241010   2.981   6.211   7.505  1.6316 -1.4830  0.9275
 9786SOL     OW41011   5.059   8.842   6.233 -0.0708 -0.1150 -0.0354
 9786SOL    HW141012   4.962   8.816   6.236 -0.4130  1.0562 -0.8567
 9786SOL    HW241013   5.115   8.762   6.255 -1.1925 -1.0455 -0.4948
 9787SOL     OW41014   0.708   5.868   7.871  0.0567  0.3300  0.6412
 9787SOL    HW141015   0.734   5.964   7.861 -0.5908  0.3146 -1.3680
 9787SOL    HW241016   0.625   5.861   7.926 -1.2776  1.1490 -1.1904
 9788SOL     OW41017   9.656   3.673   7.000 -0.6506 -0.4661  0.4691
 9788SOL    HW141018   9.735   3.633   7.048 -0.5349  0.7703  1.3395
 9788SOL    HW241019   9.636   3.619   6.919  0.6005 -1.2611  0.6677
 9789SOL     OW41020   9.163   8.438   4.474  0.6608  0.1470 -0.8474
 9789SOL    HW141021   9.175   8.427   4.573  0.6488  1.2966 -0.7142
 9789SOL    HW241022   9.117   8.525   4.456  1.4956  0.3655 -1.9265
 9790SOL     OW41023   8.525   8.665   6.846  0.0643  0.8473 -0.4751
 9790SOL    HW141024   8.446   8.698   6.898  0.5471  0.1114  0.7657
 9790SOL    HW241025   8.505   8.668   6.748 -2.2409 -1.1335 -0.1296
 9791SOL     OW41026   3.778   4.724   5.896 -0.3611  0.1596  0.5612
 9791SOL    HW141027   3.701   4.672   5.859  0.8905 -1.8636  0.7074
 9791SOL    HW241028   3.778   4.816   5.857 -1.2891 -0.6941 -1.5164
 9792SOL     OW41029   9.898   4.524   3.348 -0.2621 -0.0895  0.7186
 9792SOL    HW141030   9.937   4.468   3.276 -3.6292 -0.0946 -1.2226
 9792SOL    HW241031   9.969   4.580   3.390  2.0805 -1.4938 -1.2999
 9793SOL     OW41032   1.180   4.578   2.907  0.6062  0.2482 -0.1612
 9793SOL    HW141033   1.102   4.590   2.969 -0.1780 -0.7737 -0.9445
 9793SOL    HW241034   1.230   4.495   2.931  0.1062 -0.3299 -1.0958
 9794SOL     OW41035   1.987   2.360   5.475  0.7143 -0.3986 -0.2735
 9794SOL    HW141036   1.985   2.330   5.380 -0.4432 -1.4984  0.0852
 9794SOL    HW241037   1.936   2.295   5.532  0.4025  0.8648  0.9206
 9795SOL     OW41038   4.793   9.485   3.906 -0.2337 -0.3107  0.2518
 9795SOL    HW141039   4.694   9.487   3.895 -0.3523  0.8854  1.3658
 9795SOL    HW241040   4.820   9.399   3.950 -0.7251 -0.7918 -0.3704
 9796SOL     OW41041   1.071   7.085   4.304  0.5447  0.4128 -0.2541
 9796SOL    HW141042   1.166   7.059   4.322  0.2182  0.6234  1.8977
 9796SOL    HW241043   1.025   7.105   4.390 -1.7414 -0.6569 -1.1721
 9797SOL     OW41044   2.129   2.725   5.631  0.3211  0.5746 -0.2606
 9797SOL    HW141045   2.164   2.661   5.562  2.6311  2.0679 -0.5390
 9797SOL    HW241046   2.193   2.729   5.708 -0.9451  0.8674  0.7966
 9798SOL     OW41047   8.166   0.036   7.499 -0.3913  0.0037  0.0263
 9798SOL    HW141048   8.265   0.046   7.483 -0.7451  1.1537 -1.6388
 9798SOL    HW241049   8.133   0.112   7.554 -0.5137  0.1588 -0.2583
 9799SOL     OW41050   6.378   9.971   5.617  0.2037 -0.0736  0.3665
 9799SOL    HW141051   6.435  10.035   5.566 -0.6310 -0.4560 -1.0492
 9799SOL    HW241052   6.422   9.951   5.705  2.0193 -0.0153 -0.5157
 9800SOL     OW41053   6.838   0.516   0.453 -0.0742  0.8289 -0.3257
 9800SOL    HW141054   6.853   0.613   0.431  0.8204  0.6008 -0.7322
 9800SOL    HW241055   6.924   0.474   0.480 -0.2345 -0.1398 -1.2606
 9801SOL     OW41056   0.492   9.160   1.083 -0.4663  0.1650 -0.2655
 9801SOL    HW141057   0.473   9.189   1.177  1.6430  0.4234  0.1091
 9801SOL    HW241058   0.535   9.069   1.084  1.5047  1.0555 -0.8043
 9802SOL     OW41059   6.730   2.650   7.988 -0.0497 -0.1883 -0.4868
 9802SOL    HW141060   6.655   2.709   7.955 -1.8129 -1.0667  1.8185
 9802SOL    HW241061   6.782   2.699   8.058 -0.1285 -0.5668 -0.1649
 9803SOL     OW41062   2.454   9.021   4.952  0.3052 -0.2064 -0.2187
 9803SOL    HW141063   2.546   9.054   4.973 -0.3919  1.3022  0.5961
 9803SOL    HW241064   2.419   9.070   4.871  0.3716 -1.0687 -0.7727
 9804SOL     OW41065   1.452   5.831   0.021 -0.2167 -0.0902 -0.4253
 9804SOL    HW141066   1.470   5.742  -0.020  0.2431  0.5840 -1.7262
 9804SOL    HW241067   1.524   5.895  -0.005 -0.2100  0.4970  1.0108
 9805SOL     OW41068   8.105   5.656   1.714  0.3524  0.2966  0.1336
 9805SOL    HW141069   8.065   5.747   1.724  3.3914  1.7298 -0.1305
 9805SOL    HW241070   8.052   5.604   1.647 -0.4998  2.4453 -0.9103
 9806SOL     OW41071   9.804   8.591   2.016  0.3739  0.1659 -0.3094
 9806SOL    HW141072   9.843   8.499   2.027 -2.7533 -1.3653 -1.0960
 9806SOL    HW241073   9.796   8.634   2.105 -0.4238 -1.3982  0.4105
 9807SOL     OW41074   1.068   7.251   8.123 -0.3415  0.2853  0.7445
 9807SOL    HW141075   1.046   7.154   8.114 -1.0571  0.2917  2.2014
 9807SOL    HW241076   1.004   7.305   8.068  0.2113 -0.0672 -0.2655
 9808SOL     OW41077   8.344   1.333   7.907 -0.4089  0.0230  0.7424
 9808SOL    HW141078   8.438   1.311   7.934 -0.6054 -0.3649  1.1181
 9808SOL    HW241079   8.287   1.252   7.917 -0.4412 -0.2179 -1.1129
 9809SOL     OW41080   8.797   7.430   4.042  0.1029  0.6500  0.5414
 9809SOL    HW141081   8.799   7.511   3.983 -2.0002  0.8976  0.7826
 9809SOL    HW241082   8.869   7.366   4.014 -0.0702  1.3265 -1.5048
 9810SOL     OW41083   1.420   7.748   6.723  0.2854  0.0556 -0.1342
 9810SOL    HW141084   1.441   7.655   6.692  0.6101  0.4477 -1.0938
 9810SOL    HW241085   1.359   7.792   6.658  0.6736  0.7536 -0.0290
 9811SOL     OW41086   3.686   3.765   4.103  0.9498  0.0730  0.0899
 9811SOL    HW141087   3.592   3.743   4.076  1.5337 -1.6386 -0.6235
 9811SOL    HW241088   3.698   3.864   4.103 -0.5253  0.2740 -0.9837
 9812SOL     OW41089   2.663   7.072   7.581 -0.3293 -0.2177  0.1285
 9812SOL    HW141090   2.712   7.138   7.637 -1.2094  0.5572 -0.0029
 9812SOL    HW241091   2.628   7.117   7.499  0.4709 -1.2174 -0.7642
 9813SOL     OW41092   4.771   9.064   1.776  0.0912 -0.2435  0.5364
 9813SOL    HW141093   4.754   9.065   1.678 -0.3570 -0.9426  0.6058
 9813SOL    HW241094   4.854   9.011   1.795  1.6920  2.0966  0.3119
 9814SOL     OW41095   1.224   6.299   0.456 -0.4299  0.2989  0.2868
 9814SOL    HW141096   1.228   6.398   0.460  2.2216  0.1957  1.0072
 9814SOL    HW241097   1.197   6.263   0.546  2.1481  0.2657  1.0904
 9815SOL     OW41098   1.246   3.557   3.137  0.3724 -0.4888 -0.2484
 9815SOL    HW141099   1.175   3.602   3.082  0.1973 -0.6116 -0.1274
 9815SOL    HW241100   1.333   3.603   3.123 -0.0451  0.6779  0.8139
 9816SOL     OW41101   7.095   2.272   1.839 -0.0193  0.1947  0.0036
 9816SOL    HW141102   7.036   2.338   1.792 -0.9871  0.5436  1.6602
 9816SOL    HW241103   7.038   2.204   1.886  0.8834  0.2786  1.2659
 9817SOL     OW41104   9.291   3.691   5.825 -0.0688 -0.5107  0.1684
 9817SOL    HW141105   9.323   3.603   5.860  1.1972  0.1249  0.6540
 9817SOL    HW241106   9.313   3.697   5.727  1.5958  0.0285  0.5524
 9818SOL     OW41107   0.694   9.324   2.506  0.2451  0.3014  0.5593
 9818SOL    HW141108   0.767   9.389   2.525 -0.0926  0.6970  0.5170
 9818SOL    HW241109   0.713   9.238   2.553  0.4561  0.5874  1.0034
 9819SOL     OW41110   7.304   5.794   6.043  0.3971 -0.3351 -0.0394
 9819SOL    HW141111   7.293   5.886   6.079  1.3269  0.0377 -0.6820
 9819SOL    HW241112   7.401   5.775   6.027 -0.0287 -0.0633 -3.3259
 9820SOL     OW41113   9.521   3.298   4.439  0.1733  0.0526  0.5329
 9820SOL    HW141114   9.538   3.253   4.526 -1.0784  0.0687  0.7981
 9820SOL    HW241115   9.427   3.279   4.409  0.4163  0.4888 -0.5390
 9821SOL     OW41116   8.048   0.111   0.211 -0.8195  0.2435  0.6810
 9821SOL    HW141117   8.121   0.143   0.150 -0.2829 -1.7752  0.2074
 9821SOL    HW241118   7.960   0.140   0.175 -0.4035  0.4773 -0.1820
 9822SOL     OW41119   7.645   0.958   1.393 -0.0421 -0.7527 -0.2116
 9822SOL    HW141120   7.554   0.920   1.410 -0.3619 -0.4470 -1.1550
 9822SOL    HW241121   7.676   1.008   1.474 -1.1376 -0.0470 -0.2015
 9823SOL     OW41122   9.761   7.852   0.263 -0.4302 -0.0151  0.2225
 9823SOL    HW141123   9.724   7.836   0.172 -0.1887 -1.1178  0.3145
 9823SOL    HW241124   9.687   7.860   0.329 -0.6088  0.8397 -0.0717
 9824SOL     OW41125   8.518   1.027   2.051 -0.2085 -0.2693 -0.2244
 9824SOL    HW141126   8.439   1.007   2.109 -0.3404 -2.0051 -0.9584
 9824SOL    HW241127   8.602   1.013   2.103 -0.3557 -0.3987 -0.0182
 9825SOL     OW41128   3.097   8.121   0.292  0.5025  0.4542 -0.0943
 9825SOL    HW141129   3.195   8.127   0.272  0.7926  1.0647  1.3749
 9825SOL    HW241130   3.079   8.038   0.345  0.5469  1.2868  1.2599
 9826SOL     OW41131   4.883   0.710   0.473  0.5444  0.4615 -0.7380
 9826SOL    HW141132   4.825   0.791   0.459 -1.3769 -0.9051 -0.8529
 9826SOL    HW241133   4.959   0.713   0.409  0.0255  1.7668 -1.3254
 9827SOL     OW41134   2.574   1.800   7.472 -0.4798 -0.3562 -0.8582
 9827SOL    HW141135   2.560   1.701   7.478  2.0562 -0.6681  0.2140
 9827SOL    HW241136   2.504   1.846   7.528 -1.6483 -1.5137 -1.3276
 9828SOL     OW41137   7.888   6.808   3.200 -0.0197 -0.0039  0.3314
 9828SOL    HW141138   7.947   6.843   3.126  0.9881 -0.9031  0.6920
 9828SOL    HW241139   7.865   6.712   3.181  1.0965 -0.5493  1.7002
 9829SOL     OW41140   8.643   4.820   0.236  0.3557  0.0178 -0.2900
 9829SOL    HW141141   8.667   4.771   0.152  0.5413 -0.4136  0.0114
 9829SOL    HW241142   8.677   4.914   0.231 -0.3202  0.2278 -1.0265
 9830SOL     OW41143   2.705   2.247   0.662  0.0892 -0.2448  0.2704
 9830SOL    HW141144   2.666   2.183   0.729 -1.1449 -1.1205 -1.2474
 9830SOL    HW241145   2.637   2.267   0.592  0.5491  2.5674  0.5645
 9831SOL     OW41146   6.927   2.409   1.137  0.2576 -0.3567  0.1885
 9831SOL    HW141147   6.973   2.365   1.059 -0.9071 -1.0565 -0.1202
 9831SOL    HW241148   6.930   2.348   1.216  0.0987 -0.2895  0.2457
 9832SOL     OW41149   9.018   3.215   0.659  0.8843 -0.7187  0.4578
 9832SOL    HW141150   9.067   3.231   0.745  1.0306 -0.5342  0.3402
 9832SOL    HW241151   9.077   3.240   0.582  0.9386 -1.3556  0.2864
 9833SOL     OW41152   0.097   3.360   2.998 -0.4839 -0.9252 -0.4884
 9833SOL    HW141153  -0.002   3.351   2.998 -0.4810 -1.1580  0.7684
 9833SOL    HW241154   0.137   3.292   2.937 -1.1123 -0.6690 -1.1858
 9834SOL     OW41155   5.610   5.137   0.652 -0.1510  0.2015  0.2033
 9834SOL    HW141156   5.672   5.106   0.724  0.6339  0.5331 -0.3233
 9834SOL    HW241157   5.595   5.235   0.662 -0.5547  0.1296  0.2983
 9835SOL     OW41158   3.935   9.785   6.591 -0.6546  0.4999  0.2224
 9835SOL    HW141159   3.883   9.805   6.508 -2.1667  1.3921  1.3293
 9835SOL    HW241160   3.880   9.727   6.652  0.1759  0.3699  0.8662
 9836SOL     OW41161   9.948   1.264   4.880  0.0786 -0.1455  0.0383
 9836SOL    HW141162   9.877   1.196   4.899 -1.2579  1.3185  0.3574
 9836SOL    HW241163   9.914   1.330   4.813  1.1303  0.5691  0.2038
 9837SOL     OW41164   8.806   1.106   1.631  0.1783 -0.1273  0.3586
 9837SOL    HW141165   8.870   1.140   1.562  0.4013 -2.0305 -0.3960
 9837SOL    HW241166   8.732   1.056   1.585 -1.2035  0.9842  1.3114
 9838SOL     OW41167   2.415   9.825   7.115  0.2150  0.1422  0.4966
 9838SOL    HW141168   2.507   9.807   7.150 -0.7284  0.2498  3.1141
 9838SOL    HW241169   2.373   9.738   7.087  1.8553  0.3238 -2.7288
 9839SOL     OW41170   0.907   8.219   2.976  0.3713 -0.1039  0.4403
 9839SOL    HW141171   1.000   8.241   3.003  0.1110  0.2489  1.0731
 9839SOL    HW241172   0.868   8.297   2.926  0.8501 -0.7526 -0.9775
 9840SOL     OW41173   8.910   6.224   3.433  0.0202  0.3479 -0.3021
 9840SOL    HW141174   8.822   6.187   3.465  1.9349 -1.9702  2.5932
 9840SOL    HW241175   8.941   6.295   3.496  1.9664 -1.4792  0.8649
 9841SOL     OW41176   8.796   9.179   2.416  0.2153  0.2013 -0.2305
 9841SOL    HW141177   8.703   9.149   2.395  1.2169 -1.1598 -3.0133
 9841SOL    HW241178   8.793   9.263   2.470 -2.6159  0.3615 -0.5733
 9842SOL     OW41179   6.239   1.364   0.924  0.3111  0.1323 -0.7130
 9842SOL    HW141180   6.145   1.375   0.892  0.6349 -0.5883 -1.9524
 9842SOL    HW241181   6.290   1.448   0.906 -0.0372  0.4594 -0.2069
 9843SOL     OW41182   8.665   7.330   1.435 -0.1291  0.4988  0.6560
 9843SOL    HW141183   8.676   7.268   1.512  0.6651  2.0128  1.8015
 9843SOL    HW241184   8.570   7.363   1.432 -0.1987  0.3150  0.8769
 9844SOL     OW41185   7.096   1.824   2.560  0.1269  0.8738 -0.3399
 9844SOL    HW141186   7.098   1.911   2.610  1.0822 -0.1909  1.4979
 9844SOL    HW241187   7.173   1.822   2.496  0.7068  0.9455  0.3525
 9845SOL     OW41188   0.683   7.292   0.688  0.0141  0.1073 -0.2629
 9845SOL    HW141189   0.709   7.323   0.597  0.5345 -2.2152 -0.9477
 9845SOL    HW241190   0.765   7.280   0.744 -0.1616 -0.0841 -0.0407
 9846SOL     OW41191   2.957   7.080   4.477 -0.1109  0.2248  0.0850
 9846SOL    HW141192   3.004   7.114   4.395 -1.1325  1.2242 -0.0981
 9846SOL    HW241193   2.975   7.143   4.553  1.2759 -0.9848  0.7772
 9847SOL     OW41194   0.794   5.839   1.847  0.5040 -0.3755 -0.0250
 9847SOL    HW141195   0.781   5.792   1.760  1.9069 -1.7031  0.4433
 9847SOL    HW241196   0.784   5.773   1.922  1.6154  0.2524  0.6871
 9848SOL     OW41197   9.562   4.606   0.169  0.5657 -0.3243  0.3083
 9848SOL    HW141198   9.581   4.510   0.190  0.4769 -0.0742  1.5740
 9848SOL    HW241199   9.604   4.664   0.239  0.0870  0.5300 -0.1100
 9849SOL     OW41200   1.757   7.395   6.727 -0.5764  0.4495 -0.0462
 9849SOL    HW141201   1.815   7.476   6.737 -1.1747  0.7469  1.1805
 9849SOL    HW241202   1.791   7.323   6.788  0.3010 -0.4380 -1.5561
 9850SOL     OW41203   3.402   7.669   0.967  0.4240 -0.2559 -0.5919
 9850SOL    HW141204   3.453   7.713   1.041  1.0955 -0.7191 -0.7799
 9850SOL    HW241205   3.400   7.730   0.887 -2.0290  1.1243  0.4538
 9851SOL     OW41206   9.293   0.251   0.029 -0.4939  0.4759  0.0796
 9851SOL    HW141207   9.230   0.174   0.025  0.2027 -0.1828  1.3290
 9851SOL    HW241208   9.380   0.225  -0.012  0.4076 -0.1036  2.2641
 9852SOL     OW41209   3.725   1.437   1.278  0.4246 -0.5503  0.0468
 9852SOL    HW141210   3.787   1.363   1.303  0.8932  0.3019  1.4598
 9852SOL    HW241211   3.675   1.468   1.359  0.8997  1.2797 -0.3323
 9853SOL     OW41212   7.175   4.596   1.327  0.0969  0.3685  0.2426
 9853SOL    HW141213   7.190   4.499   1.344  0.3807  0.4374  0.3853
 9853SOL    HW241214   7.263   4.640   1.306 -0.1566  0.4031 -0.7625
 9854SOL     OW41215   0.799   6.687   7.946 -0.0729 -0.3066  0.5947
 9854SOL    HW141216   0.722   6.748   7.931 -0.6943 -0.9859  0.9711
 9854SOL    HW241217   0.772   6.613   8.008  1.5234  0.6726  2.5065
 9855SOL     OW41218   2.467   2.540   6.313 -0.3865  0.2760  0.1019
 9855SOL    HW141219   2.540   2.586   6.363 -0.0919  0.8344 -0.8179
 9855SOL    HW241220   2.439   2.598   6.236 -0.3611 -0.8734 -0.7736
 9856SOL     OW41221   8.833   6.948   6.906 -0.3809 -0.3372 -0.1944
 9856SOL    HW141222   8.823   6.911   6.998 -2.6194  1.6924  0.4328
 9856SOL    HW241223   8.814   7.046   6.907 -2.1901 -0.6031 -3.0878
 9857SOL     OW41224   0.025   5.021   6.191  0.4743 -0.6970 -0.3384
 9857SOL    HW141225  -0.051   4.983   6.244  2.1557 -0.7881  2.0985
 9857SOL    HW241226   0.048   4.960   6.116 -0.9409 -1.3559 -0.2485
 9858SOL     OW41227   3.985   8.473   0.572  0.5858 -0.0891  0.4134
 9858SOL    HW141228   4.027   8.445   0.659  0.2187  0.4248  0.7602
 9858SOL    HW241229   4.030   8.426   0.497 -0.0229 -1.6210  0.9872
 9859SOL     OW41230   6.017   9.910   5.254 -0.0056  0.6231  0.2076
 9859SOL    HW141231   6.099   9.879   5.301 -0.6447 -1.5062 -0.0120
 9859SOL    HW241232   5.993   9.845   5.182 -2.0096  1.0543  0.4357
 9860SOL     OW41233   8.383   1.944   2.495  0.5678 -0.3466 -0.2311
 9860SOL    HW141234   8.370   1.860   2.547  1.8030 -1.8847 -2.3528
 9860SOL    HW241235   8.299   1.967   2.446  0.2199 -0.3071  0.3808
 9861SOL     OW41236   1.885   5.623   3.366  0.1383 -0.2832  0.3847
 9861SOL    HW141237   1.930   5.592   3.282  0.1177 -2.3208  1.1052
 9861SOL    HW241238   1.843   5.545   3.412 -0.0510  0.8539  2.1829
 9862SOL     OW41239   0.976   1.946   7.660  0.4690 -0.4270 -0.1102
 9862SOL    HW141240   1.026   2.033   7.655 -0.7695  0.2132 -1.5525
 9862SOL    HW241241   1.024   1.877   7.605 -0.5521  0.3640 -2.0394
 9863SOL     OW41242   3.418   7.009   8.070 -0.3060 -0.2248  0.1888
 9863SOL    HW141243   3.415   6.982   7.974 -2.2506  0.2003  0.1044
 9863SOL    HW241244   3.377   6.937   8.126  0.8025 -0.4616  0.7023
 9864SOL     OW41245   5.805   2.530   7.915 -0.0073  0.4180 -0.0231
 9864SOL    HW141246   5.705   2.531   7.917 -0.0279 -0.3902 -0.4170
 9864SOL    HW241247   5.837   2.554   7.824  0.1791  1.5027  0.3255
 9865SOL     OW41248   9.150   2.432   7.425  0.1703  0.4519  0.1493
 9865SOL    HW141249   9.076   2.498   7.418 -0.4579 -0.2346  0.2293
 9865SOL    HW241250   9.238   2.479   7.419 -0.2640  1.3596  0.8324
 9866SOL     OW41251   0.419   6.001   1.410 -0.4902 -0.1017  0.1411
 9866SOL    HW141252   0.354   6.027   1.482 -0.3722 -0.4625  0.3789
 9866SOL    HW241253   0.393   5.912   1.373  0.1738 -0.5015  0.6099
 9867SOL     OW41254   0.824   6.005   5.329 -0.7723 -0.0719 -0.4340
 9867SOL    HW141255   0.759   5.946   5.376  0.8980 -1.5007  0.1302
 9867SOL    HW241256   0.876   5.951   5.263  0.1589  0.9523 -0.5516
 9868SOL     OW41257   2.460   7.840   4.916 -0.0610  0.5173 -0.2359
 9868SOL    HW141258   2.425   7.747   4.919  1.9697 -0.2203  2.3375
 9868SOL    HW241259   2.475   7.867   4.821  0.4868 -2.2247 -0.9640
 9869SOL     OW41260   9.271   5.459   7.815 -0.1951 -0.0883  0.0548
 9869SOL    HW141261   9.273   5.379   7.756  0.1557  0.7162 -1.0414
 9869SOL    HW241262   9.334   5.446   7.892  0.6572 -0.4280 -0.6946
 9870SOL     OW41263   3.633   8.911   7.676  0.0534  0.2877 -0.4411
 9870SOL    HW141264   3.546   8.936   7.635  0.6781 -0.4522 -2.3072
 9870SOL    HW241265   3.650   8.814   7.661 -0.3432 -0.3412  2.8817
 9871SOL     OW41266   7.892   2.867   5.693 -0.2000  0.2862  0.1545
 9871SOL    HW141267   7.828   2.795   5.668  0.2226  0.4850 -1.5615
 9871SOL    HW241268   7.971   2.865   5.631  0.6239  1.1309  1.1631
 9872SOL     OW41269   7.199   4.953   0.791  0.2092 -0.0028  0.3728
 9872SOL    HW141270   7.148   5.039   0.793  0.1046 -0.0420 -0.4168
 9872SOL    HW241271   7.235   4.933   0.882  1.2412  1.4767  0.2956
 9873SOL     OW41272   7.247   2.474   4.371 -0.2602 -0.2165 -0.8071
 9873SOL    HW141273   7.177   2.546   4.366 -2.2401 -1.9920  0.2022
 9873SOL    HW241274   7.281   2.455   4.279 -0.9168  0.8643 -1.2906
 9874SOL     OW41275   9.936   0.325   5.608 -0.0977 -0.2215 -0.4197
 9874SOL    HW141276  10.032   0.347   5.587  0.6093 -1.6516  1.2749
 9874SOL    HW241277   9.924   0.226   5.607 -1.1915 -0.1031  1.0006
 9875SOL     OW41278   8.342   6.811   1.197  0.1877  0.7746  0.2531
 9875SOL    HW141279   8.323   6.817   1.295 -2.0946  0.3558 -0.1401
 9875SOL    HW241280   8.368   6.902   1.164 -1.4944  1.4836  0.7835
 9876SOL     OW41281   9.151   5.058   3.082 -0.0561 -0.4687 -0.1344
 9876SOL    HW141282   9.159   5.148   3.125 -0.8164 -0.9133  0.9853
 9876SOL    HW241283   9.205   4.992   3.134 -0.0502 -0.7950 -0.5556
 9877SOL     OW41284   1.075   6.359   5.225 -0.0181  0.1813  0.3187
 9877SOL    HW141285   1.075   6.330   5.130  0.8898 -0.1027  0.3974
 9877SOL    HW241286   1.166   6.344   5.264 -0.7387 -0.9745  1.6033
 9878SOL     OW41287   7.091   1.303   5.506  0.1202 -0.1260 -0.4939
 9878SOL    HW141288   7.099   1.294   5.605  1.6500 -0.1028 -0.5951
 9878SOL    HW241289   7.023   1.373   5.484 -1.1031 -0.9872  0.5128
 9879SOL     OW41290   5.040   9.069   5.529  0.1657 -0.4260 -0.1809
 9879SOL    HW141291   5.123   9.083   5.475  1.0831 -1.2490  0.9840
 9879SOL    HW241292   5.046   9.122   5.614  0.6672 -2.4809  1.1033
 9880SOL     OW41293   2.470   6.689   0.300 -0.0003  0.2969 -0.3083
 9880SOL    HW141294   2.426   6.776   0.325 -0.0188 -0.0509  0.8583
 9880SOL    HW241295   2.562   6.707   0.265 -0.2121  0.8355 -0.5953
 9881SOL     OW41296   3.894   0.925   4.091  0.3317  0.0539 -0.3244
 9881SOL    HW141297   3.981   0.975   4.092  0.0166  0.6192 -0.8576
 9881SOL    HW241298   3.819   0.988   4.111  0.0693 -0.4911  0.4225
 9882SOL     OW41299   2.015   1.473   2.817  0.2145  0.0785 -0.0704
 9882SOL    HW141300   1.967   1.552   2.855 -1.4191 -0.5827 -0.7463
 9882SOL    HW241301   2.011   1.397   2.882  0.5997  0.1102 -0.0067
 9883SOL     OW41302   9.078   9.987   3.387  0.0436  0.5307 -0.0802
 9883SOL    HW141303   9.141   9.992   3.310  1.2134 -0.1878  0.8095
 9883SOL    HW241304   9.100  10.059   3.453  0.2287 -0.0064  0.4498
 9884SOL     OW41305   1.788   7.167   3.068 -0.1239  0.5243  0.2432
 9884SOL    HW141306   1.883   7.197   3.080 -0.2469  0.4182  1.4754
 9884SOL    HW241307   1.761   7.110   3.145 -0.5676 -1.0678 -1.0576
 9885SOL     OW41308   1.611   4.749   0.377 -0.6155 -0.1124  0.0303
 9885SOL    HW141309   1.571   4.659   0.359 -1.1021  0.3944 -1.6145
 9885SOL    HW241310   1.687   4.740   0.440 -0.6488 -1.6893 -0.1246
 9886SOL     OW41311   2.062   3.926   5.210 -0.2310 -0.1333 -0.2825
 9886SOL    HW141312   2.137   3.905   5.149 -0.7493  0.2243 -1.0494
 9886SOL    HW241313   2.057   4.025   5.224  0.4998 -0.2765  1.1333
 9887SOL     OW41314   1.155   2.957   2.924  0.0208 -0.5190  0.4130
 9887SOL    HW141315   1.086   2.939   2.994 -0.2991  0.3963  0.3425
 9887SOL    HW241316   1.122   2.924   2.836 -0.8601  0.9768  0.1567
 9888SOL     OW41317   5.816   9.769   4.541 -0.1700 -0.0518  0.3802
 9888SOL    HW141318   5.912   9.743   4.537 -0.0656  0.4916 -1.1062
 9888SOL    HW241319   5.764   9.698   4.587  1.0679  0.0599  2.0013
 9889SOL     OW41320   1.137   4.882   3.613  0.2162  0.3685  0.4319
 9889SOL    HW141321   1.089   4.948   3.671  0.0070 -0.8642  1.6880
 9889SOL    HW241322   1.152   4.797   3.664 -0.9508 -1.1561 -1.6823
 9890SOL     OW41323   8.860   3.872   4.053  0.3783 -0.1282 -0.2389
 9890SOL    HW141324   8.891   3.779   4.070  1.2263  0.3361  0.7729
 9890SOL    HW241325   8.869   3.927   4.136 -1.5579  0.4691 -0.3822
 9891SOL     OW41326   3.463   5.839   7.322  0.2138 -0.7111  0.6282
 9891SOL    HW141327   3.492   5.886   7.406  0.2695  0.3236  0.0286
 9891SOL    HW241328   3.518   5.756   7.311  1.8695  0.3897  0.3508
 9892SOL     OW41329   4.017   0.603   5.438 -0.2894 -0.3683 -0.2693
 9892SOL    HW141330   4.064   0.659   5.506  0.5119 -0.2148 -0.9447
 9892SOL    HW241331   4.084   0.566   5.374 -1.2597  1.3051 -2.3008
 9893SOL     OW41332   5.260   1.443   3.300 -0.4833 -0.3240 -0.1800
 9893SOL    HW141333   5.177   1.498   3.293 -0.0983  0.0105 -2.3156
 9893SOL    HW241334   5.339   1.499   3.276  0.3232 -0.7746  1.3685
 9894SOL     OW41335   4.695   3.802   6.534 -0.0170 -0.1347  0.1163
 9894SOL    HW141336   4.643   3.864   6.477 -0.1795 -0.7569 -0.4233
 9894SOL    HW241337   4.720   3.847   6.620 -1.5976  0.1033  0.4679
 9895SOL     OW41338   7.425   7.380   6.440  0.3474 -0.1827 -0.0490
 9895SOL    HW141339   7.462   7.323   6.366  2.1881 -1.5202  1.8328
 9895SOL    HW241340   7.329   7.356   6.456  1.1541 -2.9748  0.8539
 9896SOL     OW41341   1.714   3.824   6.030  0.2683  0.6952 -0.6290
 9896SOL    HW141342   1.687   3.755   5.963 -0.8426  0.6530 -0.1455
 9896SOL    HW241343   1.673   3.803   6.118  1.8484  0.6604  0.1244
 9897SOL     OW41344   2.674   2.821   6.345  0.3520 -0.0207 -0.0336
 9897SOL    HW141345   2.722   2.756   6.287 -1.2148 -0.4475 -0.8555
 9897SOL    HW241346   2.659   2.906   6.295  1.4699  0.6298  0.6943
 9898SOL     OW41347   4.593   0.886   8.169  0.3086 -0.1208  0.1549
 9898SOL    HW141348   4.622   0.878   8.074 -2.0387  1.9352 -0.8014
 9898SOL    HW241349   4.630   0.810   8.222  1.5630 -1.3625 -2.4178
 9899SOL     OW41350   2.788   5.198   0.743 -0.6208  0.0331 -0.2535
 9899SOL    HW141351   2.841   5.245   0.673  1.7146 -1.2133  0.6447
 9899SOL    HW241352   2.789   5.100   0.725 -1.3975 -0.1414  0.6278
 9900SOL     OW41353   3.173   1.582   7.560  0.3553  0.2105 -0.1532
 9900SOL    HW141354   3.201   1.528   7.481 -0.2981 -1.1967  0.5498
 9900SOL    HW241355   3.209   1.675   7.552 -1.6051  0.7589 -3.2048
 9901SOL     OW41356   8.804   0.602   7.298  0.4685  0.4454  0.0557
 9901SOL    HW141357   8.859   0.667   7.246 -1.0829  0.2175 -1.9543
 9901SOL    HW241358   8.865   0.545   7.354  2.1923  0.8419 -1.3428
 9902SOL     OW41359   2.994   0.223   1.581 -0.1140  0.2673  0.5824
 9902SOL    HW141360   2.951   0.159   1.645  2.4248 -3.0590 -0.8299
 9902SOL    HW241361   2.970   0.197   1.488  0.3642  1.8855 -0.0089
 9903SOL     OW41362   8.244   5.377   4.106 -0.1011 -0.6333 -0.2919
 9903SOL    HW141363   8.235   5.350   4.010 -1.2849  1.4689 -0.7907
 9903SOL    HW241364   8.308   5.315   4.151  1.7949 -0.6114 -2.8421
 9904SOL     OW41365   4.325   9.400   6.020 -0.1331 -0.1923 -0.4116
 9904SOL    HW141366   4.331   9.468   5.947  1.4479 -1.3013 -1.3575
 9904SOL    HW241367   4.229   9.374   6.034 -0.6207  1.3241 -0.8716
 9905SOL     OW41368   6.649   1.670   5.488  0.0777 -0.2589 -0.3058
 9905SOL    HW141369   6.627   1.768   5.487  0.2966 -0.1906  0.9467
 9905SOL    HW241370   6.620   1.629   5.402 -1.9732  0.4624  0.0260
 9906SOL     OW41371   8.629   9.235   7.870 -0.0090  0.8025 -0.2001
 9906SOL    HW141372   8.575   9.153   7.851  0.8669  0.4724 -1.3044
 9906SOL    HW241373   8.725   9.217   7.850  0.4047  1.6448  0.9647
 9907SOL     OW41374   3.015   8.866   2.010  0.1786 -0.5371 -0.5578
 9907SOL    HW141375   3.022   8.927   2.089  0.9184  1.0209 -1.7982
 9907SOL    HW241376   2.919   8.854   1.985  0.0007 -0.2135 -0.0313
 9908SOL     OW41377   3.833   7.728   6.053 -0.3031 -0.1020  0.3923
 9908SOL    HW141378   3.855   7.728   6.151 -0.4190  0.0764  0.4176
 9908SOL    HW241379   3.891   7.661   6.006 -0.3327 -0.2747  0.6023
 9909SOL     OW41380   1.781   4.317   4.254 -0.1322 -0.6260  0.3667
 9909SOL    HW141381   1.774   4.314   4.154 -0.7074 -0.1617  0.3957
 9909SOL    HW241382   1.696   4.350   4.293  0.5238  0.3863  0.9555
 9910SOL     OW41383   2.938   1.201   7.667  0.1350  0.3094  0.3737
 9910SOL    HW141384   2.935   1.176   7.570 -0.1876  0.6050  0.3063
 9910SOL    HW241385   2.950   1.300   7.675 -0.6462  0.3856  0.6339
 9911SOL     OW41386   7.910   7.282   2.983  0.2000 -0.0013  0.5942
 9911SOL    HW141387   7.891   7.246   2.891 -0.6633  0.7395  0.4850
 9911SOL    HW241388   7.953   7.372   2.975  1.4451 -0.5621  0.8915
 9912SOL     OW41389   6.438   8.627   2.689 -0.1268  0.1022 -0.5181
 9912SOL    HW141390   6.516   8.644   2.750  0.8440 -2.0025 -1.1162
 9912SOL    HW241391   6.438   8.693   2.614  0.9211  0.2891 -0.3540
 9913SOL     OW41392   0.349   3.609   6.672  0.5045  0.2566 -0.0050
 9913SOL    HW141393   0.415   3.683   6.656  0.5341 -0.1944 -2.0198
 9913SOL    HW241394   0.394   3.521   6.657 -0.4634 -0.0668 -1.0511
 9914SOL     OW41395   6.067   8.235   3.132  0.0836  0.0409 -0.4537
 9914SOL    HW141396   5.981   8.248   3.181  0.5994  1.4151  0.1001
 9914SOL    HW241397   6.086   8.316   3.076  2.2282  0.7721  1.2961
 9915SOL     OW41398   4.022   5.539   7.963 -0.7362 -0.2922 -0.0010
 9915SOL    HW141399   4.043   5.443   7.982  0.6654  0.1191  0.6211
 9915SOL    HW241400   4.002   5.550   7.866  0.7319 -0.9345 -0.3896
 9916SOL     OW41401   8.548   2.837   6.967  0.1039  0.2970 -0.3652
 9916SOL    HW141402   8.448   2.845   6.978  0.2490 -0.9755  2.2351
 9916SOL    HW241403   8.592   2.915   7.013  0.3745 -0.2699  0.3486
 9917SOL     OW41404   9.811   2.189   0.059  0.5720 -0.0299 -0.2422
 9917SOL    HW141405   9.862   2.274   0.066 -0.1094  0.4826 -1.4018
 9917SOL    HW241406   9.730   2.203   0.002 -1.0112 -0.7761  1.7812
 9918SOL     OW41407   9.581   7.823   5.736 -0.5004 -0.4265 -0.1631
 9918SOL    HW141408   9.655   7.883   5.767 -0.1156 -0.0485 -1.7464
 9918SOL    HW241409   9.605   7.728   5.757 -0.1441 -0.2046  0.4654
 9919SOL     OW41410   8.218   6.657   4.463 -0.3065  0.1876  0.2983
 9919SOL    HW141411   8.206   6.566   4.504  1.9972 -0.2021  0.1727
 9919SOL    HW241412   8.301   6.699   4.499 -1.2480  2.1769  0.1844
 9920SOL     OW41413   4.625   4.204   0.236  0.1109  0.3728 -0.4394
 9920SOL    HW141414   4.561   4.169   0.305  0.9513  0.2400  0.2761
 9920SOL    HW241415   4.573   4.241   0.159 -0.8174 -0.6305 -0.3064
 9921SOL     OW41416   8.758   0.936   7.603 -0.4535 -0.0887 -0.0209
 9921SOL    HW141417   8.679   0.997   7.595  0.6507  1.1701 -1.2556
 9921SOL    HW241418   8.827   0.978   7.662 -1.0282 -1.5621  1.7592
 9922SOL     OW41419   6.640   0.840   0.599  0.1004 -0.5327  0.3169
 9922SOL    HW141420   6.628   0.939   0.596  0.2034 -0.5092  0.6375
 9922SOL    HW241421   6.677   0.814   0.688  1.6907 -0.6836 -0.3601
 9923SOL     OW41422   2.401   4.855   2.853  0.2907 -0.5427 -0.3506
 9923SOL    HW141423   2.421   4.923   2.924 -1.1799 -1.4099  0.9197
 9923SOL    HW241424   2.445   4.769   2.877 -0.1319 -0.8122 -0.5446
 9924SOL     OW41425   9.198   1.727   6.658 -0.1037 -0.1972 -0.2403
 9924SOL    HW141426   9.195   1.699   6.754  0.8885  2.8568  0.7276
 9924SOL    HW241427   9.105   1.735   6.623 -0.5967  1.8683  1.4644
 9925SOL     OW41428   4.778   0.204   5.559 -0.1955  0.3034  0.3838
 9925SOL    HW141429   4.754   0.260   5.479  0.8018  0.1464 -0.0322
 9925SOL    HW241430   4.840   0.256   5.618  0.4453 -0.2287  0.1786
 9926SOL     OW41431   2.575   0.678   6.310 -0.2524  0.1420  0.0973
 9926SOL    HW141432   2.599   0.709   6.218 -0.9885 -2.8485 -1.1452
 9926SOL    HW241433   2.503   0.609   6.305  0.8618 -1.3029  2.7686
 9927SOL     OW41434   2.668   5.409   2.080 -0.4943 -0.2284 -0.1917
 9927SOL    HW141435   2.719   5.376   2.001  0.7068 -0.4065  0.6497
 9927SOL    HW241436   2.621   5.494   2.056 -1.1500 -0.9427 -1.4628
 9928SOL     OW41437   1.088   5.908   5.587 -0.4155  0.3416  0.6593
 9928SOL    HW141438   1.025   5.985   5.595  0.5038  1.3433 -1.3052
 9928SOL    HW241439   1.178   5.941   5.560  0.7480 -1.1710  2.5394
 9929SOL     OW41440   1.842   5.653   7.835  0.6920 -0.5220  0.2530
 9929SOL    HW141441   1.748   5.676   7.860  1.0127 -0.2787  1.2401
 9929SOL    HW241442   1.850   5.654   7.735 -0.0662  0.6224  0.1833
 9930SOL     OW41443   3.381   6.928   3.209 -0.0514 -0.0653 -0.5692
 9930SOL    HW141444   3.394   6.846   3.152 -0.9694 -0.3970 -0.3049
 9930SOL    HW241445   3.452   6.930   3.279 -0.0791 -0.6859 -0.5164
 9931SOL     OW41446   9.417   7.986   3.625 -0.0516 -0.2429 -0.0225
 9931SOL    HW141447   9.435   7.898   3.668 -0.4106 -1.6129 -2.5739
 9931SOL    HW241448   9.425   8.059   3.693  0.2121 -2.2319  2.1294
 9932SOL     OW41449   1.864   9.978   6.605  0.0296 -0.2583  0.0291
 9932SOL    HW141450   1.960   9.954   6.618  0.4047  0.6727 -0.9187
 9932SOL    HW241451   1.815   9.970   6.692  0.4187 -3.0606  0.0356
 9933SOL     OW41452   6.032   8.304   6.563 -0.3534 -0.8248  0.1737
 9933SOL    HW141453   6.041   8.256   6.651 -0.4219 -0.1965  0.5313
 9933SOL    HW241454   5.972   8.383   6.575 -0.6683 -0.9518 -0.5328
 9934SOL     OW41455   4.778   1.316   5.304 -0.2963  0.5178 -0.4004
 9934SOL    HW141456   4.744   1.318   5.210 -2.3091  1.1574  0.3125
 9934SOL    HW241457   4.842   1.392   5.318  0.3864  0.1376 -1.3656
 9935SOL     OW41458   1.898   5.059   0.865 -0.5172  0.3213  0.4868
 9935SOL    HW141459   1.801   5.077   0.884 -0.4276  0.7893  0.5293
 9935SOL    HW241460   1.907   5.009   0.779 -0.8119  0.0594  0.6097
 9936SOL     OW41461   0.528   9.530   6.383  0.4129 -0.0337 -0.1903
 9936SOL    HW141462   0.563   9.616   6.347  0.8544 -0.1461 -0.0439
 9936SOL    HW241463   0.513   9.466   6.308  0.9076 -0.1176 -0.2210
 9937SOL     OW41464   5.970   4.470   0.502  0.2312 -0.0806  0.8214
 9937SOL    HW141465   6.014   4.481   0.591 -1.1441 -0.7834  1.6058
 9937SOL    HW241466   5.904   4.544   0.489 -0.7593 -0.8974  1.1187
 9938SOL     OW41467   4.579   4.317   7.609  0.0309  0.6035 -0.2945
 9938SOL    HW141468   4.508   4.386   7.623 -0.2370  0.5564 -1.3453
 9938SOL    HW241469   4.537   4.233   7.574 -0.0308 -1.0683  3.5186
 9939SOL     OW41470   3.884   8.549   1.104 -0.4486  0.1679 -0.1021
 9939SOL    HW141471   3.967   8.601   1.087 -0.1571 -0.6144 -1.1020
 9939SOL    HW241472   3.820   8.562   1.029 -1.1599  0.6219  0.5767
 9940SOL     OW41473   8.524   2.460   1.474  0.2025 -0.1644 -0.1100
 9940SOL    HW141474   8.501   2.363   1.472  0.9614 -0.3258 -1.2009
 9940SOL    HW241475   8.441   2.514   1.457 -0.0751 -0.6401 -0.2661
 9941SOL     OW41476   0.208   4.115   7.082  0.0589  1.0032 -0.3831
 9941SOL    HW141477   0.244   4.157   7.165 -1.7997 -0.1050  1.0098
 9941SOL    HW241478   0.118   4.153   7.061 -1.3335 -1.6325  0.4812
 9942SOL     OW41479   8.516   9.769   0.139 -0.5357  0.4567 -0.4713
 9942SOL    HW141480   8.540   9.807   0.228 -0.6617 -1.4837  0.4112
 9942SOL    HW241481   8.417   9.766   0.129 -0.5139  1.2166 -0.9180
 9943SOL     OW41482   3.838   1.295   6.155  0.2961 -0.1830  0.4071
 9943SOL    HW141483   3.781   1.315   6.235 -0.9196 -0.3678 -0.4064
 9943SOL    HW241484   3.931   1.326   6.173  0.2961 -1.1956  2.3184
 9944SOL     OW41485   3.412   6.924   6.025  0.3407 -0.0527  0.2044
 9944SOL    HW141486   3.445   6.925   6.119 -1.4439 -2.0895  0.9011
 9944SOL    HW241487   3.350   7.002   6.011  2.7730  1.8576 -0.1447
 9945SOL     OW41488   7.807   9.841   4.963  0.3763  0.7772 -0.2016
 9945SOL    HW141489   7.812   9.761   4.904 -0.4436  0.9444 -0.5052
 9945SOL    HW241490   7.711   9.866   4.977  0.6558  2.3804 -1.0369
 9946SOL     OW41491   2.222   0.309   4.154 -0.5206 -0.1177 -0.4982
 9946SOL    HW141492   2.286   0.273   4.222  0.0089 -0.5896 -1.2350
 9946SOL    HW241493   2.266   0.310   4.064 -1.3050  0.2457 -0.8833
 9947SOL     OW41494   4.785   2.003   3.633 -0.5060 -0.0791  0.0351
 9947SOL    HW141495   4.743   2.051   3.711  0.4383  0.2933  0.3223
 9947SOL    HW241496   4.789   1.906   3.654  1.8279  0.2886  1.4450
 9948SOL     OW41497   8.923   2.286   2.319 -0.4094 -0.0289 -0.1272
 9948SOL    HW141498   8.925   2.382   2.348  1.6316  0.0924 -0.5402
 9948SOL    HW241499   8.973   2.230   2.385 -1.6967 -0.8262  0.1692
 9949SOL     OW41500   8.170   0.006   3.161  0.3989 -0.2748 -0.2415
 9949SOL    HW141501   8.269   0.009   3.174  0.3886 -0.7275 -0.0332
 9949SOL    HW241502   8.129  -0.052   3.232  0.1202 -1.1202 -1.0788
 9950SOL     OW41503   8.535   6.787   0.713  0.2113  0.1796 -0.1212
 9950SOL    HW141504   8.554   6.766   0.809  2.3755 -2.0333 -0.9700
 9950SOL    HW241505   8.555   6.883   0.695 -1.9066  1.0873  1.9930
 9951SOL     OW41506   0.598   1.314   4.307 -0.2813  0.1745 -0.7868
 9951SOL    HW141507   0.584   1.296   4.210 -0.7938 -0.3773 -0.6170
 9951SOL    HW241508   0.513   1.348   4.347 -0.0419  0.5039 -0.5528
 9952SOL     OW41509   6.929   0.974   5.414  0.3947  0.3335 -0.0747
 9952SOL    HW141510   6.983   0.890   5.422  1.0690  0.8911  1.3927
 9952SOL    HW241511   6.969   1.044   5.473 -2.2556  0.5914  1.4703
 9953SOL     OW41512   7.599   1.164   4.924  0.1299  0.6494  0.1786
 9953SOL    HW141513   7.626   1.075   4.961  1.2050  0.9390  0.0818
 9953SOL    HW241514   7.609   1.164   4.825  0.6214  1.0564  0.2282
 9954SOL     OW41515   7.652   2.369   3.982 -0.1362  0.3780  0.3701
 9954SOL    HW141516   7.553   2.376   3.977 -0.0502  1.9219  0.5537
 9954SOL    HW241517   7.689   2.353   3.890 -0.6421 -1.7655  0.5166
 9955SOL     OW41518   1.625   9.647   6.262  0.5258  0.4116  0.2287
 9955SOL    HW141519   1.709   9.644   6.207  1.0925  1.3630  1.0216
 9955SOL    HW241520   1.646   9.684   6.353 -0.4897 -0.6756  0.9202
 9956SOL     OW41521   0.286   4.568   1.069 -0.1427 -0.0389 -0.4015
 9956SOL    HW141522   0.252   4.620   0.991  0.2468  0.2232 -0.3985
 9956SOL    HW241523   0.241   4.479   1.072 -0.6584  0.2145 -0.5286
 9957SOL     OW41524   4.306   2.907   5.695 -0.1922 -0.4447  0.3908
 9957SOL    HW141525   4.281   2.818   5.658 -0.6929  0.4601 -1.5151
 9957SOL    HW241526   4.395   2.934   5.658 -0.8831  0.6541 -0.4988
 9958SOL     OW41527   8.280   2.270   4.477  0.1894  0.2283 -0.2792
 9958SOL    HW141528   8.186   2.243   4.462  0.1468  0.3540 -0.2483
 9958SOL    HW241529   8.331   2.196   4.521 -0.6146  1.1766  2.3634
 9959SOL     OW41530   1.828   4.366   3.010 -0.4295  0.5426 -0.0907
 9959SOL    HW141531   1.901   4.308   3.045 -1.3402 -0.2794  0.4761
 9959SOL    HW241532   1.847   4.389   2.914  0.0623 -0.4999 -0.2577
 9960SOL     OW41533   7.156   5.673   6.670 -0.4476  0.1760  0.5043
 9960SOL    HW141534   7.103   5.646   6.591 -0.8235  0.1610  0.7610
 9960SOL    HW241535   7.236   5.726   6.641 -0.9222  0.6961  0.1682
 9961SOL     OW41536   3.534   2.761   7.934 -0.8036  0.4792  0.0686
 9961SOL    HW141537   3.594   2.756   8.014 -0.4732  1.6379 -0.1065
 9961SOL    HW241538   3.443   2.727   7.959 -0.9125  1.5153  1.1318
 9962SOL     OW41539   8.694   8.614   4.594 -0.5282 -0.0012 -0.6114
 9962SOL    HW141540   8.598   8.614   4.566 -1.1816  0.4190  1.5288
 9962SOL    HW241541   8.742   8.691   4.552 -2.1359  2.2127  1.4812
 9963SOL     OW41542   1.905   6.813   6.677 -0.0895  0.1618  1.2605
 9963SOL    HW141543   1.940   6.750   6.747  0.5858  0.4077  1.1501
 9963SOL    HW241544   1.961   6.896   6.677  0.8460 -0.4418 -0.5845
 9964SOL     OW41545   2.816   0.809   0.308 -0.3774  0.6032  0.4190
 9964SOL    HW141546   2.897   0.867   0.298 -0.3273  0.3484 -0.6973
 9964SOL    HW241547   2.843   0.713   0.295 -0.9849  0.5793 -0.6848
 9965SOL     OW41548   8.225   6.215   5.729  0.2574  0.2268 -0.1362
 9965SOL    HW141549   8.302   6.217   5.666  0.6552 -1.4064  0.2711
 9965SOL    HW241550   8.237   6.284   5.800  2.4558 -1.4384  1.1705
 9966SOL     OW41551   1.425   9.792   3.635 -0.0170  0.3900 -0.5231
 9966SOL    HW141552   1.389   9.702   3.660  0.4198  0.5661  0.7668
 9966SOL    HW241553   1.366   9.863   3.674  0.1637  0.6702 -0.7628
 9967SOL     OW41554   9.645   8.316   3.326  0.0369  0.0683  0.0990
 9967SOL    HW141555   9.706   8.254   3.375  0.7903 -0.6843 -1.7500
 9967SOL    HW241556   9.561   8.329   3.379  0.8698 -0.6254  1.6189
 9968SOL     OW41557   3.701   8.897   5.358  0.1482  0.1794  0.8498
 9968SOL    HW141558   3.719   8.799   5.370 -0.1061  0.0862  0.4922
 9968SOL    HW241559   3.692   8.917   5.260  0.6493  0.6421  0.8942
 9969SOL     OW41560   4.365   0.304   1.961  0.3267  0.1862 -0.1964
 9969SOL    HW141561   4.385   0.400   1.939 -1.4461  0.6673  0.2092
 9969SOL    HW241562   4.385   0.287   2.058  0.0421  0.3120 -0.1155
 9970SOL     OW41563   7.825   3.212   7.905 -0.1622  0.2206 -0.1362
 9970SOL    HW141564   7.766   3.210   7.825 -0.8702 -1.2847  0.3933
 9970SOL    HW241565   7.874   3.125   7.913  1.2317  1.0014  0.1051
 9971SOL     OW41566   8.090   7.502   3.330  0.0667  0.4915  0.1109
 9971SOL    HW141567   8.079   7.542   3.421 -1.1857  0.5209 -0.0459
 9971SOL    HW241568   8.118   7.407   3.338 -2.4056 -0.2267  0.5830
 9972SOL     OW41569   9.840   8.612   2.671 -0.1508  0.4123  0.1659
 9972SOL    HW141570   9.763   8.659   2.627  0.5635  0.3963 -1.1405
 9972SOL    HW241571   9.886   8.674   2.734 -0.4976  0.7930  0.0504
 9973SOL     OW41572   3.689   9.401   4.880 -0.0385 -0.1709 -0.5789
 9973SOL    HW141573   3.776   9.363   4.912 -0.5132 -1.2051 -0.4765
 9973SOL    HW241574   3.647   9.454   4.953  0.8611  0.9545 -0.8763
 9974SOL     OW41575   0.070   4.405   7.586 -0.2771 -0.0429 -0.4794
 9974SOL    HW141576  -0.021   4.405   7.544 -0.4634  1.5775 -0.1147
 9974SOL    HW241577   0.126   4.475   7.542 -0.0837  0.8236  1.1250
 9975SOL     OW41578   5.929   5.765   0.871  0.7767 -0.4849 -0.7248
 9975SOL    HW141579   5.836   5.761   0.833  1.5266 -1.5471 -2.5088
 9975SOL    HW241580   5.955   5.860   0.884 -0.7810 -0.1828  0.3742
 9976SOL     OW41581   0.072   5.584   4.067 -0.4200 -0.4689 -0.0304
 9976SOL    HW141582   0.093   5.667   4.119  0.5035  0.1704 -1.4087
 9976SOL    HW241583  -0.027   5.573   4.062 -0.5328 -0.4284  1.6811
 9977SOL     OW41584   2.060   8.152   5.414 -0.2251 -0.1746 -0.0578
 9977SOL    HW141585   2.067   8.145   5.513  0.5182 -0.9809 -0.1650
 9977SOL    HW241586   1.990   8.089   5.380 -0.2207 -0.1636 -0.0860
 9978SOL     OW41587   7.535   0.839   3.187  0.2513  0.0533  0.5983
 9978SOL    HW141588   7.634   0.834   3.174  0.4427  1.4424  1.4729
 9978SOL    HW241589   7.495   0.747   3.177  1.5674 -0.4522 -0.1145
 9979SOL     OW41590   1.755   4.372   1.100 -0.3760  0.1604 -0.3920
 9979SOL    HW141591   1.747   4.382   1.001 -0.3265  1.1693 -0.3025
 9979SOL    HW241592   1.792   4.282   1.122 -2.6272 -0.9957 -1.1829
 9980SOL     OW41593   4.162   3.757   7.406 -0.4252 -0.1159 -0.0326
 9980SOL    HW141594   4.175   3.744   7.308 -0.2522  1.4534 -0.2387
 9980SOL    HW241595   4.188   3.674   7.455 -0.4125 -0.8736 -1.3034
 9981SOL     OW41596   4.871   2.629   5.693 -0.4074  0.3615 -0.2925
 9981SOL    HW141597   4.804   2.704   5.688 -1.0703 -0.1645  0.5544
 9981SOL    HW241598   4.826   2.543   5.668 -0.1280 -0.0397  0.5795
 9982SOL     OW41599   8.395   7.643   2.727  0.0338  0.9835  0.6734
 9982SOL    HW141600   8.315   7.704   2.729 -1.3194 -0.7421  0.6696
 9982SOL    HW241601   8.473   7.689   2.769 -0.9665  2.6969  0.7124
 9983SOL     OW41602   9.994   5.975   4.001 -0.3266 -0.0622 -0.1723
 9983SOL    HW141603  10.079   5.960   3.950 -0.4905  2.6689 -1.3434
 9983SOL    HW241604   9.916   5.954   3.943 -0.4761 -0.7976  0.2918
 9984SOL     OW41605   4.108   7.712   3.078 -0.0628 -0.0613 -0.5701
 9984SOL    HW141606   4.115   7.650   3.000 -0.8095 -0.0235 -0.6715
 9984SOL    HW241607   4.045   7.674   3.145 -0.1725  0.3639 -0.4284
 9985SOL     OW41608   3.396   8.123   0.388  0.2917 -0.2370 -0.1061
 9985SOL    HW141609   3.378   8.122   0.486  0.0888  0.5026 -0.1331
 9985SOL    HW241610   3.426   8.033   0.359 -0.5463 -0.7056  0.4690
 9986SOL     OW41611   6.271   1.301   6.169  0.2902  0.0466 -0.1278
 9986SOL    HW141612   6.359   1.350   6.168 -0.0345  0.6526  0.6342
 9986SOL    HW241613   6.276   1.225   6.233  0.2750  0.0505 -0.1222
 9987SOL     OW41614   0.376   9.323   3.302  0.0430 -0.4198 -0.3651
 9987SOL    HW141615   0.402   9.390   3.232 -0.3661 -0.7040 -0.7909
 9987SOL    HW241616   0.292   9.353   3.346  0.4069 -0.1419  0.1430
 9988SOL     OW41617   8.770   6.998   2.312 -0.2981  0.0910 -0.2444
 9988SOL    HW141618   8.737   7.021   2.221  0.0212 -0.2471 -0.4446
 9988SOL    HW241619   8.692   6.979   2.372 -0.4832 -0.5478 -0.6766
 9989SOL     OW41620   2.603   9.181   1.796  0.0079 -0.6133 -0.0542
 9989SOL    HW141621   2.604   9.271   1.751  1.1293 -0.2594  0.6508
 9989SOL    HW241622   2.621   9.110   1.729 -0.4991 -0.2809 -0.5492
 9990SOL     OW41623   7.838   1.544   4.766 -0.2463  0.3188 -0.0499
 9990SOL    HW141624   7.920   1.597   4.784 -0.3622 -0.1386  1.9167
 9990SOL    HW241625   7.844   1.456   4.812 -1.9712  0.3953  0.3649
 9991SOL     OW41626   8.310   6.904   2.536 -0.1571 -0.0415 -0.3581
 9991SOL    HW141627   8.270   6.818   2.503  1.5564 -1.0572  0.1855
 9991SOL    HW241628   8.266   6.929   2.623  0.7449 -1.4569  0.5329
 9992SOL     OW41629   8.605   1.255   7.923  0.1116  0.1456 -0.0070
 9992SOL    HW141630   8.595   1.188   7.849  0.7375 -1.2760  1.1905
 9992SOL    HW241631   8.659   1.333   7.890 -1.1871  0.3892 -1.6049
 9993SOL     OW41632   3.387   0.436   5.945 -0.4552  0.6196 -0.7749
 9993SOL    HW141633   3.399   0.370   6.019 -4.3578 -2.1373 -2.3897
 9993SOL    HW241634   3.456   0.422   5.874 -0.8596 -1.3642 -0.7893
 9994SOL     OW41635   1.406   0.134   4.408  0.4675  0.3261  0.2372
 9994SOL    HW141636   1.491   0.140   4.355  0.2523 -0.9696 -0.2580
 9994SOL    HW241637   1.401   0.045   4.453 -0.9470  0.1356 -0.2724
 9995SOL     OW41638   3.371   9.972   2.539 -0.5260 -0.2810  0.1205
 9995SOL    HW141639   3.311  10.049   2.557  3.0784  2.5984  0.3552
 9995SOL    HW241640   3.391   9.924   2.624 -2.0335 -0.9421  0.1138
 9996SOL     OW41641   8.413   8.409   0.597  0.1898  0.1224 -0.0778
 9996SOL    HW141642   8.469   8.446   0.523  0.2086 -0.3099 -0.2795
 9996SOL    HW241643   8.371   8.323   0.568 -0.0998  0.1400  0.2826
 9997SOL     OW41644   7.433   2.582   3.269 -0.1983 -0.1658 -0.2462
 9997SOL    HW141645   7.434   2.515   3.195 -0.0853 -0.0516 -0.3509
 9997SOL    HW241646   7.452   2.537   3.356  0.3117 -0.2024 -0.3746
 9998SOL     OW41647   7.373   8.238   4.008  0.3909 -0.5143 -0.0912
 9998SOL    HW141648   7.399   8.168   3.941  1.7004 -1.0666  0.9622
 9998SOL    HW241649   7.438   8.314   4.004  1.5359 -1.3714  1.7752
 9999SOL     OW41650   3.567   3.389   2.856 -0.2023  0.5459 -0.1961
 9999SOL    HW141651   3.644   3.396   2.920  1.1860  0.6343 -1.8355
 9999SOL    HW241652   3.530   3.296   2.859  1.2581 -0.0768 -0.8136
10000SOL     OW41653   7.560   1.410   2.144  0.3521 -0.1524  0.6892
10000SOL    HW141654   7.537   1.506   2.158  1.5066  0.1755  0.4137
10000SOL    HW241655   7.633   1.403   2.075  0.6625 -1.1829  1.1172
10001SOL     OW41656   9.912   0.560   5.380  0.0688 -0.3494  0.3097
10001SOL    HW141657   9.892   0.464   5.360 -0.6240  0.0871 -1.1197
10001SOL    HW241658   9.998   0.566   5.431  2.5240 -1.4347 -3.5202
10002SOL     OW41659   0.195   4.954   3.886 -0.4398 -0.5911  0.0800
10002SOL    HW141660   0.218   4.949   3.789  1.1542 -1.5572  0.5088
10002SOL    HW241661   0.251   4.890   3.938 -1.3772 -0.1824  1.6329
10003SOL     OW41662   1.480   1.958   8.113 -0.0996 -0.0124  0.6389
10003SOL    HW141663   1.403   1.928   8.056 -0.3943 -0.4051  1.2407
10003SOL    HW241664   1.548   2.004   8.056  0.1524 -1.4239 -0.2169
10004SOL     OW41665   3.342   0.293   7.339  0.0661  0.6140  0.4300
10004SOL    HW141666   3.330   0.375   7.395  0.1069  0.6521  0.3835
10004SOL    HW241667   3.428   0.248   7.363  1.2563  1.9303 -1.2474
10005SOL     OW41668   1.683   9.369   6.818  1.2060 -0.0558  0.0261
10005SOL    HW141669   1.769   9.416   6.796  0.9598  0.9005  1.0764
10005SOL    HW241670   1.634   9.350   6.733  2.3119 -0.3488 -0.5681
10006SOL     OW41671   6.580   8.139   3.160 -0.3619  0.4535  0.8763
10006SOL    HW141672   6.612   8.225   3.119 -1.8171  0.2920 -0.6073
10006SOL    HW241673   6.481   8.135   3.157 -0.2288 -2.8499 -2.2953
10007SOL     OW41674   8.289   9.071   3.834  0.3635 -0.3102 -0.3702
10007SOL    HW141675   8.284   8.982   3.789 -0.7052 -0.4572  0.0236
10007SOL    HW241676   8.320   9.140   3.769  0.1340 -0.7708 -0.9680
10008SOL     OW41677   0.772   0.843   0.113 -0.2870 -0.6651 -0.0420
10008SOL    HW141678   0.699   0.834   0.045 -0.3297  0.6983 -0.1852
10008SOL    HW241679   0.860   0.847   0.066 -0.2547 -0.5134  0.0330
10009SOL     OW41680   8.598   6.894   5.848 -0.2824 -0.0051 -0.8582
10009SOL    HW141681   8.689   6.884   5.887  0.7547 -0.0538 -3.2367
10009SOL    HW241682   8.555   6.977   5.885  0.2737 -0.5790  1.0993
10010SOL     OW41683   1.229   1.797   4.633  0.2136 -1.1238  0.0943
10010SOL    HW141684   1.252   1.778   4.537  1.7854  1.5306 -0.1094
10010SOL    HW241685   1.290   1.744   4.693  0.8437 -0.9739 -0.4041
10011SOL     OW41686   3.671   2.276   4.970 -0.7289  0.1464 -0.0352
10011SOL    HW141687   3.720   2.194   4.940 -0.6967  0.0668  0.2409
10011SOL    HW241688   3.581   2.250   5.004 -1.6116  0.4579 -2.0645
10012SOL     OW41689   8.860   1.883   3.040  0.1116 -0.2545  0.0234
10012SOL    HW141690   8.943   1.828   3.048  0.2371 -0.1771 -0.6977
10012SOL    HW241691   8.781   1.823   3.026 -0.2821 -0.4634  2.9341
10013SOL     OW41692   0.041   2.276   4.052  0.0391 -0.4404  0.0732
10013SOL    HW141693   0.102   2.236   4.121  1.1923  0.7090 -0.2635
10013SOL    HW241694  -0.028   2.333   4.097  0.0640 -0.6406  0.3639
10014SOL     OW41695   4.360   0.424   6.646  0.1570  0.2090 -0.0691
10014SOL    HW141696   4.423   0.352   6.674  0.7683  0.2537 -1.3174
10014SOL    HW241697   4.331   0.476   6.727  1.2595 -0.1741  0.5829
10015SOL     OW41698   2.663   6.535   1.570 -0.3314 -0.3090 -0.3275
10015SOL    HW141699   2.617   6.514   1.484  0.2585  1.3941 -1.0753
10015SOL    HW241700   2.694   6.450   1.613  0.3906 -1.1031 -2.3681
10016SOL     OW41701   2.839   5.596   4.175  0.5763  0.2443  0.0768
10016SOL    HW141702   2.784   5.597   4.092  0.6845  0.2699  0.0046
10016SOL    HW241703   2.933   5.569   4.152  0.6238  0.3204  0.1796
10017SOL     OW41704   8.114   1.666   8.092  0.0011  0.2844 -0.3971
10017SOL    HW141705   8.079   1.756   8.070 -0.9368  0.1444  0.4879
10017SOL    HW241706   8.091   1.643   8.187  1.0090 -0.5143 -0.3282
10018SOL     OW41707   1.315   3.780   5.791 -0.1675  0.5806 -0.0994
10018SOL    HW141708   1.304   3.873   5.827 -2.9636 -0.0981  0.8764
10018SOL    HW241709   1.308   3.783   5.691 -1.2912  1.3033 -0.0167
10019SOL     OW41710   9.666   0.581   2.259 -0.0772  0.0455 -0.2811
10019SOL    HW141711   9.716   0.528   2.190  1.3417  2.1578 -0.9269
10019SOL    HW241712   9.603   0.643   2.213  0.5470  1.1468  0.3362
10020SOL     OW41713   7.837   8.238   7.028  0.2515  0.8410 -0.2423
10020SOL    HW141714   7.915   8.266   7.085  1.3014 -0.7041 -0.8871
10020SOL    HW241715   7.863   8.243   6.931 -0.3529 -0.0023 -0.4521
10021SOL     OW41716   1.792   7.019   0.916  0.3602  0.0837  0.7235
10021SOL    HW141717   1.702   7.051   0.945  0.5249  0.3038  0.9961
10021SOL    HW241718   1.782   6.953   0.841 -0.0642 -0.4129  1.2133
10022SOL     OW41719   3.790   7.159   3.561  0.3560 -0.3384 -0.2490
10022SOL    HW141720   3.733   7.177   3.641 -1.1698  0.8193 -1.5759
10022SOL    HW241721   3.834   7.243   3.531  0.8757 -0.7598 -0.6900
10023SOL     OW41722   6.665   4.279   2.309 -0.4795 -0.3070  0.2144
10023SOL    HW141723   6.755   4.254   2.274 -1.1620 -0.1355 -1.7360
10023SOL    HW241724   6.608   4.312   2.233 -2.5088 -1.3578  1.2519
10024SOL     OW41725   1.304   8.850   6.763  0.2047 -0.0226  0.4704
10024SOL    HW141726   1.273   8.897   6.846 -0.2379 -0.1428  0.3748
10024SOL    HW241727   1.306   8.752   6.779  0.3936 -0.0261  0.4291
10025SOL     OW41728   7.585   9.808   4.418  0.4039 -0.0368  0.4759
10025SOL    HW141729   7.571   9.758   4.503 -0.2404  0.1540  0.4866
10025SOL    HW241730   7.540   9.897   4.424 -0.2482 -0.3015 -0.3167
10026SOL     OW41731   0.211   2.552   5.284 -0.1316  0.2133 -0.1101
10026SOL    HW141732   0.125   2.595   5.312 -0.8065 -1.7082  0.8553
10026SOL    HW241733   0.268   2.536   5.364  0.5984  0.3366 -0.6005
10027SOL     OW41734   1.734   2.137   0.898 -0.2025  0.0086 -0.0495
10027SOL    HW141735   1.777   2.172   0.981 -2.0916  0.9472  0.5659
10027SOL    HW241736   1.804   2.102   0.836  1.2604 -0.4137  1.8019
10028SOL     OW41737   1.827   5.077   6.263  0.0755  0.3049 -0.2211
10028SOL    HW141738   1.900   5.010   6.248 -0.4779 -0.3558 -0.0197
10028SOL    HW241739   1.739   5.033   6.245 -0.2836  1.0287 -0.2217
10029SOL     OW41740   7.963   9.632   3.517  0.0686  0.0572  0.2400
10029SOL    HW141741   7.971   9.576   3.599  2.0199 -0.1400 -0.0531
10029SOL    HW241742   7.963   9.574   3.436 -2.0738  0.2357  0.0799
10030SOL     OW41743   5.139   7.447   3.432 -0.4378 -0.6566 -0.1557
10030SOL    HW141744   5.074   7.511   3.474 -0.3307  0.6454 -1.8688
10030SOL    HW241745   5.101   7.414   3.345  1.4603  0.6791 -1.5336
10031SOL     OW41746   1.439   7.966   2.470  0.2688  0.4322 -0.1370
10031SOL    HW141747   1.513   7.903   2.493 -1.2459 -1.5399 -0.5595
10031SOL    HW241748   1.438   7.982   2.371 -0.8502 -0.8405 -0.3491
10032SOL     OW41749   8.211   4.317   5.569 -0.2372  0.0039 -0.3706
10032SOL    HW141750   8.275   4.291   5.641 -1.2419 -0.9285  0.1843
10032SOL    HW241751   8.117   4.306   5.601 -0.6974  1.9584 -0.9783
10033SOL     OW41752   3.763   4.435   2.076 -0.0971 -0.8056  0.7068
10033SOL    HW141753   3.679   4.383   2.061  0.6862 -1.5886 -1.1661
10033SOL    HW241754   3.771   4.505   2.005  1.5637 -1.7183 -0.0339
10034SOL     OW41755   0.653   0.482   2.406 -0.5620  0.2117 -0.0183
10034SOL    HW141756   0.590   0.550   2.444 -0.1076  0.4436  0.3183
10034SOL    HW241757   0.747   0.506   2.429 -0.3951 -0.5126  0.0793
10035SOL     OW41758   1.762   9.617   2.771 -0.5930  0.1797 -0.3451
10035SOL    HW141759   1.846   9.659   2.735 -1.4032  0.7879 -1.5314
10035SOL    HW241760   1.715   9.568   2.698 -2.3019  1.5041 -0.1501
10036SOL     OW41761   7.636   3.684   7.636  0.4232  0.0229 -0.6083
10036SOL    HW141762   7.589   3.692   7.549 -1.6465 -1.3072  0.3484
10036SOL    HW241763   7.573   3.707   7.711  2.2734  1.5659  0.5389
10037SOL     OW41764   0.270   4.580   1.353  0.3072  0.3025 -0.0844
10037SOL    HW141765   0.257   4.558   1.257  0.7569  0.4838 -0.1854
10037SOL    HW241766   0.299   4.675   1.362  5.0652 -1.0285 -0.1109
10038SOL     OW41767   1.766   4.031   1.666 -0.5290  0.4202 -0.3529
10038SOL    HW141768   1.809   4.015   1.578  0.2325  1.4021 -0.1641
10038SOL    HW241769   1.755   3.945   1.715  2.5167  0.3059  0.2026
10039SOL     OW41770   2.084   7.293   8.028 -0.1237  0.0149  0.2398
10039SOL    HW141771   2.023   7.214   8.037  1.7528 -1.4124  0.7549
10039SOL    HW241772   2.050   7.369   8.084 -1.0128 -1.0124  1.1067
10040SOL     OW41773   0.656   2.069   2.919  0.2776  0.2646  0.1555
10040SOL    HW141774   0.754   2.067   2.900  0.3218  0.6710  0.3431
10040SOL    HW241775   0.640   2.047   3.016  0.1380 -0.4917 -0.0350
10041SOL     OW41776   8.976   9.613   2.354 -0.2537  0.2151 -0.3706
10041SOL    HW141777   9.060   9.567   2.325  0.5249  0.4099  1.5525
10041SOL    HW241778   8.904   9.595   2.287  1.2045 -0.2684 -1.8506
10042SOL     OW41779   7.511   3.013   2.973 -0.0727 -0.0706  0.3894
10042SOL    HW141780   7.573   2.940   3.000 -0.8053 -0.0940  2.0066
10042SOL    HW241781   7.435   2.975   2.921 -1.2041 -0.6620  2.4402
10043SOL     OW41782   1.231   3.928   2.143 -0.2915  0.1848 -0.2220
10043SOL    HW141783   1.201   3.860   2.210 -0.8325  0.0296 -0.6190
10043SOL    HW241784   1.221   4.020   2.182  0.2799  0.0501  0.2507
10044SOL     OW41785   6.554   7.027   6.578  1.0861  0.0744 -0.0486
10044SOL    HW141786   6.574   6.942   6.530  1.4253 -0.2977  0.7362
10044SOL    HW241787   6.484   7.078   6.528  1.1976 -0.4565 -0.7554
10045SOL     OW41788   0.273   9.638   0.737  0.6386  0.2227 -0.2048
10045SOL    HW141789   0.261   9.552   0.689  2.6862 -0.6811  0.8783
10045SOL    HW241790   0.246   9.627   0.833 -1.0741  1.3558 -0.5307
10046SOL     OW41791   1.613   7.101   0.521  0.7529 -0.2221  0.3715
10046SOL    HW141792   1.570   7.049   0.594  0.8246 -0.6727  0.0969
10046SOL    HW241793   1.703   7.061   0.500 -0.3013 -1.6486 -1.6440
10047SOL     OW41794   1.104   5.129   0.161 -0.2913  0.1697 -0.5263
10047SOL    HW141795   1.010   5.117   0.191 -0.7473 -0.1917 -2.0181
10047SOL    HW241796   1.166   5.118   0.238 -1.4459 -0.0560  0.3792
10048SOL     OW41797   0.077   9.040   5.791 -0.0921  0.0125  0.4135
10048SOL    HW141798   0.011   8.987   5.844 -2.8840  3.0444  0.1304
10048SOL    HW241799   0.043   9.050   5.697  1.9161 -0.3026 -0.3637
10049SOL     OW41800   9.066   6.118   7.996  0.3049  0.3950  0.0695
10049SOL    HW141801   9.104   6.188   8.057  0.7964 -0.1206  0.3651
10049SOL    HW241802   9.132   6.099   7.922 -0.8682  2.0012 -1.4179
10050SOL     OW41803   5.164   0.942   3.015  0.1869 -0.1561 -0.7116
10050SOL    HW141804   5.219   0.869   3.054 -2.8848 -2.1785  0.0008
10050SOL    HW241805   5.125   0.912   2.928 -2.1911  0.0938  0.2263
10051SOL     OW41806   7.545   8.446   4.001 -0.0674 -0.3442  0.2476
10051SOL    HW141807   7.497   8.526   3.965  1.0114 -0.6891 -2.0353
10051SOL    HW241808   7.614   8.475   4.067  0.7168  0.7033 -0.9966
10052SOL     OW41809   3.175   8.461   1.337  0.0902 -0.6071  0.1993
10052SOL    HW141810   3.085   8.495   1.312 -0.0650 -0.8663  0.4133
10052SOL    HW241811   3.238   8.538   1.349 -0.9978 -0.2065  3.6281
10053SOL     OW41812   8.785   4.388   0.658 -0.7101  0.1582  0.6706
10053SOL    HW141813   8.794   4.311   0.594  0.8522 -0.0955  1.1840
10053SOL    HW241814   8.731   4.460   0.615 -1.1746 -0.7296 -0.2723
10054SOL     OW41815   8.160   9.078   6.726 -0.0381  0.0681 -0.4746
10054SOL    HW141816   8.233   9.090   6.794 -1.1759  1.4645  0.5131
10054SOL    HW241817   8.103   9.000   6.751  0.0897  0.0208 -0.3290
10055SOL     OW41818   9.651   6.005   4.795  0.6369 -0.2953 -0.8016
10055SOL    HW141819   9.726   6.065   4.766  1.0192 -0.4154 -0.0762
10055SOL    HW241820   9.565   6.037   4.754  1.1582 -0.4515 -2.0459
10056SOL     OW41821   5.085   7.896   3.916 -0.1367  0.0974  0.4580
10056SOL    HW141822   5.128   7.874   3.828  1.9456  0.7257  1.2763
10056SOL    HW241823   5.121   7.983   3.949  0.4107 -0.9783  2.7653
10057SOL     OW41824   6.658   8.960   3.390  0.2704 -0.3551 -0.0619
10057SOL    HW141825   6.561   8.949   3.411  0.1724 -0.5177 -0.5839
10057SOL    HW241826   6.712   8.891   3.439  0.2342  0.4013  1.0581
10058SOL     OW41827   1.713   1.143   1.462 -0.3748  0.0786  0.2947
10058SOL    HW141828   1.799   1.093   1.450 -1.2536 -0.9306 -2.1527
10058SOL    HW241829   1.705   1.211   1.389 -1.4749  0.4389  0.7455
10059SOL     OW41830   8.163   7.501   6.774 -0.8333  0.3361  0.3004
10059SOL    HW141831   8.106   7.445   6.714 -2.1325 -0.2079  1.9911
10059SOL    HW241832   8.110   7.528   6.854  0.5544  1.9223  0.7036
10060SOL     OW41833   4.591   9.184   6.555 -0.0636 -0.6567 -0.3361
10060SOL    HW141834   4.590   9.283   6.572  0.9895 -0.5145 -1.0468
10060SOL    HW241835   4.559   9.136   6.637 -0.1859  0.2518  0.1598
10061SOL     OW41836   1.287   7.764   4.099 -0.3319  0.6131 -0.1911
10061SOL    HW141837   1.311   7.787   4.005 -1.3119 -0.5113 -0.7308
10061SOL    HW241838   1.273   7.849   4.151 -0.3473  1.2399 -1.2046
10062SOL     OW41839   9.931   4.013   2.744  0.0847 -0.0268  0.2936
10062SOL    HW141840  10.007   4.070   2.776 -0.2784 -0.3048  1.6964
10062SOL    HW241841   9.922   3.933   2.804 -1.4191  0.0882  0.2355
10063SOL     OW41842   0.897   4.298   2.938 -0.4862 -0.8119  0.6412
10063SOL    HW141843   0.871   4.217   2.886  2.3102 -0.8946 -0.6765
10063SOL    HW241844   0.855   4.379   2.896  0.4469 -1.0662 -0.8161
10064SOL     OW41845   8.993   9.942   2.575 -0.4541 -0.0553  0.6798
10064SOL    HW141846   9.087   9.946   2.541 -0.3817  0.6537  0.9570
10064SOL    HW241847   8.929   9.938   2.498 -0.3915  3.5420  0.3770
10065SOL     OW41848   0.107   4.944   6.531  0.4206  0.1671 -0.1375
10065SOL    HW141849   0.073   4.879   6.462  0.5378 -0.6641  0.5731
10065SOL    HW241850   0.061   5.032   6.520 -0.9575 -0.5325 -0.0677
10066SOL     OW41851   8.706   5.710   2.508 -0.2193  0.3874 -0.6491
10066SOL    HW141852   8.635   5.696   2.577  2.0770 -2.2808  1.3230
10066SOL    HW241853   8.755   5.795   2.527  0.2047 -0.1716  0.9114
10067SOL     OW41854   4.029   2.511   2.568  0.0807  0.1024 -0.1016
10067SOL    HW141855   3.989   2.580   2.507 -2.5525 -0.4046  0.9597
10067SOL    HW241856   4.070   2.438   2.513 -2.0003 -0.2091 -1.3050
10068SOL     OW41857   1.916   0.972   1.442  0.5542  0.3766 -0.0946
10068SOL    HW141858   1.984   0.965   1.514  1.2298  1.4149 -0.6150
10068SOL    HW241859   1.886   0.881   1.414 -0.4772 -0.0118  2.1946
10069SOL     OW41860   4.557   4.734   1.164  0.2769  0.5004 -0.1333
10069SOL    HW141861   4.495   4.662   1.132  1.2258 -0.7660  0.8298
10069SOL    HW241862   4.522   4.772   1.250  0.5574  0.1191  0.1559
10070SOL     OW41863   1.681   6.041   3.318 -0.3271  0.0485  0.2973
10070SOL    HW141864   1.708   5.967   3.257 -0.6658  0.6546 -0.5859
10070SOL    HW241865   1.645   6.002   3.403 -0.2545 -0.7993 -0.0536
10071SOL     OW41866   5.625   2.938   4.397 -0.0182  0.2071  0.3187
10071SOL    HW141867   5.697   2.887   4.445 -0.2738 -0.9418 -0.4823
10071SOL    HW241868   5.660   2.970   4.309 -0.5570 -0.5953 -0.1971
10072SOL     OW41869   9.008   8.909   3.381  0.0614 -0.3729 -0.1491
10072SOL    HW141870   8.967   8.900   3.290  0.5156 -0.3353 -0.3613
10072SOL    HW241871   9.102   8.874   3.378 -0.3129 -1.4830  0.5926
10073SOL     OW41872   7.907   8.781   1.456 -0.1376  0.6807  0.2275
10073SOL    HW141873   7.830   8.796   1.394 -1.2654 -1.2516  1.1218
10073SOL    HW241874   7.989   8.761   1.403 -0.9825 -0.5114 -0.6586
10074SOL     OW41875   4.205   1.066   1.856  0.1307 -0.0586 -0.6046
10074SOL    HW141876   4.113   1.103   1.861  0.6370  1.1339  0.3479
10074SOL    HW241877   4.215   1.010   1.774 -1.5746 -0.6033 -0.4472
10075SOL     OW41878   9.903   8.786   1.052 -0.0273 -0.1712 -0.1763
10075SOL    HW141879   9.915   8.833   0.964 -0.4129 -1.8783 -1.1659
10075SOL    HW241880   9.812   8.744   1.055  0.4465 -1.1699  0.5295
10076SOL     OW41881   2.669   5.884   6.778 -0.5369 -0.1391 -0.6825
10076SOL    HW141882   2.692   5.807   6.717  0.4052 -1.8506  1.7288
10076SOL    HW241883   2.590   5.859   6.833 -0.6696  0.9321 -0.3967
10077SOL     OW41884   1.089   0.234   1.734 -0.0562 -0.3954  0.1617
10077SOL    HW141885   1.176   0.216   1.688 -0.1291  0.5968 -0.3817
10077SOL    HW241886   1.015   0.235   1.667 -0.6324 -2.2164  0.7532
10078SOL     OW41887   9.591   1.892   2.629 -0.2967 -0.3963  0.1334
10078SOL    HW141888   9.606   1.988   2.607 -0.5139 -0.3222  0.3020
10078SOL    HW241889   9.579   1.840   2.545 -2.1174  0.0497  0.1014
10079SOL     OW41890   1.971   1.233   2.421  0.6470 -0.2204  0.1869
10079SOL    HW141891   1.886   1.202   2.379  0.7440  1.7222 -1.5376
10079SOL    HW241892   2.043   1.165   2.406 -0.0029 -0.7756 -0.4175
10080SOL     OW41893   6.016   0.905   1.308  0.4645 -0.3542  0.1295
10080SOL    HW141894   6.006   0.992   1.261  0.2341 -0.9068 -0.8683
10080SOL    HW241895   6.029   0.832   1.240  0.9887 -1.0461  0.9607
10081SOL     OW41896   2.097   2.609   2.403 -0.0710  0.3372  0.2692
10081SOL    HW141897   2.032   2.534   2.395  0.5794 -0.1976 -0.0164
10081SOL    HW241898   2.114   2.649   2.313  0.6534 -0.0817  0.2194
10082SOL     OW41899   3.355   3.600   6.964 -0.5222 -0.5781  0.6095
10082SOL    HW141900   3.356   3.514   6.912 -1.3388 -1.0039  1.2846
10082SOL    HW241901   3.398   3.672   6.909  0.6861 -1.5322  0.2546
10083SOL     OW41902   9.967   0.445   0.223 -0.7361 -0.9184  0.5814
10083SOL    HW141903   9.954   0.543   0.237 -2.6069 -0.9584 -0.7066
10083SOL    HW241904   9.881   0.403   0.195  0.6558 -2.4523 -1.5486
10084SOL     OW41905   2.862   6.795   5.859 -0.1544 -0.0155 -0.8087
10084SOL    HW141906   2.932   6.729   5.884  1.0496  1.6937  0.4717
10084SOL    HW241907   2.802   6.812   5.938  0.1496  1.1181 -0.8039
10085SOL     OW41908   1.076   5.803   5.849  0.1302 -0.3488  0.2359
10085SOL    HW141909   1.106   5.859   5.772  0.7828  0.5799  1.1548
10085SOL    HW241910   1.136   5.819   5.927 -1.4824 -0.0894  1.4451
10086SOL     OW41911   5.176   0.105   2.005 -0.6565 -0.2011  0.1320
10086SOL    HW141912   5.178   0.045   1.926 -0.9397 -1.5755  1.1491
10086SOL    HW241913   5.182   0.200   1.975 -0.0206 -0.7352 -1.4856
10087SOL     OW41914   3.453   1.201   7.786 -0.5629 -0.6537  0.3962
10087SOL    HW141915   3.388   1.202   7.862  0.3297 -0.0610  1.1651
10087SOL    HW241916   3.409   1.163   7.705 -1.3595 -1.8165  1.3561
10088SOL     OW41917   8.140   0.388   6.210 -0.3625 -0.1406 -0.3851
10088SOL    HW141918   8.123   0.339   6.124  2.1144 -0.8940 -0.5021
10088SOL    HW241919   8.239   0.394   6.225 -0.7441  1.0055  1.8409
10089SOL     OW41920   2.948   9.672   3.209 -0.1488 -0.5389 -0.2927
10089SOL    HW141921   2.969   9.739   3.280 -0.7115 -0.5601 -0.0961
10089SOL    HW241922   2.864   9.699   3.162  0.6329 -0.1295 -1.4654
10090SOL     OW41923   8.280   4.531   7.932  0.4190  0.1202 -0.4210
10090SOL    HW141924   8.233   4.523   8.020 -1.5103  1.5736 -1.3066
10090SOL    HW241925   8.253   4.455   7.873 -2.1535  1.8200 -1.5121
10091SOL     OW41926   6.888   1.534   0.720 -0.1961 -0.1363 -0.0718
10091SOL    HW141927   6.968   1.474   0.711 -0.1368  0.1697 -1.8375
10091SOL    HW241928   6.806   1.480   0.733  0.2711 -0.4607  1.6708
10092SOL     OW41929   2.336   4.873   2.197 -0.5426  0.5188  0.0953
10092SOL    HW141930   2.392   4.798   2.160 -2.2498  0.2765 -2.1635
10092SOL    HW241931   2.244   4.838   2.219  0.2554  0.8026  4.1753
10093SOL     OW41932   7.142   2.142   5.654 -0.0721  0.3361  0.0452
10093SOL    HW141933   7.233   2.137   5.613 -0.8178 -0.6111 -1.5578
10093SOL    HW241934   7.128   2.234   5.691  0.3176  1.5367 -2.6496
10094SOL     OW41935   2.671   4.993   7.735 -0.2529 -0.1436  0.2549
10094SOL    HW141936   2.589   5.019   7.788 -0.6442  2.3518 -1.4940
10094SOL    HW241937   2.650   4.998   7.637  1.5544 -1.0269 -0.1876
10095SOL     OW41938   8.779   7.830   2.735  0.2301  0.4505 -0.3946
10095SOL    HW141939   8.770   7.871   2.644  2.5377 -2.5814 -2.0834
10095SOL    HW241940   8.863   7.862   2.778  0.7026 -0.4861 -0.6181
10096SOL     OW41941   8.425   2.136   4.230  0.3296  0.0430 -0.1199
10096SOL    HW141942   8.386   2.219   4.268 -0.2235 -0.6405  0.8069
10096SOL    HW241943   8.523   2.149   4.215  0.0746  1.1885 -0.9098
10097SOL     OW41944   9.033   2.859   3.173 -0.1739 -0.7018  0.2172
10097SOL    HW141945   8.992   2.832   3.086 -0.6472  1.0316 -0.1031
10097SOL    HW241946   8.964   2.854   3.246 -0.2944 -0.2366  0.1352
10098SOL     OW41947   7.486   7.685   5.645 -0.2320 -0.1690  0.6520
10098SOL    HW141948   7.439   7.607   5.604  0.5442 -0.4367  0.2609
10098SOL    HW241949   7.451   7.770   5.605 -0.8356 -0.3290  0.8346
10099SOL     OW41950   5.027   8.436   4.550 -0.2685  0.0223 -0.4207
10099SOL    HW141951   5.009   8.519   4.603 -0.7306  0.1425 -0.7604
10099SOL    HW241952   4.959   8.366   4.574 -2.0467  0.9091 -2.6518
10100SOL     OW41953   0.493   9.215   1.645  0.7277 -0.2192 -0.6955
10100SOL    HW141954   0.567   9.245   1.585  1.5649 -1.9575 -0.5587
10100SOL    HW241955   0.407   9.214   1.594  0.7317  2.0452 -0.7880
10101SOL     OW41956   3.074   4.648   6.067  0.2706  0.1901 -0.5235
10101SOL    HW141957   3.041   4.633   6.161 -1.3706  0.0206 -1.1012
10101SOL    HW241958   3.060   4.564   6.014  1.8081  0.0715 -0.7610
10102SOL     OW41959   7.909   0.245   2.944 -0.4834 -0.0996 -0.2189
10102SOL    HW141960   7.861   0.249   2.857 -0.0530 -2.4912 -0.6065
10102SOL    HW241961   7.846   0.217   3.017 -1.0119  2.5902  0.4186
10103SOL     OW41962   3.127   5.459   7.198  0.0988 -0.7135  0.1405
10103SOL    HW141963   3.084   5.456   7.288 -0.8507  1.5766 -0.2009
10103SOL    HW241964   3.057   5.459   7.127  0.6509  1.2958 -0.4586
10104SOL     OW41965   7.203   0.223   6.133 -0.0476  0.3370  0.0684
10104SOL    HW141966   7.246   0.134   6.117  1.0514  1.1223 -1.4198
10104SOL    HW241967   7.140   0.243   6.058 -0.1758  0.8870  0.3248
10105SOL     OW41968   1.168   7.945   1.834  0.4733  0.5429  0.4790
10105SOL    HW141969   1.154   7.981   1.927 -1.8480 -1.6743  1.0465
10105SOL    HW241970   1.189   8.021   1.773 -1.3968  2.5407  2.1843
10106SOL     OW41971   0.690   4.629   1.300  0.0356 -0.2584  0.2682
10106SOL    HW141972   0.760   4.675   1.356  0.3787  0.6928 -0.9094
10106SOL    HW241973   0.620   4.696   1.273 -0.0163 -0.6506 -0.5914
10107SOL     OW41974   9.159   0.297   5.312 -0.3363  0.5130  0.0103
10107SOL    HW141975   9.221   0.375   5.319  1.6830 -1.0944  0.3236
10107SOL    HW241976   9.118   0.279   5.402 -0.4856  0.9327  0.0300
10108SOL     OW41977   9.686   1.888   4.587 -0.1009  0.3866  0.1195
10108SOL    HW141978   9.784   1.909   4.583 -0.1436  0.5193 -0.2156
10108SOL    HW241979   9.652   1.907   4.679  0.4943 -1.0155  0.6375
10109SOL     OW41980   9.063   1.602   1.700  0.1248  0.7791  0.0394
10109SOL    HW141981   9.104   1.681   1.746 -0.4363  0.5490  0.9657
10109SOL    HW241982   9.056   1.526   1.766  0.3120  0.0837 -0.7386
10110SOL     OW41983   2.319   8.518   0.126 -0.1963 -0.1858  0.2544
10110SOL    HW141984   2.273   8.529   0.214 -0.1695  2.9467 -0.0625
10110SOL    HW241985   2.418   8.515   0.140 -0.2571 -1.2930  0.4599
10111SOL     OW41986   2.650   5.659   0.976  0.1930 -0.4042  0.4253
10111SOL    HW141987   2.655   5.706   1.064  2.3355  2.0287 -0.9360
10111SOL    HW241988   2.742   5.627   0.950  0.1867  1.6429 -2.3241
10112SOL     OW41989   3.064   3.343   6.419 -0.1620  0.9665  0.6872
10112SOL    HW141990   3.061   3.442   6.406 -0.3378  0.8971  0.2074
10112SOL    HW241991   3.023   3.297   6.341  1.1600  0.4702  0.2734
10113SOL     OW41992   3.368   7.715   4.110  0.9536 -0.3474 -0.3951
10113SOL    HW141993   3.451   7.771   4.113 -1.0732  2.7147  1.7087
10113SOL    HW241994   3.299   7.760   4.054 -0.3639 -1.2552  0.4704
10114SOL     OW41995   9.594   9.439   7.982  0.0262  0.2478  0.5260
10114SOL    HW141996   9.681   9.409   8.023  0.6914 -0.1034 -1.1159
10114SOL    HW241997   9.601   9.536   7.959  0.6791 -0.2274 -1.3476
10115SOL     OW41998   8.988   5.757   0.843  0.6643  0.0690  0.3298
10115SOL    HW141999   8.888   5.763   0.836  0.8304  0.2750 -2.1747
10115SOL    HW242000   9.027   5.849   0.833  1.1490 -0.0940  0.7077
10116SOL     OW42001   9.245   0.650   7.246 -0.0595 -0.7586  0.4142
10116SOL    HW142002   9.176   0.674   7.315  0.3215 -1.0948  0.9160
10116SOL    HW242003   9.283   0.734   7.206 -0.8882 -0.5729  0.0036
10117SOL     OW42004   2.307   8.523   1.609  0.0341 -0.1657 -0.1686
10117SOL    HW142005   2.241   8.510   1.683 -1.4407  2.3157 -0.9903
10117SOL    HW242006   2.276   8.474   1.528 -0.5580  0.5978 -0.4071
10118SOL     OW42007   7.341   6.190   0.044  0.4830 -0.1199  0.0731
10118SOL    HW142008   7.358   6.282   0.010  1.7120 -0.0831  0.7788
10118SOL    HW242009   7.360   6.186   0.142 -2.0714 -0.4849  0.6038
10119SOL     OW42010   3.845   8.712   1.901  0.6533  0.9205 -0.5337
10119SOL    HW142011   3.925   8.662   1.931 -2.3799 -3.2352  1.0482
10119SOL    HW242012   3.816   8.776   1.973 -0.4201 -1.3348  1.0759
10120SOL     OW42013   8.028   7.447   1.330 -0.3664 -0.3313 -0.0946
10120SOL    HW142014   8.100   7.386   1.365 -0.5924  0.1017  1.1462
10120SOL    HW242015   7.961   7.464   1.403 -1.0306  0.3082 -0.8537
10121SOL     OW42016   7.608   3.536   1.219 -0.1998 -0.0160 -0.1986
10121SOL    HW142017   7.666   3.455   1.214 -0.2769 -0.0987  0.2760
10121SOL    HW242018   7.521   3.513   1.262 -0.0272  0.4346  0.3882
10122SOL     OW42019   5.348   6.589   1.375 -0.6842 -0.4449 -0.2542
10122SOL    HW142020   5.293   6.531   1.315 -1.5159  2.1062 -2.0379
10122SOL    HW242021   5.327   6.568   1.471 -2.2413 -1.8523 -0.8934
10123SOL     OW42022   1.054   8.430   6.828  0.1753 -0.2265  0.1411
10123SOL    HW142023   1.047   8.473   6.738  0.3956 -0.8908 -0.2004
10123SOL    HW242024   1.013   8.489   6.897 -0.1323  0.2186 -0.4210
10124SOL     OW42025   0.643   9.279   0.283  0.1685  0.0501 -0.3447
10124SOL    HW142026   0.568   9.318   0.336 -0.0172 -0.0918 -0.4997
10124SOL    HW242027   0.664   9.339   0.206  1.1915  0.8164  0.5248
10125SOL     OW42028   1.580   7.684   2.553  0.1808  0.4623 -0.4663
10125SOL    HW142029   1.638   7.752   2.596 -0.8001  1.5452 -0.8352
10125SOL    HW242030   1.629   7.640   2.478  1.3915 -0.4236  0.8044
10126SOL     OW42031   7.168   3.396   0.659 -0.7676 -0.2413  0.1357
10126SOL    HW142032   7.242   3.384   0.725 -0.8398 -0.3487  0.1963
10126SOL    HW242033   7.207   3.403   0.567 -0.5704  1.2159  0.3153
10127SOL     OW42034   8.148   7.700   2.549 -0.0255 -0.6284  0.0496
10127SOL    HW142035   8.077   7.631   2.559 -0.4577  0.1538  2.5032
10127SOL    HW242036   8.190   7.691   2.458 -2.4581 -1.8177 -0.9995
10128SOL     OW42037   9.928   0.210   4.353  0.4080 -0.3936  0.0365
10128SOL    HW142038  10.020   0.197   4.392  0.9056  0.3928 -0.8415
10128SOL    HW242039   9.877   0.274   4.410  0.4070 -0.8229  0.5229
10129SOL     OW42040   4.507   7.788   5.238  0.2710 -0.1427  0.2743
10129SOL    HW142041   4.542   7.731   5.312  0.0094 -1.2691 -0.4468
10129SOL    HW242042   4.544   7.755   5.151  1.6947  2.0271  0.0177
10130SOL     OW42043   3.749   1.420   3.661  0.3985  0.1481  0.5820
10130SOL    HW142044   3.725   1.516   3.650 -0.3728 -0.1115 -0.0179
10130SOL    HW242045   3.804   1.409   3.743 -0.1337  0.9893  1.0554
10131SOL     OW42046   4.191   6.443   0.719  0.0886 -0.4827  0.1921
10131SOL    HW142047   4.161   6.538   0.719  0.5768 -0.3215  1.1866
10131SOL    HW242048   4.286   6.438   0.749 -0.1040 -1.3267  0.6766
10132SOL     OW42049   1.110   6.850   3.879  0.3065 -0.5388 -0.0961
10132SOL    HW142050   1.206   6.836   3.854  0.3310  1.2443 -1.0077
10132SOL    HW242051   1.069   6.919   3.820 -1.6816 -1.5839  0.0013
10133SOL     OW42052   5.543   1.817   5.723 -0.3787 -0.2071 -0.0699
10133SOL    HW142053   5.571   1.788   5.632  1.9145  1.9598 -0.1129
10133SOL    HW242054   5.450   1.855   5.718 -0.5996 -0.8886 -1.3384
10134SOL     OW42055   0.648   9.995   1.372 -0.0042  0.1428  0.0528
10134SOL    HW142056   0.565   9.943   1.354  1.4107 -1.4092 -2.1875
10134SOL    HW242057   0.728   9.937   1.357  1.5405  2.0743  0.5721
10135SOL     OW42058   2.045   7.396   7.228 -0.7465 -0.1075 -0.1515
10135SOL    HW142059   2.068   7.455   7.306  1.5023  0.3275 -1.0975
10135SOL    HW242060   2.087   7.307   7.240  0.2619  0.2054 -1.1971
10136SOL     OW42061   1.151   8.765   5.133 -0.3123 -0.0248  0.4044
10136SOL    HW142062   1.104   8.732   5.216  0.0136 -2.5616 -0.3725
10136SOL    HW242063   1.084   8.786   5.063 -0.4642 -1.0101  0.2369
10137SOL     OW42064   2.258   0.578   4.456 -0.1526 -0.5237  0.6114
10137SOL    HW142065   2.253   0.597   4.358  1.7030 -0.9285  0.4368
10137SOL    HW242066   2.212   0.652   4.505  0.5008  0.6305 -0.4691
10138SOL     OW42067   0.352   2.673   1.488  0.3796 -0.0381  0.3847
10138SOL    HW142068   0.450   2.660   1.503 -0.0328  0.6796  4.1646
10138SOL    HW242069   0.314   2.728   1.562 -2.9829 -0.5785 -0.8576
10139SOL     OW42070   1.111   7.808   5.497 -0.3542 -0.2952 -0.0011
10139SOL    HW142071   1.203   7.791   5.533 -1.2430  1.3278  3.2624
10139SOL    HW242072   1.111   7.891   5.441  0.0104  0.2953  0.8579
10140SOL     OW42073   7.669   7.900   3.389 -0.2594  0.1997  0.0170
10140SOL    HW142074   7.640   7.804   3.392 -0.6244  0.2907 -0.7068
10140SOL    HW242075   7.636   7.947   3.471  0.6015 -0.4812  0.7675
10141SOL     OW42076   8.817   9.351   7.330  0.3751 -0.1879  0.2281
10141SOL    HW142077   8.787   9.351   7.425 -0.5263  0.9514 -0.0413
10141SOL    HW242078   8.823   9.445   7.297 -0.5645 -0.6266 -1.2228
10142SOL     OW42079   4.734   7.917   2.354  0.2554  0.4504 -0.1714
10142SOL    HW142080   4.822   7.928   2.307  0.5257  1.3489  0.5070
10142SOL    HW242081   4.711   8.003   2.400 -1.8089  0.7753 -1.7311
10143SOL     OW42082   2.560   9.175   7.223 -0.0241  0.3099 -0.1222
10143SOL    HW142083   2.548   9.252   7.162 -0.5974  0.4321  0.1445
10143SOL    HW242084   2.584   9.093   7.171  0.5710  0.6635 -0.4047
10144SOL     OW42085   4.870   7.681   3.011  0.1491 -0.1073  0.0557
10144SOL    HW142086   4.802   7.608   3.003  0.0934 -0.2529  1.5986
10144SOL    HW242087   4.861   7.745   2.935 -0.4499 -1.1725 -0.7808
10145SOL     OW42088   3.585   0.617   7.282  0.2173  0.4603  0.4928
10145SOL    HW142089   3.633   0.618   7.195 -1.9380  2.7039 -0.7260
10145SOL    HW242090   3.543   0.706   7.299 -0.6923 -0.3951  3.0917
10146SOL     OW42091   0.483   4.886   2.392  0.5867 -0.7046 -0.3750
10146SOL    HW142092   0.467   4.816   2.321 -0.2554 -1.7500  0.8213
10146SOL    HW242093   0.398   4.935   2.409  0.9824  0.0713 -0.6269
10147SOL     OW42094   1.814   6.848   7.053  0.6445 -0.1050  0.6870
10147SOL    HW142095   1.751   6.775   7.026  0.4070  0.4239 -0.2257
10147SOL    HW242096   1.768   6.911   7.117 -0.0777  0.8007 -0.6956
10148SOL     OW42097   3.882   0.303   5.721  0.3944  0.0821 -0.2493
10148SOL    HW142098   3.818   0.270   5.790  2.5596 -1.0781  1.2657
10148SOL    HW242099   3.924   0.225   5.675  3.1171  0.7018  1.0737
10149SOL     OW42100   1.801   8.640   5.203  0.3835 -0.3506 -0.1944
10149SOL    HW142101   1.740   8.705   5.158  1.8104  1.3361  0.2619
10149SOL    HW242102   1.791   8.647   5.302  0.7384 -0.6414 -0.1337
10150SOL     OW42103   1.351   4.591   6.713 -0.3491  0.4339 -0.1656
10150SOL    HW142104   1.282   4.602   6.641 -1.7978 -0.3301  1.0891
10150SOL    HW242105   1.438   4.630   6.682 -0.1743 -2.2651 -3.4397
10151SOL     OW42106   7.334   0.949   7.934  0.5135 -0.0807 -0.0783
10151SOL    HW142107   7.373   0.925   8.022  0.0086  0.2515  0.2342
10151SOL    HW242108   7.399   1.006   7.883  0.5863  0.1644  0.2901
10152SOL     OW42109   4.841   7.940   2.048  0.3590 -0.4093 -0.0535
10152SOL    HW142110   4.850   7.869   1.979 -2.1852 -0.2488 -0.6122
10152SOL    HW242111   4.745   7.969   2.054  1.0625  1.8090  1.3144
10153SOL     OW42112   9.743   2.170   0.899 -0.3424 -0.2320  0.3335
10153SOL    HW142113   9.778   2.172   0.806 -1.9648  0.4721 -0.2679
10153SOL    HW242114   9.787   2.095   0.949  3.1462  1.5352  0.0731
10154SOL     OW42115   2.907   0.321   0.604 -0.3492  0.2470  0.1964
10154SOL    HW142116   2.829   0.376   0.573  0.5353 -0.0973 -2.8166
10154SOL    HW242117   2.988   0.379   0.607  0.1620 -0.4048 -0.9736
10155SOL     OW42118   3.148   8.416   2.172 -0.4433  0.2938  0.1861
10155SOL    HW142119   3.104   8.506   2.170  2.3076  1.6809 -0.5384
10155SOL    HW242120   3.098   8.353   2.112 -0.9784  2.0294 -1.2451
10156SOL     OW42121   7.412   2.742   4.315  0.0837  0.2985 -0.7603
10156SOL    HW142122   7.489   2.759   4.254  0.1913  0.3851 -0.5990
10156SOL    HW242123   7.336   2.703   4.262  0.3226 -0.0176 -0.8733
10157SOL     OW42124   6.997   5.300   6.703 -0.1543 -0.3505  0.2093
10157SOL    HW142125   7.081   5.270   6.658 -0.2298  0.5259 -0.5125
10157SOL    HW242126   6.986   5.250   6.789  1.4848  0.0493  0.6640
10158SOL     OW42127   6.432   1.191   0.856  0.2789  1.0204 -0.3335
10158SOL    HW142128   6.427   1.119   0.925 -1.0461  0.7176 -0.7212
10158SOL    HW242129   6.359   1.258   0.872 -1.4368 -0.1920 -2.6482
10159SOL     OW42130   3.307   7.051   1.752 -0.0428  0.5477  0.3014
10159SOL    HW142131   3.250   6.972   1.778 -1.3179  1.6635  0.9713
10159SOL    HW242132   3.399   7.040   1.790 -0.2218 -0.6010  0.4171
10160SOL     OW42133   2.748   5.663   7.319 -0.2586  0.0674 -0.0766
10160SOL    HW142134   2.811   5.662   7.242 -1.4724 -0.3766 -1.0760
10160SOL    HW242135   2.796   5.637   7.403  0.6939 -1.0249 -0.9607
10161SOL     OW42136   7.508   0.886   5.802  0.1056 -0.0439 -0.4639
10161SOL    HW142137   7.422   0.935   5.810 -0.4386 -0.9860 -0.5255
10161SOL    HW242138   7.544   0.897   5.709 -0.2100 -0.0889 -0.5904
10162SOL     OW42139   8.339   3.375   2.639 -0.3336 -0.3519  0.1957
10162SOL    HW142140   8.317   3.277   2.644  0.2938 -0.4771  0.6078
10162SOL    HW242141   8.406   3.391   2.567 -1.0253 -0.1074 -0.4038
10163SOL     OW42142   3.610   6.433   3.727 -0.5136  0.0010  0.3384
10163SOL    HW142143   3.529   6.482   3.760 -0.0794  0.0101  1.4010
10163SOL    HW242144   3.615   6.343   3.769  0.7465  0.5108  1.3068
10164SOL     OW42145   1.206   8.348   7.306 -0.4188 -0.0297 -0.7523
10164SOL    HW142146   1.290   8.399   7.327 -0.0486 -0.5649 -0.9278
10164SOL    HW242147   1.214   8.255   7.341 -1.5344  0.3386  0.5135
10165SOL     OW42148   9.073   4.789   5.476  0.1339  0.5868 -0.2258
10165SOL    HW142149   9.162   4.812   5.514  0.3820  1.6159 -1.3990
10165SOL    HW242150   9.046   4.858   5.409  0.8490 -2.4408 -3.8181
10166SOL     OW42151   5.507   0.597   2.644 -0.0692 -0.1380 -0.2434
10166SOL    HW142152   5.535   0.525   2.580 -0.9110 -0.3317 -0.4036
10166SOL    HW242153   5.431   0.563   2.700 -1.6557  1.1989 -1.5180
10167SOL     OW42154   9.551   9.488   6.165  0.0672  0.3416 -0.0420
10167SOL    HW142155   9.493   9.463   6.243  1.8717  0.5813  1.4103
10167SOL    HW242156   9.636   9.435   6.168  1.7058  2.8759  0.1738
10168SOL     OW42157   8.984   6.810   2.349  0.4731  0.1312 -0.3612
10168SOL    HW142158   8.946   6.761   2.428  1.3842  1.3963  0.8914
10168SOL    HW242159   8.920   6.880   2.319  0.1798 -0.2687 -0.6715
10169SOL     OW42160   3.058   0.343   2.381 -0.1577 -0.3487 -0.4904
10169SOL    HW142161   3.082   0.311   2.290  0.5414  0.0615 -0.4503
10169SOL    HW242162   3.067   0.442   2.386 -0.8381 -0.2949 -0.1664
10170SOL     OW42163   6.119   3.056   0.475  0.4393 -0.6482 -0.2108
10170SOL    HW142164   6.209   3.095   0.460 -0.2645  1.1270  0.0852
10170SOL    HW242165   6.093   3.066   0.571  0.2433 -1.8661 -0.1211
10171SOL     OW42166   3.545   5.419   6.138 -0.0341 -0.3834  0.1157
10171SOL    HW142167   3.537   5.511   6.177  1.5802 -0.2174  0.0575
10171SOL    HW242168   3.639   5.403   6.109 -0.0709 -2.4413  1.0817
10172SOL     OW42169   5.681   0.024   4.530  0.0542  0.7529  0.1266
10172SOL    HW142170   5.611  -0.012   4.468 -1.4162  0.2555  1.9987
10172SOL    HW242171   5.747  -0.048   4.550 -0.7289  0.2101  0.8445
10173SOL     OW42172   3.641   3.273   1.524  0.2382  0.1117 -0.0779
10173SOL    HW142173   3.541   3.271   1.517  0.0935  2.6716  0.9898
10173SOL    HW242174   3.668   3.250   1.618  0.7611 -2.0063 -0.7055
10174SOL     OW42175   9.113   8.155   2.512 -0.2858  0.0026 -0.2273
10174SOL    HW142176   9.149   8.089   2.447 -0.9504  0.1512 -0.7526
10174SOL    HW242177   9.078   8.108   2.593  1.0986 -0.1377  0.2905
10175SOL     OW42178   1.061   6.394   7.649  0.1174 -0.3135 -0.3524
10175SOL    HW142179   1.076   6.385   7.747 -1.9926  1.4331  0.1663
10175SOL    HW242180   1.138   6.444   7.609 -0.1325  1.0394  0.8178
10176SOL     OW42181   8.817   3.761   4.670 -0.4481 -0.2249 -0.1973
10176SOL    HW142182   8.877   3.800   4.601 -0.8912  0.0758 -0.4196
10176SOL    HW242183   8.798   3.829   4.740 -0.4953 -0.3309 -0.1068
10177SOL     OW42184   8.950   7.818   1.668  0.1383 -0.3425 -0.0528
10177SOL    HW142185   8.898   7.772   1.595  0.0841 -0.2373 -0.0799
10177SOL    HW242186   8.905   7.802   1.756 -0.7343  0.9428 -0.2505
10178SOL     OW42187   3.182   2.989   2.652 -0.4055  0.4440 -0.2585
10178SOL    HW142188   3.174   2.999   2.553 -0.2049  0.2481 -0.2961
10178SOL    HW242189   3.275   3.012   2.681  0.6957 -3.2031 -0.6143
10179SOL     OW42190   2.109   0.617   5.761  0.4510  0.1494  0.1577
10179SOL    HW142191   2.117   0.652   5.668  0.6136 -2.4080 -0.8474
10179SOL    HW242192   2.020   0.641   5.798 -0.4963 -0.6640 -1.5096
10180SOL     OW42193   9.660   0.669   0.268  0.3673  0.0837 -0.1726
10180SOL    HW142194   9.667   0.628   0.359 -0.0963 -1.1283 -0.6700
10180SOL    HW242195   9.584   0.627   0.218  0.3925  0.9953 -0.9882
10181SOL     OW42196   4.612   0.782   0.868  0.1782  0.3925 -0.1417
10181SOL    HW142197   4.596   0.718   0.943  0.9231  0.5488  0.1613
10181SOL    HW242198   4.647   0.868   0.905  2.1024 -0.0830 -0.7802
10182SOL     OW42199   9.001   2.077   3.680  0.7423  0.0758  0.4041
10182SOL    HW142200   8.902   2.086   3.690  0.5554 -0.7042 -0.6697
10182SOL    HW242201   9.036   2.158   3.633  0.5762  0.2212  0.5272
10183SOL     OW42202   1.168   1.865   7.140 -0.0116  0.3093 -0.1506
10183SOL    HW142203   1.105   1.807   7.192  0.3745  1.0215  1.1328
10183SOL    HW242204   1.248   1.811   7.113 -1.1725 -0.6120 -1.8323
10184SOL     OW42205   5.832   2.956   0.021  0.1732  0.0080 -1.0150
10184SOL    HW142206   5.920   2.986   0.057  0.4113 -1.2228 -0.5766
10184SOL    HW242207   5.833   2.965  -0.079  0.5530  0.6240 -0.9613
10185SOL     OW42208   2.600   6.598   7.137  0.1120 -0.1082  0.1219
10185SOL    HW142209   2.519   6.652   7.114 -1.0916 -1.5696  0.8761
10185SOL    HW242210   2.679   6.659   7.144 -1.6142  1.9566  3.0817
10186SOL     OW42211   2.407   2.780   4.606  0.3446  0.1749 -0.8562
10186SOL    HW142212   2.453   2.860   4.645  0.3253  0.4747 -1.4478
10186SOL    HW242213   2.431   2.772   4.509  0.2374 -0.4567 -0.8313
10187SOL     OW42214   7.365   7.826   3.441 -0.2815 -0.2694 -0.6853
10187SOL    HW142215   7.332   7.756   3.505  2.1686 -1.5970 -0.8134
10187SOL    HW242216   7.435   7.882   3.486 -0.4221  0.4835 -1.3860
10188SOL     OW42217   6.769   2.733   3.861 -0.4054  0.0160  0.3867
10188SOL    HW142218   6.690   2.785   3.828 -0.5904 -0.4434  0.0977
10188SOL    HW242219   6.737   2.650   3.906 -0.0348 -0.9659 -1.1264
10189SOL     OW42220   3.074   0.659   0.985  0.4455 -0.2991  0.2060
10189SOL    HW142221   2.979   0.641   0.961  0.8728 -0.2256 -1.6686
10189SOL    HW242222   3.132   0.587   0.947  1.0388 -0.8932  2.2136
10190SOL     OW42223   2.598   8.269   7.926 -0.1364 -0.1407 -0.0842
10190SOL    HW142224   2.539   8.269   7.845  0.3224  0.3680 -0.4219
10190SOL    HW242225   2.575   8.190   7.983 -0.9985 -0.0594 -0.3132
10191SOL     OW42226   4.969   9.076   6.141  0.4377  0.2147  0.5596
10191SOL    HW142227   4.898   9.125   6.191 -0.0248 -1.3512  1.4728
10191SOL    HW242228   4.989   8.989   6.187  0.3859 -1.0356 -1.6807
10192SOL     OW42229   3.385   1.301   6.105 -0.0457 -0.7243 -0.6961
10192SOL    HW142230   3.391   1.335   6.199 -1.0454 -0.5660 -0.6809
10192SOL    HW242231   3.471   1.257   6.080  0.3541 -0.4498  0.1707
10193SOL     OW42232   8.951   0.640   4.380  0.4469 -0.1298  0.1515
10193SOL    HW142233   8.957   0.554   4.329  1.9051  0.2733 -0.3628
10193SOL    HW242234   9.031   0.649   4.440  1.4517  1.9301 -1.4709
10194SOL     OW42235   2.973   2.580   2.201 -0.1556  0.5908 -0.2404
10194SOL    HW142236   2.894   2.643   2.206 -1.0690 -0.6706  1.4909
10194SOL    HW242237   2.947   2.491   2.238  2.0166  0.0542  0.0205
10195SOL     OW42238   4.695   0.725   2.703  0.1074 -0.5023 -0.3589
10195SOL    HW142239   4.734   0.725   2.611 -1.3272  0.0598 -0.9871
10195SOL    HW242240   4.600   0.758   2.699  0.1192 -0.2010  1.3534
10196SOL     OW42241   6.280   0.134   5.010  0.5236  0.3424  0.1924
10196SOL    HW142242   6.286   0.224   4.967 -0.9794  1.0664  1.4490
10196SOL    HW242243   6.237   0.070   4.946  0.5211  0.8003 -0.2719
10197SOL     OW42244   2.658   1.758   6.350  0.0065  0.0585 -0.2745
10197SOL    HW142245   2.628   1.719   6.263 -2.5244  0.9365  0.1580
10197SOL    HW242246   2.703   1.687   6.404 -0.2731 -1.0343 -1.4296
10198SOL     OW42247   0.767   5.168   5.737  0.1870 -0.0489  0.5369
10198SOL    HW142248   0.826   5.248   5.740 -0.3004  0.3393 -0.0122
10198SOL    HW242249   0.748   5.136   5.830 -2.1978  2.4083  0.9568
10199SOL     OW42250   7.497   2.698   0.364 -0.3017  0.0310 -0.1048
10199SOL    HW142251   7.401   2.725   0.364  0.5620  3.4188  1.0241
10199SOL    HW242252   7.530   2.692   0.270 -1.0952  0.9872 -0.4531
10200SOL     OW42253   9.754   6.698   2.663 -0.1235 -0.1463  0.1731
10200SOL    HW142254   9.736   6.740   2.752  0.4922 -1.1997  0.8035
10200SOL    HW242255   9.847   6.721   2.634 -1.3702  2.7995 -1.6797
10201SOL     OW42256   7.405   0.138   2.756 -0.0570  0.5603 -0.3186
10201SOL    HW142257   7.356   0.219   2.788  0.4453 -0.1796  2.4338
10201SOL    HW242258   7.502   0.160   2.746 -0.1918  0.7551 -1.2915
10202SOL     OW42259   6.077   0.667   1.472  0.0575 -0.3081  0.7234
10202SOL    HW142260   6.084   0.749   1.415  0.1994 -1.5578 -1.0999
10202SOL    HW242261   6.156   0.662   1.533 -0.2520  1.2083  1.2849
10203SOL     OW42262   3.571   1.607   5.634  0.5375  0.7677  0.1564
10203SOL    HW142263   3.620   1.574   5.715 -0.9955  0.6438  1.0471
10203SOL    HW242264   3.517   1.688   5.658 -0.7840  0.0895 -0.4755
10204SOL     OW42265   8.044   6.962   4.002 -0.2788  0.1703 -0.4064
10204SOL    HW142266   7.992   6.891   3.954  0.3633  0.3294 -1.3396
10204SOL    HW242267   7.988   6.999   4.076  0.1889 -2.9379  1.6029
10205SOL     OW42268   6.629   8.157   6.066  0.4725 -0.7815  0.2711
10205SOL    HW142269   6.688   8.203   5.999 -0.1224  0.9645  0.9140
10205SOL    HW242270   6.645   8.058   6.062 -0.8253 -0.9380 -3.6855
10206SOL     OW42271   2.007   0.872   5.172  0.6060 -0.1170 -0.3021
10206SOL    HW142272   1.930   0.936   5.169  0.4555 -0.2187  1.1498
10206SOL    HW242273   2.064   0.885   5.091  0.1066  1.2667 -0.4487
10207SOL     OW42274   6.601   7.348   5.604 -0.0874 -0.2225 -0.8075
10207SOL    HW142275   6.644   7.261   5.628  2.4360  0.3400 -2.9166
10207SOL    HW242276   6.502   7.336   5.598 -0.1351 -2.0144  2.5284
10208SOL     OW42277   4.223   5.331   2.351  0.0128  0.0871  0.1074
10208SOL    HW142278   4.257   5.331   2.445  0.0610 -0.1758  0.0900
10208SOL    HW242279   4.129   5.295   2.350  0.0289  0.0470  0.0477
10209SOL     OW42280   2.304   4.338   3.107 -0.8224 -0.0843 -0.1860
10209SOL    HW142281   2.352   4.295   3.184  3.2868  2.6684 -1.0324
10209SOL    HW242282   2.268   4.427   3.136 -0.5639  0.2907 -1.0073
10210SOL     OW42283   4.304   4.811   7.280 -0.1592 -0.0852  0.2553
10210SOL    HW142284   4.392   4.780   7.243 -0.1376  0.3269 -0.0400
10210SOL    HW242285   4.269   4.742   7.343 -0.4406 -1.0122 -0.9023
10211SOL     OW42286   7.409   1.521   2.471  0.2445  0.1625  0.5973
10211SOL    HW142287   7.310   1.504   2.479  0.1459  0.6410  0.4047
10211SOL    HW242288   7.433   1.533   2.375  0.7080 -1.2400  0.5300
10212SOL     OW42289   9.156   6.827   7.680  0.1345 -0.0489  0.2011
10212SOL    HW142290   9.218   6.872   7.743  0.3295  0.3797 -0.2988
10212SOL    HW242291   9.066   6.816   7.724 -0.4033  2.3140 -0.2595
10213SOL     OW42292   1.420   6.229   1.596 -0.3617 -0.0189 -0.0813
10213SOL    HW142293   1.400   6.197   1.503  1.6240 -0.9242 -0.2195
10213SOL    HW242294   1.377   6.169   1.663 -1.7911  0.6297 -0.3885
10214SOL     OW42295   8.078   4.888   5.166 -0.0946 -0.1635 -0.0086
10214SOL    HW142296   8.038   4.896   5.075  1.1666 -1.0879 -0.6534
10214SOL    HW242297   8.149   4.818   5.165  0.3581  0.2617  1.5410
10215SOL     OW42298   3.065   1.282   8.005 -0.0162  0.0969  0.6697
10215SOL    HW142299   3.103   1.306   7.916 -0.0054  2.2159  1.2330
10215SOL    HW242300   3.061   1.363   8.063  0.9891 -1.4663  2.9902
10216SOL     OW42301   0.485   5.012   3.177  0.2446 -0.3128 -0.1637
10216SOL    HW142302   0.501   5.050   3.268 -1.1796  0.7050 -0.3191
10216SOL    HW242303   0.560   4.950   3.153  1.2350  0.3278  1.2035
10217SOL     OW42304   9.578   9.981   5.613  0.2600  0.1506 -0.1109
10217SOL    HW142305   9.480   9.981   5.637  0.0185 -1.8435 -1.0156
10217SOL    HW242306   9.588   9.982   5.514  1.1021 -2.7213 -0.0902
10218SOL     OW42307   8.772   8.372   4.523  0.0281 -0.4295  0.2653
10218SOL    HW142308   8.748   8.466   4.545 -1.5864 -1.0815  1.3226
10218SOL    HW242309   8.787   8.321   4.607 -1.6662 -1.7784 -0.2225
10219SOL     OW42310   9.798   0.425   2.070  0.1027  0.0264 -0.5117
10219SOL    HW142311   9.828   0.332   2.048  1.5042  0.3030  0.1963
10219SOL    HW242312   9.854   0.491   2.020  1.5965  0.5856  1.8233
10220SOL     OW42313   9.566   6.499   1.579  0.4036  0.2985  0.5617
10220SOL    HW142314   9.553   6.461   1.671 -0.9611 -2.6027 -0.7736
10220SOL    HW242315   9.477   6.507   1.534  1.3364 -1.3440 -1.6490
10221SOL     OW42316   3.024   6.569   3.032  0.2473 -0.2616 -0.0020
10221SOL    HW142317   3.051   6.661   3.058  0.3655 -0.2731 -0.0812
10221SOL    HW242318   3.053   6.504   3.103  1.8710 -0.4768 -0.8292
10222SOL     OW42319   0.951   6.078   3.291  0.3748 -0.2884  0.2828
10222SOL    HW142320   0.915   6.042   3.205  1.3304 -0.0976 -0.2069
10222SOL    HW242321   1.050   6.089   3.283  0.3254  0.7222  1.0545
10223SOL     OW42322   3.222   1.342   5.373 -0.2308  0.3848  0.1207
10223SOL    HW142323   3.268   1.302   5.294 -0.5423  1.2021 -0.4815
10223SOL    HW242324   3.290   1.370   5.441  0.0190 -0.6255  0.2929
10224SOL     OW42325   2.793   3.970   3.794 -0.4866 -0.0527 -0.3215
10224SOL    HW142326   2.784   3.978   3.695  0.7692 -0.8459 -0.5083
10224SOL    HW242327   2.883   4.005   3.822  0.7699 -3.4220  0.0691
10225SOL     OW42328   1.545   6.482   3.843  0.7066  0.3611  0.4427
10225SOL    HW142329   1.595   6.511   3.925  1.8273  0.1112 -0.1381
10225SOL    HW242330   1.447   6.492   3.859  0.8947 -0.0695  1.9606
10226SOL     OW42331   3.597   4.220   4.988  0.2117  0.1997 -0.0251
10226SOL    HW142332   3.618   4.312   4.955  0.0058  0.4826  0.6411
10226SOL    HW242333   3.542   4.172   4.919  0.5741  0.4646 -0.5049
10227SOL     OW42334   1.477   3.644   1.259  0.0873 -0.3713 -0.3042
10227SOL    HW142335   1.478   3.572   1.189  0.1442 -0.8563  0.1977
10227SOL    HW242336   1.451   3.605   1.347  1.4203 -0.0376  0.2496
10228SOL     OW42337   7.541   7.275   2.894  0.4760  0.5395 -0.4414
10228SOL    HW142338   7.539   7.234   2.803  0.5303  0.7328 -0.5301
10228SOL    HW242339   7.559   7.373   2.886  1.0783  0.4512 -0.1851
10229SOL     OW42340   8.451   1.011   0.779  0.2366 -0.0693  0.3604
10229SOL    HW142341   8.512   0.963   0.842  0.5636  1.8582  1.5669
10229SOL    HW242342   8.369   1.042   0.828 -0.8289 -0.9809 -0.8096
10230SOL     OW42343   0.874   0.357   3.102  0.4341  0.0870 -0.4614
10230SOL    HW142344   0.853   0.442   3.151  1.3865 -1.2092  2.3400
10230SOL    HW242345   0.814   0.349   3.022 -1.6932  1.9812  0.8635
10231SOL     OW42346   1.705   6.615   3.605  0.6347 -0.2177 -0.5249
10231SOL    HW142347   1.764   6.544   3.566  2.0803  0.4986  0.2921
10231SOL    HW242348   1.658   6.579   3.685  0.7252 -0.5103 -0.6030
10232SOL     OW42349   4.481   2.823   4.867  0.0118  0.8392 -0.0997
10232SOL    HW142350   4.399   2.869   4.900 -0.0813  1.4832 -1.1980
10232SOL    HW242351   4.551   2.823   4.939 -0.2076  2.1622  0.1277
10233SOL     OW42352   4.388   4.138   3.065 -0.0047 -0.4393  0.0963
10233SOL    HW142353   4.411   4.067   3.132 -0.5757 -0.6679  0.0568
10233SOL    HW242354   4.411   4.228   3.103  0.2298 -0.6084  0.3597
10234SOL     OW42355   0.660   2.517   6.463  0.1373 -0.4992  0.4935
10234SOL    HW142356   0.568   2.521   6.425  0.2255 -1.3310  0.1671
10234SOL    HW242357   0.694   2.609   6.480 -0.8844 -0.2052  0.9319
10235SOL     OW42358   9.666   1.722   2.228  0.7806 -0.4739 -0.6992
10235SOL    HW142359   9.624   1.646   2.178  0.6479 -0.1729 -1.0488
10235SOL    HW242360   9.763   1.729   2.204  1.1602 -1.5024  0.5114
10236SOL     OW42361   9.940   5.271   6.146 -0.3806 -0.6687  0.1008
10236SOL    HW142362   9.980   5.182   6.166 -0.2563 -0.5067  0.5908
10236SOL    HW242363  10.012   5.339   6.137 -0.4044 -0.8452 -1.5046
10237SOL     OW42364   1.501   7.260   3.022 -0.2008 -0.2684  0.1726
10237SOL    HW142365   1.598   7.242   3.036 -0.2627 -0.4489  0.3710
10237SOL    HW242366   1.483   7.271   2.924  0.1658  0.6202  0.1973
10238SOL     OW42367   7.026   5.622   7.104  0.3552 -0.2746  0.2277
10238SOL    HW142368   7.060   5.528   7.102  1.4561  0.0718  1.7691
10238SOL    HW242369   6.957   5.631   7.177 -0.7557 -0.2111 -0.8178
10239SOL     OW42370   2.021   9.351   1.402  0.6437  0.2595  0.0140
10239SOL    HW142371   2.077   9.415   1.350  0.6705 -0.0708 -0.3675
10239SOL    HW242372   1.927   9.354   1.367  1.0506 -1.2577 -1.2450
10240SOL     OW42373   3.466   5.201   2.878  0.0477  0.1331  0.1790
10240SOL    HW142374   3.414   5.118   2.861 -0.7038  0.4537  0.8813
10240SOL    HW242375   3.495   5.203   2.974  0.3717  0.5125  0.0770
10241SOL     OW42376   2.341   4.937   6.051 -0.1632 -0.0975 -0.4057
10241SOL    HW142377   2.408   4.867   6.075  0.1638  0.8516  1.5951
10241SOL    HW242378   2.320   4.933   5.954  1.8595 -1.2185 -0.7988
10242SOL     OW42379   7.644   9.913   0.965 -0.3339  0.1842 -0.2249
10242SOL    HW142380   7.614   9.900   1.060  0.2623  0.7878  0.0491
10242SOL    HW242381   7.564   9.914   0.905 -0.8586  1.6126  0.4779
10243SOL     OW42382   1.401   2.071   7.344  0.0154 -0.0441 -0.1222
10243SOL    HW142383   1.430   2.089   7.250  1.0501 -2.9414 -0.4184
10243SOL    HW242384   1.411   1.973   7.364 -2.8529  0.0350  2.0975
10244SOL     OW42385   7.568   2.827   0.587 -0.3014  0.3824 -0.2653
10244SOL    HW142386   7.600   2.918   0.560  2.0552 -0.1570  0.6034
10244SOL    HW242387   7.559   2.770   0.505 -2.2618  1.5286 -0.8634
10245SOL     OW42388   1.974   1.666   3.902  0.0360 -0.2705 -0.4723
10245SOL    HW142389   1.914   1.597   3.943 -0.1154  0.5969  0.7988
10245SOL    HW242390   1.967   1.661   3.803 -0.7299 -1.4245 -0.3735
10246SOL     OW42391   0.035   6.442   4.312  1.0882 -0.4488 -0.1453
10246SOL    HW142392  -0.031   6.460   4.240 -0.7198 -1.1859  1.3038
10246SOL    HW242393   0.075   6.351   4.299  0.0396 -0.9805  0.3360
10247SOL     OW42394   4.100   8.111   1.535  0.4463  0.5536 -0.1439
10247SOL    HW142395   4.061   8.088   1.445 -1.3437  2.6448  0.0588
10247SOL    HW242396   4.050   8.061   1.606 -0.5826  1.7080 -0.0415
10248SOL     OW42397   4.695   1.181   5.927  0.7246  0.4042 -0.2837
10248SOL    HW142398   4.768   1.229   5.976  2.4562 -3.9590  1.5893
10248SOL    HW242399   4.732   1.139   5.844 -0.1125 -0.2123 -0.3538
10249SOL     OW42400   6.016   1.194   7.933 -0.0240  0.8857 -0.0611
10249SOL    HW142401   6.063   1.281   7.919  0.4874  0.9578  1.9240
10249SOL    HW242402   5.949   1.204   8.007 -0.4663 -0.2216 -0.3038
10250SOL     OW42403   7.340   7.453   4.975 -0.6134  0.0532 -0.6543
10250SOL    HW142404   7.348   7.386   4.902 -0.5497 -0.0049 -0.5944
10250SOL    HW242405   7.347   7.407   5.064 -5.2043 -0.5229 -0.4863
10251SOL     OW42406   3.540   7.121   6.361  0.3231  0.2436 -0.3516
10251SOL    HW142407   3.536   7.023   6.340  0.8289  0.0920  0.2249
10251SOL    HW242408   3.628   7.158   6.329  0.3289  0.4106 -0.1409
10252SOL     OW42409   7.713   8.904   7.410  0.3737  0.7876  0.4049
10252SOL    HW142410   7.700   8.954   7.495 -1.6959  0.7558  0.1287
10252SOL    HW242411   7.661   8.948   7.337  0.1945 -0.5673 -0.3075
10253SOL     OW42412   2.855   3.738   4.867  0.1036 -0.1957 -0.7312
10253SOL    HW142413   2.920   3.732   4.792 -1.3903 -0.6413 -2.0286
10253SOL    HW242414   2.813   3.648   4.882  0.6796 -0.2070  0.9075
10254SOL     OW42415   8.726   4.222   5.269 -0.1926 -0.8275 -0.0652
10254SOL    HW142416   8.778   4.308   5.264  0.1497 -1.0739 -0.8526
10254SOL    HW242417   8.659   4.220   5.195 -1.6929 -0.2846  1.2431
10255SOL     OW42418   8.400   1.717   1.489  0.2640 -0.2388  0.0501
10255SOL    HW142419   8.478   1.717   1.427  1.0772  0.8155  1.0343
10255SOL    HW242420   8.417   1.653   1.564  0.6781  0.7653  0.8326
10256SOL     OW42421   6.336   1.198   4.616 -0.1407  0.6927 -0.0363
10256SOL    HW142422   6.348   1.202   4.715 -2.6770  1.8821  0.2648
10256SOL    HW242423   6.265   1.263   4.588 -0.5124 -0.6889 -2.4649
10257SOL     OW42424   5.561   0.654   1.579  0.3299  0.0962 -0.3816
10257SOL    HW142425   5.631   0.704   1.528 -1.2597  1.8552 -0.9091
10257SOL    HW242426   5.533   0.709   1.658 -1.0905 -0.1864 -0.6899
10258SOL     OW42427   1.761   4.392   3.955 -0.4030 -0.4858 -0.0783
10258SOL    HW142428   1.796   4.310   3.910  1.4601  0.6260 -0.6867
10258SOL    HW242429   1.739   4.460   3.885  0.2967  0.3932  0.5586
10259SOL     OW42430   0.262   2.274   2.458  0.1845  0.1350 -0.0424
10259SOL    HW142431   0.212   2.260   2.544  0.0848  0.6381 -0.0170
10259SOL    HW242432   0.235   2.362   2.418  0.7584  0.2287 -0.2271
10260SOL     OW42433   8.173   7.253   5.480  0.0992 -0.3298 -0.1391
10260SOL    HW142434   8.078   7.250   5.449 -0.7068 -0.5389  2.2510
10260SOL    HW242435   8.213   7.341   5.455 -1.1596  0.3217  0.0862
10261SOL     OW42436   2.036   4.490   4.430 -0.6741 -0.3678 -0.6263
10261SOL    HW142437   2.120   4.456   4.386  1.0203  0.0735  2.1084
10261SOL    HW242438   1.984   4.412   4.465 -0.4272 -0.5535 -0.6670
10262SOL     OW42439   4.091   0.362   1.798 -0.2348  0.0661 -0.2293
10262SOL    HW142440   4.109   0.368   1.700 -1.8964 -0.7245 -0.5996
10262SOL    HW242441   4.174   0.334   1.846  1.0483  2.1453 -1.1985
10263SOL     OW42442   4.277   9.472   0.474 -0.0245 -0.2726  0.5211
10263SOL    HW142443   4.365   9.512   0.501 -0.4294  1.1920 -0.2988
10263SOL    HW242444   4.210   9.485   0.547  0.3407 -1.0680  0.9976
10264SOL     OW42445   3.398   8.090   7.672  0.3805 -0.4941 -0.2936
10264SOL    HW142446   3.384   8.188   7.688 -0.4888 -0.4490 -1.2905
10264SOL    HW242447   3.405   8.043   7.760 -0.5542  0.2722  0.1970
10265SOL     OW42448   9.451   7.579   7.876 -0.0418 -0.6307 -0.2916
10265SOL    HW142449   9.387   7.655   7.893 -0.3791 -0.7453 -0.9980
10265SOL    HW242450   9.416   7.496   7.919 -0.9558 -0.9512 -1.6076
10266SOL     OW42451   9.537   7.012   7.186 -0.0452  0.1329  0.1465
10266SOL    HW142452   9.581   7.015   7.276  2.0480 -0.2681 -0.8498
10266SOL    HW242453   9.452   6.959   7.193 -0.2367  0.6362  2.0159
10267SOL     OW42454   1.134   7.230   5.967 -0.5144 -0.2857  0.1612
10267SOL    HW142455   1.105   7.261   6.057 -1.1683  0.7266 -0.3908
10267SOL    HW242456   1.054   7.207   5.912 -0.0903 -1.5656  0.0652
10268SOL     OW42457   6.184   9.076   6.505 -0.5425 -0.4632  0.0354
10268SOL    HW142458   6.177   9.021   6.589 -0.3116 -1.4982 -0.6058
10268SOL    HW242459   6.093   9.091   6.467 -0.7348  0.8275  0.9785
10269SOL     OW42460   2.018   6.367   2.885  0.4240  0.2156  0.3001
10269SOL    HW142461   1.948   6.296   2.877  1.0631 -0.4282  0.3537
10269SOL    HW242462   2.059   6.383   2.795  1.1566 -0.3887  0.5214
10270SOL     OW42463   8.215   5.789   5.414  0.4621  0.6828  0.2527
10270SOL    HW142464   8.140   5.762   5.475  0.3807  0.4387  0.0458
10270SOL    HW242465   8.178   5.840   5.337  0.8043  3.0032  1.5658
10271SOL     OW42466   5.060   5.048   7.970 -0.4509  0.0877 -0.1794
10271SOL    HW142467   5.005   5.102   8.034  0.5671  1.1052 -0.1672
10271SOL    HW242468   5.031   5.068   7.876 -1.7449 -1.1896 -0.0869
10272SOL     OW42469   2.689   0.775   1.089  0.2919 -0.2941  0.0729
10272SOL    HW142470   2.633   0.858   1.090  0.4171 -0.1927 -1.0078
10272SOL    HW242471   2.749   0.775   1.009  0.2911 -1.4261  0.0532
10273SOL     OW42472   1.623   4.953   4.798  0.2331  0.2304 -0.4602
10273SOL    HW142473   1.567   4.893   4.855  0.3931  0.3654 -0.1608
10273SOL    HW242474   1.720   4.930   4.811  0.1504 -1.9828 -3.1541
10274SOL     OW42475   3.743   1.954   6.031 -0.4580  0.8039  0.7034
10274SOL    HW142476   3.814   2.023   6.045  0.6075 -0.2013  0.2874
10274SOL    HW242477   3.729   1.939   5.933 -1.0627  0.7998  0.7862
10275SOL     OW42478   2.453   1.983   1.600 -0.0744 -0.4250 -0.4495
10275SOL    HW142479   2.391   2.059   1.578  1.5894  1.3170  0.6986
10275SOL    HW242480   2.475   1.986   1.697  1.1736 -1.5170 -0.6906
10276SOL     OW42481   7.069   8.249   6.840  0.2932  0.3731  0.1767
10276SOL    HW142482   7.103   8.246   6.933  2.6486 -1.2300 -0.7123
10276SOL    HW242483   7.041   8.158   6.811 -0.2284  0.8207 -0.7816
10277SOL     OW42484   2.954   4.645   4.455 -0.1492 -0.3428 -0.1852
10277SOL    HW142485   2.948   4.745   4.458  2.3118 -0.2120  1.7009
10277SOL    HW242486   3.003   4.617   4.373 -0.2683  0.0287 -0.3845
10278SOL     OW42487   6.010   4.077   0.366  0.3851  0.1375 -0.1068
10278SOL    HW142488   6.048   3.987   0.387 -2.8621 -1.0928  0.7898
10278SOL    HW242489   6.009   4.091   0.267  1.4460 -0.5616 -0.2219
10279SOL     OW42490   1.740   9.048   7.176 -0.0036 -0.1114  0.2757
10279SOL    HW142491   1.696   9.011   7.257 -0.8439 -2.7319 -1.3381
10279SOL    HW242492   1.837   9.067   7.196 -0.0753 -1.2063  1.7175
10280SOL     OW42493   1.845   0.731   5.885  0.0780 -0.0992  0.3410
10280SOL    HW142494   1.825   0.829   5.885  0.2947 -0.0453 -1.0151
10280SOL    HW242495   1.811   0.690   5.800 -0.0642 -1.2123  0.9263
10281SOL     OW42496   7.164   8.846   2.835  0.4496 -0.1009 -0.3208
10281SOL    HW142497   7.246   8.824   2.887 -0.1703 -1.2720  0.1738
10281SOL    HW242498   7.119   8.762   2.806 -1.7157  0.4935  1.2037
10282SOL     OW42499   6.989   6.859   7.899 -0.2662  0.5229 -0.2144
10282SOL    HW142500   7.040   6.905   7.827  0.5143  0.4079  0.2596
10282SOL    HW242501   6.998   6.910   7.985  1.0460 -0.7665  0.4416
10283SOL     OW42502   1.548   8.860   5.234 -0.5543 -0.1048 -0.5229
10283SOL    HW142503   1.512   8.841   5.143 -1.8752  0.0119 -0.0296
10283SOL    HW242504   1.473   8.879   5.296  0.3360 -0.3363  0.6357
10284SOL     OW42505   9.660   3.503   0.499  0.0862 -0.7129  0.1878
10284SOL    HW142506   9.634   3.556   0.580  1.2948 -0.5813  0.4959
10284SOL    HW242507   9.757   3.516   0.480 -0.0690 -1.1694 -0.9749
10285SOL     OW42508   7.580   6.016   6.258 -0.1655 -0.5090 -0.1022
10285SOL    HW142509   7.645   6.092   6.258 -0.0285 -0.6230  0.3605
10285SOL    HW242510   7.507   6.034   6.324 -0.7229 -0.2816 -0.7848
10286SOL     OW42511   9.824   1.860   7.841 -0.3839 -0.2767  0.0260
10286SOL    HW142512   9.812   1.944   7.893 -1.0091  0.1955 -0.8691
10286SOL    HW242513   9.846   1.785   7.903  0.2851  0.5701  0.8148
10287SOL     OW42514   1.944   9.763   5.847  0.3704 -0.1743 -0.4682
10287SOL    HW142515   1.882   9.748   5.769 -1.4055  0.5935  0.7542
10287SOL    HW242516   2.039   9.752   5.817 -0.3433 -1.1950 -2.4331
10288SOL     OW42517   9.346   4.664   2.328 -0.1363 -0.1483  0.2133
10288SOL    HW142518   9.266   4.690   2.274  0.8612 -0.9622 -1.7149
10288SOL    HW242519   9.350   4.564   2.336 -0.2795 -0.0278  1.8096
10289SOL     OW42520   1.916   5.897   6.919  0.1446 -0.7375 -0.0594
10289SOL    HW142521   1.933   5.996   6.918  1.8738 -1.0241 -1.5463
10289SOL    HW242522   1.818   5.880   6.927 -0.3611  1.1369 -1.8642
10290SOL     OW42523   2.376   1.090   4.909  0.0279 -0.1002  0.4508
10290SOL    HW142524   2.395   1.007   4.960 -0.8466  0.5200  1.8225
10290SOL    HW242525   2.387   1.073   4.811  0.5848 -1.6124  0.7695
10291SOL     OW42526   9.203   9.819   5.111  0.6136 -0.4815 -0.2405
10291SOL    HW142527   9.140   9.895   5.097  0.3610 -0.6585 -0.0879
10291SOL    HW242528   9.162   9.754   5.175  0.5645 -1.0393 -0.8301
10292SOL     OW42529   2.434   9.058   7.432  0.1451 -0.1452  0.1528
10292SOL    HW142530   2.522   9.043   7.479  0.4437  1.0669 -0.0119
10292SOL    HW242531   2.450   9.095   7.341 -0.5713  1.5486  0.6875
10293SOL     OW42532   0.312   7.839   7.278 -0.1688 -0.1536  0.5530
10293SOL    HW142533   0.287   7.774   7.206 -0.9226  1.8237 -1.0319
10293SOL    HW242534   0.411   7.856   7.274 -0.0509 -0.8020  0.6365
10294SOL     OW42535   8.079   5.222   8.047  0.3498  0.1304 -0.7121
10294SOL    HW142536   8.015   5.298   8.038  0.6671  0.3104 -1.4472
10294SOL    HW242537   8.030   5.140   8.078 -0.1494  0.3816 -0.8380
10295SOL     OW42538   4.422   4.989   1.830  0.4427  0.0514  0.1907
10295SOL    HW142539   4.413   4.974   1.929  0.9929 -0.4645  0.1670
10295SOL    HW242540   4.345   4.946   1.783 -0.0766  0.7112  0.4289
10296SOL     OW42541   2.312   5.428   1.307  0.0921 -0.3002 -0.0724
10296SOL    HW142542   2.359   5.437   1.219 -0.1948 -0.7892 -0.2806
10296SOL    HW242543   2.213   5.420   1.292  0.1317 -1.4868  0.2187
10297SOL     OW42544   2.996   6.331   7.108  0.0279 -0.3777  0.1467
10297SOL    HW142545   3.059   6.253   7.112  0.1371 -0.3462 -0.8079
10297SOL    HW242546   2.935   6.320   7.029 -0.9676 -0.2538  0.8896
10298SOL     OW42547   8.451   4.536   2.257 -0.1435 -0.1891 -0.5220
10298SOL    HW142548   8.457   4.483   2.172  0.7900  1.0016 -1.2197
10298SOL    HW242549   8.364   4.584   2.260 -1.5805 -2.7775  0.7480
10299SOL     OW42550   9.504   9.957   3.831  0.0399 -0.0301 -0.1466
10299SOL    HW142551   9.452  10.039   3.853 -1.3257 -0.6924 -0.8811
10299SOL    HW242552   9.446   9.876   3.842  0.7502 -0.7386 -1.4748
10300SOL     OW42553   2.009   6.087   8.033  0.0909  0.1244  0.3590
10300SOL    HW142554   2.095   6.097   8.083 -0.3758 -0.1259  1.2352
10300SOL    HW242555   1.990   5.990   8.017  1.7014  0.2982 -2.9465
10301SOL     OW42556   5.528   8.371   5.435 -0.3970 -0.0263 -0.5001
10301SOL    HW142557   5.450   8.434   5.442 -1.2911 -1.3060  1.4429
10301SOL    HW242558   5.601   8.403   5.495  0.0571  0.4128 -1.2775
10302SOL     OW42559   1.989   2.989   5.037 -0.4341 -0.0437  0.5532
10302SOL    HW142560   1.910   3.049   5.053 -0.3852 -0.3372  1.9148
10302SOL    HW242561   2.003   2.930   5.116  0.2660 -1.0246 -0.2823
10303SOL     OW42562   8.919   9.419   8.080 -0.7906  0.2930  0.4515
10303SOL    HW142563   8.878   9.496   8.030  1.0045  0.1196 -1.3388
10303SOL    HW242564   9.017   9.435   8.091 -0.0725 -2.4680 -1.4125
10304SOL     OW42565   7.537   2.852   5.863  0.1157  0.0380  0.1678
10304SOL    HW142566   7.449   2.813   5.893 -0.6725  0.5979 -1.3649
10304SOL    HW242567   7.598   2.778   5.836 -0.1935 -0.3140  0.4188
10305SOL     OW42568   2.291   0.409   5.581 -0.1978 -0.5265  0.1512
10305SOL    HW142569   2.213   0.396   5.643 -0.9146  0.8996 -0.4246
10305SOL    HW242570   2.258   0.427   5.488  0.8459 -1.2807 -0.3769
10306SOL     OW42571   1.986   1.464   6.949  0.4596  0.1700 -0.2909
10306SOL    HW142572   2.061   1.499   7.005  1.3190 -0.2111 -1.1812
10306SOL    HW242573   1.899   1.484   6.993  1.0112  1.9173  0.0412
10307SOL     OW42574   1.108   2.817   7.567  0.1732 -0.2680  0.6979
10307SOL    HW142575   1.073   2.783   7.480  1.7321  0.9359 -0.4367
10307SOL    HW242576   1.202   2.849   7.554  0.2548  0.3509  2.7231
10308SOL     OW42577   8.021   4.003   0.480  0.3317  0.1839  0.0897
10308SOL    HW142578   8.107   4.040   0.446 -0.5094  1.9216 -0.1921
10308SOL    HW242579   7.944   4.052   0.438 -0.7740 -0.0064  1.8200
10309SOL     OW42580   7.396   2.564   5.722  0.1174 -0.0331  0.3276
10309SOL    HW142581   7.487   2.605   5.721  0.8771 -1.7195 -1.5360
10309SOL    HW242582   7.355   2.571   5.631 -0.2426 -2.2639  0.2951
10310SOL     OW42583   9.881   4.198   3.560 -0.0554 -0.0214  0.3817
10310SOL    HW142584   9.811   4.242   3.502 -2.5384 -1.2512  2.3365
10310SOL    HW242585   9.883   4.242   3.649  1.6419 -0.0705  0.3782
10311SOL     OW42586   4.157   0.725   3.911  0.1464  1.2055 -0.3752
10311SOL    HW142587   4.093   0.695   3.981 -0.9458  2.6774 -0.7156
10311SOL    HW242588   4.174   0.823   3.921  2.0711  0.9079 -0.5161
10312SOL     OW42589   8.449   9.773   2.088  0.3557 -0.4154 -0.0252
10312SOL    HW142590   8.512   9.718   2.033  1.3711  2.4653 -1.8369
10312SOL    HW242591   8.502   9.832   2.149 -0.6058  1.3655 -0.8967
10313SOL     OW42592   3.377   6.743   8.139  0.4819  0.8639  0.3776
10313SOL    HW142593   3.283   6.735   8.105  0.4043  2.0267  0.2958
10313SOL    HW242594   3.439   6.693   8.078 -0.0975 -0.1026  0.5587
10314SOL     OW42595   0.709   6.986   0.670  0.1918 -0.3471 -0.7813
10314SOL    HW142596   0.710   6.942   0.581 -1.7968 -1.8396 -0.1066
10314SOL    HW242597   0.671   7.078   0.662 -1.3077 -1.0025 -1.2511
10315SOL     OW42598   8.566   3.649   8.147 -0.5726  0.0946  0.2216
10315SOL    HW142599   8.608   3.652   8.238 -1.8371  0.2267  0.8112
10315SOL    HW242600   8.511   3.731   8.133 -0.5822 -0.0406 -0.5687
10316SOL     OW42601   4.751   5.633   0.482 -0.1644 -0.1933  0.4612
10316SOL    HW142602   4.747   5.573   0.402 -1.8686 -0.1996  0.5324
10316SOL    HW242603   4.845   5.664   0.495  0.3914 -1.3071 -0.7126
10317SOL     OW42604   9.393   0.969   0.206  0.3476  0.4525  0.3773
10317SOL    HW142605   9.489   0.981   0.181  0.2946  1.1268  0.4827
10317SOL    HW242606   9.385   0.897   0.275  0.6853 -0.1832 -0.2407
10318SOL     OW42607   9.889   9.633   1.998 -0.3437 -0.0256 -0.1679
10318SOL    HW142608   9.922   9.606   1.908 -0.6467 -1.2586  0.0832
10318SOL    HW242609   9.958   9.612   2.067 -0.6836 -0.4075  0.0604
10319SOL     OW42610   1.524   9.474   0.273  0.0075  0.1336 -0.5796
10319SOL    HW142611   1.521   9.551   0.337 -0.6433 -1.2699  1.1320
10319SOL    HW242612   1.592   9.493   0.202  1.3953  1.3843  1.0160
10320SOL     OW42613   0.692   7.371   1.208 -0.1513  0.0269 -1.0182
10320SOL    HW142614   0.717   7.448   1.150  1.0690 -0.2679 -0.8997
10320SOL    HW242615   0.660   7.404   1.297  1.8275  0.3657 -0.4131
10321SOL     OW42616   2.905   6.308   3.878 -0.0857 -0.4874  0.3094
10321SOL    HW142617   2.877   6.378   3.944  0.3826 -1.5046  1.6240
10321SOL    HW242618   2.939   6.227   3.928  0.7352 -1.0881 -1.1884
10322SOL     OW42619   9.111   5.036   2.301 -0.5378 -0.3272  0.2552
10322SOL    HW142620   9.049   5.078   2.368 -1.0411 -1.7482  0.7125
10322SOL    HW242621   9.183   4.986   2.349 -1.0318 -1.5487 -0.2462
10323SOL     OW42622   2.535   9.829   0.537  0.1452  0.3924  0.0353
10323SOL    HW142623   2.510   9.922   0.565  0.7517  0.7186 -0.4676
10323SOL    HW242624   2.635   9.821   0.535  0.1061  0.0032 -0.8009
10324SOL     OW42625   0.076   4.984   0.423 -0.5773 -1.1786  0.1029
10324SOL    HW142626   0.176   4.995   0.419 -0.6972 -0.5460 -2.5741
10324SOL    HW242627   0.053   4.889   0.404 -0.4614 -1.3705  0.9415
10325SOL     OW42628   3.042   3.654   4.666 -0.0489 -0.5516  0.0315
10325SOL    HW142629   3.005   3.629   4.576  1.2533 -1.6574 -0.2357
10325SOL    HW242630   3.098   3.737   4.657  1.6224 -1.7032 -0.6001
10326SOL     OW42631   3.027   6.687   2.276 -0.0281 -0.3910  0.0249
10326SOL    HW142632   2.958   6.743   2.322  0.0580  0.0334 -0.3536
10326SOL    HW242633   3.040   6.720   2.183 -0.5430 -1.5527 -0.4648
10327SOL     OW42634   6.432   7.103   6.331 -0.3482 -0.2430 -0.2540
10327SOL    HW142635   6.357   7.151   6.378  0.5798  0.0018  1.0043
10327SOL    HW242636   6.475   7.164   6.265 -1.4892 -0.5037 -1.2642
10328SOL     OW42637   6.565   8.780   7.111  0.4946 -0.3827 -0.4251
10328SOL    HW142638   6.652   8.826   7.131  0.5280 -0.0727 -1.2740
10328SOL    HW242639   6.581   8.705   7.047  0.3074 -1.0562  0.3146
10329SOL     OW42640   6.817   0.059   3.893 -0.0370  0.2145  0.1959
10329SOL    HW142641   6.884   0.122   3.933 -1.1677  0.9330  0.9824
10329SOL    HW242642   6.835  -0.034   3.926  1.5832  0.1143 -0.8994
10330SOL     OW42643   2.320   0.237   1.999  0.0954 -0.0349  0.5989
10330SOL    HW142644   2.298   0.142   1.975  2.5319 -0.5459  0.1944
10330SOL    HW242645   2.299   0.252   2.095  1.9163 -1.7468  1.3089
10331SOL     OW42646   9.157   3.950   7.277 -0.4615 -0.0801 -0.0651
10331SOL    HW142647   9.139   4.047   7.257 -0.0931  0.0846  0.3891
10331SOL    HW242648   9.156   3.898   7.192 -0.3560  0.3738 -0.3486
10332SOL     OW42649   3.124   0.036   4.117  0.0381 -0.6698  0.3165
10332SOL    HW142650   3.060   0.111   4.132  0.7887 -0.1057  0.7152
10332SOL    HW242651   3.088  -0.048   4.159 -0.8405 -0.5520 -0.2048
10333SOL     OW42652   3.596   6.964   3.471 -0.2949 -0.1320 -0.0488
10333SOL    HW142653   3.572   6.917   3.556  3.5605 -0.6580  0.8393
10333SOL    HW242654   3.627   7.057   3.492 -1.7971  0.6617 -1.1875
10334SOL     OW42655   4.636   4.292   4.309  0.2896  0.4221  0.0406
10334SOL    HW142656   4.565   4.306   4.240 -0.6508 -0.2203  0.8482
10334SOL    HW242657   4.644   4.194   4.328 -0.5687  0.6971  1.9409
10335SOL     OW42658   5.857   3.844   7.596  0.0170 -0.4831  0.0815
10335SOL    HW142659   5.830   3.863   7.502  1.4818  2.6339  0.2085
10335SOL    HW242660   5.800   3.897   7.659 -0.5343 -2.0587  0.9331
10336SOL     OW42661   2.116   1.905   0.217 -0.0127 -0.0185  0.3053
10336SOL    HW142662   2.049   1.895   0.291  0.7343 -0.2689  0.9648
10336SOL    HW242663   2.113   1.998   0.182 -0.3276  0.1266  0.7025
10337SOL     OW42664   2.771   1.185   1.748 -0.4078  0.4862 -0.2159
10337SOL    HW142665   2.693   1.215   1.694 -0.2768  0.1584 -0.5956
10337SOL    HW242666   2.776   1.238   1.832 -1.2702  0.2437 -0.0065
10338SOL     OW42667   4.652   1.657   2.023 -0.3648 -0.8253 -0.1467
10338SOL    HW142668   4.562   1.667   1.980 -0.4734 -0.1746  0.2401
10338SOL    HW242669   4.673   1.560   2.033 -1.6045 -0.9774  0.9970
10339SOL     OW42670   3.736   0.886   7.903  0.5132  0.4335  0.0880
10339SOL    HW142671   3.789   0.971   7.900  0.6001  0.3691 -0.2405
10339SOL    HW242672   3.741   0.841   7.814 -2.0759  1.6266 -0.6858
10340SOL     OW42673   3.261   6.256   1.302  0.4557  0.7243 -0.1059
10340SOL    HW142674   3.261   6.158   1.321 -1.2988  0.8808  0.7638
10340SOL    HW242675   3.239   6.271   1.205 -2.7950  0.3641  0.5245
10341SOL     OW42676   4.127   0.976   5.329 -0.1603  0.2099 -0.2735
10341SOL    HW142677   4.160   1.066   5.299 -0.8093  0.6362  0.3107
10341SOL    HW242678   4.029   0.970   5.315 -0.2309 -0.1475  0.3782
10342SOL     OW42679   1.025   7.096   5.622 -0.4520 -0.4733  0.0828
10342SOL    HW142680   1.103   7.146   5.583  0.3853 -1.8819 -0.0757
10342SOL    HW242681   1.029   7.098   5.721  0.2355 -1.2202  0.0731
10343SOL     OW42682   2.812   7.875   1.952 -0.1339 -0.4587 -0.7476
10343SOL    HW142683   2.795   7.776   1.961  1.4511 -0.6679  0.1416
10343SOL    HW242684   2.901   7.889   1.908 -1.3870  0.5954 -2.9979
10344SOL     OW42685   8.033   4.941   4.097 -0.5315  0.4428 -0.9444
10344SOL    HW142686   7.978   4.981   4.170  0.8841 -2.3257  1.7631
10344SOL    HW242687   7.974   4.886   4.038 -0.9623 -1.3620  1.1060
10345SOL     OW42688   7.102   9.181   5.738 -0.1370  0.0058  0.5874
10345SOL    HW142689   7.186   9.127   5.731  0.6332  1.2967 -0.4942
10345SOL    HW242690   7.023   9.122   5.725  0.7488 -0.5302 -2.9002
10346SOL     OW42691   6.615   7.408   3.409 -0.2590  0.3037  0.0151
10346SOL    HW142692   6.518   7.432   3.418 -0.1658  0.5394  0.3951
10346SOL    HW242693   6.648   7.371   3.496 -0.9526 -3.2013 -1.1175
10347SOL     OW42694   0.682   7.904   4.533 -0.1562 -0.0523  0.4739
10347SOL    HW142695   0.643   7.963   4.462  0.8617  0.4391  0.3070
10347SOL    HW242696   0.772   7.871   4.503 -0.3948 -1.0983  0.8848
10348SOL     OW42697   7.665   1.480   6.771 -0.0326  0.2589  0.2582
10348SOL    HW142698   7.595   1.535   6.816 -1.4016 -0.2454 -1.1893
10348SOL    HW242699   7.647   1.383   6.788  0.5548  0.1372  0.2096
10349SOL     OW42700   4.871   0.974   2.185  0.8137 -0.0538 -0.2691
10349SOL    HW142701   4.853   1.072   2.196  2.6290  0.2647  0.1524
10349SOL    HW242702   4.828   0.923   2.260  3.9103  0.9702  2.3150
10350SOL     OW42703   4.561   2.048   3.507  0.2585  0.5403 -0.1058
10350SOL    HW142704   4.508   1.991   3.570  0.4126 -1.0737 -1.3864
10350SOL    HW242705   4.657   2.051   3.536  0.7383 -1.8411 -1.3234
10351SOL     OW42706   8.773   9.390   4.323 -0.5479  0.4433  0.0989
10351SOL    HW142707   8.680   9.388   4.288  0.1400  1.2054 -1.8529
10351SOL    HW242708   8.812   9.481   4.310  0.8050 -0.1411 -0.1036
10352SOL     OW42709   3.849   0.459   0.244  0.1522 -0.0330  0.5660
10352SOL    HW142710   3.833   0.532   0.311  1.7478  1.7570 -0.9389
10352SOL    HW242711   3.907   0.389   0.286 -0.9474 -0.1977  1.8546
10353SOL     OW42712   0.684   6.081   7.635 -0.2833 -0.0579  0.1209
10353SOL    HW142713   0.628   6.161   7.618  0.4325  0.0234 -2.0414
10353SOL    HW242714   0.643   6.001   7.591  0.9738 -0.1015 -1.0190
10354SOL     OW42715   3.803   1.032   1.563  0.1569 -0.1110 -0.4812
10354SOL    HW142716   3.869   0.958   1.552 -0.6506 -0.6502 -1.8857
10354SOL    HW242717   3.715   0.995   1.591  0.3983  0.5871  1.2299
10355SOL     OW42718   9.198   0.343   1.728 -0.0034 -0.0685  0.1700
10355SOL    HW142719   9.178   0.256   1.773 -2.6739 -0.2269 -1.2412
10355SOL    HW242720   9.160   0.418   1.781 -0.4381 -0.0153 -0.2127
10356SOL     OW42721   3.275   7.128   2.186  0.1322 -0.1239 -0.2150
10356SOL    HW142722   3.195   7.179   2.219  1.8007  2.5903 -0.2092
10356SOL    HW242723   3.336   7.190   2.136  2.2104 -2.1530 -0.2794
10357SOL     OW42724   4.327   6.892   2.371 -0.8181 -0.0931 -0.1258
10357SOL    HW142725   4.393   6.829   2.329 -0.5828  0.6068 -0.8164
10357SOL    HW242726   4.377   6.964   2.419 -1.0930  0.1176 -0.1596
10358SOL     OW42727   4.785   1.565   4.823 -0.4405 -0.2097  0.1487
10358SOL    HW142728   4.840   1.591   4.744  0.2545  0.8986  0.9844
10358SOL    HW242729   4.809   1.623   4.901 -0.5909 -1.7759  1.3840
10359SOL     OW42730   5.861   3.032   7.939 -0.2251 -0.3837 -0.3083
10359SOL    HW142731   5.896   3.118   7.902 -0.5055 -0.5754 -1.0278
10359SOL    HW242732   5.918   2.956   7.906  0.5301 -0.3973  0.9984
10360SOL     OW42733   4.367   3.234   3.843 -0.0511  0.0839 -0.1222
10360SOL    HW142734   4.397   3.215   3.937  3.1931  1.4278 -0.8256
10360SOL    HW242735   4.417   3.175   3.780 -1.2710  0.1069 -1.1154
10361SOL     OW42736   3.006   2.991   2.032  0.1600 -0.0190 -0.4451
10361SOL    HW142737   2.927   3.038   1.992  0.1013 -0.8062 -1.2561
10361SOL    HW242738   3.044   3.047   2.106 -1.1336  0.3686 -0.0735
10362SOL     OW42739   6.923   7.691   4.290 -0.1332  0.1765  0.2679
10362SOL    HW142740   6.862   7.769   4.281 -0.6701 -0.5450 -3.0945
10362SOL    HW242741   6.886   7.614   4.238  0.6386 -2.1787  3.1096
10363SOL     OW42742   9.668   0.353   0.100 -0.2335  0.6054  0.3059
10363SOL    HW142743   9.589   0.305   0.064  0.3913  0.1425 -0.4633
10363SOL    HW242744   9.664   0.354   0.200  0.6191 -2.5960  0.4382
10364SOL     OW42745   9.578   9.665   3.741  0.0753 -0.1344  0.3650
10364SOL    HW142746   9.522   9.674   3.659 -0.0819 -1.3433  0.3286
10364SOL    HW242747   9.520   9.662   3.822  0.2636  1.6353  0.5803
10365SOL     OW42748   3.738   2.117   2.263  0.0815 -0.3906  0.4894
10365SOL    HW142749   3.716   2.027   2.300 -2.0498  0.5014  1.4735
10365SOL    HW242750   3.702   2.125   2.170  2.5101 -1.4296 -0.5903
10366SOL     OW42751   4.107   8.603   5.059  0.5144  0.1618 -0.3818
10366SOL    HW142752   4.063   8.685   5.096  1.8885  0.7013  0.0561
10366SOL    HW242753   4.094   8.527   5.123  0.1846  0.3105 -0.2707
10367SOL     OW42754   3.162   0.396   6.493  0.2792  0.1110  0.1096
10367SOL    HW142755   3.165   0.316   6.433  1.1974 -0.2328  0.6093
10367SOL    HW242756   3.084   0.454   6.467 -0.5630 -1.0748 -0.0804
10368SOL     OW42757   0.608   7.204   2.617  0.0045  0.7433 -0.4161
10368SOL    HW142758   0.524   7.184   2.567 -0.3799  2.1818 -0.3610
10368SOL    HW242759   0.593   7.281   2.678  1.1807  0.5781  0.0878
10369SOL     OW42760   4.963   1.179   5.059  0.3183  0.2960  0.5474
10369SOL    HW142761   4.889   1.181   5.127  1.8022  1.1149  2.1870
10369SOL    HW242762   4.926   1.200   4.969 -1.7038 -0.8309  1.0772
10370SOL     OW42763   3.646   7.441   7.161  0.1411  0.0304  0.5476
10370SOL    HW142764   3.736   7.434   7.202 -0.1153  0.4085  1.1782
10370SOL    HW242765   3.580   7.470   7.230 -0.1475  1.4336 -0.3022
10371SOL     OW42766   3.492   5.666   6.235  0.1281  0.0942 -0.0739
10371SOL    HW142767   3.508   5.762   6.215 -3.3615  0.3796 -1.9871
10371SOL    HW242768   3.409   5.656   6.289 -1.6128 -1.9911 -2.9658
10372SOL     OW42769   4.386   0.827   4.670  0.2629  1.0737 -0.0492
10372SOL    HW142770   4.402   0.892   4.744  1.5332 -1.1182  1.6594
10372SOL    HW242771   4.473   0.797   4.633 -0.2793 -0.1771 -0.3340
10373SOL     OW42772   7.270   1.685   4.198 -0.7553 -0.2425  0.3843
10373SOL    HW142773   7.328   1.755   4.241 -0.4121  0.8618 -1.8268
10373SOL    HW242774   7.183   1.681   4.246 -0.7695  1.6979  0.5811
10374SOL     OW42775   0.114   8.118   3.803  0.0740 -0.5625  0.1949
10374SOL    HW142776   0.076   8.191   3.860  0.6270 -1.1434  1.3109
10374SOL    HW242777   0.052   8.040   3.804  0.2391 -0.6922  0.2672
10375SOL     OW42778   4.618   5.619   2.667 -0.1601 -0.0202  0.2296
10375SOL    HW142779   4.704   5.665   2.647  0.6485  0.0911  3.6768
10375SOL    HW242780   4.576   5.588   2.582  3.1351  0.1746 -1.5214
10376SOL     OW42781   9.329   2.987   6.766 -0.3254  0.2387  0.0595
10376SOL    HW142782   9.348   3.085   6.766 -0.9907  0.3884  1.9733
10376SOL    HW242783   9.334   2.952   6.673  1.4225  1.7938 -0.4596
10377SOL     OW42784   1.534   0.563   4.074 -0.0594  0.2603 -0.4815
10377SOL    HW142785   1.539   0.517   4.163  2.5208  0.5601 -0.4283
10377SOL    HW242786   1.566   0.500   4.003 -0.3329  0.6443 -0.9419
10378SOL     OW42787   9.234   6.974   7.197  0.1257  0.1172 -0.2961
10378SOL    HW142788   9.184   7.047   7.151  0.4485  0.6494  0.1888
10378SOL    HW242789   9.191   6.954   7.285 -0.2873 -0.6656 -0.6713
10379SOL     OW42790   9.445   2.074   4.086  0.0415 -0.1777  0.2171
10379SOL    HW142791   9.421   2.107   4.177  0.2052 -1.6831  0.8173
10379SOL    HW242792   9.418   2.142   4.017 -0.3020  0.8528  1.3586
10380SOL     OW42793   2.942   2.666   0.517 -0.4326 -0.3274 -0.6449
10380SOL    HW142794   2.987   2.617   0.443  0.9407  1.5708 -1.0749
10380SOL    HW242795   2.991   2.649   0.603 -0.0131  0.2277 -0.7767
10381SOL     OW42796   7.401   1.138   0.241  0.4567 -0.1097 -0.9539
10381SOL    HW142797   7.341   1.111   0.165 -0.0178 -0.2359 -0.5316
10381SOL    HW242798   7.406   1.237   0.246 -2.5391 -0.0048  1.2113
10382SOL     OW42799   7.570   2.489   0.546  0.0911  0.0495  0.1125
10382SOL    HW142800   7.620   2.538   0.618 -0.8628  0.2916  0.6164
10382SOL    HW242801   7.554   2.550   0.469  1.5884 -0.3650 -0.5375
10383SOL     OW42802   4.037   1.969   2.371 -0.1292 -0.0400 -0.3969
10383SOL    HW142803   4.018   2.059   2.330 -2.0130  0.0243  0.5576
10383SOL    HW242804   4.027   1.898   2.302  0.9323  0.4339 -1.0527
10384SOL     OW42805   2.279   5.958   3.157 -0.5164 -0.2638 -0.3040
10384SOL    HW142806   2.324   5.974   3.245 -0.6438  0.5554 -0.3819
10384SOL    HW242807   2.314   5.874   3.117  0.4622  0.0059 -0.0400
10385SOL     OW42808   2.128   6.956   2.973 -0.0786  0.1241 -0.2645
10385SOL    HW142809   2.149   6.900   3.053 -1.3192 -0.1541 -0.1178
10385SOL    HW242810   2.064   6.907   2.913  0.7549  0.3730 -1.3806
10386SOL     OW42811   8.885   0.512   6.998 -0.5389  0.0698 -0.2896
10386SOL    HW142812   8.984   0.515   7.013 -0.7698  2.4112  0.9281
10386SOL    HW242813   8.838   0.504   7.086 -1.5008  1.4284 -0.6667
10387SOL     OW42814   5.753   9.225   4.787  0.1572  0.0785  0.0968
10387SOL    HW142815   5.678   9.217   4.852 -0.2442 -1.9329 -0.5949
10387SOL    HW242816   5.839   9.205   4.833  0.4306  3.1151  1.0792
10388SOL     OW42817   8.522   0.722   6.579  0.1237  0.3163 -0.3342
10388SOL    HW142818   8.612   0.680   6.562  0.0428  0.1959 -0.4682
10388SOL    HW242819   8.529   0.821   6.566 -0.4323  0.0375 -3.2648
10389SOL     OW42820   4.324   4.040   2.133 -0.2593 -0.7067  0.2891
10389SOL    HW142821   4.291   4.127   2.095 -1.2668 -1.0742  0.2983
10389SOL    HW242822   4.249   3.995   2.181  0.4504 -1.2530  0.8906
10390SOL     OW42823   6.429   8.129   5.472 -0.6547  0.2188 -0.7066
10390SOL    HW142824   6.525   8.153   5.455 -0.7640  0.7267 -0.6331
10390SOL    HW242825   6.396   8.069   5.400 -0.3792  0.3237 -0.9196
10391SOL     OW42826   8.895   3.289   3.485  0.2759  0.2274  0.8059
10391SOL    HW142827   8.805   3.282   3.528  0.5403 -0.0974  1.3221
10391SOL    HW242828   8.960   3.326   3.552  0.4125  0.9353  0.2778
10392SOL     OW42829   9.555   1.494   5.781  0.8278  1.0161 -0.4726
10392SOL    HW142830   9.546   1.398   5.757  0.9365  0.7321  0.5952
10392SOL    HW242831   9.625   1.537   5.724  0.5080  0.5579 -1.2132
10393SOL     OW42832   8.896   6.504   4.179  0.0125 -0.3041 -0.5612
10393SOL    HW142833   8.839   6.586   4.185  1.3156  0.5028  1.1530
10393SOL    HW242834   8.838   6.423   4.177 -1.2056  0.5283  0.6637
10394SOL     OW42835   4.991   0.030   5.129 -0.0252  0.4872 -0.2204
10394SOL    HW142836   4.948   0.080   5.053 -1.0810  0.3630  0.2795
10394SOL    HW242837   4.998   0.090   5.209 -3.7980 -0.8713  1.2547
10395SOL     OW42838   1.878   0.508   7.403  0.0204 -0.1179 -0.2679
10395SOL    HW142839   1.862   0.598   7.443 -0.4935 -0.8071  1.1330
10395SOL    HW242840   1.864   0.512   7.304 -0.4697  1.2218 -0.1544
10396SOL     OW42841   2.888   7.450   3.063 -0.1148  0.5601  0.3461
10396SOL    HW142842   2.848   7.473   3.152 -1.4125 -1.0040  0.2001
10396SOL    HW242843   2.977   7.407   3.076 -0.7231 -0.5386  0.9658
10397SOL     OW42844   1.048   0.571   0.510 -0.2100  0.0528  0.4309
10397SOL    HW142845   1.003   0.527   0.433 -0.1879  2.2140 -0.8622
10397SOL    HW242846   1.147   0.560   0.502 -0.2493 -0.5369  0.6864
10398SOL     OW42847   9.767   2.968   7.775  0.2330 -0.4971  0.4730
10398SOL    HW142848   9.822   3.051   7.783 -0.0719 -0.0567 -1.7959
10398SOL    HW242849   9.680   2.980   7.824 -0.5047  1.1428 -1.1971
10399SOL     OW42850   8.412   7.265   7.344  0.0565  0.2600  0.2736
10399SOL    HW142851   8.389   7.336   7.411 -1.6726 -0.0612  0.0613
10399SOL    HW242852   8.353   7.276   7.264  0.5467 -0.7497 -0.2264
10400SOL     OW42853   2.835   4.875   3.109 -0.0682  0.1431 -0.2793
10400SOL    HW142854   2.869   4.785   3.139  2.4272  1.2140  0.2785
10400SOL    HW242855   2.777   4.914   3.180  0.9653  0.0894  0.6051
10401SOL     OW42856   3.055   2.799   6.870  0.4262 -0.4263 -1.0376
10401SOL    HW142857   3.089   2.797   6.776 -1.1306  2.7669 -1.7334
10401SOL    HW242858   3.074   2.889   6.911  0.2343 -1.4451  1.3864
10402SOL     OW42859   2.337   2.795   7.990 -0.1118 -0.1915  0.4244
10402SOL    HW142860   2.299   2.877   7.946  0.6900 -0.2932 -0.4871
10402SOL    HW242861   2.263   2.739   8.027 -0.5826  2.0678  3.1183
10403SOL     OW42862   9.263   2.945   5.202 -0.3626 -0.1897  0.1889
10403SOL    HW142863   9.285   2.900   5.115 -0.9270 -1.3556  0.6294
10403SOL    HW242864   9.189   3.011   5.188  0.4123  0.5543 -0.4524
10404SOL     OW42865   0.969   6.727   5.774  0.7061 -0.0690 -0.2477
10404SOL    HW142866   0.972   6.785   5.856 -1.4282  1.1437 -1.0101
10404SOL    HW242867   1.027   6.647   5.789  1.7673  1.0272  1.7632
10405SOL     OW42868   3.886   0.424   4.453  0.2829 -0.1386  0.6367
10405SOL    HW142869   3.881   0.508   4.507 -1.3120 -0.6061  1.2514
10405SOL    HW242870   3.958   0.433   4.383 -0.0332  1.8159  0.5373
10406SOL     OW42871   2.752   8.471   7.877 -0.0777  0.6756  0.3991
10406SOL    HW142872   2.696   8.394   7.908 -0.9281  1.1068 -0.0716
10406SOL    HW242873   2.695   8.552   7.867  0.8804  1.4756  1.2558
10407SOL     OW42874   7.676   4.798   0.421  0.0148 -0.2429  0.3214
10407SOL    HW142875   7.585   4.806   0.381  0.9707 -0.6990 -1.9831
10407SOL    HW242876   7.731   4.733   0.369  1.6739  0.0306  1.6699
10408SOL     OW42877   1.385   2.842   1.046  0.4701 -0.3397  0.3478
10408SOL    HW142878   1.308   2.805   0.994  0.7976 -0.0220 -0.3671
10408SOL    HW242879   1.384   2.804   1.139 -0.9808  0.2380  0.5828
10409SOL     OW42880   2.107   0.680   3.905 -0.3293 -0.1201 -0.6957
10409SOL    HW142881   2.040   0.690   3.831 -0.7521  0.8519 -0.1919
10409SOL    HW242882   2.175   0.752   3.899 -0.4177  0.0170 -0.0858
10410SOL     OW42883   6.531   9.454   3.917  0.3929 -0.6607  0.0636
10410SOL    HW142884   6.490   9.524   3.976  0.1641 -0.4536 -0.3404
10410SOL    HW242885   6.562   9.377   3.974  1.7317  0.2899  0.6186
10411SOL     OW42886   5.582   0.301   6.489  0.3708  0.6551  0.8864
10411SOL    HW142887   5.497   0.294   6.436  0.0171 -0.9737  1.6511
10411SOL    HW242888   5.660   0.295   6.426 -0.0675  1.3832  0.2647
10412SOL     OW42889   3.715   9.112   1.919 -0.6427  0.6047 -0.3425
10412SOL    HW142890   3.755   9.028   1.955 -1.1320 -0.1758 -1.5819
10412SOL    HW242891   3.773   9.148   1.847 -1.3368  0.3430 -1.0428
10413SOL     OW42892   3.040   7.435   7.117  0.0463  0.3016 -0.2763
10413SOL    HW142893   2.989   7.493   7.181 -0.2825  1.2781 -1.4032
10413SOL    HW242894   2.978   7.366   7.079  0.8506 -1.9941  2.4246
10414SOL     OW42895   4.218   5.776   0.446 -0.3240 -0.0050 -0.1477
10414SOL    HW142896   4.283   5.728   0.386 -0.9513 -1.4515  0.3107
10414SOL    HW242897   4.205   5.723   0.530 -1.7037  0.5361 -0.0099
10415SOL     OW42898   9.730   2.996   3.114 -0.3582  0.2373 -0.1565
10415SOL    HW142899   9.780   3.065   3.166  0.9364 -1.3105  0.6987
10415SOL    HW242900   9.671   2.944   3.176 -1.9759  1.0844 -0.9261
10416SOL     OW42901   0.577   2.205   4.020 -0.5489  0.5300 -0.3839
10416SOL    HW142902   0.532   2.265   3.954 -0.1392  1.1448 -0.1104
10416SOL    HW242903   0.662   2.170   3.981 -1.9095 -1.7268 -1.4273
10417SOL     OW42904   3.575   6.732   5.100 -0.0455 -0.1237  0.1156
10417SOL    HW142905   3.511   6.747   5.024 -0.6978  2.8317  1.2149
10417SOL    HW242906   3.669   6.744   5.067 -0.2692  0.0791 -0.4569
10418SOL     OW42907   0.334   4.287   5.445  0.4872  0.4379 -0.0158
10418SOL    HW142908   0.260   4.304   5.510 -0.3309 -1.7234 -0.3586
10418SOL    HW242909   0.421   4.313   5.487  0.0435 -1.5432  2.2327
10419SOL     OW42910   3.060   8.270   6.487 -0.1624  0.1659 -0.1448
10419SOL    HW142911   3.072   8.313   6.397  0.6861  1.7253  0.6935
10419SOL    HW242912   3.139   8.291   6.545 -0.9874 -0.3062  1.1735
10420SOL     OW42913   1.497   6.636   4.737  0.0356 -0.2872  0.0329
10420SOL    HW142914   1.547   6.717   4.767 -0.2083 -0.3483  0.6011
10420SOL    HW242915   1.498   6.567   4.809 -0.1812 -0.6006 -0.2615
10421SOL     OW42916   1.587   2.405   1.809 -0.4581  0.2493  0.5314
10421SOL    HW142917   1.627   2.329   1.757 -1.6493  0.8810 -1.3255
10421SOL    HW242918   1.509   2.371   1.862 -2.0524  0.4677 -1.6081
10422SOL     OW42919   3.037   1.196   3.919  0.2745 -0.5945 -0.1683
10422SOL    HW142920   3.129   1.161   3.938  1.2436  2.0903  0.3265
10422SOL    HW242921   3.027   1.286   3.960 -1.5282  0.4776 -2.8260
10423SOL     OW42922   1.610   9.461   7.896 -0.7874  0.0119  0.0113
10423SOL    HW142923   1.620   9.421   7.987  0.3373  0.6881  0.1930
10423SOL    HW242924   1.524   9.430   7.855 -1.7471  0.4446  1.6688
10424SOL     OW42925   0.198   7.835   4.906 -0.0207 -0.7333  0.1885
10424SOL    HW142926   0.127   7.867   4.968  0.7056 -1.0449  1.1959
10424SOL    HW242927   0.252   7.764   4.951  1.0223 -0.3941 -0.5135
10425SOL     OW42928   9.161   5.729   3.873 -0.1313 -0.3948 -0.0468
10425SOL    HW142929   9.182   5.825   3.858  1.5666 -1.0760 -2.3504
10425SOL    HW242930   9.151   5.712   3.971 -0.0236  2.0119  0.4178
10426SOL     OW42931   3.756   2.161   1.783  0.1706 -0.0853  0.1838
10426SOL    HW142932   3.853   2.136   1.783  0.1419 -0.1977 -0.3082
10426SOL    HW242933   3.701   2.081   1.802  0.1851  0.0274  0.7096
10427SOL     OW42934   9.958   0.348   7.281 -0.4317 -0.6854  0.1247
10427SOL    HW142935   9.933   0.440   7.250  0.6337 -0.6587 -0.7061
10427SOL    HW242936   9.987   0.351   7.376  0.2537 -0.0418 -0.1057
10428SOL     OW42937   2.666   5.021   0.363  0.0212 -0.3153  0.3419
10428SOL    HW142938   2.636   5.116   0.361  0.2336 -0.2557 -0.1203
10428SOL    HW242939   2.711   5.002   0.450  0.1966  0.0716  0.3352
10429SOL     OW42940   2.857   3.614   5.394  0.2580  0.3944  0.0804
10429SOL    HW142941   2.884   3.650   5.304  0.6950 -0.3127 -0.0726
10429SOL    HW242942   2.766   3.648   5.417 -0.8799 -1.3571 -1.7026
10430SOL     OW42943   5.055   9.719   1.764 -0.4811 -0.2598 -0.1874
10430SOL    HW142944   4.968   9.675   1.742 -0.1462 -0.9441 -0.1708
10430SOL    HW242945   5.117   9.651   1.804 -0.9359  0.8372  2.5411
10431SOL     OW42946   2.931   9.224   3.601  0.0461  0.7079 -0.4967
10431SOL    HW142947   2.965   9.313   3.630  0.5411  0.1195  0.7470
10431SOL    HW242948   3.008   9.161   3.589 -0.2000  0.7377 -2.4376
10432SOL     OW42949   4.774   4.665   0.272  0.1712  0.5285  0.3006
10432SOL    HW142950   4.747   4.571   0.254 -0.4659  0.4833  1.4778
10432SOL    HW242951   4.874   4.671   0.279  0.1234 -0.3689  1.9270
10433SOL     OW42952   0.721   7.831   1.915  0.1033 -0.1662  0.1945
10433SOL    HW142953   0.815   7.844   1.946 -0.1622 -0.5022  1.1834
10433SOL    HW242954   0.715   7.848   1.817  0.4658  3.4529  0.7448
10434SOL     OW42955   1.038   4.765   1.795  0.1688 -0.1962 -0.5106
10434SOL    HW142956   1.052   4.754   1.893 -0.3692  1.9832 -0.1649
10434SOL    HW242957   1.113   4.820   1.757 -0.3924  0.2146 -1.0425
10435SOL     OW42958   0.578   6.164   4.600 -0.1990 -0.7698  0.1452
10435SOL    HW142959   0.497   6.210   4.565  1.5588  2.7990  0.5688
10435SOL    HW242960   0.646   6.155   4.528 -0.5470 -2.8699  0.0431
10436SOL     OW42961   1.676   9.902   1.721  0.0579 -0.0354 -0.3119
10436SOL    HW142962   1.754   9.953   1.757 -0.6046 -0.4949  1.8473
10436SOL    HW242963   1.599   9.964   1.707 -0.6913 -0.3588  2.1443
10437SOL     OW42964   4.770   3.630   7.914 -0.5949  0.3466 -0.2384
10437SOL    HW142965   4.824   3.630   7.999 -2.0302  0.9621  0.6906
10437SOL    HW242966   4.709   3.709   7.913 -0.2189  0.6300 -2.1044
10438SOL     OW42967   4.323   2.801   6.976  0.0085 -0.3139  0.1415
10438SOL    HW142968   4.228   2.816   7.002 -0.8828  0.8123 -3.5211
10438SOL    HW242969   4.377   2.883   6.997 -0.4811  0.1929 -0.5484
10439SOL     OW42970   2.884   0.778   1.874 -0.6376 -0.1675  0.5325
10439SOL    HW142971   2.884   0.848   1.946 -1.3818  0.6158 -0.2017
10439SOL    HW242972   2.941   0.810   1.798 -0.2479 -0.7702  0.5752
10440SOL     OW42973   4.454   2.447   5.931 -0.2470  0.1404 -0.1807
10440SOL    HW142974   4.387   2.461   5.858 -0.0387  0.7864 -0.2537
10440SOL    HW242975   4.527   2.388   5.899 -0.0736  0.5533 -0.5496
10441SOL     OW42976   3.109   2.639   7.917 -0.1627  0.3649  0.1307
10441SOL    HW142977   3.088   2.546   7.949  0.7162  0.2365  0.3364
10441SOL    HW242978   3.120   2.638   7.817  1.0066  0.0219  0.2566
10442SOL     OW42979   2.438   9.703   5.941 -0.6540 -0.6498 -0.3176
10442SOL    HW142980   2.536   9.716   5.925 -0.1001 -0.7361  2.7248
10442SOL    HW242981   2.390   9.788   5.923  0.6369  0.7656  2.6293
10443SOL     OW42982   2.709   5.125   5.782 -0.1625  0.3960 -0.1271
10443SOL    HW142983   2.710   5.079   5.693  2.4364 -0.7571  0.4564
10443SOL    HW242984   2.663   5.213   5.773 -1.4065 -0.4341 -2.2347
10444SOL     OW42985   3.996   1.100   2.104 -0.2067  0.5213 -0.1218
10444SOL    HW142986   4.095   1.091   2.110 -0.1721  0.6333 -0.4963
10444SOL    HW242987   3.958   1.023   2.052 -0.5388 -0.6582  1.8238
10445SOL     OW42988   1.278   4.321   2.906 -0.4615  0.2439  0.3400
10445SOL    HW142989   1.229   4.307   2.991  0.5607  0.3016  0.9432
10445SOL    HW242990   1.331   4.238   2.884  0.3894  0.7311  0.5057
10446SOL     OW42991   4.662   5.680   2.250  0.4696 -0.1272 -0.4606
10446SOL    HW142992   4.739   5.641   2.200  0.9986  1.4074 -0.8530
10446SOL    HW242993   4.630   5.762   2.203 -0.4470  0.0825  0.5231
10447SOL     OW42994   2.596   8.689   7.867  0.4050  0.0069 -0.2328
10447SOL    HW142995   2.514   8.639   7.841 -0.3277  0.5477  0.9994
10447SOL    HW242996   2.578   8.788   7.863  1.3642  0.1617 -1.1206
10448SOL     OW42997   4.015   9.761   4.871 -0.2371  0.1488  0.4148
10448SOL    HW142998   4.069   9.709   4.805 -0.2557 -0.5582  0.9387
10448SOL    HW242999   3.920   9.765   4.842 -0.0577  0.7066 -0.1053
10449SOL     OW43000   2.855   1.543   2.888 -0.0347 -0.3702 -0.0351
10449SOL    HW143001   2.788   1.590   2.831  0.6260 -0.3362 -0.7943
10449SOL    HW243002   2.851   1.444   2.870 -0.3841 -0.4499  0.4591
10450SOL     OW43003   1.685   1.095   5.561  0.3283  0.1206  0.1009
10450SOL    HW143004   1.709   1.055   5.473  2.3869  0.3182  0.5513
10450SOL    HW243005   1.637   1.182   5.546 -1.1089 -0.8114 -0.8231
10451SOL     OW43006   4.804   9.138   0.235 -0.4041  0.3646 -0.1216
10451SOL    HW143007   4.743   9.071   0.278  0.2210  0.6557  1.2432
10451SOL    HW243008   4.821   9.111   0.140  1.1753 -2.3345  0.8720
10452SOL     OW43009   3.682   2.448   2.672 -0.3243  0.1342 -0.2807
10452SOL    HW143010   3.725   2.519   2.728 -1.6997  0.2562  0.6643
10452SOL    HW243011   3.584   2.466   2.665 -0.5307 -1.1318 -0.8579
10453SOL     OW43012   2.136   2.200   6.802 -0.0651  0.1838  0.4335
10453SOL    HW143013   2.139   2.234   6.896 -2.9092 -2.8973  1.7522
10453SOL    HW243014   2.191   2.117   6.795 -1.9310 -1.0724  0.1179
10454SOL     OW43015   1.526   3.905   0.655 -0.0650 -0.5446 -0.0426
10454SOL    HW143016   1.443   3.957   0.634  1.9226  2.9300  0.2314
10454SOL    HW243017   1.537   3.831   0.588 -1.3467  1.3819 -2.4959
10455SOL     OW43018   5.969   0.864   4.360  0.0540  0.6412  0.3241
10455SOL    HW143019   5.981   0.783   4.417  0.4065  1.1888  1.0492
10455SOL    HW243020   6.011   0.943   4.406  0.6241  1.0300 -0.8521
10456SOL     OW43021   8.505   4.678   3.740 -0.0537 -0.1158  0.3452
10456SOL    HW143022   8.531   4.749   3.805  0.5844 -3.7210  4.2915
10456SOL    HW243023   8.407   4.683   3.722  0.2300  2.5951 -0.6209
10457SOL     OW43024   1.309   5.394   7.557  0.1348 -0.0563  0.1640
10457SOL    HW143025   1.407   5.404   7.577  0.5523  0.0974 -1.8286
10457SOL    HW243026   1.274   5.479   7.518 -0.8516 -0.0414  1.0718
10458SOL     OW43027   6.740   8.564   3.379  0.2306 -0.2976 -0.9594
10458SOL    HW143028   6.681   8.539   3.456  0.7844  1.8874  0.1981
10458SOL    HW243029   6.835   8.544   3.402  0.4763  1.0811 -0.7850
10459SOL     OW43030   0.287   4.759   1.945 -0.3340  0.0124 -0.6480
10459SOL    HW143031   0.232   4.806   2.013  1.7842  1.1634  0.3404
10459SOL    HW243032   0.256   4.785   1.853 -0.7052  1.5209 -0.1117
10460SOL     OW43033   5.288   8.413   3.890  0.1095  0.5476 -0.2898
10460SOL    HW143034   5.256   8.416   3.984 -2.0102 -1.2511 -0.9035
10460SOL    HW243035   5.253   8.492   3.840 -0.2848  0.5428 -0.0207
10461SOL     OW43036   9.936   7.628   0.393 -0.5123  0.0710  0.1792
10461SOL    HW143037   9.933   7.581   0.481  1.4394 -0.1054  0.1557
10461SOL    HW243038   9.847   7.672   0.376 -1.3405 -1.0096  1.6000
10462SOL     OW43039   0.996   8.172   5.484  0.2816  0.0022 -0.1613
10462SOL    HW143040   0.921   8.217   5.435  0.0026  1.5805  1.6785
10462SOL    HW243041   1.060   8.133   5.417 -0.4358  1.5155 -1.7873
10463SOL     OW43042   1.967   2.321   6.227 -0.3043 -0.0173  0.4418
10463SOL    HW143043   1.939   2.397   6.169  1.4314  0.8081  0.6671
10463SOL    HW243044   2.054   2.285   6.195  0.8444  0.6542  2.7292
10464SOL     OW43045   3.953   4.051   5.980  0.6851  0.3313 -0.6630
10464SOL    HW143046   3.867   4.045   6.031  0.6954 -2.1724 -0.8894
10464SOL    HW243047   4.028   4.072   6.043  0.1718  0.7981 -0.2019
10465SOL     OW43048   8.252   1.684   1.924  0.3608 -0.1091  0.4192
10465SOL    HW143049   8.221   1.637   1.842  0.7018  0.1522  0.1366
10465SOL    HW243050   8.175   1.696   1.986 -0.0332  0.2212 -0.1243
10466SOL     OW43051   7.335   1.250   1.870 -0.4308 -0.8068  0.6763
10466SOL    HW143052   7.289   1.274   1.955 -2.4489 -0.7572 -0.4021
10466SOL    HW243053   7.333   1.150   1.858 -0.1989 -0.8106  0.6672
10467SOL     OW43054   9.285   0.544   5.339  0.2686  0.0172 -0.2322
10467SOL    HW143055   9.269   0.583   5.430  1.7733  0.2265 -0.0571
10467SOL    HW243056   9.224   0.588   5.273 -1.7570 -1.0090  0.8632
10468SOL     OW43057   7.247   2.613   2.658  0.9214 -0.0183 -0.4472
10468SOL    HW143058   7.204   2.658   2.579  1.1884  0.9666 -0.0293
10468SOL    HW243059   7.346   2.612   2.645  1.1700  2.3044  0.9832
10469SOL     OW43060   3.124   4.936   1.258 -0.2768 -0.1326 -0.3170
10469SOL    HW143061   3.222   4.945   1.269 -0.3096 -1.3215  1.1545
10469SOL    HW243062   3.102   4.910   1.164  0.6198  2.6356 -1.3106
10470SOL     OW43063   2.701   4.105   7.820 -0.4838  0.4203 -0.6008
10470SOL    HW143064   2.725   4.148   7.906  2.5578 -0.4614 -0.9661
10470SOL    HW243065   2.640   4.166   7.768 -1.3023  1.4952  1.5813
10471SOL     OW43066   3.206   5.362   5.125 -0.4519  0.0212  0.2271
10471SOL    HW143067   3.269   5.390   5.052 -0.3633 -1.4319 -0.2776
10471SOL    HW243068   3.163   5.443   5.165  1.5594  1.0375  0.4323
10472SOL     OW43069   2.224   3.410   1.936  0.0058  0.3000  0.3266
10472SOL    HW143070   2.178   3.482   1.883 -2.0200 -1.1214  0.0857
10472SOL    HW243071   2.257   3.449   2.022  0.5111  1.9150 -0.5744
10473SOL     OW43072   3.601   0.119   2.632  0.3308 -0.0003  0.1622
10473SOL    HW143073   3.552   0.043   2.589 -0.6279  1.5294 -1.5091
10473SOL    HW243074   3.670   0.154   2.569 -0.7693  1.9674  0.0240
10474SOL     OW43075   8.392   3.722   5.057 -0.1269  0.1751  0.3159
10474SOL    HW143076   8.396   3.644   4.994  2.2930 -0.9403  1.8050
10474SOL    HW243077   8.298   3.734   5.089 -1.2988  0.3896 -2.9831
10475SOL     OW43078   1.409   0.718   0.721  0.3839  0.3403 -0.2965
10475SOL    HW143079   1.509   0.716   0.708  0.3149 -0.6539 -0.7576
10475SOL    HW243080   1.388   0.715   0.819  0.8190  1.2660 -0.1745
10476SOL     OW43081   1.458   3.391   3.959  0.3309 -0.2547  0.1120
10476SOL    HW143082   1.465   3.490   3.974 -1.2862 -0.2479  0.9474
10476SOL    HW243083   1.548   3.354   3.937  0.7473  1.6038 -1.4737
10477SOL     OW43084   2.530   5.851   4.219  0.3570  0.3616 -0.7079
10477SOL    HW143085   2.555   5.907   4.140 -1.2758 -1.4066 -2.5286
10477SOL    HW243086   2.437   5.873   4.248  1.0573  1.2299  0.9637
10478SOL     OW43087   2.373   9.940   2.228  0.3861 -0.7981 -0.0963
10478SOL    HW143088   2.323   9.874   2.173 -0.3490  1.5108 -2.2990
10478SOL    HW243089   2.318   9.966   2.308 -0.9059 -0.0811 -1.2147
10479SOL     OW43090   5.295   1.651   8.137  0.0906 -0.3395  0.2205
10479SOL    HW143091   5.376   1.692   8.178 -1.0215  1.3781  0.7439
10479SOL    HW243092   5.289   1.555   8.163  1.3791 -0.2027  1.0473
10480SOL     OW43093   0.181   8.934   6.401 -0.2651  0.0362  0.3799
10480SOL    HW143094   0.268   8.900   6.437 -0.5854  1.0224  2.1129
10480SOL    HW243095   0.199   9.006   6.334  0.2259  1.1175  1.6673
10481SOL     OW43096   4.140   4.836   5.302  0.2709 -0.1433 -0.8498
10481SOL    HW143097   4.197   4.846   5.383 -0.6096  1.3355 -0.3970
10481SOL    HW243098   4.043   4.843   5.328  0.0186  2.5697 -2.2788
10482SOL     OW43099   6.263   2.647   5.514 -0.2888 -0.3225  0.3344
10482SOL    HW143100   6.273   2.590   5.432  3.2740 -1.9389  1.7503
10482SOL    HW243101   6.195   2.607   5.575 -0.0020 -1.3925 -0.0388
10483SOL     OW43102   6.546   9.138   4.343  0.1588  0.4737  0.3737
10483SOL    HW143103   6.504   9.138   4.252  0.8691  2.2159  0.0241
10483SOL    HW243104   6.637   9.180   4.338  0.3520  0.2708  1.8275
10484SOL     OW43105   2.562   4.847   4.245  0.2010 -0.0568  0.8181
10484SOL    HW143106   2.654   4.876   4.218 -0.7872  2.1762 -0.3093
10484SOL    HW243107   2.509   4.826   4.163 -0.3936 -1.0685  1.4494
10485SOL     OW43108   1.172   3.263   6.459 -0.7156  1.0411 -0.2250
10485SOL    HW143109   1.187   3.175   6.505 -3.8248  0.7628  0.3752
10485SOL    HW243110   1.253   3.320   6.469  0.0029 -0.3703  2.5895
10486SOL     OW43111   8.732   9.355   4.996 -0.7860  0.1599  0.5568
10486SOL    HW143112   8.772   9.264   5.004 -2.5931 -0.5692  1.6116
10486SOL    HW243113   8.798   9.423   5.027 -0.7456 -1.0937  3.3597
10487SOL     OW43114   5.936   9.076   4.484  0.1671  0.0517  0.4599
10487SOL    HW143115   5.953   9.085   4.386  2.1761  0.1124  0.8027
10487SOL    HW243116   5.907   9.164   4.521 -0.0515  0.1614  0.0245
10488SOL     OW43117   8.533   7.576   3.321 -0.4783  0.1668  0.0024
10488SOL    HW143118   8.624   7.613   3.305 -0.3632 -0.0624  0.1245
10488SOL    HW243119   8.496   7.540   3.236  0.0178 -0.7807  0.1720
10489SOL     OW43120   3.023   1.864   6.603  0.1853 -0.3440 -0.1287
10489SOL    HW143121   2.971   1.822   6.677  0.0784  0.1945  0.1017
10489SOL    HW243122   3.025   1.963   6.615  1.1799 -0.3506 -0.1944
10490SOL     OW43123   4.843   6.114   1.404 -0.1105  0.3409  0.4926
10490SOL    HW143124   4.868   6.034   1.458 -0.2596  0.7664  1.2064
10490SOL    HW243125   4.865   6.197   1.456  0.0684  0.7590 -0.2487
10491SOL     OW43126   8.425   1.082   2.834  0.2166  0.0706  0.1204
10491SOL    HW143127   8.332   1.050   2.854  0.2063  0.7185  1.1968
10491SOL    HW243128   8.429   1.115   2.740 -0.4827 -0.5465 -0.1350
10492SOL     OW43129   5.384   1.025   4.449 -0.5023  0.4080 -0.1711
10492SOL    HW143130   5.395   1.123   4.432 -0.5206 -0.0808 -3.4045
10492SOL    HW243131   5.460   0.976   4.407 -0.6121 -1.0073  1.2444
10493SOL     OW43132   0.770   3.252   2.214  0.5079 -0.2967 -0.0905
10493SOL    HW143133   0.712   3.212   2.285  0.6560  1.7392  1.2041
10493SOL    HW243134   0.713   3.284   2.139  0.3391 -2.3243 -0.8491
10494SOL     OW43135   1.992   2.282   5.206 -0.7300 -0.7268 -0.1908
10494SOL    HW143136   2.049   2.322   5.135  1.6409  0.5862  2.3491
10494SOL    HW243137   1.992   2.182   5.198 -0.0312 -0.6066 -1.6570
10495SOL     OW43138   0.353   0.869   6.168 -0.8230 -0.2228 -0.0930
10495SOL    HW143139   0.389   0.931   6.238  0.0271  0.3752 -1.0388
10495SOL    HW243140   0.356   0.915   6.079 -1.3516 -1.1829 -0.6132
10496SOL     OW43141   7.261   0.375   7.862  0.1055 -0.2939  0.2494
10496SOL    HW143142   7.241   0.453   7.921  2.7070 -0.2181  1.0895
10496SOL    HW243143   7.211   0.385   7.776 -0.0048  2.0172  0.5512
10497SOL     OW43144   2.725   0.543   6.556  0.1241 -0.6533 -0.1454
10497SOL    HW143145   2.716   0.444   6.548  0.8546 -0.5495 -3.0243
10497SOL    HW243146   2.662   0.587   6.491  1.4301  0.6923 -0.5184
10498SOL     OW43147   0.486   3.469   4.112 -0.0934  0.1910  0.5034
10498SOL    HW143148   0.409   3.408   4.130 -1.1955  1.4949  0.2525
10498SOL    HW243149   0.456   3.564   4.119  0.8745  0.7334 -2.0649
10499SOL     OW43150   9.081   0.196   6.496 -0.1128  0.1936  0.3335
10499SOL    HW143151   9.019   0.227   6.569 -1.1495 -1.5831  0.2346
10499SOL    HW243152   9.028   0.157   6.421  1.1556 -2.6560  0.8596
10500SOL     OW43153   4.945   9.329   6.973 -0.4527 -0.3724 -0.0503
10500SOL    HW143154   5.003   9.250   6.992 -1.4037 -0.9324  0.5555
10500SOL    HW243155   4.935   9.384   7.056  1.5984  1.3401 -0.8855
10501SOL     OW43156   9.589   8.575   6.077 -0.4720 -0.3673 -0.2477
10501SOL    HW143157   9.588   8.502   6.008 -0.3082 -1.5350  0.9636
10501SOL    HW243158   9.496   8.597   6.103 -0.5180 -0.2338 -0.5241
10502SOL     OW43159   4.116   8.119   8.126  0.2081  0.4335 -0.0457
10502SOL    HW143160   4.052   8.114   8.050  0.1632 -0.4898  0.0388
10502SOL    HW243161   4.116   8.031   8.174  0.2919  0.9848  0.9701
10503SOL     OW43162   2.273   1.594   4.460 -0.0133 -0.0676  0.0225
10503SOL    HW143163   2.225   1.619   4.376 -1.7349 -0.8946  0.7324
10503SOL    HW243164   2.235   1.646   4.537  1.0203  0.1125  0.4228
10504SOL     OW43165   0.295   5.374   7.825  0.5018 -0.1678  0.0745
10504SOL    HW143166   0.267   5.457   7.874  1.3386 -0.8973  1.8108
10504SOL    HW243167   0.382   5.391   7.778 -0.0365  0.3703 -0.7351
10505SOL     OW43168   4.196   1.610   5.373 -0.0922  0.3902 -0.5375
10505SOL    HW143169   4.166   1.679   5.439  1.2587  1.8680 -1.4058
10505SOL    HW243170   4.263   1.549   5.416 -1.3640 -0.4514  0.2630
10506SOL     OW43171   1.265   9.658   1.622 -0.3230 -0.0913 -0.9033
10506SOL    HW143172   1.359   9.640   1.652  0.7925  2.7389 -2.5885
10506SOL    HW243173   1.223   9.726   1.682 -1.0100 -0.6396 -0.7438
10507SOL     OW43174   8.278   7.249   4.020  0.5808  0.1125 -0.2312
10507SOL    HW143175   8.310   7.160   4.053  0.6054  0.7924  1.6628
10507SOL    HW243176   8.354   7.297   3.975  0.6109 -0.7517 -1.1075
10508SOL     OW43177   1.052   3.622   0.746  0.3074  0.4434  0.3809
10508SOL    HW143178   1.131   3.641   0.804  1.6528 -0.3599 -1.1418
10508SOL    HW243179   1.031   3.525   0.748  0.5360  0.3592 -0.6442
10509SOL     OW43180   6.549   9.331   2.586  0.7169 -0.3580  0.2230
10509SOL    HW143181   6.470   9.388   2.560  0.3239  0.0862  2.2997
10509SOL    HW243182   6.588   9.365   2.672  2.1693 -1.5736  0.0610
10510SOL     OW43183   6.558   9.881   5.795  0.3805  0.0805  0.0352
10510SOL    HW143184   6.583   9.799   5.744  3.0546  0.3273  0.8643
10510SOL    HW243185   6.548   9.858   5.892  1.4127  0.7547  0.3100
10511SOL     OW43186   9.789   8.145   6.414 -0.4219  0.4531  0.3014
10511SOL    HW143187   9.719   8.072   6.409  0.9480 -0.9583  1.2364
10511SOL    HW243188   9.785   8.188   6.503 -0.6648  0.9696  0.0446
10512SOL     OW43189   2.140   6.970   7.535  0.2151  0.0740 -0.0619
10512SOL    HW143190   2.195   6.955   7.616 -0.2300  0.3976  0.3047
10512SOL    HW243191   2.046   6.939   7.552 -0.6582  2.9895  0.6255
10513SOL     OW43192   2.231   7.564   6.491  0.0869 -0.1392 -0.0344
10513SOL    HW143193   2.159   7.497   6.509  1.2211 -0.8679  1.9678
10513SOL    HW243194   2.225   7.594   6.395 -1.5882 -1.7019 -0.4587
10514SOL     OW43195   1.121   4.726   2.360 -0.1938 -0.0569  0.1666
10514SOL    HW143196   1.060   4.787   2.410 -1.0076 -0.7875  0.0921
10514SOL    HW243197   1.196   4.778   2.319 -0.0814  0.6812  1.3039
10515SOL     OW43198   7.580   2.209   4.751  0.1025 -0.5843  1.0208
10515SOL    HW143199   7.648   2.142   4.724  0.7921  0.3832  0.3118
10515SOL    HW243200   7.610   2.253   4.836  1.4500  1.3212 -0.3842
10516SOL     OW43201   3.346   1.387   2.048  0.6677 -0.1097  0.1152
10516SOL    HW143202   3.386   1.390   1.956 -1.4208  0.6813 -0.8045
10516SOL    HW243203   3.411   1.424   2.114  1.9445 -0.0668 -1.1380
10517SOL     OW43204   7.141   7.611   4.826  0.5085 -0.0340  0.3459
10517SOL    HW143205   7.074   7.591   4.754 -0.6505  0.2644  1.3149
10517SOL    HW243206   7.175   7.525   4.863 -0.9406 -0.2242  1.2880
10518SOL     OW43207   4.181   7.363   1.381 -0.4382  0.1869 -0.0169
10518SOL    HW143208   4.240   7.349   1.461 -1.0688  0.0015  0.4203
10518SOL    HW243209   4.227   7.425   1.317  1.3847 -2.0273 -0.9160
10519SOL     OW43210   2.682   9.267   7.970 -0.2906  0.2088 -0.2595
10519SOL    HW143211   2.759   9.272   8.033 -1.6241  0.7863  1.3450
10519SOL    HW243212   2.641   9.176   7.975 -0.5944  0.3584 -0.0809
10520SOL     OW43213   2.278   6.004   7.832 -0.2575  0.1528  0.1791
10520SOL    HW143214   2.179   6.003   7.815 -0.2727 -0.3463  0.2631
10520SOL    HW243215   2.309   5.910   7.846  0.3694  0.2217 -0.6771
10521SOL     OW43216   1.720   7.983   3.856  0.7790  0.0366 -0.1847
10521SOL    HW143217   1.772   7.971   3.771  3.3606 -1.2440  1.5363
10521SOL    HW243218   1.665   7.901   3.873  1.1078 -0.1537 -0.0435
10522SOL     OW43219   2.762   4.002   5.777 -0.7121 -0.4780 -0.0722
10522SOL    HW143220   2.758   4.003   5.677  1.2811  0.0765 -0.1730
10522SOL    HW243221   2.780   4.095   5.810  2.5122 -1.2899  0.5792
10523SOL     OW43222   2.169   1.514   8.077  0.1239 -0.3367  0.0627
10523SOL    HW143223   2.085   1.462   8.060 -0.4971  0.0752  1.7349
10523SOL    HW243224   2.192   1.509   8.174  0.7074  1.5211  0.0474
10524SOL     OW43225   7.873   8.762   4.345  0.2729  0.1788 -0.4718
10524SOL    HW143226   7.801   8.728   4.405  0.3594 -1.1769 -1.1131
10524SOL    HW243227   7.832   8.820   4.274  0.1234  1.4508  0.6247
10525SOL     OW43228   2.450   8.244   1.565  0.0162  0.5464 -0.1942
10525SOL    HW143229   2.528   8.287   1.609  0.7142 -1.7124  0.8181
10525SOL    HW243230   2.471   8.228   1.468  0.0832  1.6599 -0.3662
10526SOL     OW43231   7.782   5.131   1.196 -0.1322  0.2545 -0.7686
10526SOL    HW143232   7.730   5.215   1.213  0.2379  0.5076 -0.9053
10526SOL    HW243233   7.793   5.117   1.098  1.0575  0.8053 -0.7119
10527SOL     OW43234   1.630   5.050   0.883 -0.0794 -0.2843 -0.5367
10527SOL    HW143235   1.675   4.962   0.893 -2.1737 -1.8043 -3.4681
10527SOL    HW243236   1.533   5.035   0.863 -1.1860  2.7919  2.1235
10528SOL     OW43237   8.544   4.403   2.754  0.1387  0.4204 -0.1250
10528SOL    HW143238   8.535   4.481   2.815 -0.5110  1.3781 -1.4171
10528SOL    HW243239   8.454   4.376   2.720  0.4903 -0.0928 -0.6739
10529SOL     OW43240   3.265   1.818   3.087  0.0085 -0.7898 -0.0830
10529SOL    HW143241   3.266   1.811   2.988 -0.0558  1.1390 -0.2387
10529SOL    HW243242   3.174   1.846   3.118  0.2329 -0.6589  0.4602
10530SOL     OW43243   1.002   2.217   5.361  0.3130 -0.5997  0.2086
10530SOL    HW143244   1.072   2.155   5.327 -0.2476 -0.9653 -0.2984
10530SOL    HW243245   0.952   2.257   5.283  0.6088  0.4141  0.5312
10531SOL     OW43246   9.625   8.392   4.847 -0.5382  0.3619  0.2159
10531SOL    HW143247   9.700   8.371   4.910 -0.6435 -0.4153  0.0752
10531SOL    HW243248   9.553   8.442   4.897  0.4754  1.9526  0.1362
10532SOL     OW43249   0.442   7.187   3.001 -0.3784  0.1250 -0.6255
10532SOL    HW143250   0.518   7.132   2.968  0.8270  1.4503 -0.0755
10532SOL    HW243251   0.434   7.270   2.947 -2.5031 -0.7820 -1.7749
10533SOL     OW43252   1.799   6.147   7.354  0.4661  0.6562  0.2736
10533SOL    HW143253   1.732   6.096   7.301 -0.3193  1.7411  0.2067
10533SOL    HW243254   1.820   6.097   7.438 -0.8011  0.5448  0.5367
10534SOL     OW43255   1.380   2.090   5.668 -0.0625 -0.1328  0.1238
10534SOL    HW143256   1.316   2.082   5.591  0.3497 -1.0942 -0.1143
10534SOL    HW243257   1.406   1.999   5.700  0.0988  0.2629  1.1333
10535SOL     OW43258   3.594   6.509   0.932  0.3900  0.5180 -0.2148
10535SOL    HW143259   3.521   6.522   0.865  0.1235 -0.9935 -0.2372
10535SOL    HW243260   3.667   6.453   0.892  0.8438  0.7208  0.3171
10536SOL     OW43261   9.298   2.204   5.186 -0.2888 -0.2441  0.1236
10536SOL    HW143262   9.358   2.134   5.148  0.1201  0.5113 -0.6329
10536SOL    HW243263   9.346   2.255   5.257 -0.2718 -0.1021  0.0107
10537SOL     OW43264   0.916   1.745   3.922 -0.0235  0.0268 -1.3516
10537SOL    HW143265   0.870   1.657   3.934  0.9269 -0.1276  1.8800
10537SOL    HW243266   0.986   1.737   3.851  0.9020 -2.2359 -0.2405
10538SOL     OW43267   8.606   4.825   3.480 -0.1551 -0.2490  0.3698
10538SOL    HW143268   8.543   4.874   3.421  0.5139 -1.8321 -1.7173
10538SOL    HW243269   8.560   4.800   3.565 -1.2407  1.7134  0.3829
10539SOL     OW43270   1.472   7.998   0.505 -0.4265 -0.1080 -0.3810
10539SOL    HW143271   1.386   8.030   0.546  0.5082 -0.7162  2.0857
10539SOL    HW243272   1.530   8.077   0.486 -1.2642  0.2561 -1.4932
10540SOL     OW43273   1.481   3.920   3.534  0.1405 -0.1780  0.2368
10540SOL    HW143274   1.440   3.917   3.442  3.0072 -1.2832 -1.0597
10540SOL    HW243275   1.521   4.010   3.550  1.1452 -0.5146 -0.3132
10541SOL     OW43276   8.080   4.342   5.851  0.7761  0.1384  0.0453
10541SOL    HW143277   8.173   4.342   5.889  0.2838  0.8196  1.2558
10541SOL    HW243278   8.044   4.248   5.853  1.0462  0.0425  0.5259
10542SOL     OW43279   0.253   4.439   2.247 -0.0507  0.5536 -0.0145
10542SOL    HW143280   0.317   4.514   2.230  1.7551 -0.6906  1.0770
10542SOL    HW243281   0.235   4.391   2.161  1.2562  0.3371 -0.1854
10543SOL     OW43282   2.928   9.433   6.589  0.4611 -0.0503 -0.0026
10543SOL    HW143283   2.968   9.477   6.669 -0.5951 -1.3154  1.2359
10543SOL    HW243284   2.835   9.402   6.610 -0.4895  1.1128 -2.2363
10544SOL     OW43285   0.968   1.847   0.209 -0.6794  0.0071  0.0137
10544SOL    HW143286   0.966   1.767   0.270  0.5377  0.1497  0.2602
10544SOL    HW243287   1.044   1.906   0.235 -1.7436  1.3983  0.0054
10545SOL     OW43288   7.787   3.242   3.442  0.5306 -0.5044  0.0249
10545SOL    HW143289   7.881   3.277   3.444  0.5008 -0.4420  0.8436
10545SOL    HW243290   7.764   3.211   3.350  1.3335 -0.4532 -0.1970
10546SOL     OW43291   9.719   5.463   1.744 -0.0639  0.2818 -0.2857
10546SOL    HW143292   9.725   5.522   1.663 -0.4103 -0.1705 -0.6412
10546SOL    HW243293   9.634   5.482   1.792 -0.0964  0.1884 -0.3072
10547SOL     OW43294   1.955   0.916   3.398 -0.5866 -0.4501  0.1425
10547SOL    HW143295   1.859   0.897   3.420 -0.7548 -1.4740 -1.4239
10547SOL    HW243296   2.005   0.830   3.392 -0.2961 -0.1443 -2.2540
10548SOL     OW43297   0.369   1.189   3.285 -0.1917  0.5781  0.3324
10548SOL    HW143298   0.353   1.150   3.376 -0.4574  0.5590  0.2791
10548SOL    HW243299   0.408   1.120   3.225  1.3518  0.9969  0.8387
10549SOL     OW43300   9.931   6.822   1.397  0.6525 -0.4280  0.4471
10549SOL    HW143301   9.967   6.914   1.381  0.3866 -0.1988  1.1275
10549SOL    HW243302   9.878   6.822   1.482 -0.3625 -0.9213 -0.1755
10550SOL     OW43303   0.878   5.815   4.220 -0.2963 -0.3231 -0.5557
10550SOL    HW143304   0.918   5.820   4.129  0.3765 -1.4828 -0.3363
10550SOL    HW243305   0.915   5.888   4.277 -0.1339 -0.0724 -0.9788
10551SOL     OW43306   2.191   4.287   5.457 -0.1447  0.0553 -0.4434
10551SOL    HW143307   2.254   4.315   5.383 -0.8284 -1.5228 -1.6492
10551SOL    HW243308   2.100   4.271   5.418 -0.4331 -1.1095  0.7024
10552SOL     OW43309   9.394   9.140   0.178  0.1590  0.4013  0.0267
10552SOL    HW143310   9.429   9.233   0.184  1.6971 -0.2208  0.8836
10552SOL    HW243311   9.300   9.142   0.144  0.0249  2.2946  0.4546
10553SOL     OW43312   0.024   4.695   0.333  0.1771 -0.2584  0.6641
10553SOL    HW143313  -0.002   4.623   0.397  0.3415 -0.8358  0.0877
10553SOL    HW243314   0.086   4.658   0.265 -0.2075  0.2879  0.0106
10554SOL     OW43315   4.560   3.101   1.538  0.1938  0.0240  0.3047
10554SOL    HW143316   4.589   3.196   1.544  2.5892 -0.6978  0.7540
10554SOL    HW243317   4.640   3.043   1.520 -0.8778 -2.1346  2.2030
10555SOL     OW43318   1.049   0.132   0.635  0.3043 -0.3110 -0.1921
10555SOL    HW143319   1.063   0.194   0.713 -0.2135  0.1230 -0.4364
10555SOL    HW243320   1.106   0.051   0.646 -0.3225 -0.5933  1.0196
10556SOL     OW43321   6.855   7.477   7.359 -0.1451  0.4734 -0.0057
10556SOL    HW143322   6.890   7.418   7.432 -1.8022  0.5132  0.8544
10556SOL    HW243323   6.807   7.420   7.292  0.3025  0.5812 -0.4185
10557SOL     OW43324   0.954   8.000   7.094 -0.2974  0.2991  0.4497
10557SOL    HW143325   0.936   8.016   6.997  0.0900  0.2455  0.3691
10557SOL    HW243326   0.956   8.087   7.143 -2.3702  0.2142  0.7394
10558SOL     OW43327   1.557   2.828   4.186 -0.4991  0.0255  0.1500
10558SOL    HW143328   1.458   2.814   4.190 -0.2921 -1.1413  2.4816
10558SOL    HW243329   1.603   2.740   4.171  0.2685  0.2246  1.2470
10559SOL     OW43330   4.123   8.767   2.303  0.0877  0.1531  0.2362
10559SOL    HW143331   4.219   8.739   2.309  0.0950 -0.1164 -0.9600
10559SOL    HW243332   4.118   8.859   2.262 -0.0803  0.8090  1.7119
10560SOL     OW43333   8.021   5.769   0.021  0.1433  0.3576  0.3015
10560SOL    HW143334   7.991   5.714  -0.057 -0.5167  1.8125 -0.4883
10560SOL    HW243335   8.112   5.807   0.003  0.9525 -1.1187  1.1891
10561SOL     OW43336   6.605   7.354   3.892  0.5288 -0.3138  0.7102
10561SOL    HW143337   6.508   7.376   3.881  0.5490 -0.2974  0.5581
10561SOL    HW243338   6.637   7.305   3.811  0.9373  0.7131  0.2396
10562SOL     OW43339   7.437   1.407   3.547 -0.2866 -0.2311  0.5233
10562SOL    HW143340   7.360   1.449   3.596 -0.0325 -0.7061  1.3260
10562SOL    HW243341   7.487   1.346   3.609  1.2569  0.7360  0.2591
10563SOL     OW43342   9.810   5.180   4.583  0.1917 -0.3458  0.3501
10563SOL    HW143343   9.719   5.140   4.588 -0.0865  0.2994  0.5173
10563SOL    HW243344   9.878   5.107   4.574 -0.1268 -0.9749  2.8683
10564SOL     OW43345   2.255   3.890   2.439 -0.6031  0.4008 -0.1013
10564SOL    HW143346   2.207   3.972   2.409  0.6273  1.8741  1.8559
10564SOL    HW243347   2.228   3.868   2.533  1.3954  0.3825  0.4892
10565SOL     OW43348   9.032   1.374   3.222  0.2294 -0.1595  0.6625
10565SOL    HW143349   9.018   1.466   3.261 -1.0885  0.1820 -0.5678
10565SOL    HW243350   9.106   1.377   3.155  0.7023 -0.1683  1.1807
10566SOL     OW43351   1.279   8.963   7.003 -0.2325 -0.0247  0.8844
10566SOL    HW143352   1.364   8.929   7.043 -0.2941 -1.2147  0.0125
10566SOL    HW243353   1.256   9.051   7.044  1.7964  0.6458  0.6162
10567SOL     OW43354   1.758   2.138   2.139 -0.2209  0.2494  0.5116
10567SOL    HW143355   1.720   2.081   2.211 -0.7834 -1.4295 -1.0784
10567SOL    HW243356   1.737   2.097   2.050  1.0099  1.9438 -0.5743
10568SOL     OW43357   3.525   4.502   4.045 -0.1694 -0.3575 -0.3089
10568SOL    HW143358   3.458   4.438   4.006  0.4219 -0.2149 -1.5630
10568SOL    HW243359   3.613   4.490   4.000 -0.6074  2.8886 -2.1527
10569SOL     OW43360   0.565   6.054   1.639  0.0430  0.0368  0.5620
10569SOL    HW143361   0.636   5.987   1.661 -0.1448 -0.3407  0.0311
10569SOL    HW243362   0.533   6.040   1.545 -0.3062  0.5925  0.5911
10570SOL     OW43363   9.513   0.340   3.921 -0.6698 -0.2396 -0.4330
10570SOL    HW143364   9.453   0.263   3.940 -0.4518  0.0161  1.3287
10570SOL    HW243365   9.551   0.375   4.006 -0.5641  1.6542 -1.2346
10571SOL     OW43366   1.665   5.058   3.135  0.1850 -0.2908  0.3585
10571SOL    HW143367   1.751   5.056   3.186 -0.4205  0.0598  1.4090
10571SOL    HW243368   1.679   5.106   3.049  0.4801  1.9238  1.6057
10572SOL     OW43369   8.093   9.200   7.303  0.7524 -0.1470 -0.0251
10572SOL    HW143370   8.065   9.148   7.384 -0.2189  2.4727  1.4024
10572SOL    HW243371   8.016   9.211   7.241  0.3700  1.3253  0.6823
10573SOL     OW43372   3.303   6.942   3.579  0.4865 -0.7175 -0.1075
10573SOL    HW143373   3.333   7.034   3.603  0.1368 -0.7786  0.5750
10573SOL    HW243374   3.328   6.878   3.652  1.2998 -1.2743 -0.8739
10574SOL     OW43375   3.727   3.978   2.394  0.6260 -0.9423 -0.3650
10574SOL    HW143376   3.748   4.076   2.395 -0.7926 -0.6363  0.1904
10574SOL    HW243377   3.809   3.927   2.420  1.5067  0.0626 -1.1036
10575SOL     OW43378   6.741   1.552   3.087  0.1007  0.3023  0.3418
10575SOL    HW143379   6.775   1.457   3.084 -0.5707  0.0490  0.6998
10575SOL    HW243380   6.659   1.556   3.144 -1.1782  0.7090 -1.4990
10576SOL     OW43381   7.153   8.290   2.726 -0.0888 -0.5269 -0.1006
10576SOL    HW143382   7.224   8.255   2.788 -0.7531  0.8462  1.4456
10576SOL    HW243383   7.188   8.288   2.632  0.4642 -3.8420  0.0874
10577SOL     OW43384   3.477   0.335   3.739  0.2718  0.0126  0.1605
10577SOL    HW143385   3.398   0.325   3.679  0.0693 -0.1054  0.4439
10577SOL    HW243386   3.476   0.426   3.781  0.0663 -0.1374  0.4773
10578SOL     OW43387   0.296   2.232   3.605 -0.2303  0.2292 -0.1399
10578SOL    HW143388   0.248   2.160   3.654  2.2990 -1.2889  0.1888
10578SOL    HW243389   0.332   2.299   3.670  1.2385 -0.6193 -0.0476
10579SOL     OW43390   9.696   9.467   4.923  0.1238 -0.3745 -0.3264
10579SOL    HW143391   9.618   9.485   4.864  0.2975  0.3023 -0.3545
10579SOL    HW243392   9.670   9.479   5.019  0.0177 -0.8354 -0.2939
10580SOL     OW43393   7.837   4.755   7.001 -0.0732 -0.2212 -0.4331
10580SOL    HW143394   7.924   4.803   6.983 -0.1553 -0.0055 -0.2558
10580SOL    HW243395   7.853   4.681   7.066 -0.6567  2.0037  2.3389
10581SOL     OW43396   2.598   3.802   6.723 -0.3713 -0.1496 -0.1583
10581SOL    HW143397   2.500   3.789   6.739 -0.0197 -1.6340  0.8781
10581SOL    HW243398   2.625   3.756   6.638 -0.5356  0.1509 -0.3761
10582SOL     OW43399   0.760   4.381   7.770  0.8932  0.2878  0.2013
10582SOL    HW143400   0.728   4.459   7.716  0.7654 -1.3267 -2.1458
10582SOL    HW243401   0.689   4.353   7.834  0.5172  1.4230  0.2839
10583SOL     OW43402   3.842   5.987   2.612 -0.9235  0.1344  0.1460
10583SOL    HW143403   3.895   6.071   2.609 -0.5779 -0.0740  0.3936
10583SOL    HW243404   3.872   5.931   2.689 -2.4858  0.6735  1.1747
10584SOL     OW43405   5.260   8.315   4.589  0.1355  0.7627  0.4385
10584SOL    HW143406   5.285   8.270   4.503  0.6735  3.5930 -0.9329
10584SOL    HW243407   5.171   8.360   4.579  0.3093  1.3073  1.2924
10585SOL     OW43408   8.557   7.907   1.034 -0.2130  0.1604 -0.1114
10585SOL    HW143409   8.648   7.929   0.999 -0.8320  0.7498 -1.3874
10585SOL    HW243410   8.497   7.986   1.022 -1.1637 -0.5699 -0.2115
10586SOL     OW43411   4.634   7.819   6.434 -0.1509 -0.0031  0.6202
10586SOL    HW143412   4.644   7.731   6.480 -0.6827  1.1211  2.9362
10586SOL    HW243413   4.665   7.893   6.495 -1.9380  1.6161 -0.3669
10587SOL     OW43414   3.633   6.609   0.400 -0.2478  0.0193  0.1330
10587SOL    HW143415   3.561   6.657   0.351  0.0128  0.6559  0.3776
10587SOL    HW243416   3.649   6.652   0.489  1.1756  0.5461 -0.3548
10588SOL     OW43417   0.131   3.866   4.964 -0.2727 -0.1511  0.1700
10588SOL    HW143418   0.069   3.835   4.891 -0.9689  0.7471  0.3695
10588SOL    HW243419   0.176   3.787   5.005 -0.1023 -0.6876 -1.0362
10589SOL     OW43420   2.831   5.472   2.768 -0.3223  0.3863  0.1371
10589SOL    HW143421   2.775   5.528   2.829 -0.8133  1.1402 -0.9811
10589SOL    HW243422   2.836   5.516   2.678  0.8273 -0.4381 -0.2125
10590SOL     OW43423   2.272   5.097   4.521 -0.0708  1.1628  0.3210
10590SOL    HW143424   2.179   5.096   4.560  0.9439 -1.0031  2.8772
10590SOL    HW243425   2.312   5.188   4.532 -1.6007  1.8950 -0.0600
10591SOL     OW43426   8.816   8.264   4.769  0.3351 -0.2922  0.2646
10591SOL    HW143427   8.720   8.275   4.793  0.2439 -1.0576  0.2715
10591SOL    HW243428   8.854   8.186   4.819  0.3487 -1.4251 -1.4589
10592SOL     OW43429   8.333   2.460   6.915  0.0849 -0.1860 -0.1624
10592SOL    HW143430   8.403   2.516   6.870  0.5502  0.1174  0.9047
10592SOL    HW243431   8.319   2.376   6.864  0.2475  0.3710 -1.1374
10593SOL     OW43432   4.799   7.241   2.886  0.2044  0.0151 -0.5187
10593SOL    HW143433   4.733   7.287   2.946 -0.0374 -0.1258 -0.6782
10593SOL    HW243434   4.767   7.246   2.792  0.7098  0.4534 -0.6698
10594SOL     OW43435   2.489   4.689   5.517  0.3615 -0.2252 -0.3591
10594SOL    HW143436   2.519   4.774   5.562  1.0816 -0.4262 -0.4499
10594SOL    HW243437   2.569   4.632   5.498  0.0051 -0.3866 -1.3902
10595SOL     OW43438   4.249   4.328   1.167  0.1303  0.6731  0.7313
10595SOL    HW143439   4.316   4.331   1.242  3.2476 -1.8798 -1.7816
10595SOL    HW243440   4.213   4.235   1.158 -0.9695  1.1876 -0.3316
10596SOL     OW43441   4.254   4.258   2.003 -0.9513 -0.4667 -0.0052
10596SOL    HW143442   4.171   4.308   2.027 -0.7601 -0.2926  0.2859
10596SOL    HW243443   4.243   4.217   1.912 -1.3649 -0.4649  0.0428
10597SOL     OW43444   7.461   0.788   7.618  0.2694  0.0553 -0.4210
10597SOL    HW143445   7.484   0.690   7.624  1.2712  0.2388 -1.1860
10597SOL    HW243446   7.417   0.817   7.703  1.9378 -0.5648  0.6729
10598SOL     OW43447   3.300   9.434   7.978  0.7936  0.3558 -0.2279
10598SOL    HW143448   3.263   9.499   7.912 -0.6484 -0.2823 -0.0760
10598SOL    HW243449   3.371   9.479   8.033  0.4124  1.5518 -0.6950
10599SOL     OW43450   0.208   4.417   8.100 -0.2611  0.2023 -0.4312
10599SOL    HW143451   0.183   4.324   8.128  1.7542  0.0005  0.8456
10599SOL    HW243452   0.232   4.418   8.003 -0.0045 -0.6900 -0.3789
10600SOL     OW43453   2.662   0.528   0.861  0.0328 -0.2260 -0.0663
10600SOL    HW143454   2.681   0.613   0.910 -0.2377  0.5101 -1.2385
10600SOL    HW243455   2.711   0.528   0.774  0.3430 -1.4452  0.0975
10601SOL     OW43456   9.785   9.469   0.048  0.2471  0.2914  0.6785
10601SOL    HW143457   9.879   9.436   0.060  0.0505 -0.2625  0.7063
10601SOL    HW243458   9.768   9.546   0.110  2.4493  4.1007 -3.1746
10602SOL     OW43459   4.718   1.384   7.795  0.2530 -0.9309  0.1511
10602SOL    HW143460   4.784   1.410   7.725 -0.4632 -0.1961 -0.2612
10602SOL    HW243461   4.766   1.347   7.875  1.1630 -0.1799 -0.0493
10603SOL     OW43462   4.374   0.609   7.128 -0.2212  0.2403 -0.1927
10603SOL    HW143463   4.323   0.598   7.042  0.4468 -2.1791 -0.3190
10603SOL    HW243464   4.450   0.544   7.130  0.2023  0.7703  1.9337
10604SOL     OW43465   2.621   6.245   3.068  0.1124  0.0719  0.1720
10604SOL    HW143466   2.669   6.180   3.126  2.9766 -0.1592 -2.3045
10604SOL    HW243467   2.676   6.328   3.059 -1.9156  1.4990  0.5695
10605SOL     OW43468   1.179   7.335   2.173 -0.0506 -0.2917  0.0852
10605SOL    HW143469   1.273   7.301   2.168  0.8127  1.6893  1.8821
10605SOL    HW243470   1.171   7.418   2.118 -0.5784 -0.0861  0.4689
10606SOL     OW43471   3.902   8.803   1.310  0.2573  0.0764 -0.4794
10606SOL    HW143472   3.833   8.839   1.374 -0.1348 -1.2870 -0.1170
10606SOL    HW243473   3.876   8.827   1.216 -1.4359 -1.5881 -0.4513
10607SOL     OW43474   5.371   8.052   2.589 -0.3751 -0.9429  0.0604
10607SOL    HW143475   5.287   8.088   2.547 -0.1251 -0.1718  0.2133
10607SOL    HW243476   5.376   7.953   2.574  0.0377 -0.5975 -2.3316
10608SOL     OW43477   9.513   4.247   7.347 -0.2482 -1.0038 -0.0112
10608SOL    HW143478   9.565   4.332   7.360  0.4959 -1.5672  0.7023
10608SOL    HW243479   9.468   4.250   7.257  0.4414 -0.2102 -0.3470
10609SOL     OW43480   9.106   4.206   2.004  0.4989 -0.5661 -0.0229
10609SOL    HW143481   9.095   4.176   1.910  0.4014  1.3774 -0.6570
10609SOL    HW243482   9.060   4.142   2.066  0.8470 -2.0197 -1.2572
10610SOL     OW43483   9.884   3.128   3.917 -0.5787 -0.1615 -0.2802
10610SOL    HW143484   9.891   3.066   3.839  1.0914 -0.9988  0.4989
10610SOL    HW243485   9.975   3.142   3.956 -0.9919  2.4268 -0.1647
10611SOL     OW43486   9.232   0.493   4.118 -0.1122 -1.1715 -0.3665
10611SOL    HW143487   9.135   0.469   4.121 -0.0925 -1.3872 -1.2117
10611SOL    HW243488   9.287   0.411   4.131 -0.0365 -0.9829  0.5446
10612SOL     OW43489   8.807   2.644   1.928 -0.3632 -0.2762  0.4876
10612SOL    HW143490   8.840   2.720   1.871 -1.4772 -0.1658 -0.0485
10612SOL    HW243491   8.862   2.563   1.910  0.8022  0.3834  1.0163
10613SOL     OW43492   0.884   1.558   1.000 -0.5590  0.3161  0.3380
10613SOL    HW143493   0.910   1.606   1.084  1.0340  0.3171 -0.1530
10613SOL    HW243494   0.853   1.465   1.023  0.6106  0.0481  0.8544
10614SOL     OW43495   4.319   7.082   0.920  0.2990 -0.2553  0.3007
10614SOL    HW143496   4.338   7.008   0.857 -1.0572 -0.3145 -0.0460
10614SOL    HW243497   4.352   7.058   1.012  1.0189 -0.7369 -0.0864
10615SOL     OW43498   0.558   7.969   2.509 -0.5579 -0.3468 -0.3488
10615SOL    HW143499   0.552   7.887   2.452 -1.4636 -0.3672 -0.2319
10615SOL    HW243500   0.584   8.047   2.453  0.4723 -0.7379 -0.4326
10616SOL     OW43501   0.198   3.951   7.634 -1.0963 -0.3056  0.0336
10616SOL    HW143502   0.187   3.904   7.722 -3.3131  1.2574  0.6581
10616SOL    HW243503   0.241   3.890   7.568  0.9162 -1.4015  2.2888
10617SOL     OW43504   3.570   3.744   2.379  0.7568 -0.1638  0.1334
10617SOL    HW143505   3.472   3.744   2.359  0.2921 -0.6470  2.3022
10617SOL    HW243506   3.600   3.837   2.399  0.7849  0.0088 -0.6979
10618SOL     OW43507   9.867   6.544   7.466  0.0914  0.6100  0.3406
10618SOL    HW143508   9.874   6.444   7.460 -1.6570  0.4081  1.3575
10618SOL    HW243509   9.957   6.582   7.486  1.2112 -0.5729 -2.2279
10619SOL     OW43510   5.602   2.109   4.374 -0.5067 -0.0852 -0.0123
10619SOL    HW143511   5.517   2.106   4.426 -0.7112 -1.7746 -0.4308
10619SOL    HW243512   5.627   2.017   4.345  0.0687  0.7323 -2.1597
10620SOL     OW43513   1.194   4.950   1.328 -0.5678 -0.0657  0.0603
10620SOL    HW143514   1.119   5.015   1.321 -0.5537 -0.0020  0.4509
10620SOL    HW243515   1.218   4.916   1.238  0.8264  2.0537 -0.4029
10621SOL     OW43516   4.505   1.979   4.781 -0.3310  0.1463  0.1906
10621SOL    HW143517   4.482   2.026   4.866  1.7853  0.2924  0.7302
10621SOL    HW243518   4.550   2.044   4.719 -1.9149  0.0603 -1.0929
10622SOL     OW43519   4.667   8.349   2.943 -0.2843  0.1409 -0.3190
10622SOL    HW143520   4.608   8.413   2.894 -0.6731  0.5720  0.7067
10622SOL    HW243521   4.675   8.377   3.039  1.1437 -0.2238 -0.3238
10623SOL     OW43522   1.849   2.962   1.534  0.3120 -0.3867  0.4084
10623SOL    HW143523   1.758   2.921   1.542  0.7563 -0.9037  3.2534
10623SOL    HW243524   1.914   2.893   1.501  0.1652 -0.7159  0.8071
10624SOL     OW43525   3.637   5.207   5.574  0.2517  0.2826 -0.2667
10624SOL    HW143526   3.677   5.298   5.563  0.7769  0.1595  0.5620
10624SOL    HW243527   3.538   5.213   5.565  0.3264  0.8458 -0.7558
10625SOL     OW43528   3.890   7.810   4.921 -0.2858  0.2768  0.3290
10625SOL    HW143529   3.986   7.836   4.923  0.1477 -1.3356  1.1180
10625SOL    HW243530   3.873   7.755   4.839 -0.4819  0.3073  0.3489
10626SOL     OW43531   4.470   1.566   3.298  0.0947 -0.1682  0.1286
10626SOL    HW143532   4.508   1.658   3.311 -0.4880  0.0177  0.5555
10626SOL    HW243533   4.447   1.527   3.387  1.5275 -1.2488  0.0341
10627SOL     OW43534   9.529   8.467   7.902 -0.1283 -0.3981 -0.2733
10627SOL    HW143535   9.458   8.479   7.972  0.0816  0.2140 -0.1569
10627SOL    HW243536   9.488   8.474   7.811 -0.0854  0.8562 -0.2087
10628SOL     OW43537   2.990   7.888   6.666  0.8215 -0.2999  0.9011
10628SOL    HW143538   2.913   7.949   6.643 -0.2932 -1.4870  1.4092
10628SOL    HW243539   3.073   7.942   6.675  0.1040  0.9811  0.0576
10629SOL     OW43540   0.595   5.209   5.019 -0.1527  0.3911  0.1026
10629SOL    HW143541   0.662   5.141   5.047 -1.9454 -1.7310 -0.6504
10629SOL    HW243542   0.629   5.258   4.938  0.4146 -0.7702 -0.3671
10630SOL     OW43543   3.074   7.935   1.751  0.0164 -0.2429  0.1169
10630SOL    HW143544   3.145   7.964   1.815 -0.8520  0.7136  0.6682
10630SOL    HW243545   3.078   7.836   1.739  0.5849 -0.3586  1.1871
10631SOL     OW43546   5.264   0.130   7.116  0.2940 -0.2644 -0.4219
10631SOL    HW143547   5.263   0.211   7.174 -0.6471  0.6723 -1.7176
10631SOL    HW243548   5.214   0.056   7.161 -0.4654  0.4585 -0.0664
10632SOL     OW43549   3.544   2.126   3.250  0.6630 -0.3999  0.3821
10632SOL    HW143550   3.541   2.037   3.205 -2.2623  1.1949 -2.8495
10632SOL    HW243551   3.590   2.192   3.190  2.6380  0.3664  2.6630
10633SOL     OW43552   0.563   4.237   7.289  0.1707  0.1117  0.3128
10633SOL    HW143553   0.480   4.182   7.280 -1.6708  2.8653 -0.5403
10633SOL    HW243554   0.567   4.276   7.381  1.9825 -2.1518  1.2395
10634SOL     OW43555   2.578   5.350   5.758 -0.0680 -0.3257 -0.5800
10634SOL    HW143556   2.489   5.368   5.799  0.7949  0.8969  0.8045
10634SOL    HW243557   2.594   5.412   5.681  1.5843  2.8883  2.2167
10635SOL     OW43558   4.526   8.564   6.967  0.2882  0.3780  0.2152
10635SOL    HW143559   4.447   8.579   7.027 -0.3661 -1.2131 -0.2176
10635SOL    HW243560   4.507   8.603   6.877  0.5487  1.1812  0.5031
10636SOL     OW43561   1.411   0.386   0.328  0.0966  0.5605  0.3482
10636SOL    HW143562   1.461   0.301   0.341  2.0452  1.0009 -3.6094
10636SOL    HW243563   1.319   0.366   0.295  0.7192  0.0044 -1.0532
10637SOL     OW43564   6.080   9.854   3.296  0.4010 -0.3180  0.8125
10637SOL    HW143565   6.037   9.829   3.210  0.5522 -0.3419  0.7445
10637SOL    HW243566   6.028   9.814   3.372 -0.5918  0.9290  0.8104
10638SOL     OW43567   8.323   0.705   1.678 -0.4619 -0.2525 -0.1073
10638SOL    HW143568   8.390   0.712   1.752  2.3450  1.6915 -2.7305
10638SOL    HW243569   8.254   0.777   1.689  1.4151  1.6879 -0.7710
10639SOL     OW43570   8.675   4.626   6.442  0.0213  0.0137  0.3567
10639SOL    HW143571   8.739   4.676   6.384  0.5463  0.5869  1.4223
10639SOL    HW243572   8.723   4.586   6.520 -0.8186 -0.0191  0.8710
10640SOL     OW43573   8.821   4.128   7.168 -0.1629  0.4973  0.4724
10640SOL    HW143574   8.835   4.218   7.208  0.4114 -0.0705  1.5940
10640SOL    HW243575   8.805   4.061   7.241 -0.2882 -0.3547 -0.3207
10641SOL     OW43576   0.520   4.284   1.128 -0.6257  0.1947 -0.1055
10641SOL    HW143577   0.532   4.351   1.202  0.9963  0.3052 -0.4482
10641SOL    HW243578   0.602   4.228   1.121 -1.5337 -1.0947 -0.5736
10642SOL     OW43579   9.227   7.536   4.037  0.1078 -0.7983  0.8614
10642SOL    HW143580   9.209   7.499   4.128 -0.7256 -0.4141  0.8571
10642SOL    HW243581   9.217   7.635   4.039  0.0225 -0.7968  0.3358
10643SOL     OW43582   5.806   4.964   1.447 -0.0306 -0.1116  0.0199
10643SOL    HW143583   5.847   4.993   1.534  0.3172  0.7858 -0.4283
10643SOL    HW243584   5.723   5.018   1.430  0.2693  0.1856 -0.5175
10644SOL     OW43585   9.779   1.376   0.722  0.2392 -0.3779 -0.4215
10644SOL    HW143586   9.787   1.427   0.636 -0.1212 -2.7559 -1.9101
10644SOL    HW243587   9.705   1.308   0.714 -1.8087  1.3120  2.7978
10645SOL     OW43588   3.017   1.124   5.055  0.5433  0.2249  0.3424
10645SOL    HW143589   2.949   1.129   5.128  0.8414 -1.0728  0.7143
10645SOL    HW243590   3.091   1.061   5.081  2.0259  1.7990  0.0556
10646SOL     OW43591   2.872   5.360   1.880 -0.2206  0.5051  0.3613
10646SOL    HW143592   2.896   5.316   1.966 -1.0172  1.1882  0.9399
10646SOL    HW243593   2.928   5.322   1.806  0.4533 -0.0931  1.1739
10647SOL     OW43594   1.949   8.045   2.024  0.6243 -0.1197 -0.1041
10647SOL    HW143595   1.902   7.958   2.013 -0.7937  0.8067 -1.4592
10647SOL    HW243596   2.034   8.030   2.075 -0.2439 -2.0749  0.8461
10648SOL     OW43597   8.272   7.935   3.396  0.1167 -0.2325 -0.1430
10648SOL    HW143598   8.262   7.936   3.297 -1.0739  0.6404 -0.0249
10648SOL    HW243599   8.186   7.906   3.438  0.7485 -1.0151  0.6157
10649SOL     OW43600   4.188   1.045   3.172 -0.7248 -0.4700  0.0254
10649SOL    HW143601   4.284   1.056   3.197 -1.5719 -0.7531  3.6917
10649SOL    HW243602   4.152   1.132   3.137  0.8050 -0.3376 -1.2626
10650SOL     OW43603   4.371   2.279   3.447 -0.2105  0.2673  1.1848
10650SOL    HW143604   4.314   2.260   3.527  0.6988  0.0443  1.7927
10650SOL    HW243605   4.462   2.240   3.461 -1.0739 -2.9651 -1.5071
10651SOL     OW43606   4.308   0.641   5.522  0.0271 -0.0185  0.3624
10651SOL    HW143607   4.263   0.566   5.570  1.0493 -1.3573 -0.7091
10651SOL    HW243608   4.275   0.645   5.428 -0.4566  1.2692  0.5783
10652SOL     OW43609   9.678   5.311   6.157 -0.0599  0.1472 -0.1252
10652SOL    HW143610   9.644   5.403   6.138  0.7855  0.7414  1.1941
10652SOL    HW243611   9.777   5.308   6.147  0.0803 -0.2517  1.2348
10653SOL     OW43612   4.532   4.553   6.050  0.8546  0.3037  0.1371
10653SOL    HW143613   4.603   4.524   5.986  0.8738  2.0268 -0.6548
10653SOL    HW243614   4.504   4.646   6.028 -1.0338 -0.0483  0.9950
10654SOL     OW43615   0.115   4.163   0.518 -0.0416 -0.1863  0.1618
10654SOL    HW143616   0.215   4.157   0.510  0.1118  1.2934  0.9109
10654SOL    HW243617   0.088   4.150   0.613 -0.5726 -0.6228 -0.0457
10655SOL     OW43618   2.332   3.478   2.181 -0.1812  0.1885  0.5229
10655SOL    HW143619   2.405   3.542   2.159 -1.0787  0.5556 -1.4330
10655SOL    HW243620   2.279   3.513   2.258 -0.6549  1.7844 -0.5195
10656SOL     OW43621   6.302   5.637   0.248 -0.0728 -0.2578  0.0004
10656SOL    HW143622   6.226   5.689   0.209  0.2072 -0.3734 -0.7250
10656SOL    HW243623   6.321   5.668   0.340 -0.1608  0.6547 -0.2872
10657SOL     OW43624   7.521   8.575   6.888 -0.1976  0.4612  0.2606
10657SOL    HW143625   7.560   8.485   6.906 -1.4800 -0.0349  0.6096
10657SOL    HW243626   7.519   8.592   6.789  1.3984  0.7300  0.2600
10658SOL     OW43627   7.310   8.323   3.605 -0.0374 -0.5926 -0.3904
10658SOL    HW143628   7.356   8.334   3.517 -1.6774  1.4397 -1.0389
10658SOL    HW243629   7.211   8.323   3.591 -0.3045 -2.2894  1.2597
10659SOL     OW43630   9.178   0.967   7.640 -0.0919  0.5248  0.0107
10659SOL    HW143631   9.275   0.970   7.614  0.0162  0.4899  0.3967
10659SOL    HW243632   9.154   0.875   7.670  0.1109  0.8510  1.2154
10660SOL     OW43633   8.114   6.692   2.482  0.3160  0.3830  0.7449
10660SOL    HW143634   8.114   6.705   2.383  0.0405  1.5452  0.8934
10660SOL    HW243635   8.139   6.597   2.503  1.8049  0.5072 -0.3858
10661SOL     OW43636   3.585   5.094   1.355  0.0319 -0.3365  0.0744
10661SOL    HW143637   3.572   5.060   1.448  0.7198  0.6608  0.5416
10661SOL    HW243638   3.666   5.051   1.315  0.1255 -0.2627  0.1831
10662SOL     OW43639   7.169   7.966   2.411  0.0685  0.2726 -0.5774
10662SOL    HW143640   7.205   7.893   2.352  1.1182  0.3941 -0.0854
10662SOL    HW243641   7.106   7.926   2.478 -0.3589 -0.0038 -1.1403
10663SOL     OW43642   4.732   7.743   3.655  0.2842  0.8169 -0.0992
10663SOL    HW143643   4.660   7.783   3.599  0.9405  1.5385 -0.4312
10663SOL    HW243644   4.704   7.744   3.751 -0.8658 -0.4735 -0.4063
10664SOL     OW43645   3.631   4.856   4.500 -0.0702 -0.0718  0.4458
10664SOL    HW143646   3.658   4.775   4.448 -0.9534  0.9453 -1.6477
10664SOL    HW243647   3.534   4.874   4.485 -0.5215 -0.1470  3.0366
10665SOL     OW43648   0.764   9.529   0.402  0.3643 -0.0050  0.1908
10665SOL    HW143649   0.723   9.486   0.483  0.6074 -3.8385 -1.5843
10665SOL    HW243650   0.695   9.539   0.331  0.8995  0.1954 -0.3062
10666SOL     OW43651   8.232   9.831   8.136 -0.0940 -0.4212  0.0634
10666SOL    HW143652   8.172   9.845   8.056 -0.1469 -2.0260 -0.2057
10666SOL    HW243653   8.281   9.744   8.125  2.0038  0.7021  0.4748
10667SOL     OW43654   3.493   5.760   1.001 -0.3344 -0.2155 -0.1633
10667SOL    HW143655   3.421   5.710   0.953 -0.3485 -0.7418  0.4001
10667SOL    HW243656   3.455   5.844   1.040 -0.4506 -0.0691 -0.6005
10668SOL     OW43657   8.522   0.513   8.167  0.7709 -0.5268 -0.7793
10668SOL    HW143658   8.591   0.445   8.141  1.6306  0.2619 -0.5861
10668SOL    HW243659   8.562   0.604   8.162 -1.3252  0.3045 -4.3567
10669SOL     OW43660   7.202   2.911   2.485  0.1674  0.2205 -0.0814
10669SOL    HW143661   7.251   2.842   2.433 -0.0962 -1.3964  1.7531
10669SOL    HW243662   7.240   3.002   2.465  0.3056 -0.4061 -2.7449
10670SOL     OW43663   9.217   5.531   4.123 -0.2991  0.3596 -0.2463
10670SOL    HW143664   9.277   5.465   4.077  0.8510  0.0251  1.6850
10670SOL    HW243665   9.152   5.482   4.181  0.0511  0.8890  0.5959
10671SOL     OW43666   9.899   0.169   1.540  0.2624  0.0437  0.0495
10671SOL    HW143667   9.891   0.131   1.448  1.5523 -0.5664  0.1762
10671SOL    HW243668   9.956   0.109   1.596  0.3065  0.9198  0.9679
10672SOL     OW43669   8.549   2.542   7.368 -0.2108 -0.5563  0.2899
10672SOL    HW143670   8.585   2.611   7.305 -2.1949  0.3808  0.1533
10672SOL    HW243671   8.614   2.529   7.443 -0.2513  2.2310  0.8806
10673SOL     OW43672   1.783   2.932   2.827 -0.1601 -0.6175  0.7421
10673SOL    HW143673   1.800   2.873   2.906 -0.7008  0.6937  1.8648
10673SOL    HW243674   1.705   2.991   2.846  0.5497  0.6732 -0.2496
10674SOL     OW43675   0.051   5.149   4.259 -0.1080  0.2783 -0.9104
10674SOL    HW143676   0.111   5.229   4.259 -0.5791  0.6329 -0.7444
10674SOL    HW243677   0.016   5.134   4.352 -0.0182 -0.1221 -0.9406
10675SOL     OW43678   7.633   3.180   6.376  0.2989 -0.6808 -0.2464
10675SOL    HW143679   7.645   3.101   6.436  0.6319  0.2589  0.9426
10675SOL    HW243680   7.538   3.209   6.377  0.2716 -0.7671 -0.3063
10676SOL     OW43681   8.714   8.772   6.473  0.5879  0.2990 -0.6904
10676SOL    HW143682   8.674   8.688   6.507  1.7987  0.2856  0.7609
10676SOL    HW243683   8.809   8.756   6.448  0.7649  1.1716 -0.6106
10677SOL     OW43684   1.363   3.000   5.361  0.0618 -0.0360  0.1006
10677SOL    HW143685   1.396   2.924   5.416 -0.7778  1.4694  2.7801
10677SOL    HW243686   1.270   2.981   5.329 -0.0837 -0.2087  0.6301
10678SOL     OW43687   0.564   9.478   3.136 -0.3276 -0.0858 -0.2387
10678SOL    HW143688   0.562   9.409   3.063  0.7998  0.3857 -0.7288
10678SOL    HW243689   0.621   9.556   3.107  1.3794 -0.5563  1.7247
10679SOL     OW43690   9.629   5.966   5.972 -0.7352  0.0929  0.5059
10679SOL    HW143691   9.697   6.034   5.943 -1.1497 -0.2330 -1.2434
10679SOL    HW243692   9.557   6.011   6.025 -1.2487  1.1138 -1.0307
10680SOL     OW43693   9.508   6.972   7.471  0.1176 -0.2387  0.0588
10680SOL    HW143694   9.554   6.981   7.560  1.4891 -0.6383 -0.5819
10680SOL    HW243695   9.470   6.879   7.463  0.4352 -0.3672  0.0289
10681SOL     OW43696   7.227   5.432   1.443  0.2792 -0.3749  0.0865
10681SOL    HW143697   7.204   5.499   1.372 -1.5663 -1.7396 -0.6294
10681SOL    HW243698   7.302   5.374   1.411  0.0444 -0.4196 -0.3868
10682SOL     OW43699   3.214   0.806   4.615 -0.4056  0.1035  0.1552
10682SOL    HW143700   3.183   0.866   4.541  0.9309  0.4779 -0.1093
10682SOL    HW243701   3.212   0.711   4.584 -0.4567  0.2038 -0.1505
10683SOL     OW43702   6.137   8.921   4.913 -0.0322 -0.2209  0.1910
10683SOL    HW143703   6.080   8.872   4.846  0.0001 -0.6983  0.5093
10683SOL    HW243704   6.151   8.863   4.993 -0.0049  0.3235  0.5807
10684SOL     OW43705   2.865   7.012   1.919  0.3648  0.0288 -0.1812
10684SOL    HW143706   2.786   7.047   1.971 -0.4182 -0.5905 -0.9461
10684SOL    HW243707   2.881   7.071   1.840  1.5502  0.9624  0.7242
10685SOL     OW43708   8.295   7.645   0.777 -0.2867 -0.2313 -1.2399
10685SOL    HW143709   8.298   7.744   0.770 -1.2845 -0.2710 -2.3673
10685SOL    HW243710   8.216   7.610   0.727  0.6442 -1.6713 -1.7327
10686SOL     OW43711   8.133   7.841   7.720  0.4162  0.2588  0.8097
10686SOL    HW143712   8.086   7.926   7.745 -1.8909 -0.1758 -1.8077
10686SOL    HW243713   8.215   7.863   7.666 -0.7417  0.8001 -0.7416
10687SOL     OW43714   9.583   9.433   4.326  0.9402  0.1746  0.1803
10687SOL    HW143715   9.634   9.511   4.290  0.7718 -0.1712 -0.8375
10687SOL    HW243716   9.485   9.453   4.325  0.9677  0.3625  0.9530
10688SOL     OW43717   6.226   8.840   6.257  0.5571  0.0647  0.3572
10688SOL    HW143718   6.317   8.818   6.221  0.6617 -0.9106  1.2103
10688SOL    HW243719   6.187   8.916   6.204  1.3628 -0.3059 -0.7850
10689SOL     OW43720   9.530   4.298   5.902 -0.2685  0.2549 -0.1055
10689SOL    HW143721   9.476   4.230   5.950  0.1076  0.9857  1.3779
10689SOL    HW243722   9.479   4.331   5.822 -0.6589 -1.3671 -0.5356
10690SOL     OW43723   8.493   6.578   3.171 -0.6300  0.3730 -0.5077
10690SOL    HW143724   8.507   6.582   3.072  1.4924  2.8502 -0.1942
10690SOL    HW243725   8.574   6.537   3.214 -1.3873 -0.3581  0.2415
10691SOL     OW43726   3.390   6.694   0.242  0.1808  0.0904 -0.3792
10691SOL    HW143727   3.309   6.689   0.300 -0.1828  3.6774 -0.4401
10691SOL    HW243728   3.364   6.727   0.151  1.5908  0.3780 -0.6911
10692SOL     OW43729   2.022   0.705   2.871 -0.3374  0.0644 -0.1254
10692SOL    HW143730   1.979   0.708   2.781 -0.4147  0.1981 -0.0835
10692SOL    HW243731   1.968   0.648   2.932 -1.5300  1.8173  0.5007
10693SOL     OW43732   2.494   8.884   6.446  0.0596  0.2117  0.4954
10693SOL    HW143733   2.430   8.810   6.469  1.2216 -0.3937  1.9256
10693SOL    HW243734   2.448   8.952   6.391 -1.6100 -0.6010  0.8514
10694SOL     OW43735   2.924   5.588   0.921 -0.0604  0.1550 -0.1157
10694SOL    HW143736   2.941   5.530   1.001 -2.0354 -0.8477 -0.3798
10694SOL    HW243737   2.957   5.542   0.839 -0.2500  0.0914 -0.1559
10695SOL     OW43738   8.647   7.894   3.368 -0.5609 -0.0935 -0.2776
10695SOL    HW143739   8.734   7.845   3.375  0.2836  1.3072 -0.7934
10695SOL    HW243740   8.584   7.861   3.439  0.8170 -0.2639  0.8739
10696SOL     OW43741   4.783   3.692   4.848 -0.1344  0.0493 -0.3494
10696SOL    HW143742   4.818   3.644   4.767 -1.4904 -0.5017 -0.6275
10696SOL    HW243743   4.756   3.625   4.917 -2.0033  0.3759 -0.7227
10697SOL     OW43744   7.383   1.585   1.901 -0.3079  0.1352  0.2495
10697SOL    HW143745   7.397   1.496   1.859 -1.9116  0.0520 -0.1589
10697SOL    HW243746   7.365   1.653   1.830  1.0193  0.8222  0.5496
10698SOL     OW43747   9.778   0.884   6.921  0.3021 -0.0890  0.0852
10698SOL    HW143748   9.797   0.798   6.970  0.3747  0.0998  0.3898
10698SOL    HW243749   9.800   0.873   6.824 -0.7041 -0.7573 -0.0771
10699SOL     OW43750   6.948   9.058   3.204 -0.3671  0.4490 -0.0230
10699SOL    HW143751   6.895   9.010   3.275 -3.0127  1.2594 -1.3996
10699SOL    HW243752   6.907   9.041   3.115  0.5503  2.7039 -0.9068
10700SOL     OW43753   1.635   9.603   4.387 -0.1169 -0.2782  0.4574
10700SOL    HW143754   1.714   9.616   4.448 -0.2190  1.7851  0.1944
10700SOL    HW243755   1.666   9.609   4.292 -0.0457 -2.9659  0.2727
10701SOL     OW43756   0.016   0.847   0.527 -0.1628 -0.9261 -0.5425
10701SOL    HW143757  -0.010   0.773   0.589 -0.5332 -0.3480  0.0050
10701SOL    HW243758   0.024   0.932   0.579 -0.6869 -0.3893 -1.3279
10702SOL     OW43759   3.608   7.536   3.406 -0.6625 -0.4982  0.4465
10702SOL    HW143760   3.621   7.602   3.480 -0.3631 -0.8971  0.7481
10702SOL    HW243761   3.642   7.575   3.321  1.6414 -1.1363  1.0330
10703SOL     OW43762   0.994   8.477   5.946 -0.0732 -0.5192 -0.5486
10703SOL    HW143763   0.979   8.457   5.849 -1.0618  0.4568 -0.6041
10703SOL    HW243764   1.077   8.430   5.977 -1.7244 -3.8052 -0.9438
10704SOL     OW43765   9.404   4.145   6.111  0.0343 -0.6361  0.1167
10704SOL    HW143766   9.344   4.223   6.130 -0.0154 -0.9172  1.1577
10704SOL    HW243767   9.352   4.072   6.068 -0.0468 -0.3274 -0.3152
10705SOL     OW43768   1.359   1.458   1.326  0.4150 -0.1893 -0.5049
10705SOL    HW143769   1.328   1.507   1.244 -0.3880 -0.0571 -0.1310
10705SOL    HW243770   1.369   1.524   1.402  1.6297 -0.2324 -0.6276
10706SOL     OW43771   9.780   8.878   1.324  0.2652  0.2710  0.0339
10706SOL    HW143772   9.836   8.835   1.253 -1.0920 -0.3186 -0.7066
10706SOL    HW243773   9.684   8.876   1.296 -0.1236  1.3425  1.2411
10707SOL     OW43774   6.070   7.870   6.313 -0.2413 -0.1559  0.1332
10707SOL    HW143775   6.165   7.862   6.284  0.3331  0.8488  1.7014
10707SOL    HW243776   6.061   7.945   6.379 -1.8561 -1.2449  1.1803
10708SOL     OW43777   7.624   0.356   1.036  0.2877 -0.0453  0.5399
10708SOL    HW143778   7.631   0.455   1.040  1.4497 -0.1297  0.7544
10708SOL    HW243779   7.644   0.317   1.126 -1.2820 -0.4148  0.7372
10709SOL     OW43780   8.407   3.574   3.731 -0.2397  0.0620 -0.3965
10709SOL    HW143781   8.382   3.562   3.827  0.1101 -1.4665 -0.4769
10709SOL    HW243782   8.355   3.650   3.692  0.0162  1.0443  1.1407
10710SOL     OW43783   4.468   9.219   5.361  0.1728 -0.6791  0.3349
10710SOL    HW143784   4.477   9.317   5.343 -0.2620 -0.7772 -0.4081
10710SOL    HW243785   4.386   9.202   5.415  0.5520 -0.5776  0.9514
10711SOL     OW43786   9.692   3.830   1.267  0.0823 -0.2876 -0.9523
10711SOL    HW143787   9.603   3.786   1.274 -0.1255  0.1429 -0.8857
10711SOL    HW243788   9.753   3.795   1.338 -0.5457  0.6174  0.0352
10712SOL     OW43789   4.151   9.810   0.682 -0.3638 -0.3785 -0.2601
10712SOL    HW143790   4.100   9.733   0.646 -0.8357 -1.5101  2.7078
10712SOL    HW243791   4.088   9.876   0.722  0.3255 -0.6815  1.3523
10713SOL     OW43792   9.065   4.102   7.053 -0.2328  0.2214 -0.2438
10713SOL    HW143793   9.087   4.016   7.007 -0.4269 -0.9927  1.8839
10713SOL    HW243794   8.970   4.101   7.085 -0.1980  1.1587 -0.0775
10714SOL     OW43795   4.101   0.023   3.627  0.3354 -0.4946 -0.1651
10714SOL    HW143796   4.039  -0.043   3.586  0.3427 -0.1716 -0.7026
10714SOL    HW243797   4.073   0.116   3.603  1.5694 -0.3724 -1.2325
10715SOL     OW43798   8.377   1.758   5.632 -0.1362 -0.4750  0.1072
10715SOL    HW143799   8.469   1.750   5.669 -0.6809 -1.6458  1.2463
10715SOL    HW243800   8.361   1.687   5.564  0.2715  0.6026 -1.1250
10716SOL     OW43801   4.949   9.173   3.394  0.1401 -0.3054 -0.5025
10716SOL    HW143802   4.902   9.255   3.362  0.9332  1.0391  1.7149
10716SOL    HW243803   5.046   9.178   3.371  0.1770 -0.6614 -0.4393
10717SOL     OW43804   5.439   9.981   3.044  0.3663  0.3483  0.0280
10717SOL    HW143805   5.526   9.931   3.039 -0.4710 -1.3618  1.8753
10717SOL    HW243806   5.427  10.015   3.137 -2.3922 -2.1453  0.6644
10718SOL     OW43807   3.192   8.271   5.359  0.1595 -0.5145 -0.1341
10718SOL    HW143808   3.276   8.293   5.311  0.4721  2.0948  1.4729
10718SOL    HW243809   3.212   8.253   5.455 -1.2778  2.0129  0.6878
10719SOL     OW43810   0.250   8.962   4.824 -0.0990  0.1138 -0.4542
10719SOL    HW143811   0.220   8.951   4.729  1.9403  2.3411 -1.3983
10719SOL    HW243812   0.173   8.997   4.879 -0.9362  0.0234 -1.5446
10720SOL     OW43813   2.746   1.967   7.335 -0.5214  0.0535 -0.3735
10720SOL    HW143814   2.830   1.925   7.370 -1.4667 -3.0504 -1.6317
10720SOL    HW243815   2.667   1.921   7.376 -1.6014  0.3600 -2.0574
10721SOL     OW43816   3.637   0.494   4.417 -0.5162 -0.5019 -0.3442
10721SOL    HW143817   3.725   0.450   4.435 -0.5395 -0.3472  0.1620
10721SOL    HW243818   3.626   0.572   4.479 -0.0460  0.8154 -1.8755
10722SOL     OW43819   6.841   2.817   4.407 -0.5540  0.3657 -0.4883
10722SOL    HW143820   6.765   2.816   4.473 -1.3259 -1.1973 -1.3663
10722SOL    HW243821   6.806   2.789   4.317  1.6728 -3.7732 -0.1932
10723SOL     OW43822   2.060   4.799   3.554 -0.5345  0.0965 -0.1574
10723SOL    HW143823   2.005   4.872   3.512 -0.4436 -0.1622 -0.7340
10723SOL    HW243824   2.000   4.726   3.586 -0.4371 -1.0350 -2.4252
10724SOL     OW43825   3.090   2.683   7.634 -0.4260 -0.5904 -0.3516
10724SOL    HW143826   3.179   2.697   7.591 -0.1400 -2.2571 -0.3411
10724SOL    HW243827   3.034   2.625   7.576 -1.0823 -0.5061  0.1939
10725SOL     OW43828   7.367   4.124   2.425 -0.0408  0.5059 -0.1382
10725SOL    HW143829   7.347   4.221   2.417  1.0139  0.7736  0.3303
10725SOL    HW243830   7.335   4.076   2.343  0.1175  1.3690 -0.7146
10726SOL     OW43831   2.224   7.770   3.206 -0.3688  0.4439  0.2270
10726SOL    HW143832   2.324   7.766   3.207 -0.4465 -1.8781  0.4968
10726SOL    HW243833   2.188   7.729   3.290 -1.6284 -1.8912 -1.4105
10727SOL     OW43834   7.278   2.127   7.762 -0.6810  0.1046 -0.8091
10727SOL    HW143835   7.292   2.139   7.861 -2.1867 -0.2665 -0.5370
10727SOL    HW243836   7.346   2.063   7.727  0.5463  1.0621 -0.2246
10728SOL     OW43837   7.155   2.337   8.069  0.1165 -0.1630 -0.0032
10728SOL    HW143838   7.167   2.363   8.165  1.0198 -1.3730  0.2189
10728SOL    HW243839   7.064   2.296   8.056  0.3097 -0.7598  0.5138
10729SOL     OW43840   9.996   8.353   6.948 -0.1947  0.5386 -0.5679
10729SOL    HW143841   9.957   8.263   6.969 -0.0425  0.5451 -0.2505
10729SOL    HW243842   9.989   8.371   6.850 -0.4541  0.2874 -0.5954
10730SOL     OW43843   8.888   0.235   2.006  0.5550 -0.3771  0.7011
10730SOL    HW143844   8.873   0.163   2.074  1.4374 -0.1942  1.0928
10730SOL    HW243845   8.856   0.322   2.042 -1.3949 -0.7068 -0.1371
10731SOL     OW43846   7.153   0.546   1.047  0.2899 -0.1036 -0.4080
10731SOL    HW143847   7.087   0.613   1.012  2.3602  1.8715 -0.7074
10731SOL    HW243848   7.228   0.536   0.981  1.5872 -0.3382  1.0639
10732SOL     OW43849   7.879   3.164   1.197  0.2953  0.4123  0.4103
10732SOL    HW143850   7.952   3.232   1.187  1.0999 -0.3592  1.0511
10732SOL    HW243851   7.917   3.080   1.234 -0.8318 -0.1702  0.2394
10733SOL     OW43852   4.300   3.470   5.915 -0.2003  0.0829  0.2787
10733SOL    HW143853   4.371   3.426   5.859 -0.2317  1.0493 -0.5261
10733SOL    HW243854   4.270   3.554   5.871  0.5123  1.4049  2.2655
10734SOL     OW43855   8.544   7.075   7.145 -0.4092 -0.6672  0.1331
10734SOL    HW143856   8.490   7.127   7.079  0.2931 -0.1525 -0.0380
10734SOL    HW243857   8.591   7.138   7.207  0.8556 -1.0681 -0.3975
10735SOL     OW43858   7.836   0.056   3.423 -0.0502 -0.4335 -0.5493
10735SOL    HW143859   7.925   0.081   3.385 -0.8908  2.0440 -1.0122
10735SOL    HW243860   7.827   0.092   3.515 -1.6009  1.8198 -1.5267
10736SOL     OW43861   5.103   6.631   0.929 -1.2948 -0.4594  0.3251
10736SOL    HW143862   5.028   6.626   0.863 -0.3374 -0.2454 -0.7885
10736SOL    HW243863   5.174   6.566   0.904 -1.3794 -1.1190  1.7415
10737SOL     OW43864   9.200   2.593   4.208 -0.7202 -0.0911 -0.0685
10737SOL    HW143865   9.173   2.516   4.266 -1.5246  0.2624  0.0185
10737SOL    HW243866   9.119   2.640   4.173 -0.2537 -0.4133 -1.6477
10738SOL     OW43867   2.405   1.740   1.488 -0.0661  0.4453  0.8412
10738SOL    HW143868   2.410   1.830   1.532 -1.1213 -0.1392  2.2154
10738SOL    HW243869   2.393   1.670   1.559 -1.7524 -0.5364 -0.3788
10739SOL     OW43870   1.807   1.698   1.868 -0.4761 -0.0164 -0.6593
10739SOL    HW143871   1.780   1.692   1.772 -0.6965  1.3305 -0.6841
10739SOL    HW243872   1.786   1.789   1.903  2.8556  0.7174 -0.3309
10740SOL     OW43873   9.425   8.384   5.452 -0.0755  0.1635  0.5405
10740SOL    HW143874   9.456   8.312   5.390  0.6356  1.4543 -0.6190
10740SOL    HW243875   9.362   8.445   5.405 -0.8565  0.1811  1.5862
10741SOL     OW43876   5.026   0.737   1.674 -0.5754  0.6171 -0.0450
10741SOL    HW143877   5.101   0.802   1.686  0.9753 -0.9103 -1.0971
10741SOL    HW243878   5.064   0.645   1.661 -2.6221 -0.1256 -0.9673
10742SOL     OW43879   7.946   4.053   2.369 -0.4105 -0.1282 -0.3082
10742SOL    HW143880   7.937   3.981   2.437  1.2368 -0.7730 -0.7292
10742SOL    HW243881   8.039   4.089   2.371 -1.4478  2.5878  0.4607
10743SOL     OW43882   8.455   5.956   5.361  0.2834  0.1522  0.3413
10743SOL    HW143883   8.384   5.886   5.363  0.4066  0.0474  1.0094
10743SOL    HW243884   8.544   5.913   5.375  0.6694  0.0387 -2.2401
10744SOL     OW43885   9.507   1.979   0.534  0.3379  0.5150 -0.2812
10744SOL    HW143886   9.527   2.063   0.482 -0.3725  0.3666 -0.7954
10744SOL    HW243887   9.490   1.904   0.470  1.8969 -0.2526  0.1741
10745SOL     OW43888   3.585   8.338   1.373 -0.2353 -0.5431  0.0272
10745SOL    HW143889   3.640   8.418   1.398 -0.4344 -0.1862 -0.6531
10745SOL    HW243890   3.605   8.313   1.278 -0.5376 -1.0084  0.0829
10746SOL     OW43891   7.494   4.831   3.285  0.8261  0.5497 -0.2420
10746SOL    HW143892   7.471   4.784   3.200  1.4408 -1.4656  0.6599
10746SOL    HW243893   7.582   4.878   3.275  2.1154 -1.7087 -0.0274
10747SOL     OW43894   0.875   1.542   5.813 -0.0348 -0.0567  0.1827
10747SOL    HW143895   0.859   1.587   5.900 -0.4989  0.4741 -0.1730
10747SOL    HW243896   0.818   1.461   5.806 -1.6747  1.1234 -0.5457
10748SOL     OW43897   8.860   9.719   2.950 -0.2695 -0.4283  0.4474
10748SOL    HW143898   8.930   9.788   2.931 -0.0012 -0.9642 -0.5305
10748SOL    HW243899   8.902   9.643   3.001  0.0354 -1.0677 -0.7273
10749SOL     OW43900   9.976   8.860   5.987 -0.5667  0.4101 -0.1402
10749SOL    HW143901   9.903   8.793   5.973  0.7680 -1.0726 -0.0701
10749SOL    HW243902  10.039   8.827   6.057  0.9989  1.0081 -1.2630
10750SOL     OW43903   1.289   3.835   6.571 -0.1191  0.1351  0.0527
10750SOL    HW143904   1.206   3.808   6.521  0.5346 -1.7123 -0.0939
10750SOL    HW243905   1.270   3.915   6.626 -1.8030  0.1907 -0.5663
10751SOL     OW43906   7.733   3.513   3.997  0.0640  0.2723 -0.3743
10751SOL    HW143907   7.779   3.538   3.912  2.3178 -1.0173  0.4085
10751SOL    HW243908   7.746   3.585   4.066  0.7375  0.0124 -0.2264
10752SOL     OW43909   9.983   2.701   5.354  1.0075 -0.5111  0.2284
10752SOL    HW143910  10.013   2.756   5.432  2.0709 -0.5761 -0.1198
10752SOL    HW243911   9.888   2.673   5.367  0.9666  0.0375  1.1790
10753SOL     OW43912   1.241   3.414   1.759 -0.1631 -0.8836 -0.2668
10753SOL    HW143913   1.162   3.476   1.763  0.4337 -0.0683 -0.9610
10753SOL    HW243914   1.295   3.424   1.842  0.4105  0.1817 -0.7578
10754SOL     OW43915   7.541   0.406   5.015 -0.5425  0.0180 -0.3740
10754SOL    HW143916   7.486   0.338   5.063 -1.7255  1.1675 -0.0984
10754SOL    HW243917   7.595   0.459   5.081 -0.1821 -0.1469 -0.5326
10755SOL     OW43918   6.927   2.692   1.356 -0.4482  0.5983  0.1971
10755SOL    HW143919   6.870   2.773   1.351 -1.1586  0.2095  1.5648
10755SOL    HW243920   6.876   2.612   1.325  0.2842  0.6813 -1.2497
10756SOL     OW43921   4.572   8.068   1.761  0.1997  0.0956 -0.1527
10756SOL    HW143922   4.537   8.025   1.678  0.5370  2.2482 -1.4709
10756SOL    HW243923   4.671   8.059   1.764  0.0703 -1.0782  0.6706
10757SOL     OW43924   8.199   9.122   2.191 -0.4063  0.7973  0.0211
10757SOL    HW143925   8.185   9.219   2.212 -0.9350  1.0708 -1.5663
10757SOL    HW243926   8.188   9.107   2.093 -2.7812 -1.2744  0.5406
10758SOL     OW43927   4.333   8.589   6.251 -0.2812  0.0474  0.6863
10758SOL    HW143928   4.327   8.535   6.335  0.4892 -0.7679  0.2301
10758SOL    HW243929   4.306   8.684   6.270 -2.3297 -0.6404  1.3433
10759SOL     OW43930   9.627   0.147   2.817 -0.2338  0.4376 -0.0342
10759SOL    HW143931   9.625   0.247   2.818  0.2505  0.4712 -1.2340
10759SOL    HW243932   9.722   0.116   2.809 -0.4367 -0.1047 -0.3761
10760SOL     OW43933   0.148   2.585   3.838 -0.3575 -0.0659  0.6290
10760SOL    HW143934   0.142   2.684   3.839  3.1976  0.2048  0.7234
10760SOL    HW243935   0.135   2.552   3.744 -0.2350  0.5675  0.3877
10761SOL     OW43936   2.864   3.792   0.631 -0.0068  0.3017 -0.3660
10761SOL    HW143937   2.919   3.729   0.686 -0.5508 -0.9302 -1.2456
10761SOL    HW243938   2.874   3.771   0.534 -1.8011  0.2681 -0.5545
10762SOL     OW43939   2.204   2.849   4.334 -0.0366 -0.5787  0.3586
10762SOL    HW143940   2.302   2.833   4.346  0.3592  2.2475  1.1974
10762SOL    HW243941   2.164   2.772   4.284  2.5795 -1.8168  0.0677
10763SOL     OW43942   7.875   1.062   6.957 -0.4116  0.4910 -0.7389
10763SOL    HW143943   7.797   1.122   6.942 -1.3676 -1.2419 -2.9964
10763SOL    HW243944   7.856   0.999   7.032 -1.0687  0.2903 -1.0717
10764SOL     OW43945   3.994   6.818   0.545 -0.4266  1.0520 -0.0803
10764SOL    HW143946   3.900   6.790   0.565 -0.5363  1.4874  0.0320
10764SOL    HW243947   4.002   6.839   0.448 -0.4835  1.1553 -0.0628
10765SOL     OW43948   3.796   8.351   5.200  0.2168 -0.1402 -0.6606
10765SOL    HW143949   3.741   8.308   5.271  0.8486  0.4194  0.1653
10765SOL    HW243950   3.743   8.355   5.115 -0.2829 -1.4483 -0.4204
10766SOL     OW43951   5.227   1.105   3.217  0.4507 -0.1614 -0.0548
10766SOL    HW143952   5.152   1.167   3.240 -0.2744 -1.5786  1.5144
10766SOL    HW243953   5.206   1.056   3.132 -0.2251 -0.2552  0.1658
10767SOL     OW43954   0.920   1.624   0.362 -0.0528 -0.2630 -0.5518
10767SOL    HW143955   0.961   1.634   0.452 -0.9695  0.3473 -0.2021
10767SOL    HW243956   0.826   1.591   0.371 -0.5544  0.9733 -1.2215
10768SOL     OW43957   4.901   8.216   2.327 -1.1335  0.1508 -0.1958
10768SOL    HW143958   4.898   8.309   2.364 -3.1007  1.0871 -2.5253
10768SOL    HW243959   4.942   8.218   2.236  1.8287 -1.7944  1.0373
10769SOL     OW43960   1.073   6.938   0.542  0.2582  0.3857  0.2963
10769SOL    HW143961   1.130   6.951   0.462 -0.0140 -0.1146  0.0163
10769SOL    HW243962   1.125   6.958   0.625  0.8903 -0.2726  0.0521
10770SOL     OW43963   1.043   3.220   1.848  0.4088 -0.1161  0.2795
10770SOL    HW143964   1.074   3.274   1.927  2.4435  0.2180 -0.7005
10770SOL    HW243965   0.980   3.274   1.793 -0.8133 -0.2510  1.5133
10771SOL     OW43966   7.929   9.495   5.875 -0.3708 -0.0296 -0.6145
10771SOL    HW143967   7.861   9.567   5.885 -0.2581 -0.0419  0.2705
10771SOL    HW243968   8.019   9.536   5.861 -0.3114  0.0054 -0.1390
10772SOL     OW43969   0.585   3.507   7.819 -0.3912  0.1430  0.7118
10772SOL    HW143970   0.659   3.528   7.754 -1.1823  1.5626  0.2298
10772SOL    HW243971   0.510   3.462   7.770 -0.7995  0.8078  0.7114
10773SOL     OW43972   7.970   4.249   0.201 -0.3085  0.4030  0.1994
10773SOL    HW143973   8.044   4.192   0.167 -0.4018  1.5589 -1.9988
10773SOL    HW243974   8.002   4.300   0.281  1.6404  1.7507 -1.4024
10774SOL     OW43975   2.935   4.320   6.160 -0.3547 -0.0188 -0.5461
10774SOL    HW143976   2.858   4.379   6.184 -0.8629 -0.4473 -1.1099
10774SOL    HW243977   3.016   4.348   6.212 -1.4907 -1.1448  1.9273
10775SOL     OW43978   2.569   7.355   2.888  0.4544  0.4068  0.1766
10775SOL    HW143979   2.561   7.453   2.903  0.5563  0.4195  0.1471
10775SOL    HW243980   2.666   7.330   2.881  0.4267  0.3149  0.1152
10776SOL     OW43981   0.073   2.189   4.680 -0.2909  0.2653  0.3284
10776SOL    HW143982   0.056   2.090   4.677 -0.6410  0.3270  0.2121
10776SOL    HW243983   0.011   2.231   4.746  0.3710  0.3068  0.9276
10777SOL     OW43984   6.029   0.057   4.780 -0.1459  0.5443  0.8390
10777SOL    HW143985   6.067  -0.020   4.830 -1.5657  0.0426  1.1664
10777SOL    HW243986   5.956   0.099   4.834 -0.7702  0.8475 -0.2245
10778SOL     OW43987   2.426   7.227   5.310 -0.1864 -0.3915 -0.3913
10778SOL    HW143988   2.432   7.301   5.242 -1.4660 -0.5061 -0.6351
10778SOL    HW243989   2.345   7.240   5.366 -1.0992 -2.2945 -1.2423
10779SOL     OW43990   4.728   1.988   7.266  0.3044  0.7051  0.2964
10779SOL    HW143991   4.757   1.933   7.187  2.0607  0.3003  1.1817
10779SOL    HW243992   4.693   2.076   7.235 -0.7374 -0.1722 -1.0317
10780SOL     OW43993   4.720   0.486   2.849 -0.2307  0.1327  0.2196
10780SOL    HW143994   4.813   0.450   2.849 -0.1603  0.2992  0.9013
10780SOL    HW243995   4.715   0.567   2.791 -0.2151 -0.5280 -0.7218
10781SOL     OW43996   9.019   0.261   3.826 -0.0329 -0.6513 -0.5690
10781SOL    HW143997   9.038   0.345   3.774  0.3795 -0.4391 -0.0750
10781SOL    HW243998   8.933   0.272   3.876 -0.1764 -0.6659 -0.8134
10782SOL     OW43999   2.729   0.383   3.730 -0.0929  0.2632 -0.1968
10782SOL    HW144000   2.721   0.293   3.687  1.7736  0.0993 -0.2391
10782SOL    HW244001   2.825   0.401   3.751 -0.5986  1.7533  0.8826
10783SOL     OW44002   7.173   3.341   2.245 -0.3341  0.2382 -0.4732
10783SOL    HW144003   7.146   3.437   2.240 -0.8992  0.0256 -1.6540
10783SOL    HW244004   7.096   3.283   2.217  0.2412 -0.5229 -0.4898
10784SOL     OW44005   0.433   5.444   2.838 -0.2926 -0.7242  0.3171
10784SOL    HW144006   0.431   5.397   2.750 -0.7607 -1.1282  0.5377
10784SOL    HW244007   0.342   5.439   2.880 -0.4108  0.6134  0.2223
10785SOL     OW44008   1.326   5.543   3.245 -0.5583 -0.0413 -0.0288
10785SOL    HW144009   1.421   5.575   3.239 -0.7291  0.1876 -1.6961
10785SOL    HW244010   1.312   5.469   3.180 -1.5361 -0.0499  0.1930
10786SOL     OW44011   8.539   3.193   6.007 -0.5427 -0.2949  0.4873
10786SOL    HW144012   8.635   3.186   6.034 -0.4104 -2.2717 -0.3914
10786SOL    HW244013   8.485   3.128   6.062 -1.4025  0.8745  1.0460
10787SOL     OW44014   3.086   9.992   7.780  0.0602 -0.1938 -0.2265
10787SOL    HW144015   3.157  10.060   7.765 -1.4514  1.2082 -1.2601
10787SOL    HW244016   3.042  10.008   7.868 -0.5565  0.4460 -0.6390
10788SOL     OW44017   8.975   8.037   4.217  0.0417  0.2938  0.2067
10788SOL    HW144018   9.009   7.948   4.246 -0.6654  0.2530  0.9184
10788SOL    HW244019   9.014   8.108   4.275  0.1533  0.4003  0.0045
10789SOL     OW44020   0.426   6.500   3.646 -0.3754 -0.7558 -0.1558
10789SOL    HW144021   0.519   6.466   3.641 -0.2983 -0.7872  1.2496
10789SOL    HW244022   0.422   6.594   3.610  0.1014 -0.9233 -0.6451
10790SOL     OW44023   1.010   6.242   0.626  0.3559 -0.3518  0.0572
10790SOL    HW144024   0.960   6.157   0.610 -2.6309  1.1312  1.1414
10790SOL    HW244025   1.020   6.257   0.724 -0.5345  1.2763 -0.0642
10791SOL     OW44026   4.032   1.459   4.454  0.4003 -0.8587  0.3082
10791SOL    HW144027   4.069   1.411   4.534  0.6894  1.1469  1.4213
10791SOL    HW244028   3.947   1.505   4.479  1.2031  0.9230 -0.1128
10792SOL     OW44029   4.362   2.925   0.490  0.2145  0.1722 -0.0065
10792SOL    HW144030   4.361   2.988   0.568 -1.6093 -0.6731  0.6855
10792SOL    HW244031   4.442   2.866   0.496 -0.3711 -0.4777  1.7462
10793SOL     OW44032   8.006   7.183   3.439 -0.0237 -0.4875  0.1755
10793SOL    HW144033   7.952   7.173   3.523 -1.0991  0.1279 -0.4304
10793SOL    HW244034   7.945   7.199   3.362  1.0735  0.9169 -0.4227
10794SOL     OW44035   2.614   8.955   3.336 -0.2204 -0.0126 -0.3458
10794SOL    HW144036   2.617   8.940   3.435  1.0315  3.0545  0.1691
10794SOL    HW244037   2.704   8.936   3.297 -0.2210  0.4898 -0.5972
10795SOL     OW44038   3.405   5.930   5.536  0.5741 -0.2601  0.7457
10795SOL    HW144039   3.415   5.846   5.590 -0.2658 -0.8067  0.0726
10795SOL    HW244040   3.324   5.979   5.566 -0.0823 -0.7323 -0.2239
10796SOL     OW44041   4.428   3.542   1.296 -0.0285 -0.5134 -0.0804
10796SOL    HW144042   4.401   3.507   1.386  0.4499 -0.6352  0.0195
10796SOL    HW244043   4.523   3.575   1.301 -0.4421  0.7292 -0.1866
10797SOL     OW44044   7.282   0.156   4.724 -0.4599 -0.5061 -0.5075
10797SOL    HW144045   7.211   0.224   4.740  0.5764  0.0885  1.7991
10797SOL    HW244046   7.347   0.191   4.656  0.1573  0.9223  0.7808
10798SOL     OW44047   4.276   8.910   1.849 -0.0122  0.0424  0.2361
10798SOL    HW144048   4.184   8.947   1.860  0.0658  0.6922 -1.1323
10798SOL    HW244049   4.288   8.875   1.756  1.5050  1.1375 -0.0187
10799SOL     OW44050   3.295   0.345   3.090 -0.2257  0.0547 -0.5121
10799SOL    HW144051   3.237   0.318   3.167  0.5769  1.3118  0.5687
10799SOL    HW244052   3.267   0.437   3.059  1.1823  0.6683  0.0214
10800SOL     OW44053   3.836   7.480   5.799 -0.0206  0.0389  0.5467
10800SOL    HW144054   3.927   7.518   5.782  0.9367 -1.8192  1.3180
10800SOL    HW244055   3.773   7.509   5.727  1.3919  0.6455 -0.4700
10801SOL     OW44056   4.223   2.893   4.908 -0.0204  0.4549 -0.1392
10801SOL    HW144057   4.181   2.834   4.839 -0.4612  1.9492 -1.1540
10801SOL    HW244058   4.151   2.943   4.957  0.2745 -0.6865  1.5137
10802SOL     OW44059   1.510   7.530   8.059  0.4152  0.1298 -0.0394
10802SOL    HW144060   1.502   7.509   7.962  1.9943 -1.5018  0.1397
10802SOL    HW244061   1.433   7.490   8.109  0.5324 -0.5709 -0.4090
10803SOL     OW44062   7.221   7.185   7.432  0.2164  0.5165 -0.0383
10803SOL    HW144063   7.172   7.099   7.415  1.0839 -0.0272  0.2031
10803SOL    HW244064   7.301   7.168   7.489  0.2632  1.5272  0.2160
10804SOL     OW44065   0.810   9.018   5.017  0.0117 -0.6668  0.0849
10804SOL    HW144066   0.838   8.934   4.972 -0.6000 -1.0603  0.4389
10804SOL    HW244067   0.713   9.013   5.041 -0.1904  0.4108 -0.4995
10805SOL     OW44068   1.784   7.541   0.514 -0.5796  0.4804  0.1891
10805SOL    HW144069   1.738   7.629   0.501 -0.1478  0.8161  0.8877
10805SOL    HW244070   1.717   7.473   0.543 -0.9858  0.4778 -0.7500
10806SOL     OW44071   6.978   6.023   6.732  0.2153 -0.3883 -0.2167
10806SOL    HW144072   6.960   6.108   6.782 -2.6079 -0.8504 -0.3885
10806SOL    HW244073   6.968   5.945   6.794 -0.1177 -0.7792 -0.7586
10807SOL     OW44074   7.188   9.927   7.563  0.0776  0.2441 -0.3401
10807SOL    HW144075   7.107   9.940   7.620 -0.1943  0.7672 -0.8522
10807SOL    HW244076   7.265   9.977   7.603  0.8487 -2.3453  1.6069
10808SOL     OW44077   9.554   2.926   0.746  0.5291 -0.2622 -0.4760
10808SOL    HW144078   9.642   2.893   0.713  0.8052  0.0038 -0.0037
10808SOL    HW244079   9.483   2.858   0.726  0.9131 -0.6619 -0.4747
10809SOL     OW44080   3.281   9.501   2.179 -0.0795 -0.4037  0.4066
10809SOL    HW144081   3.212   9.573   2.183  0.7627  0.4369  0.0987
10809SOL    HW244082   3.369   9.540   2.152  0.3334 -1.5966 -0.0535
10810SOL     OW44083   6.834   1.034   0.180 -0.4441  0.0967 -0.1433
10810SOL    HW144084   6.787   0.973   0.116 -1.6606  0.8160  0.0409
10810SOL    HW244085   6.769   1.102   0.214  0.2895 -0.0389  1.5564
10811SOL     OW44086   4.839   9.996   4.252 -0.1611 -0.2889 -0.3849
10811SOL    HW144087   4.779  10.047   4.313 -1.3301 -1.4268 -0.5525
10811SOL    HW244088   4.909   9.949   4.307  0.1765  0.5009 -0.1316
10812SOL     OW44089   4.339   1.608   1.995 -0.4307 -0.0166 -0.0264
10812SOL    HW144090   4.288   1.597   2.080 -0.7609  0.9575 -0.0858
10812SOL    HW244091   4.304   1.544   1.926 -0.2991 -0.6604  0.5070
10813SOL     OW44092   0.745   5.782   0.124  0.3379  0.0160 -0.1728
10813SOL    HW144093   0.770   5.875   0.150 -1.9144  0.7260 -0.4059
10813SOL    HW244094   0.655   5.760   0.163 -0.8219 -0.7044 -3.1592
10814SOL     OW44095   6.327   9.697   4.369  0.4192  0.3295 -0.0692
10814SOL    HW144096   6.387   9.617   4.365  0.6658  0.5222 -0.2433
10814SOL    HW244097   6.316   9.735   4.277  1.6223  1.4683  0.2315
10815SOL     OW44098   3.203   4.404   7.057 -0.0694 -0.2107  0.1655
10815SOL    HW144099   3.115   4.432   7.095  0.2365  1.2509 -0.1635
10815SOL    HW244100   3.202   4.418   6.958  0.2899 -0.8847  0.0613
10816SOL     OW44101   8.813   6.195   7.879  0.0432 -0.2485 -0.1125
10816SOL    HW144102   8.895   6.210   7.934 -0.5860 -1.2611  1.1226
10816SOL    HW244103   8.839   6.176   7.784  1.3172 -1.9201  0.5537
10817SOL     OW44104   2.523   0.276   5.583 -0.7379  0.3369 -0.1183
10817SOL    HW144105   2.567   0.324   5.658 -0.9958  0.9549 -0.3573
10817SOL    HW244106   2.431   0.313   5.569 -0.5377  0.5045 -1.0079
10818SOL     OW44107   2.116   4.771   2.272 -0.3517  0.2498 -0.1500
10818SOL    HW144108   2.087   4.857   2.313 -0.0297  1.1562 -1.7663
10818SOL    HW244109   2.039   4.707   2.268 -1.2015  1.3127 -1.0642
10819SOL     OW44110   6.477   4.343   0.418 -0.3041 -0.0377 -0.0653
10819SOL    HW144111   6.381   4.369   0.408 -0.5715  0.0058  2.3708
10819SOL    HW244112   6.524   4.409   0.475  0.7134 -1.1002  0.3464
10820SOL     OW44113   9.199   9.295   4.229  0.3561  0.7324  0.1734
10820SOL    HW144114   9.148   9.263   4.149  0.3303  1.7871 -0.2385
10820SOL    HW244115   9.192   9.227   4.303  0.6753 -0.4140 -0.8314
10821SOL     OW44116   4.374   0.478   5.963 -0.3791 -0.0268  0.3542
10821SOL    HW144117   4.384   0.401   6.027  0.5619  0.3389  0.6531
10821SOL    HW244118   4.398   0.448   5.871 -0.4051 -0.1960  0.4025
10822SOL     OW44119   4.398   3.076   6.071  0.3519 -0.3639 -0.3078
10822SOL    HW144120   4.352   3.001   6.024 -1.4038  0.0625  0.6533
10822SOL    HW244121   4.483   3.098   6.024 -0.6085 -0.9348 -2.4068
10823SOL     OW44122   2.154   2.528   3.224  0.6264 -0.4281 -0.0167
10823SOL    HW144123   2.115   2.443   3.259 -0.5167  0.3107  0.5387
10823SOL    HW244124   2.193   2.512   3.134 -0.6523 -1.2782 -0.4319
10824SOL     OW44125   0.816   5.828   0.941 -0.0378  0.1137 -0.4154
10824SOL    HW144126   0.898   5.782   0.974  0.7583  1.8149  0.0522
10824SOL    HW244127   0.757   5.851   1.018 -0.4869 -0.2396 -0.6540
10825SOL     OW44128   8.457   9.828   5.302 -0.6139  0.5205  0.1891
10825SOL    HW144129   8.490   9.746   5.257 -0.1693  1.6755 -1.6370
10825SOL    HW244130   8.370   9.809   5.347 -0.3107 -1.0368  0.1246
10826SOL     OW44131   0.584   2.026   3.177  0.3895 -0.5826 -0.0689
10826SOL    HW144132   0.631   1.970   3.245  0.8638 -0.1567 -0.0429
10826SOL    HW244133   0.494   1.987   3.158  0.3704 -0.8649  0.5892
10827SOL     OW44134   0.412   1.552   3.979  0.3110  0.4038 -0.2221
10827SOL    HW144135   0.369   1.497   3.908  0.8149 -1.9971  1.2564
10827SOL    HW244136   0.462   1.627   3.937  1.3140 -1.4548 -2.4969
10828SOL     OW44137   5.072   9.562   5.087  0.3915  0.0938  0.1565
10828SOL    HW144138   5.009   9.485   5.078  0.5160 -0.3840  2.8665
10828SOL    HW244139   5.025   9.639   5.130  1.1643  0.3741  0.5142
10829SOL     OW44140   1.989   5.944   0.279 -0.1087 -0.0256  0.0002
10829SOL    HW144141   1.931   5.983   0.350 -0.6518 -2.2457  0.8004
10829SOL    HW244142   1.932   5.920   0.199  0.0513 -0.2315 -0.0506
10830SOL     OW44143   1.944   1.572   6.321 -0.2150  0.2297  0.3496
10830SOL    HW144144   1.853   1.532   6.305 -0.5908  0.8485  0.9063
10830SOL    HW244145   2.006   1.501   6.355  0.2310 -0.7885 -2.4907
10831SOL     OW44146   7.783   3.035   7.639  0.2490 -0.1655 -0.8002
10831SOL    HW144147   7.833   2.956   7.676  0.7651  0.5515  0.0518
10831SOL    HW244148   7.847   3.110   7.621 -0.7627  1.4578  2.1387
10832SOL     OW44149   0.833   0.879   3.070  0.2839  0.4457 -0.2122
10832SOL    HW144150   0.788   0.940   3.005 -0.4759 -1.1226 -1.2013
10832SOL    HW244151   0.930   0.870   3.047  0.3625  1.1367 -0.1612
10833SOL     OW44152   4.534   1.245   7.271 -0.3012 -0.2776 -0.3591
10833SOL    HW144153   4.462   1.213   7.332 -0.7104 -1.5204 -1.4474
10833SOL    HW244154   4.507   1.332   7.230  0.1965  0.8094  1.5745
10834SOL     OW44155   0.692   1.862   7.511 -0.1444 -0.2669 -0.3905
10834SOL    HW144156   0.722   1.947   7.469 -0.7388  0.4737  0.6799
10834SOL    HW244157   0.740   1.849   7.598 -1.7808  0.1349  0.5707
10835SOL     OW44158   1.165   9.347   3.743 -0.1345 -0.0139  0.4696
10835SOL    HW144159   1.076   9.363   3.786 -0.3376 -1.2092  0.5003
10835SOL    HW244160   1.170   9.253   3.710  1.6136 -0.3402  1.5956
10836SOL     OW44161   6.769   1.879   8.170 -0.1765  0.2571 -0.6901
10836SOL    HW144162   6.740   1.835   8.255 -0.0771  0.2548 -0.6564
10836SOL    HW244163   6.793   1.975   8.189 -1.2443  0.5694 -0.9324
10837SOL     OW44164   0.711   7.825   4.959  0.2822 -0.0168 -0.3766
10837SOL    HW144165   0.770   7.905   4.953 -1.2560  1.2987  1.4110
10837SOL    HW244166   0.750   7.760   5.025  0.3462  0.3014 -0.0994
10838SOL     OW44167   1.212   1.729   5.527 -0.2435 -0.2046 -0.5972
10838SOL    HW144168   1.165   1.649   5.565 -0.3845 -0.3421 -1.0570
10838SOL    HW244169   1.261   1.702   5.444  0.3630  0.0139 -0.3128
10839SOL     OW44170   1.224   8.569   5.640 -0.1543  0.1525  0.5482
10839SOL    HW144171   1.243   8.589   5.544 -0.0850 -0.9779  0.3136
10839SOL    HW244172   1.185   8.477   5.647  1.7104 -0.5586  1.8008
10840SOL     OW44173   5.298   9.417   6.631 -0.0058 -1.0342  0.3729
10840SOL    HW144174   5.222   9.394   6.692 -0.7959  0.5151  0.0005
10840SOL    HW244175   5.273   9.392   6.537 -0.2778 -0.0275  0.1743
10841SOL     OW44176   7.718   8.661   4.569  0.1830  0.2291  0.7434
10841SOL    HW144177   7.621   8.677   4.551  0.5557  1.0031 -0.6985
10841SOL    HW244178   7.740   8.565   4.556 -0.3750  0.0683  1.0022
10842SOL     OW44179   4.640   1.908   2.705  0.2700 -0.2410  0.1275
10842SOL    HW144180   4.693   1.824   2.711 -0.2775 -0.6004 -0.0162
10842SOL    HW244181   4.609   1.935   2.796  0.9071  0.1032  0.2407
10843SOL     OW44182   1.359   6.811   6.909 -0.4249  0.4056  0.9018
10843SOL    HW144183   1.374   6.774   7.001  0.8430 -0.1845  0.4759
10843SOL    HW244184   1.355   6.910   6.913 -0.9877  0.3579  1.6763
10844SOL     OW44185   1.845   9.787   1.085 -0.0813  0.7729 -0.3923
10844SOL    HW144186   1.938   9.814   1.109  0.0283 -0.3719  0.4924
10844SOL    HW244187   1.781   9.823   1.152  0.1750 -2.0009  1.4120
10845SOL     OW44188   0.022   3.850   5.848 -0.1710 -0.6199  0.0446
10845SOL    HW144189  -0.051   3.868   5.914 -0.0176 -0.0267  0.0560
10845SOL    HW244190   0.107   3.891   5.880 -0.2035  0.0883 -0.7447
10846SOL     OW44191   0.192   1.817   2.866 -0.3113 -0.1575  0.0281
10846SOL    HW144192   0.292   1.823   2.865 -0.3202  0.1386  1.0800
10846SOL    HW244193   0.162   1.756   2.792  0.5407  1.0848 -1.3796
10847SOL     OW44194   5.810   0.310   3.766 -0.1296 -0.5375  0.3768
10847SOL    HW144195   5.890   0.281   3.819 -1.1588 -0.5568  1.9385
10847SOL    HW244196   5.781   0.400   3.796 -0.2157 -0.1769 -0.7574
10848SOL     OW44197   0.765   3.451   6.837 -0.4193 -0.2717  0.1133
10848SOL    HW144198   0.684   3.481   6.889 -0.5845  0.7088 -0.6922
10848SOL    HW244199   0.846   3.462   6.894 -0.4365  2.0777 -0.2577
10849SOL     OW44200   2.548   1.388   6.970 -0.0779 -0.6235 -0.5528
10849SOL    HW144201   2.617   1.459   6.965 -2.5671  2.0415  1.1728
10849SOL    HW244202   2.560   1.335   7.053 -1.2164  1.1099  0.7553
10850SOL     OW44203   3.208   7.728   2.610  0.1123  0.5854  0.3293
10850SOL    HW144204   3.142   7.803   2.603  1.2050  1.4383 -0.9956
10850SOL    HW244205   3.272   7.732   2.533  0.1789 -1.7189  0.2327
10851SOL     OW44206   2.761   6.682   0.104 -0.2322 -0.2258  0.0238
10851SOL    HW144207   2.763   6.631   0.018 -2.1298  1.9103 -1.3397
10851SOL    HW244208   2.766   6.618   0.181  0.3712 -2.2395 -1.6493
10852SOL     OW44209   2.421   9.110   2.067  0.4568  0.1133  0.5347
10852SOL    HW144210   2.492   9.050   2.103  0.3307  0.7198  1.8160
10852SOL    HW244211   2.453   9.155   1.983  0.7558 -1.2933 -0.1160
10853SOL     OW44212   9.557   8.608   3.453 -0.4243 -0.1613  0.0474
10853SOL    HW144213   9.640   8.568   3.414 -0.0666  0.9878 -0.3845
10853SOL    HW244214   9.573   8.704   3.475 -1.3210 -0.2100  0.9487
10854SOL     OW44215   7.395   2.361   3.079  0.6648 -0.0830 -0.2126
10854SOL    HW144216   7.428   2.281   3.128 -1.2834  0.7891  2.6059
10854SOL    HW244217   7.306   2.340   3.036  0.6703  0.2431 -0.3878
10855SOL     OW44218   9.042   8.940   0.798  0.2998  0.2548  0.3811
10855SOL    HW144219   9.094   8.930   0.713  1.4835 -0.5094  1.1876
10855SOL    HW244220   8.985   8.860   0.812 -0.3867  0.6650 -0.0088
10856SOL     OW44221   2.821   1.049   3.564 -0.2754 -0.2096  0.2924
10856SOL    HW144222   2.854   1.023   3.655  0.4069  2.0902  0.7324
10856SOL    HW244223   2.729   1.088   3.573  0.5463  1.7650  0.2613
10857SOL     OW44224   3.977   1.250   0.291 -0.6418 -0.4862 -0.0321
10857SOL    HW144225   3.964   1.192   0.210  1.1024 -1.4222  0.3273
10857SOL    HW244226   4.060   1.304   0.280  0.3097 -1.5423  1.6271
10858SOL     OW44227   8.781   2.628   0.708  0.0221  0.1351 -0.0147
10858SOL    HW144228   8.812   2.566   0.780 -0.3343  0.3494  0.3233
10858SOL    HW244229   8.776   2.579   0.621 -0.6223 -0.3955  0.3233
10859SOL     OW44230   4.312   9.613   3.628  0.0050  0.1239 -0.3588
10859SOL    HW144231   4.386   9.546   3.619  1.1048  1.3404 -0.4637
10859SOL    HW244232   4.227   9.565   3.651  0.8782 -1.2643  0.0742
10860SOL     OW44233   0.772   7.991   1.672 -0.3015 -0.3082 -1.0911
10860SOL    HW144234   0.726   8.077   1.649  0.4979  0.5336  0.3795
10860SOL    HW244235   0.869   7.998   1.647  0.8174  0.9994  3.2537
10861SOL     OW44236   3.112   6.763   8.041  0.2233  0.3000  0.1745
10861SOL    HW144237   3.109   6.686   7.977 -2.8796 -1.0631  1.8367
10861SOL    HW244238   3.105   6.848   7.990  1.1776 -0.6105 -1.5262
10862SOL     OW44239   1.270   6.348   4.465 -0.4371 -0.2111 -0.4031
10862SOL    HW144240   1.193   6.317   4.519 -1.1922  0.2135 -1.2199
10862SOL    HW244241   1.354   6.343   4.519 -1.5222  2.5959  1.6635
10863SOL     OW44242   4.707   1.761   0.750 -0.5235 -0.1772  0.2879
10863SOL    HW144243   4.799   1.798   0.765 -0.5319 -1.4520  3.8548
10863SOL    HW244244   4.639   1.832   0.768 -0.3121  0.3271 -0.8453
10864SOL     OW44245   2.849   8.831   6.044  0.0427  0.5617 -0.4418
10864SOL    HW144246   2.811   8.885   5.969 -1.1240  1.6051  0.8692
10864SOL    HW244247   2.779   8.818   6.114  0.0204 -3.4115 -1.0964
10865SOL     OW44248   8.211   2.866   0.617  0.1040 -0.3151  0.1492
10865SOL    HW144249   8.119   2.905   0.624 -0.5649 -1.4876 -1.6583
10865SOL    HW244250   8.278   2.940   0.606 -1.0445  0.4010 -2.3283
10866SOL     OW44251   0.796   1.950   5.175  0.2001 -0.1831 -0.5429
10866SOL    HW144252   0.717   2.002   5.142  0.1494  0.0547 -0.0502
10866SOL    HW244253   0.819   1.980   5.268  1.5419  0.5156 -1.0878
10867SOL     OW44254   6.274   8.283   4.393 -0.0793 -0.1711  0.0871
10867SOL    HW144255   6.354   8.324   4.437  0.0001 -0.7955  0.5208
10867SOL    HW244256   6.216   8.240   4.462 -0.1972 -0.7314 -0.3651
10868SOL     OW44257   1.210   6.571   0.386 -0.0193  0.4809 -0.3361
10868SOL    HW144258   1.134   6.580   0.322  0.0009 -0.0003 -0.4336
10868SOL    HW244259   1.297   6.578   0.336  0.0019 -1.2480 -0.5840
10869SOL     OW44260   5.482   9.008   5.295  0.2679  0.3113  0.9057
10869SOL    HW144261   5.520   9.013   5.202  2.5623 -0.0964  1.7842
10869SOL    HW244262   5.456   8.913   5.315 -2.0275  0.7247  0.0202
10870SOL     OW44263   0.532   4.298   3.389 -0.1255 -0.4866 -0.0015
10870SOL    HW144264   0.458   4.263   3.332 -1.6184  0.2335  1.4661
10870SOL    HW244265   0.611   4.237   3.382 -1.5853 -2.4238  0.0597
10871SOL     OW44266   4.029   3.203   1.403  0.3631 -0.0284 -0.4375
10871SOL    HW144267   4.128   3.206   1.419  0.3826  1.3646 -0.7356
10871SOL    HW244268   3.989   3.292   1.426 -0.7369 -0.3990 -0.8805
10872SOL     OW44269   6.618   1.199   0.248  0.6051 -0.0396 -0.4473
10872SOL    HW144270   6.543   1.136   0.228  0.9626 -0.9867  1.1818
10872SOL    HW244271   6.595   1.255   0.328  1.5548 -0.1866 -0.0693
10873SOL     OW44272   2.047   5.784   7.139 -0.1558  0.0816  0.3503
10873SOL    HW144273   2.017   5.813   7.048  0.0151  1.7081  0.7880
10873SOL    HW244274   2.124   5.841   7.169  0.6740 -1.3243  0.9653
10874SOL     OW44275   6.800   2.317   4.926 -0.0710  0.1362 -0.0575
10874SOL    HW144276   6.897   2.326   4.903  0.1125  0.3998  0.7843
10874SOL    HW244277   6.760   2.242   4.874  0.9510 -0.9672  0.7257
10875SOL     OW44278   8.892   0.628   3.847  0.0462  0.5934 -0.2333
10875SOL    HW144279   8.847   0.542   3.870 -1.1031  0.8844 -1.3762
10875SOL    HW244280   8.962   0.612   3.778  0.0218  0.5419 -0.2464
10876SOL     OW44281   8.878   8.563   1.752 -0.0277 -0.2437 -0.1778
10876SOL    HW144282   8.972   8.596   1.746 -0.5776  1.2133 -0.9047
10876SOL    HW244283   8.822   8.630   1.799 -1.1340 -0.1768 -1.5620
10877SOL     OW44284   1.279   0.519   3.957  0.3993  0.1765  0.6446
10877SOL    HW144285   1.223   0.602   3.949  0.3345 -0.0038 -0.8316
10877SOL    HW244286   1.374   0.544   3.971  1.0101  0.6021 -3.6298
10878SOL     OW44287   0.962   8.795   4.935  0.1136 -0.6429  0.2039
10878SOL    HW144288   0.941   8.697   4.928 -0.2490 -0.4731 -1.2506
10878SOL    HW244289   1.019   8.823   4.857 -0.2786  0.4334  0.2929
10879SOL     OW44290   6.391   2.484   5.288  0.2846  0.8811 -0.6138
10879SOL    HW144291   6.474   2.531   5.316 -0.1844 -0.0728  2.5860
10879SOL    HW244292   6.374   2.406   5.349 -3.3253  1.4808 -0.7228
10880SOL     OW44293   1.269   9.355   4.639  0.0384 -0.1118  0.1292
10880SOL    HW144294   1.361   9.388   4.617  0.6627 -0.8333  1.5530
10880SOL    HW244295   1.222   9.424   4.694  0.1458 -0.2041  0.3396
10881SOL     OW44296   8.602   6.353   0.619  0.2241 -0.2495 -0.3937
10881SOL    HW144297   8.657   6.275   0.646 -1.5437 -1.7889 -1.1282
10881SOL    HW244298   8.650   6.438   0.642  2.1996 -1.5383  0.3229
10882SOL     OW44299   9.966   5.428   2.178  0.3754  0.4177  0.3819
10882SOL    HW144300   9.966   5.395   2.272 -0.0763  2.3466  1.0819
10882SOL    HW244301   9.942   5.353   2.116 -0.2194 -0.6445  1.8758
10883SOL     OW44302   8.564   4.904   6.882  0.2376  0.4268 -0.5727
10883SOL    HW144303   8.540   4.821   6.832  0.1518 -0.0701  0.2718
10883SOL    HW244304   8.628   4.959   6.829  1.2142 -0.7566 -0.6409
10884SOL     OW44305   0.529   7.728   4.785 -0.0201 -0.4301 -0.3066
10884SOL    HW144306   0.469   7.799   4.746  1.5423  2.1573  1.8665
10884SOL    HW244307   0.593   7.770   4.849  2.3928 -3.5455 -0.5760
10885SOL     OW44308   8.431   8.817   3.239  0.5266 -0.2403 -0.2854
10885SOL    HW144309   8.474   8.903   3.266  2.6868 -1.2495 -0.4045
10885SOL    HW244310   8.387   8.828   3.150  0.6105  0.7871 -0.2050
10886SOL     OW44311   9.233   1.041   5.501 -0.1434  0.3757 -0.3278
10886SOL    HW144312   9.176   0.959   5.489  0.5946  0.0684 -1.8014
10886SOL    HW244313   9.179   1.122   5.477 -0.0908  0.1153 -1.3623
10887SOL     OW44314   2.206   6.473   8.051  0.0575  0.2844  0.2033
10887SOL    HW144315   2.285   6.513   8.005  0.4446 -1.8690 -1.0961
10887SOL    HW244316   2.236   6.397   8.109 -0.8164  0.8950  1.4960
10888SOL     OW44317   3.219   2.612   6.988 -0.3489 -0.0887  0.3864
10888SOL    HW144318   3.155   2.536   7.000  0.0207 -0.3684  0.5597
10888SOL    HW244319   3.169   2.691   6.951 -0.7634 -0.3585  0.3645
10889SOL     OW44320   0.906   2.258   8.009  0.1828  0.7418  0.0546
10889SOL    HW144321   0.918   2.232   7.913 -1.5026 -0.3730  0.1205
10889SOL    HW244322   0.955   2.193   8.067  0.3710  0.8287 -0.0069
10890SOL     OW44323   7.206   5.602   1.220  1.0824  0.5357  0.1297
10890SOL    HW144324   7.274   5.646   1.161 -1.0682  1.0072 -2.0881
10890SOL    HW244325   7.124   5.660   1.225 -0.3427 -1.4647  0.2474
10891SOL     OW44326   2.372   0.266   2.887  0.6933  0.2862 -0.0125
10891SOL    HW144327   2.462   0.224   2.877  0.9719  0.9235 -0.2440
10891SOL    HW244328   2.347   0.311   2.801  0.5082  0.7817  0.2962
10892SOL     OW44329   3.559   1.932   6.806  0.0855  0.0923  0.6011
10892SOL    HW144330   3.477   1.975   6.844  0.6247  1.1243  0.6168
10892SOL    HW244331   3.596   1.990   6.734  1.4431  0.2114  1.3767
10893SOL     OW44332   2.758   7.476   7.287  0.0485  0.6518  0.3148
10893SOL    HW144333   2.680   7.538   7.280 -0.3551  0.2322  0.9846
10893SOL    HW244334   2.750   7.404   7.218  0.4433  1.2630 -0.3692
10894SOL     OW44335   3.938   0.774   2.297  0.2751  0.1109 -0.0109
10894SOL    HW144336   3.910   0.831   2.220  0.0935 -0.0682 -0.0784
10894SOL    HW244337   4.019   0.721   2.273 -1.5549 -2.2644 -1.1630
10895SOL     OW44338   5.162   4.984   0.677  0.0349 -0.2785 -0.4679
10895SOL    HW144339   5.261   4.992   0.689  0.0524 -1.4230  0.1333
10895SOL    HW244340   5.141   4.899   0.628 -0.7556 -0.7883  0.7485
10896SOL     OW44341   4.279   6.454   3.034  0.0077  0.1033  0.8376
10896SOL    HW144342   4.327   6.490   2.954 -2.0863  2.3663  0.5579
10896SOL    HW244343   4.275   6.524   3.105 -2.0996 -0.3480  1.1939
10897SOL     OW44344   8.525   2.667   2.036  0.3568 -0.3911  0.5609
10897SOL    HW144345   8.618   2.657   2.000  0.9540  2.5004  1.1996
10897SOL    HW244346   8.460   2.654   1.961  1.3496 -0.6267 -0.2769
10898SOL     OW44347   7.149   4.567   0.066  0.5700 -0.7112 -0.5491
10898SOL    HW144348   7.136   4.468   0.060 -0.5975 -0.7012  1.3631
10898SOL    HW244349   7.096   4.603   0.142  1.8272  1.2498 -0.5593
10899SOL     OW44350   1.528   3.487   4.226  0.4477 -0.3520  0.6695
10899SOL    HW144351   1.438   3.443   4.225 -0.3401  1.1793  2.0445
10899SOL    HW244352   1.518   3.586   4.236  2.2930 -0.2812  2.3272
10900SOL     OW44353   7.139   0.693   4.433  0.5165  0.5435  0.4315
10900SOL    HW144354   7.156   0.790   4.453 -4.1513  0.9601  2.9804
10900SOL    HW244355   7.111   0.646   4.517 -0.9274 -2.1843 -1.5026
10901SOL     OW44356   2.981   1.732   3.569  0.0405 -0.0813 -0.4722
10901SOL    HW144357   2.979   1.769   3.477  0.7802  1.1849  0.0071
10901SOL    HW244358   2.926   1.649   3.573 -2.1060  1.2602 -1.4465
10902SOL     OW44359   4.777   3.693   0.354  0.5719 -0.3900 -0.2265
10902SOL    HW144360   4.800   3.788   0.335 -1.2221  0.1217  0.1334
10902SOL    HW244361   4.739   3.651   0.272 -0.9820 -0.0671  0.3145
10903SOL     OW44362   8.830   7.634   4.270  0.2344 -0.4059 -0.0077
10903SOL    HW144363   8.761   7.591   4.328  0.5762 -0.7781  0.1269
10903SOL    HW244364   8.824   7.596   4.178  0.7940 -1.0415  0.2087
10904SOL     OW44365   3.384   0.574   2.568 -0.7249 -0.0626 -0.2630
10904SOL    HW144366   3.386   0.497   2.505 -0.2598  0.0078 -0.3399
10904SOL    HW244367   3.410   0.658   2.519 -0.5588  0.0258 -0.0258
10905SOL     OW44368   4.303   2.140   5.008 -0.2772 -0.1236 -0.2655
10905SOL    HW144369   4.294   2.227   5.056  0.3184  0.4865 -1.2559
10905SOL    HW244370   4.213   2.109   4.978 -0.4409  0.3357 -0.2526
10906SOL     OW44371   1.058   8.090   0.094 -0.2262  0.4115 -0.0852
10906SOL    HW144372   0.995   8.025   0.052 -0.3569  0.6488 -0.2577
10906SOL    HW244373   1.011   8.139   0.167 -0.6457  1.5378 -1.0854
10907SOL     OW44374   2.692   2.906   3.302 -0.0574 -0.3382 -0.3523
10907SOL    HW144375   2.648   2.818   3.284 -0.0060 -0.3063 -0.6400
10907SOL    HW244376   2.791   2.892   3.308 -0.0858 -0.3760  0.0800
10908SOL     OW44377   0.600   5.949   3.693  0.4980 -0.1470  0.7331
10908SOL    HW144378   0.618   5.868   3.750  0.7317 -0.4565  0.2233
10908SOL    HW244379   0.685   5.978   3.649 -0.3738 -2.1569 -2.4051
10909SOL     OW44380   3.353   3.509   1.922 -0.2031  0.3412 -0.2106
10909SOL    HW144381   3.300   3.470   1.998  0.3416 -1.0710 -0.5263
10909SOL    HW244382   3.448   3.477   1.928 -0.0117  0.7227 -1.1220
10910SOL     OW44383   4.334   9.430   1.306  0.6971  0.0905 -0.6852
10910SOL    HW144384   4.348   9.348   1.250 -0.1340 -0.6828  0.2125
10910SOL    HW244385   4.247   9.423   1.354  2.9546 -1.0055  3.5499
10911SOL     OW44386   2.344   8.563   2.924 -0.0899 -0.6344  0.1310
10911SOL    HW144387   2.377   8.630   2.991 -0.6147 -0.4226  0.1830
10911SOL    HW244388   2.418   8.499   2.902  0.8185  0.7217 -0.8748
10912SOL     OW44389   2.808   0.479   7.368 -0.3002  0.5171 -0.1672
10912SOL    HW144390   2.724   0.432   7.343  1.0442 -0.4595 -3.0397
10912SOL    HW244391   2.869   0.416   7.415 -0.7563  0.9631  1.0450
10913SOL     OW44392   7.205   3.176   1.638 -0.0293  0.4029  0.5582
10913SOL    HW144393   7.260   3.260   1.635 -0.0401  0.4099  0.5608
10913SOL    HW244394   7.171   3.155   1.547  0.3499  0.1501  0.4750
10914SOL     OW44395   1.096   1.582   4.862 -0.1734 -0.4675 -0.5825
10914SOL    HW144396   1.146   1.630   4.935  0.3061 -0.3434 -0.9874
10914SOL    HW244397   1.000   1.609   4.864  0.2465  1.1796 -1.3305
10915SOL     OW44398   2.216   4.086   0.930 -0.4797 -0.5133 -0.5775
10915SOL    HW144399   2.296   4.122   0.881 -0.4302  3.3529  2.1087
10915SOL    HW244400   2.246   4.014   0.993  0.3958 -1.2886 -1.8659
10916SOL     OW44401   5.028   9.880   3.761  0.3107  0.1304  0.0241
10916SOL    HW144402   4.975   9.850   3.683  0.0901 -0.7147  0.4935
10916SOL    HW244403   5.013   9.818   3.838 -0.8228  1.9137  1.2775
10917SOL     OW44404   0.465   2.531   7.771 -0.7112  0.1158  0.3440
10917SOL    HW144405   0.374   2.511   7.807 -1.2895  0.8348 -0.7014
10917SOL    HW244406   0.460   2.541   7.671  0.9168 -2.2142 -0.0261
10918SOL     OW44407   7.272   3.499   1.973  0.0265  0.4598  0.4161
10918SOL    HW144408   7.328   3.463   2.047 -2.3553  0.8889  2.4616
10918SOL    HW244409   7.292   3.596   1.960  0.2582  0.4490  0.6942
10919SOL     OW44410   8.615   8.311   6.773  0.1959  0.3119  0.2618
10919SOL    HW144411   8.706   8.306   6.814 -0.9092  0.8376  2.8669
10919SOL    HW244412   8.618   8.272   6.681  3.1699  0.8569  0.0673
10920SOL     OW44413   9.916   9.870   7.382  0.7770 -0.0958 -0.7123
10920SOL    HW144414   9.934   9.793   7.321  0.3311  1.3822 -2.7798
10920SOL    HW244415   9.986   9.940   7.369  0.2210  0.5831 -0.1176
10921SOL     OW44416   7.346   2.872   7.664 -0.3264 -0.2375  0.3225
10921SOL    HW144417   7.361   2.971   7.660  0.3465 -0.3580 -0.2446
10921SOL    HW244418   7.300   2.848   7.749  1.7494  0.2789  1.6197
10922SOL     OW44419   9.782   8.911   7.152 -0.2012  0.0113 -0.6163
10922SOL    HW144420   9.685   8.884   7.152 -0.6244  1.4221  0.9602
10922SOL    HW244421   9.810   8.931   7.246  1.4502  0.2484 -1.1556
10923SOL     OW44422   8.852   5.974   6.939 -0.1300 -0.0472 -0.6414
10923SOL    HW144423   8.784   5.978   6.866  0.9500 -0.4959 -1.6653
10923SOL    HW244424   8.942   5.996   6.903  0.5239 -0.9459  0.4225
10924SOL     OW44425   9.684   9.313   6.683 -0.2492 -0.5168  0.1337
10924SOL    HW144426   9.689   9.406   6.647 -1.7215 -0.3993  0.2099
10924SOL    HW244427   9.657   9.316   6.779 -1.1067 -1.0542 -0.0851
10925SOL     OW44428   8.410   9.437   3.053  0.2216 -0.2276 -0.1748
10925SOL    HW144429   8.479   9.485   3.000 -0.8456 -0.1140 -1.4884
10925SOL    HW244430   8.322   9.485   3.045 -0.1535 -0.6877  1.0044
10926SOL     OW44431   3.723   0.610   2.245 -0.0744 -0.3605  0.3028
10926SOL    HW144432   3.729   0.535   2.311  1.3870  1.0634  1.8419
10926SOL    HW244433   3.789   0.681   2.269 -0.2643  0.6807 -2.1051
10927SOL     OW44434   2.777   3.706   6.165 -0.2256 -0.5480  0.3157
10927SOL    HW144435   2.720   3.772   6.116 -0.8166 -1.0979  0.2522
10927SOL    HW244436   2.801   3.743   6.255  2.8174  1.4581 -1.2726
10928SOL     OW44437   8.371   9.307   0.602  0.1207  0.3591  0.5107
10928SOL    HW144438   8.440   9.327   0.532  1.5143  0.1625  1.8005
10928SOL    HW244439   8.291   9.365   0.588  0.9427  1.2826 -0.4348
10929SOL     OW44440   3.238   5.237   3.730  0.4471 -0.4743 -0.3394
10929SOL    HW144441   3.226   5.323   3.680  0.3011  0.3031  0.9995
10929SOL    HW244442   3.335   5.226   3.753  0.2244  0.2493  1.0440
10930SOL     OW44443   6.618   0.125   6.095  0.2094 -0.0336 -0.1354
10930SOL    HW144444   6.672   0.097   6.174  1.6729  0.0700 -1.0639
10930SOL    HW244445   6.677   0.174   6.030 -1.1749  0.7196 -0.8536
10931SOL     OW44446   0.558   4.522   2.399  0.2604  0.0802 -0.2431
10931SOL    HW144447   0.629   4.582   2.437  0.8337  0.1101 -1.3455
10931SOL    HW244448   0.485   4.510   2.467  0.6748  1.1209  0.4026
10932SOL     OW44449   2.082   5.064   1.625  0.3156 -0.3118  0.3027
10932SOL    HW144450   1.999   5.033   1.578  0.0959 -0.4789  0.7977
10932SOL    HW244451   2.121   5.142   1.575 -0.0889 -0.2868  0.0187
10933SOL     OW44452   2.519   5.248   6.667  0.4637  0.2987  0.7927
10933SOL    HW144453   2.492   5.205   6.581 -0.2848  0.3577  0.9920
10933SOL    HW244454   2.605   5.209   6.698 -0.2216 -1.0986  0.9871
10934SOL     OW44455   5.646   0.769   3.550 -0.4614 -0.0340  0.1403
10934SOL    HW144456   5.656   0.689   3.491  0.7420  0.4150 -0.2823
10934SOL    HW244457   5.668   0.852   3.498  0.5514  0.3677  1.1999
10935SOL     OW44458   3.226   0.129   1.905 -0.0666  0.3175  0.7474
10935SOL    HW144459   3.316   0.147   1.864  0.8248 -2.1083  1.5869
10935SOL    HW244460   3.195   0.038   1.880 -1.7396  0.6464  1.5232
10936SOL     OW44461   8.698   1.334   0.444 -0.5071 -0.2461  0.1867
10936SOL    HW144462   8.659   1.254   0.491 -0.6471 -0.1346  0.2613
10936SOL    HW244463   8.668   1.417   0.490 -1.2391 -0.1050 -0.5402
10937SOL     OW44464   1.920   1.338   6.041 -0.2443 -0.0824 -0.6057
10937SOL    HW144465   2.011   1.371   6.014 -0.3671  1.0919  0.3385
10937SOL    HW244466   1.858   1.416   6.048 -1.5542 -0.9920 -2.1000
10938SOL     OW44467   4.865   0.195   4.948  0.0879 -0.0848 -0.4657
10938SOL    HW144468   4.786   0.194   5.009  0.9035 -0.0811  0.6107
10938SOL    HW244469   4.837   0.170   4.855 -0.6674 -2.9389  0.4933
10939SOL     OW44470   8.717   0.507   7.629 -0.2278  0.5786 -0.1403
10939SOL    HW144471   8.757   0.489   7.540  0.0851  1.0906 -0.1043
10939SOL    HW244472   8.784   0.488   7.701 -0.2009  0.9684 -0.0582
10940SOL     OW44473   1.496   7.470   6.660  0.3454 -0.3466 -0.0155
10940SOL    HW144474   1.589   7.452   6.692  0.6065 -0.0070 -0.5679
10940SOL    HW244475   1.432   7.410   6.707  0.9299 -1.0669 -0.1296
10941SOL     OW44476   8.868   8.325   6.883  0.8559 -0.3561  0.2442
10941SOL    HW144477   8.843   8.354   6.975 -0.3510 -0.7826  0.0614
10941SOL    HW244478   8.917   8.398   6.836  0.2529  0.3643  0.7387
10942SOL     OW44479   3.258   8.496   4.960  0.2669  0.2213 -0.2844
10942SOL    HW144480   3.236   8.417   4.902  1.3009 -0.1606 -0.1571
10942SOL    HW244481   3.255   8.580   4.904 -2.2351  0.2919 -0.1214
10943SOL     OW44482   2.432   3.438   7.827  0.2221  0.0371 -0.5568
10943SOL    HW144483   2.381   3.415   7.910 -0.4744 -0.3866 -1.1001
10943SOL    HW244484   2.491   3.361   7.802 -0.2163 -0.1784 -0.9403
10944SOL     OW44485   8.825   5.979   1.083 -0.2399  0.1423 -0.3726
10944SOL    HW144486   8.858   6.048   1.018  0.7567  0.7573  0.7669
10944SOL    HW244487   8.782   5.904   1.032  2.0723 -0.2393 -1.8761
10945SOL     OW44488   1.037   2.627   4.893  0.8628  0.0465  0.8191
10945SOL    HW144489   1.098   2.687   4.944 -0.9639  3.1580 -0.5407
10945SOL    HW244490   0.949   2.622   4.939  0.6984 -0.8861  0.4199
10946SOL     OW44491   6.766   2.493   4.531 -0.5577 -0.1695 -0.0480
10946SOL    HW144492   6.773   2.418   4.466 -0.0869  0.6163 -0.9064
10946SOL    HW244493   6.803   2.577   4.491  2.1988 -0.2509  2.1337
10947SOL     OW44494   2.826   1.941   5.945 -0.0095  0.1236  0.1934
10947SOL    HW144495   2.926   1.938   5.954  0.3220  1.5454 -2.6152
10947SOL    HW244496   2.786   1.963   6.034  2.1046 -1.3270  1.5693
10948SOL     OW44497   6.500   2.313   3.679 -0.4623 -0.0862 -0.0968
10948SOL    HW144498   6.513   2.219   3.647 -1.4912 -0.6249  1.0330
10948SOL    HW244499   6.558   2.374   3.626 -0.2116 -1.2859 -1.2304
10949SOL     OW44500   1.614   7.688   5.988 -0.0214  0.5548  0.2340
10949SOL    HW144501   1.670   7.608   5.966 -1.4276  0.2239 -2.2668
10949SOL    HW244502   1.548   7.665   6.060 -1.1296 -0.8436 -1.2171
10950SOL     OW44503   1.029   8.394   0.028 -0.0916  0.4866  0.3190
10950SOL    HW144504   1.049   8.471  -0.032 -0.6849  1.1694  0.9802
10950SOL    HW244505   0.984   8.322  -0.024 -0.8586  1.1844 -0.0001
10951SOL     OW44506   7.639   0.953   5.543  0.1691  0.3189 -0.4277
10951SOL    HW144507   7.710   1.019   5.568 -0.4990  0.7053  0.4977
10951SOL    HW244508   7.549   0.997   5.552 -0.3100 -0.8482  0.6510
10952SOL     OW44509   5.787   8.257   2.546  0.0685 -0.3665 -0.5364
10952SOL    HW144510   5.879   8.221   2.530  0.3910  0.0402  0.3904
10952SOL    HW244511   5.725   8.223   2.474  0.5319 -2.1446 -0.1229
10953SOL     OW44512   0.408   8.654   7.860  0.0729 -0.4161  0.3012
10953SOL    HW144513   0.402   8.697   7.950 -2.3937  0.1718 -0.1038
10953SOL    HW244514   0.364   8.565   7.863  1.0790 -0.9325 -0.0318
10954SOL     OW44515   3.976   0.628   1.845 -0.5449 -0.4886 -0.5207
10954SOL    HW144516   3.986   0.528   1.849 -0.6764 -0.4825 -0.0143
10954SOL    HW244517   3.944   0.654   1.754 -1.6227 -1.0074 -0.2912
10955SOL     OW44518   4.461   6.197   0.475 -0.2302 -0.3936 -0.5100
10955SOL    HW144519   4.551   6.213   0.434 -0.0331  1.8905  0.7407
10955SOL    HW244520   4.393   6.191   0.403  0.5331  0.6225 -1.3295
10956SOL     OW44521   7.532   4.081   0.882 -0.2723 -0.0027  0.3565
10956SOL    HW144522   7.472   4.080   0.961  0.6303  0.5413  1.0704
10956SOL    HW244523   7.605   4.014   0.894 -0.1261  0.0863 -0.0079
10957SOL     OW44524   9.143   3.266   2.182  0.0847  0.3402 -0.0953
10957SOL    HW144525   9.160   3.302   2.274 -1.5944  0.1614  0.3021
10957SOL    HW244526   9.193   3.180   2.170 -0.2971 -0.0241  0.9129
10958SOL     OW44527   0.918   0.219   6.193  0.0764 -0.0665 -0.2755
10958SOL    HW144528   0.858   0.284   6.240  0.8126  0.6990 -0.3843
10958SOL    HW244529   1.002   0.208   6.246  1.1022  1.1401 -1.6245
10959SOL     OW44530   7.337   3.190   6.059  0.1951 -0.6804  0.3471
10959SOL    HW144531   7.280   3.206   5.978  0.8904 -1.7863 -0.3753
10959SOL    HW244532   7.304   3.108   6.107  0.9639 -1.1462  0.0954
10960SOL     OW44533   8.490   5.549   6.518 -0.7984 -0.6331 -0.2177
10960SOL    HW144534   8.408   5.602   6.500 -1.2239 -1.0702  0.4252
10960SOL    HW244535   8.473   5.453   6.498 -0.1598 -0.5960 -0.9739
10961SOL     OW44536   1.728   2.478   1.441 -0.5759 -0.3093 -0.1904
10961SOL    HW144537   1.788   2.399   1.453 -0.0936  0.0167 -0.4544
10961SOL    HW244538   1.654   2.453   1.379  0.1812 -0.2324 -1.1375
10962SOL     OW44539   7.290   3.979   5.566 -0.7126 -0.1038  0.2047
10962SOL    HW144540   7.279   3.928   5.481 -1.3307  0.8458 -0.2952
10962SOL    HW244541   7.288   4.077   5.546 -1.1614  0.1257  1.3543
10963SOL     OW44542   8.804   3.741   3.744  0.1322 -0.4309 -0.3818
10963SOL    HW144543   8.888   3.692   3.765  0.7248  0.3541 -0.8892
10963SOL    HW244544   8.824   3.817   3.682 -1.1148 -0.9020 -1.3878
10964SOL     OW44545   9.941   0.231   7.879 -0.2379  0.7872  0.2745
10964SOL    HW144546   9.991   0.145   7.866 -0.0829  0.6783  1.5529
10964SOL    HW244547  10.006   0.307   7.880 -0.4065  0.9570 -1.1986
10965SOL     OW44548   9.615   3.893   5.310 -0.1709 -0.1879 -0.2823
10965SOL    HW144549   9.687   3.873   5.377 -1.2079  0.1953  0.9683
10965SOL    HW244550   9.655   3.943   5.233  0.4607  2.3936  1.6373
10966SOL     OW44551   9.518   8.601   4.216  0.1871 -0.1684 -0.1803
10966SOL    HW144552   9.612   8.636   4.210  0.5000 -1.3487 -2.9492
10966SOL    HW244553   9.461   8.667   4.265  2.0203  1.5540 -0.3039
10967SOL     OW44554   7.778   7.633   4.494 -0.5848 -0.5253 -0.3307
10967SOL    HW144555   7.702   7.567   4.497 -0.4183 -0.7788 -1.4081
10967SOL    HW244556   7.791   7.673   4.584 -2.8452  0.4542 -0.3897
10968SOL     OW44557   7.055   1.762   4.362 -0.1544  0.0128 -0.6515
10968SOL    HW144558   7.087   1.683   4.414 -1.0896  0.3030  0.3801
10968SOL    HW244559   7.064   1.844   4.418 -2.2929  0.1558 -0.4775
10969SOL     OW44560   2.315   7.051   3.584  0.0139 -0.0425 -0.1401
10969SOL    HW144561   2.218   7.041   3.606  0.3278  1.2484  1.9838
10969SOL    HW244562   2.351   7.132   3.630  2.0115 -0.2877 -1.2321
10970SOL     OW44563   2.878   0.928   2.661 -0.2099  0.4281  0.4222
10970SOL    HW144564   2.976   0.945   2.671  0.1230 -0.7919 -0.7377
10970SOL    HW244565   2.840   0.901   2.750  0.3275  1.6953  1.0602
10971SOL     OW44566   9.195   3.358   1.893  0.0158 -0.2325  0.0710
10971SOL    HW144567   9.202   3.457   1.905 -1.1861 -0.0163 -0.9462
10971SOL    HW244568   9.179   3.315   1.982 -1.8646  0.7094  0.2157
10972SOL     OW44569   3.883   5.919   2.113 -0.4032  0.2396 -0.3156
10972SOL    HW144570   3.957   5.970   2.070 -0.1284  0.2406  0.1613
10972SOL    HW244571   3.894   5.921   2.213  0.2299 -1.6917 -0.3279
10973SOL     OW44572   2.539   8.768   5.104 -0.5641 -0.0079  0.2917
10973SOL    HW144573   2.608   8.821   5.155  0.5363 -1.9248  0.8188
10973SOL    HW244574   2.499   8.827   5.034  1.3200  1.2823  0.2326
10974SOL     OW44575   7.227   8.665   6.314 -0.2270 -0.2800 -0.0387
10974SOL    HW144576   7.257   8.569   6.310  0.1150 -0.1637 -0.3607
10974SOL    HW244577   7.267   8.709   6.394  0.9821  0.0384 -0.7981
10975SOL     OW44578   4.837   2.935   4.632 -0.2257 -0.1125  0.6787
10975SOL    HW144579   4.842   3.017   4.575  0.3881 -0.0337  0.8422
10975SOL    HW244580   4.914   2.934   4.696 -0.3073 -0.7427  0.7740
10976SOL     OW44581   1.626   6.034   7.147 -0.3295  0.8213  0.2236
10976SOL    HW144582   1.603   5.965   7.078 -1.9162  2.3892 -0.8402
10976SOL    HW244583   1.644   6.122   7.103  2.2461  0.9997  1.5305
10977SOL     OW44584   6.402   9.397   5.675  0.0482 -0.2533 -0.2611
10977SOL    HW144585   6.387   9.441   5.764 -1.3141 -1.4091  0.0926
10977SOL    HW244586   6.357   9.451   5.603 -0.4392 -0.3241 -0.0099
10978SOL     OW44587   8.821   1.180   0.035  0.0589 -0.0770  0.1655
10978SOL    HW144588   8.872   1.266   0.037  2.8653 -1.6241 -1.8694
10978SOL    HW244589   8.724   1.199   0.017  0.4319  2.6982  0.8737
10979SOL     OW44590   1.507   9.264   4.888  0.3158 -0.0129  0.0706
10979SOL    HW144591   1.594   9.313   4.893  0.3394  0.1297 -1.7321
10979SOL    HW244592   1.432   9.329   4.882  0.3545 -0.1735 -2.4293
10980SOL     OW44593   8.373   3.353   5.126 -0.2372 -0.3930  0.1586
10980SOL    HW144594   8.334   3.415   5.194 -0.6573  0.3447 -0.7322
10980SOL    HW244595   8.302   3.291   5.092 -0.2968 -0.0392 -0.3814
10981SOL     OW44596   2.379   0.337   6.252 -0.1142  0.2563  0.4646
10981SOL    HW144597   2.380   0.366   6.348  0.2365 -0.7037  0.7564
10981SOL    HW244598   2.389   0.417   6.193 -0.9988  0.9258  1.2066
10982SOL     OW44599   2.932   1.843   2.878 -0.3258  0.4210 -0.1312
10982SOL    HW144600   3.002   1.915   2.875  0.8849 -0.6886  0.5997
10982SOL    HW244601   2.952   1.775   2.808 -0.9603  0.3442 -0.2372
10983SOL     OW44602   1.375   2.893   7.523 -0.3122 -0.4045 -0.4284
10983SOL    HW144603   1.420   2.901   7.434 -0.2721  0.9710 -0.2992
10983SOL    HW244604   1.415   2.960   7.586 -0.0526 -1.6563  0.7522
10984SOL     OW44605   1.884   0.697   6.939 -0.5271  0.4079 -0.0273
10984SOL    HW144606   1.948   0.700   6.863  0.4861 -1.5359  0.7158
10984SOL    HW244607   1.862   0.790   6.968  1.0644  1.1115 -1.0245
10985SOL     OW44608   9.988   8.332   4.187  0.2048 -0.2423  0.5041
10985SOL    HW144609   9.951   8.279   4.111 -0.8721 -0.1364  0.9586
10985SOL    HW244610  10.024   8.419   4.152 -1.3210  0.2981  0.2708
10986SOL     OW44611   7.133   1.618   2.139  0.0781  0.4869 -0.2740
10986SOL    HW144612   7.228   1.639   2.162 -0.2735  1.6272  0.1851
10986SOL    HW244613   7.077   1.624   2.221 -0.3510 -0.4168 -0.5029
10987SOL     OW44614   1.003   9.869   2.593 -0.5303  0.2682 -0.4652
10987SOL    HW144615   0.911   9.834   2.613 -0.6161 -0.3706 -1.9457
10987SOL    HW244616   1.063   9.794   2.566  0.0346  0.8800 -0.9345
10988SOL     OW44617   4.839   4.720   0.758 -0.4372  0.1754  0.3293
10988SOL    HW144618   4.836   4.621   0.774 -0.8499  0.3365  1.2551
10988SOL    HW244619   4.747   4.751   0.733 -0.1776  0.2256 -0.5677
10989SOL     OW44620   0.099   4.558   6.056 -0.2437  0.4571 -0.4643
10989SOL    HW144621   0.164   4.500   6.104 -1.6295  1.1207  2.3277
10989SOL    HW244622   0.008   4.547   6.097 -1.5501  0.8549 -3.1448
10990SOL     OW44623   1.231   6.612   3.205 -0.7675 -0.6167 -0.0628
10990SOL    HW144624   1.252   6.694   3.153 -1.5318 -0.3926 -0.0322
10990SOL    HW244625   1.314   6.559   3.221 -0.3436 -0.0597 -0.4438
10991SOL     OW44626   4.521   1.422   8.084  0.0608 -0.0644  1.0649
10991SOL    HW144627   4.447   1.392   8.023 -1.3002 -0.4036  2.8484
10991SOL    HW244628   4.551   1.345   8.140  1.1132  0.3211  1.0373
10992SOL     OW44629   0.461   4.782   1.586 -0.5288 -0.2044 -0.7840
10992SOL    HW144630   0.464   4.840   1.505 -0.2014 -0.5256 -1.0019
10992SOL    HW244631   0.375   4.798   1.635 -0.2313  0.8221 -0.5762
10993SOL     OW44632   4.427   0.263   6.117 -0.1661 -0.3704  0.5691
10993SOL    HW144633   4.522   0.279   6.145  0.0971 -1.1936  0.1362
10993SOL    HW244634   4.378   0.215   6.190 -0.1330 -0.3395  0.6117
10994SOL     OW44635   5.058   7.613   1.995 -0.0606  0.0913 -0.6929
10994SOL    HW144636   4.973   7.647   1.955 -0.1133  1.7634  0.7499
10994SOL    HW244637   5.111   7.564   1.926 -1.9233 -0.4733 -1.7495
10995SOL     OW44638   4.696   7.391   4.417 -0.2237 -0.1579  0.9868
10995SOL    HW144639   4.598   7.379   4.430 -0.8221  1.5169 -1.6710
10995SOL    HW244640   4.730   7.327   4.349 -0.0004  1.0897 -0.0903
10996SOL     OW44641   8.191   3.555   4.546  0.1063  0.3525 -0.5251
10996SOL    HW144642   8.187   3.655   4.553  0.2343  0.4790 -1.9354
10996SOL    HW244643   8.179   3.514   4.636 -0.8935  1.6159 -0.0714
10997SOL     OW44644   3.665   5.460   2.923 -0.4387 -0.0650 -0.1873
10997SOL    HW144645   3.733   5.399   2.964 -0.6674 -0.1021  0.1451
10997SOL    HW244646   3.593   5.406   2.881 -0.3052 -0.0254 -0.4679
10998SOL     OW44647   9.195   9.434   3.072 -0.0156  0.8610  0.0811
10998SOL    HW144648   9.274   9.493   3.057  1.6437 -1.7871 -1.9581
10998SOL    HW244649   9.203   9.352   3.016 -2.7644 -0.8551  2.0637
10999SOL     OW44650   0.420   3.730   4.114 -0.1669 -0.2939 -0.2571
10999SOL    HW144651   0.336   3.777   4.142  1.0096  1.1258  0.9507
10999SOL    HW244652   0.489   3.797   4.088  1.2397 -1.3750  0.6078
11000SOL     OW44653   8.496   2.188   0.229 -0.1481  0.3525 -0.4067
11000SOL    HW144654   8.467   2.093   0.216  2.5332 -0.4217 -0.8654
11000SOL    HW244655   8.478   2.215   0.324  0.9161 -1.2582  0.2685
11001SOL     OW44656   8.581   8.509   7.780  0.1565  0.1979 -0.0043
11001SOL    HW144657   8.607   8.413   7.790  1.7334  0.7215  1.1130
11001SOL    HW244658   8.662   8.563   7.755 -0.4319  1.4440  0.7291
11002SOL     OW44659   2.520   7.038   5.149  0.2310  0.3883  0.2223
11002SOL    HW144660   2.484   7.109   5.209 -1.2250 -0.7919  0.7764
11002SOL    HW244661   2.606   7.069   5.108  2.1669  0.5585  4.2111
11003SOL     OW44662   4.235   2.972   0.997  0.4673  0.4059  0.0994
11003SOL    HW144663   4.173   2.946   0.922 -0.0023  0.2350  0.5426
11003SOL    HW244664   4.184   3.027   1.064  0.5555 -0.5140  0.9358
11004SOL     OW44665   0.137   7.824   4.122  0.4373  0.2539  0.4896
11004SOL    HW144666   0.188   7.750   4.078 -0.7520 -0.1268 -0.2530
11004SOL    HW244667   0.195   7.905   4.127  0.5062  0.4019 -2.0257
11005SOL     OW44668   3.125   7.145   4.019 -0.8031 -0.0681  0.4457
11005SOL    HW144669   3.117   7.055   4.061 -0.8280  1.1861  3.1953
11005SOL    HW244670   3.219   7.160   3.989 -0.6818 -0.7846  0.4652
11006SOL     OW44671   1.760   3.462   1.110 -0.3029  0.4514 -0.1761
11006SOL    HW144672   1.660   3.468   1.114 -0.4316  0.0845 -2.4166
11006SOL    HW244673   1.786   3.379   1.060  1.1652 -0.2893  1.7383
11007SOL     OW44674   8.252   9.715   1.861  0.0399 -0.0351 -0.0368
11007SOL    HW144675   8.297   9.629   1.837  0.4436 -0.7826  3.1289
11007SOL    HW244676   8.300   9.757   1.938 -2.4416  1.1032  0.9265
11008SOL     OW44677   9.598   9.705   6.353 -0.7134 -0.2049 -1.0141
11008SOL    HW144678   9.516   9.762   6.345 -0.0135  1.0067  0.1630
11008SOL    HW244679   9.599   9.638   6.279 -1.4281  1.4704 -2.5890
11009SOL     OW44680   4.755   9.730   5.394 -0.1044  0.2815 -0.0206
11009SOL    HW144681   4.748   9.780   5.480  0.3465  0.7428 -0.2574
11009SOL    HW244682   4.818   9.653   5.405 -2.2932 -1.4549  0.9289
11010SOL     OW44683   0.825   4.539   3.317 -0.0560 -0.0655  0.1338
11010SOL    HW144684   0.813   4.600   3.395  1.1303 -1.2544  1.2756
11010SOL    HW244685   0.887   4.581   3.250  1.4732 -0.4065  1.3334
11011SOL     OW44686   9.707   0.376   4.110 -0.2948  0.5838  0.4895
11011SOL    HW144687   9.777   0.316   4.072  0.3269  1.0794  0.8532
11011SOL    HW244688   9.706   0.368   4.210 -1.5332 -0.2830  0.4207
11012SOL     OW44689   9.882   3.476   6.543  0.3439  0.3984  0.0247
11012SOL    HW144690   9.838   3.519   6.464 -0.3976  0.6252  0.5481
11012SOL    HW244691   9.923   3.548   6.600 -0.2726  0.3525  0.5284
11013SOL     OW44692   3.475   6.728   4.210  0.2187 -0.3071  0.2709
11013SOL    HW144693   3.479   6.628   4.202 -0.6695 -0.4025  0.9198
11013SOL    HW244694   3.482   6.753   4.307 -1.2730  0.1627  0.2689
11014SOL     OW44695   1.358   9.544   3.724  0.3420 -0.1401  0.8665
11014SOL    HW144696   1.426   9.522   3.794  0.4034 -0.7502  0.6109
11014SOL    HW244697   1.288   9.473   3.722  0.8955 -0.6466 -0.4076
11015SOL     OW44698   8.180   2.353   6.609 -0.5650 -0.2055 -0.2264
11015SOL    HW144699   8.102   2.408   6.638  0.3307  0.4743  0.9494
11015SOL    HW244700   8.237   2.332   6.688  0.9785  0.1690 -1.2109
11016SOL     OW44701   3.824   7.913   2.293 -0.4304 -0.6349  0.1002
11016SOL    HW144702   3.842   7.989   2.355 -0.9697 -0.2249 -0.2436
11016SOL    HW244703   3.796   7.833   2.346 -0.1234 -0.5170  0.4410
11017SOL     OW44704   9.114   4.400   5.766  0.2306 -0.3115 -0.4330
11017SOL    HW144705   9.203   4.399   5.721  0.2225  0.3316 -0.4687
11017SOL    HW244706   9.046   4.440   5.705  0.0517 -0.1851 -0.1540
11018SOL     OW44707   6.031   2.614   5.229 -0.4576  0.0864  0.4479
11018SOL    HW144708   5.951   2.574   5.272  0.4350 -1.9616  0.2813
11018SOL    HW244709   6.010   2.639   5.135 -0.5986 -1.5136  0.0444
11019SOL     OW44710   0.305   2.529   3.033 -0.0271  0.8620  0.3379
11019SOL    HW144711   0.345   2.438   3.042  1.2537  1.4673  0.9164
11019SOL    HW244712   0.211   2.528   3.067  0.1965 -0.0947  0.9291
11020SOL     OW44713   7.820   0.914   4.504 -0.1342 -0.1530 -0.3758
11020SOL    HW144714   7.804   0.816   4.507 -0.0633 -0.1466  0.2581
11020SOL    HW244715   7.786   0.956   4.588  0.0580  0.3289 -0.5374
11021SOL     OW44716   0.751   9.103   0.620  0.0426  0.1169  0.2341
11021SOL    HW144717   0.737   9.025   0.681  1.8214 -1.9750 -1.9010
11021SOL    HW244718   0.840   9.144   0.637  0.5158 -0.4285 -0.8737
11022SOL     OW44719   7.064   8.643   4.048  0.5627 -0.0123 -0.4788
11022SOL    HW144720   7.027   8.659   3.957 -0.7706  0.9614  0.2165
11022SOL    HW244721   7.114   8.556   4.050  0.0642 -0.3343 -1.9625
11023SOL     OW44722   0.815   9.949   6.922 -0.3191 -0.2473 -0.0218
11023SOL    HW144723   0.784   9.931   7.015  0.6147 -1.0699  0.1393
11023SOL    HW244724   0.781   9.878   6.861 -1.2722  0.5189 -0.3837
11024SOL     OW44725   7.569   7.222   7.196  0.3822  0.1337 -0.2877
11024SOL    HW144726   7.633   7.166   7.249 -2.2858 -2.0184  0.7914
11024SOL    HW244727   7.539   7.300   7.252  1.9259  1.0993 -0.7653
11025SOL     OW44728   9.206   3.370   3.174  0.1055  0.3304  0.3074
11025SOL    HW144729   9.165   3.417   3.252 -0.6879 -0.6490  0.4863
11025SOL    HW244730   9.153   3.288   3.152  0.3098  0.6011 -1.2764
11026SOL     OW44731   9.843   2.914   4.294  0.1347  0.4472 -0.3963
11026SOL    HW144732   9.791   2.841   4.248 -1.8127  0.1312  2.2075
11026SOL    HW244733   9.792   3.000   4.287 -1.0405  0.0332  2.6055
11027SOL     OW44734   1.502   3.713   5.492  0.0338 -0.1936  0.0716
11027SOL    HW144735   1.562   3.768   5.550 -1.4466  0.4643  1.0279
11027SOL    HW244736   1.534   3.618   5.490 -0.7018 -0.5447  3.1724
11028SOL     OW44737   3.003   4.010   7.983 -0.6291  0.0591  0.6418
11028SOL    HW144738   2.913   3.967   7.980 -0.6006  0.0936 -1.5663
11028SOL    HW244739   3.067   3.957   7.927 -0.3139  2.3279 -1.2027
11029SOL     OW44740   1.060   8.240   1.636 -0.2914  0.4306  0.8499
11029SOL    HW144741   1.008   8.284   1.563 -0.8857  1.3420  1.8134
11029SOL    HW244742   1.105   8.159   1.600 -0.1129  1.1838 -0.6735
11030SOL     OW44743   2.145   2.767   2.195  0.0611 -0.1522 -0.6979
11030SOL    HW144744   2.217   2.837   2.196  0.0019 -0.0998 -0.1829
11030SOL    HW244745   2.076   2.793   2.128 -0.5580  0.8963  0.3266
11031SOL     OW44746   0.418   9.203   2.020  0.0586 -0.4127  0.3173
11031SOL    HW144747   0.375   9.121   1.981 -1.1888 -0.3797  1.6239
11031SOL    HW244748   0.516   9.202   1.997 -0.2145 -1.5237 -0.9085
11032SOL     OW44749   8.457   8.356   6.257  0.1695  0.1185 -0.1805
11032SOL    HW144750   8.523   8.431   6.252  0.6076 -0.2581 -0.0690
11032SOL    HW244751   8.489   8.279   6.202  0.1669 -0.3260  0.4314
11033SOL     OW44752   9.851   8.346   4.970  0.0735  0.1279 -0.5982
11033SOL    HW144753   9.898   8.278   4.913 -2.7506 -2.1327 -0.3271
11033SOL    HW244754   9.816   8.303   5.053  0.8100  2.5918  1.0583
11034SOL     OW44755   0.447   4.666   6.666  0.1574 -0.2646 -0.9794
11034SOL    HW144756   0.481   4.634   6.754  1.7998 -0.8520 -1.8062
11034SOL    HW244757   0.403   4.591   6.617 -0.1399 -0.1088 -0.9516
11035SOL     OW44758   0.289   3.565   3.661 -0.5415  0.3004 -0.1734
11035SOL    HW144759   0.316   3.471   3.638 -0.3378  0.2487  0.2701
11035SOL    HW244760   0.330   3.628   3.595 -1.1620  0.0253 -0.8227
11036SOL     OW44761   9.234   6.213   0.578  0.2624 -0.2544 -0.6318
11036SOL    HW144762   9.282   6.299   0.596 -3.1212  1.4164  0.7732
11036SOL    HW244763   9.240   6.191   0.481  2.0100  1.0215 -0.8395
11037SOL     OW44764   9.886   6.086   5.756  0.4030 -0.0650  0.2269
11037SOL    HW144765   9.956   6.158   5.754 -0.0833  0.5743  3.2976
11037SOL    HW244766   9.917   6.011   5.815 -0.4719 -0.8861 -0.3483
11038SOL     OW44767   2.320   2.082   7.281 -0.2772  0.1949 -0.3251
11038SOL    HW144768   2.296   2.138   7.202  0.6965  0.0929 -0.6878
11038SOL    HW244769   2.394   2.125   7.332 -0.0048 -0.4036 -0.2061
11039SOL     OW44770   3.065   8.051   6.998 -0.7080 -0.1145  0.3676
11039SOL    HW144771   3.058   8.041   6.899 -3.3244 -1.0260  0.5986
11039SOL    HW244772   3.043   8.145   7.024  0.9076  0.3649  0.0197
11040SOL     OW44773   0.606   5.294   4.047  0.2511  1.0294 -0.3266
11040SOL    HW144774   0.570   5.226   3.982  0.0365  1.7517 -0.9725
11040SOL    HW244775   0.698   5.267   4.075 -1.2618 -1.5891  2.4212
11041SOL     OW44776   3.153   8.239   7.964 -0.5931  0.2600 -1.4098
11041SOL    HW144777   3.100   8.305   8.018 -0.8452  0.0898 -1.4462
11041SOL    HW244778   3.104   8.152   7.961 -0.8797  0.4510 -2.4238
11042SOL     OW44779   3.611   0.625   2.749 -0.1140  0.0510 -0.1203
11042SOL    HW144780   3.532   0.599   2.694 -0.5844 -0.5393  0.8192
11042SOL    HW244781   3.580   0.652   2.841  0.6978  0.5882 -0.0015
11043SOL     OW44782   3.073   0.289   2.077 -0.5073  0.1292 -0.3554
11043SOL    HW144783   3.080   0.380   2.035 -0.0791  0.0116 -0.5425
11043SOL    HW244784   3.130   0.225   2.026  0.2267  0.0464  0.5749
11044SOL     OW44785   9.140   8.193   1.389  0.3402 -0.1071  0.0832
11044SOL    HW144786   9.106   8.190   1.295 -0.3198  1.0535  0.2749
11044SOL    HW244787   9.064   8.176   1.452  0.3335  1.2769  0.4752
11045SOL     OW44788   0.553   0.717   4.042  0.1241 -0.1177  0.6415
11045SOL    HW144789   0.646   0.695   4.071  0.1319 -0.0653  0.6583
11045SOL    HW244790   0.488   0.682   4.109  0.2469  1.7883  1.8021
11046SOL     OW44791   4.688   3.645   5.752 -0.3307  0.2966 -0.5816
11046SOL    HW144792   4.783   3.665   5.774  0.8645 -1.8606 -3.4109
11046SOL    HW244793   4.634   3.729   5.758  2.0155  1.8143 -0.1836
11047SOL     OW44794   9.915   8.765   6.989 -0.7343  0.3340 -0.0417
11047SOL    HW144795   9.879   8.822   7.063 -1.7963  0.5043 -0.6854
11047SOL    HW244796   9.878   8.672   6.998  1.4549 -0.4514  1.3571
11048SOL     OW44797   5.868   0.962   6.008  0.4776 -0.3770  0.4352
11048SOL    HW144798   5.848   1.060   6.000  0.4911 -0.4992 -1.1676
11048SOL    HW244799   5.965   0.946   5.990  0.6344 -0.6032  1.4512
11049SOL     OW44800   0.984   7.922   0.635 -0.6293 -0.3575  0.3405
11049SOL    HW144801   0.984   7.868   0.551  1.9015  0.1784 -0.0498
11049SOL    HW244802   0.945   7.868   0.710  1.4704 -2.5870 -0.1329
11050SOL     OW44803   9.036   4.947   1.209  0.0474 -0.3916 -0.1694
11050SOL    HW144804   9.055   4.858   1.168 -0.4803 -0.2980 -0.6305
11050SOL    HW244805   9.047   5.019   1.140 -0.5411 -0.2000 -0.0662
11051SOL     OW44806   7.862   2.517   1.033 -0.3635  0.3497 -0.0993
11051SOL    HW144807   7.896   2.586   0.970 -0.6246  0.8277  0.2789
11051SOL    HW244808   7.913   2.432   1.021  1.2273  1.1729  0.7258
11052SOL     OW44809   4.084   7.200   1.832 -0.0274  0.7203  0.4165
11052SOL    HW144810   4.084   7.269   1.759 -0.0502  1.6592  1.2815
11052SOL    HW244811   3.994   7.199   1.875 -0.0670  0.0421  0.3192
11053SOL     OW44812   4.891   9.760   5.154  0.0572 -0.4720 -0.6422
11053SOL    HW144813   4.914   9.853   5.128 -0.9083 -0.2674 -0.7749
11053SOL    HW244814   4.853   9.759   5.246  1.3058 -0.9055 -0.1196
11054SOL     OW44815   1.370   1.743   4.395  0.3974 -1.1274 -0.2876
11054SOL    HW144816   1.417   1.675   4.339  2.9900 -1.2082  1.8916
11054SOL    HW244817   1.413   1.833   4.382 -1.7142 -0.2736 -1.6164
11055SOL     OW44818   1.261   6.528   6.858  0.4636 -0.0488 -0.0371
11055SOL    HW144819   1.200   6.603   6.882  0.2971 -0.4450  0.7764
11055SOL    HW244820   1.339   6.564   6.806 -0.4732  0.4448 -1.1289
11056SOL     OW44821   2.577   0.587   2.528  0.2584  0.1748 -0.4809
11056SOL    HW144822   2.638   0.657   2.492  0.5989  0.3078  0.3318
11056SOL    HW244823   2.553   0.522   2.456  1.2865  0.1762 -0.8301
11057SOL     OW44824   4.673   9.004   1.452 -0.0874 -0.2889  0.2365
11057SOL    HW144825   4.654   8.924   1.509 -1.2162  0.2017  0.5688
11057SOL    HW244826   4.602   9.073   1.468  0.6896  0.6359 -0.2991
11058SOL     OW44827   0.168   8.958   1.790  0.3539 -0.1588  0.1574
11058SOL    HW144828   0.142   8.874   1.742 -0.3472 -0.0746  0.3837
11058SOL    HW244829   0.264   8.978   1.771 -0.0458  0.1786 -1.6783
11059SOL     OW44830   4.071   8.907   3.259 -0.2133 -0.3426 -0.0373
11059SOL    HW144831   4.068   8.906   3.358 -0.6269 -1.3344 -0.0533
11059SOL    HW244832   3.988   8.950   3.223 -0.7365 -1.2852  0.0261
11060SOL     OW44833   9.099   7.880   4.621 -0.4299  0.0265 -0.2113
11060SOL    HW144834   9.069   7.926   4.705  0.5583  0.0645  0.1365
11060SOL    HW244835   9.160   7.942   4.570  1.7370 -1.2306  0.7647
11061SOL     OW44836   7.676   0.351   2.748  0.3011 -0.0352  0.0322
11061SOL    HW144837   7.652   0.370   2.844 -1.8861 -1.5799 -0.1517
11061SOL    HW244838   7.621   0.410   2.688  2.1093  1.3590 -0.2718
11062SOL     OW44839   7.685   4.195   6.047  0.7591  0.1593  0.2982
11062SOL    HW144840   7.622   4.118   6.055  0.8817  0.2497  2.5108
11062SOL    HW244841   7.772   4.172   6.091  1.0516  1.2855  0.3283
11063SOL     OW44842   2.087   0.834   5.999  0.0450 -0.2774 -0.6507
11063SOL    HW144843   2.040   0.755   5.960  0.5901 -0.9778  0.0996
11063SOL    HW244844   2.040   0.864   6.082  0.4115 -0.4302 -0.3864
11064SOL     OW44845   1.109   6.110   6.361  0.0380 -0.0025 -0.1107
11064SOL    HW144846   1.182   6.176   6.381  0.2928  0.1762 -1.6207
11064SOL    HW244847   1.020   6.153   6.380  0.2429  0.4224 -0.0996
11065SOL     OW44848   4.222   0.832   7.236  0.6490 -0.5239 -0.2153
11065SOL    HW144849   4.269   0.750   7.203 -0.7809 -1.3502 -0.2303
11065SOL    HW244850   4.166   0.808   7.316 -0.6601  0.2088 -0.9125
11066SOL     OW44851   7.710   9.900   0.536 -0.0725 -0.4125  0.2709
11066SOL    HW144852   7.733   9.883   0.440  1.6525  1.0345  0.4103
11066SOL    HW244853   7.646   9.976   0.542  0.8151  0.3351  0.3387
11067SOL     OW44854   8.974   5.198   6.732  0.1324 -0.3210  0.6811
11067SOL    HW144855   9.020   5.277   6.692 -0.3542 -0.5144 -0.2691
11067SOL    HW244856   9.021   5.114   6.703  0.5082 -0.3999  1.4988
11068SOL     OW44857   3.250   4.707   3.609  0.1564  0.1114  0.5284
11068SOL    HW144858   3.207   4.616   3.617 -0.6292  0.4636  0.3477
11068SOL    HW244859   3.185   4.771   3.569  0.0274  1.2362  2.4626
11069SOL     OW44860   2.620   3.194   1.288  0.1490 -0.3940  0.1674
11069SOL    HW144861   2.560   3.247   1.228 -2.1792 -0.9718  1.9035
11069SOL    HW244862   2.636   3.104   1.249 -1.7747 -0.9570  0.6141
11070SOL     OW44863   2.137   5.943   5.307 -0.4561 -0.7108 -0.2997
11070SOL    HW144864   2.054   5.915   5.260 -0.8858  0.3389 -0.1760
11070SOL    HW244865   2.215   5.937   5.245 -0.9616  0.3355 -1.0486
11071SOL     OW44866   7.460   7.690   6.945  0.1888 -0.0176 -0.0036
11071SOL    HW144867   7.468   7.591   6.933 -1.2493  0.0215 -1.3260
11071SOL    HW244868   7.403   7.729   6.873  0.5364  1.7556  0.6388
11072SOL     OW44869   0.404   3.259   2.826  0.4548 -0.3755 -0.1131
11072SOL    HW144870   0.475   3.189   2.825  1.3481  0.5264 -0.8370
11072SOL    HW244871   0.372   3.271   2.920  2.0601 -0.0170  0.4136
11073SOL     OW44872   3.026   3.576   1.922 -0.2157  0.2103  0.1463
11073SOL    HW144873   2.996   3.645   1.989  0.7391 -0.0948  0.8978
11073SOL    HW244874   2.991   3.601   1.832 -0.7834  1.1058  0.5960
11074SOL     OW44875   8.658   4.425   4.989 -0.1476 -0.7437  0.5323
11074SOL    HW144876   8.741   4.400   5.039  0.7651  1.1989  0.0499
11074SOL    HW244877   8.681   4.443   4.893 -0.8702  1.0792  0.6852
11075SOL     OW44878   2.601   0.589   7.720  0.0954  0.5424  0.2927
11075SOL    HW144879   2.614   0.510   7.660  0.4343 -0.2170  1.3304
11075SOL    HW244880   2.546   0.561   7.799  0.2079  1.3515  0.6624
11076SOL     OW44881   9.912   6.684   2.944  0.2804 -0.2657  0.0196
11076SOL    HW144882   9.998   6.634   2.953  1.0068  1.0015  0.3678
11076SOL    HW244883   9.925   6.777   2.979 -1.2244 -0.0569  0.0307
11077SOL     OW44884   3.485   9.336   3.863  0.0525 -0.3970  0.0500
11077SOL    HW144885   3.573   9.304   3.898  0.2196 -0.8619 -0.7724
11077SOL    HW244886   3.468   9.429   3.894  0.6114 -0.4859  0.6214
11078SOL     OW44887   8.597   0.293   7.308  0.2286  0.2631 -0.3666
11078SOL    HW144888   8.571   0.389   7.308 -1.8715 -0.2583 -2.0301
11078SOL    HW244889   8.544   0.244   7.239  1.5851 -2.0149  0.1399
11079SOL     OW44890   6.149   5.612   0.777 -0.4123  0.3027  0.4160
11079SOL    HW144891   6.139   5.594   0.679  0.8003 -0.0297  0.3503
11079SOL    HW244892   6.071   5.666   0.809 -0.4309  1.0671 -0.8845
11080SOL     OW44893   4.296   2.659   3.260  0.3107 -0.9198 -0.1401
11080SOL    HW144894   4.271   2.563   3.272  1.0379 -0.9743  1.0871
11080SOL    HW244895   4.276   2.709   3.345  2.6684 -0.6067  0.2776
11081SOL     OW44896   7.080   3.017   0.204 -0.3507 -0.1356 -0.6468
11081SOL    HW144897   7.064   3.075   0.283 -1.8086  1.5923 -2.1589
11081SOL    HW244898   7.071   3.071   0.120 -1.9824 -2.5646 -2.1197
11082SOL     OW44899   1.244   1.449   3.749  1.2027  0.1623  0.0784
11082SOL    HW144900   1.213   1.475   3.841 -0.2849  0.4333 -0.4939
11082SOL    HW244901   1.338   1.414   3.755  0.8009 -0.7029  1.8532
11083SOL     OW44902   7.151   5.591   0.853 -0.9597  0.0075  0.1469
11083SOL    HW144903   7.169   5.689   0.867  0.3445 -0.3716  1.2250
11083SOL    HW244904   7.114   5.577   0.761 -2.4324  1.6693  0.4564
11084SOL     OW44905   4.449   3.798   5.756  0.3818  0.4705  0.1844
11084SOL    HW144906   4.359   3.808   5.797  0.0477  0.0594 -0.4508
11084SOL    HW244907   4.443   3.740   5.675  1.2216  0.4073  0.1622
11085SOL     OW44908   9.963   4.432   0.881  0.0277  0.4609 -0.1833
11085SOL    HW144909  10.008   4.460   0.797 -1.2832 -0.7549 -1.3122
11085SOL    HW244910   9.866   4.414   0.863 -0.3994  0.7527  1.7031
11086SOL     OW44911   8.106   4.085   2.090 -0.1029  0.1309 -0.3674
11086SOL    HW144912   8.119   4.095   2.189 -2.2988 -0.0678 -0.0300
11086SOL    HW244913   8.182   4.032   2.052  0.7148  0.1167  1.2279
11087SOL     OW44914   4.846   9.895   7.747  0.1814 -0.3643 -0.2655
11087SOL    HW144915   4.940   9.896   7.713  0.2744  0.2488 -0.0008
11087SOL    HW244916   4.836   9.824   7.816  1.0165  0.9568  1.2492
11088SOL     OW44917   2.897   2.352   2.609 -0.2889 -1.1479 -0.5032
11088SOL    HW144918   2.952   2.345   2.691  3.0589  1.2043 -2.4097
11088SOL    HW244919   2.843   2.436   2.612  2.4117  0.7365 -2.0601
11089SOL     OW44920   2.381   0.522   7.904 -0.6550 -0.0749 -0.2536
11089SOL    HW144921   2.353   0.514   7.809 -2.0156  1.5479  0.0013
11089SOL    HW244922   2.301   0.525   7.963  0.1604 -0.2649  0.8876
11090SOL     OW44923   0.153   3.231   5.273 -0.2746  0.2553  0.6020
11090SOL    HW144924   0.191   3.322   5.279 -1.3715  0.7539  0.1790
11090SOL    HW244925   0.193   3.182   5.195 -1.4120  1.2203 -0.6089
11091SOL     OW44926   6.149   2.834   0.792 -0.1683 -0.2610  0.4078
11091SOL    HW144927   6.185   2.775   0.864  2.3266 -1.4217 -1.6986
11091SOL    HW244928   6.054   2.810   0.774  1.1878 -4.8170 -1.4033
11092SOL     OW44929   3.387   7.500   4.274  0.0003  0.2364  0.7280
11092SOL    HW144930   3.313   7.510   4.341 -2.4289 -2.2878 -1.4496
11092SOL    HW244931   3.377   7.568   4.202  0.5221  0.6728  1.0668
11093SOL     OW44932   7.908   3.509   1.387  0.0916 -0.4498  0.2369
11093SOL    HW144933   7.908   3.580   1.316  1.6006 -0.5085  0.1657
11093SOL    HW244934   7.941   3.548   1.473 -2.3292 -0.2181  1.0974
11094SOL     OW44935   2.303   7.336   5.546 -0.0512  0.1515 -0.2667
11094SOL    HW144936   2.324   7.433   5.532  0.1467  0.0535 -0.6774
11094SOL    HW244937   2.206   7.320   5.529 -0.1526  0.3363  0.1295
11095SOL     OW44938   8.432   8.504   5.745  0.2704  0.3430  0.3340
11095SOL    HW144939   8.441   8.527   5.648  0.1013  0.4896  0.3534
11095SOL    HW244940   8.483   8.570   5.800 -1.6789  1.7359  0.5058
11096SOL     OW44941   4.653   0.487   6.806 -0.6672 -0.2653  0.1964
11096SOL    HW144942   4.600   0.404   6.822 -0.5436 -0.7501 -1.7772
11096SOL    HW244943   4.749   0.462   6.795 -0.6078  0.1711 -0.2356
11097SOL     OW44944   0.929   2.993   7.737 -0.4105 -0.2137  0.3661
11097SOL    HW144945   0.982   3.064   7.783  1.4196 -0.4026 -1.3982
11097SOL    HW244946   0.987   2.945   7.671 -1.9156 -2.5960  0.7080
11098SOL     OW44947   6.355   7.431   3.836 -0.0846 -0.2823 -0.0266
11098SOL    HW144948   6.389   7.485   3.759  1.5755 -2.0700 -0.5907
11098SOL    HW244949   6.256   7.416   3.825 -0.1276  0.7265 -1.0363
11099SOL     OW44950   8.981   7.043   2.935 -0.0993 -0.0034  0.0282
11099SOL    HW144951   9.080   7.051   2.935 -0.2927  2.7826  1.3445
11099SOL    HW244952   8.946   7.055   2.842  0.6397  1.0228 -0.1113
11100SOL     OW44953   7.206   7.007   5.305  0.4977  0.2474 -0.2846
11100SOL    HW144954   7.108   7.004   5.288  0.3932 -2.0581  0.6065
11100SOL    HW244955   7.252   7.052   5.228 -1.0550 -0.2607 -1.5329
11101SOL     OW44956   5.759   4.418   7.900 -0.1437 -0.1357 -0.0130
11101SOL    HW144957   5.820   4.378   7.968 -0.3725  0.4186  0.5208
11101SOL    HW244958   5.681   4.461   7.945 -0.0045  0.7406 -0.5915
11102SOL     OW44959   8.746   1.261   4.189 -0.0900 -0.3537  0.7833
11102SOL    HW144960   8.749   1.206   4.105 -0.4566 -0.5376  0.8862
11102SOL    HW244961   8.673   1.227   4.248 -0.6666  0.5696  0.6203
11103SOL     OW44962   1.619   2.974   3.589  0.1214 -0.0201 -0.2129
11103SOL    HW144963   1.551   3.039   3.556 -2.1855 -2.6796 -0.8944
11103SOL    HW244964   1.622   2.976   3.689  0.2026  1.2457 -0.2358
11104SOL     OW44965   0.326   1.160   4.429  0.2395  0.0946  0.6409
11104SOL    HW144966   0.391   1.085   4.415 -0.0837  0.3239 -2.3953
11104SOL    HW244967   0.257   1.132   4.496  0.8133 -1.8777  0.4350
11105SOL     OW44968   0.123   1.457   3.591 -0.5434  0.4522  0.3694
11105SOL    HW144969   0.071   1.531   3.633 -1.6105  0.9956 -1.8053
11105SOL    HW244970   0.070   1.417   3.516  1.3346 -0.3272 -0.5881
11106SOL     OW44971   9.470   2.524   4.635 -0.6613  0.0903  0.3849
11106SOL    HW144972   9.412   2.582   4.579 -0.9270 -0.0882  0.4730
11106SOL    HW244973   9.435   2.522   4.729 -1.4709 -1.3283  0.0668
11107SOL     OW44974   8.310   9.718   6.665  0.0182 -0.5286  0.1167
11107SOL    HW144975   8.342   9.699   6.572 -0.8468 -0.9170 -0.1043
11107SOL    HW244976   8.303   9.631   6.715  0.9571 -0.2728  0.6986
11108SOL     OW44977   4.431   0.580   2.024 -0.4207  0.1198 -0.7287
11108SOL    HW144978   4.346   0.618   2.060 -0.4518 -1.0016  0.4211
11108SOL    HW244979   4.508   0.639   2.051 -0.6988  0.5060 -0.7798
11109SOL     OW44980   9.956   3.165   4.895 -0.3695  0.6062  0.1697
11109SOL    HW144981   9.930   3.203   4.807  0.3506  2.9308  0.9392
11109SOL    HW244982   9.887   3.188   4.963  0.5305  1.3244  0.8444
11110SOL     OW44983   1.927   0.708   4.115  0.1226  0.3174  0.0941
11110SOL    HW144984   2.021   0.703   4.082  0.5565  2.0559  0.9921
11110SOL    HW244985   1.866   0.662   4.050  1.7279 -2.0393  0.1866
11111SOL     OW44986   2.340   3.766   6.816 -0.2945 -0.0918 -0.1198
11111SOL    HW144987   2.256   3.761   6.762 -1.4905  0.6019  1.6193
11111SOL    HW244988   2.325   3.721   6.904  1.3663 -0.5194 -0.0439
11112SOL     OW44989   3.850   6.110   7.691 -0.2830  0.0606 -0.0037
11112SOL    HW144990   3.824   6.155   7.605 -0.0765 -0.5324 -0.3856
11112SOL    HW244991   3.862   6.178   7.763  0.9078  0.6930 -0.7900
11113SOL     OW44992   9.478   4.682   5.353  0.4815 -0.5470  0.1701
11113SOL    HW144993   9.471   4.782   5.352 -0.9897 -0.6406  0.5403
11113SOL    HW244994   9.574   4.656   5.365  0.7964  0.8190  0.7466
11114SOL     OW44995   8.675   3.522   4.800 -0.2588 -0.5457  0.1127
11114SOL    HW144996   8.700   3.607   4.753 -1.7424  0.8049  1.6784
11114SOL    HW244997   8.690   3.444   4.739  1.6668  0.7861 -1.1469
11115SOL     OW44998   9.541   5.119   2.577  0.8239  0.6036  0.4118
11115SOL    HW144999   9.467   5.102   2.642  0.2055 -0.4148 -0.5314
11115SOL    HW245000   9.530   5.058   2.498  2.4490  0.7212  0.0815
11116SOL     OW45001   8.609   8.109   5.325  0.3319  0.1594 -0.2755
11116SOL    HW145002   8.581   8.025   5.372  0.0003  0.4023 -0.0441
11116SOL    HW245003   8.547   8.184   5.349  1.6592  0.8953  0.8778
11117SOL     OW45004   3.506   1.770   7.577  0.2553 -0.2946 -0.0488
11117SOL    HW145005   3.428   1.768   7.515  0.2840  1.1701 -0.1332
11117SOL    HW245006   3.553   1.858   7.570  3.1169 -1.8789 -1.4632
11118SOL     OW45007   0.398   5.869   0.583  0.7169  0.1350 -0.1485
11118SOL    HW145008   0.409   5.793   0.519 -1.5078  0.6998 -1.2328
11118SOL    HW245009   0.330   5.845   0.653 -0.3223  1.2647 -0.7504
11119SOL     OW45010   1.866   1.719   3.535  0.1056 -0.4689 -0.5477
11119SOL    HW145011   1.816   1.657   3.596 -0.8770  1.4979  0.6789
11119SOL    HW245012   1.961   1.727   3.566 -0.7198  1.5589  1.5559
11120SOL     OW45013   1.078   1.822   4.303 -0.5732  0.0973  0.5562
11120SOL    HW145014   1.170   1.788   4.321 -0.7444  1.0913  3.6387
11120SOL    HW245015   1.083   1.911   4.258 -0.0469 -0.2857 -0.1446
11121SOL     OW45016   0.596   0.870   0.458 -0.3856  0.0316 -0.1431
11121SOL    HW145017   0.686   0.842   0.490 -0.6283  1.0222  1.4638
11121SOL    HW245018   0.537   0.888   0.537 -2.0643 -0.8401 -1.1723
11122SOL     OW45019   9.797   4.273   6.844  0.0907  0.1605 -0.3685
11122SOL    HW145020   9.818   4.349   6.783 -1.1093  0.1581 -0.7892
11122SOL    HW245021   9.736   4.304   6.917  1.5866  0.1884  0.9089
11123SOL     OW45022   5.845   0.347   6.422 -0.2342  0.4385  0.0746
11123SOL    HW145023   5.893   0.279   6.366 -0.4013 -1.0390  1.6910
11123SOL    HW245024   5.875   0.340   6.517 -1.8535  1.1544  0.6653
11124SOL     OW45025   3.209   0.602   6.257 -1.1596 -0.0831  0.2532
11124SOL    HW145026   3.116   0.572   6.273 -1.0151  0.0214  1.3326
11124SOL    HW245027   3.270   0.560   6.324 -0.6491  0.9451  0.4465
11125SOL     OW45028   6.885   7.528   5.939 -0.4572  0.4011  0.2175
11125SOL    HW145029   6.859   7.447   5.992  0.0269  1.2501  1.7984
11125SOL    HW245030   6.806   7.590   5.932 -0.4198  0.4551  0.2666
11126SOL     OW45031   3.556   4.875   7.720 -0.2103 -0.1028 -0.5078
11126SOL    HW145032   3.490   4.860   7.793  2.9607  0.9550  2.7442
11126SOL    HW245033   3.587   4.787   7.684 -0.6640 -0.7178  0.5662
11127SOL     OW45034   1.138   7.655   7.932 -0.0289  0.3356  0.3680
11127SOL    HW145035   1.219   7.698   7.892 -2.6048  3.4651 -1.7724
11127SOL    HW245036   1.121   7.692   8.023 -0.0515  0.9997  0.0935
11128SOL     OW45037   2.782   6.170   1.341 -0.2221  0.4902 -0.0606
11128SOL    HW145038   2.738   6.122   1.417 -0.1172  0.8049  0.1969
11128SOL    HW245039   2.808   6.103   1.271 -1.7135  0.3753 -0.5216
11129SOL     OW45040   3.893   6.670   1.157 -0.3023  0.6705 -0.2168
11129SOL    HW145041   3.987   6.689   1.127 -0.1778 -0.9767 -0.9320
11129SOL    HW245042   3.888   6.676   1.256  0.2517  2.0652 -0.2634
11130SOL     OW45043   0.748   0.701   2.807 -0.0818  0.5612  0.0701
11130SOL    HW145044   0.846   0.707   2.828  0.1205 -1.1008 -0.2849
11130SOL    HW245045   0.707   0.791   2.815  1.5321  1.3312 -0.0201
11131SOL     OW45046   9.444   6.914   0.179  0.4284 -0.1831 -0.1732
11131SOL    HW145047   9.474   6.819   0.186  1.8190  0.1176 -1.5621
11131SOL    HW245048   9.427   6.951   0.270 -1.9298 -2.3016  0.2880
11132SOL     OW45049   0.451   9.277   2.669  0.3659 -0.4805  0.3412
11132SOL    HW145050   0.362   9.287   2.625 -0.0116 -0.1551  1.1739
11132SOL    HW245051   0.521   9.321   2.613 -0.2898  1.0066  0.6567
11133SOL     OW45052   2.510   2.196   7.468 -0.1811 -0.2179  0.0558
11133SOL    HW145053   2.587   2.157   7.519 -0.3260  0.7376  1.0366
11133SOL    HW245054   2.439   2.223   7.532 -1.5877 -1.6185 -0.8936
11134SOL     OW45055   5.811   8.507   2.701  0.3066  0.3815  1.0961
11134SOL    HW145056   5.817   8.452   2.618  1.2681 -1.0542  2.0903
11134SOL    HW245057   5.832   8.449   2.781  1.5190  2.2442  2.1577
11135SOL     OW45058   9.998   4.759   8.108 -0.2297  0.1692  0.1383
11135SOL    HW145059  10.067   4.718   8.168  0.5202  0.2264 -0.6828
11135SOL    HW245060   9.907   4.735   8.141  0.1880 -0.6105  0.7386
11136SOL     OW45061   1.144   0.480   4.264 -0.1716  0.1007 -0.1986
11136SOL    HW145062   1.151   0.459   4.166 -1.4328 -1.3644 -0.0031
11136SOL    HW245063   1.224   0.445   4.312  0.9505  1.7369 -0.8384
11137SOL     OW45064   1.874   3.742   5.202 -0.6834 -0.2389  0.3027
11137SOL    HW145065   1.795   3.766   5.145 -0.3492  1.2927  0.4740
11137SOL    HW245066   1.946   3.810   5.190  1.0836 -2.2348 -0.7191
11138SOL     OW45067   8.471   6.970   5.629  0.3907 -0.5656  0.1646
11138SOL    HW145068   8.503   6.908   5.700 -0.0634 -0.2837  0.6133
11138SOL    HW245069   8.377   6.948   5.604  0.4770 -0.5316 -0.2039
11139SOL     OW45070   8.412   7.946   6.027 -0.0070 -0.1498 -0.1982
11139SOL    HW145071   8.461   7.875   5.977  0.1622 -0.2249  0.0738
11139SOL    HW245072   8.346   7.989   5.966 -0.3646 -0.7845 -0.2614
11140SOL     OW45073   7.636   8.653   2.362  0.9145 -0.5849 -0.8320
11140SOL    HW145074   7.595   8.693   2.444 -1.1582  0.3372 -2.2910
11140SOL    HW245075   7.659   8.557   2.381 -1.7215 -1.0746  0.1240
11141SOL     OW45076   3.134   3.798   4.050  0.0052  0.8977  0.2289
11141SOL    HW145077   3.066   3.725   4.056  1.4552 -0.6630 -1.3117
11141SOL    HW245078   3.127   3.858   4.129 -2.7768  0.4542  0.3571
11142SOL     OW45079   9.324   8.726   5.511 -0.7665  0.5698 -0.3268
11142SOL    HW145080   9.251   8.677   5.557 -0.8589  0.0367 -1.0413
11142SOL    HW245081   9.332   8.694   5.417  0.2707  0.7451 -0.3061
11143SOL     OW45082   5.590   9.383   2.524 -0.1713  0.0382  0.1190
11143SOL    HW145083   5.599   9.324   2.604  0.0338  0.2203  0.2305
11143SOL    HW245084   5.619   9.332   2.442 -1.2514 -0.4510  0.0301
11144SOL     OW45085   8.663   2.167   6.003  0.4449  0.0833  0.2662
11144SOL    HW145086   8.661   2.190   6.100  0.9065 -2.2763  0.8757
11144SOL    HW245087   8.595   2.096   5.983 -0.4421  1.3533 -1.3804
11145SOL     OW45088   3.551   5.519   1.642 -0.1695  0.5258 -0.3377
11145SOL    HW145089   3.507   5.609   1.633 -1.9639 -0.4108 -1.2290
11145SOL    HW245090   3.568   5.481   1.551 -2.3410 -1.3846 -0.0048
11146SOL     OW45091   2.223   9.516   1.346  0.2949  0.0630 -0.0957
11146SOL    HW145092   2.302   9.515   1.407  1.5363  2.0949 -1.5918
11146SOL    HW245093   2.244   9.465   1.263  0.1566  0.8609 -0.6272
11147SOL     OW45094   9.520   4.890   2.961  0.3661  0.0641 -0.0995
11147SOL    HW145095   9.522   4.791   2.972 -2.7548 -0.2600 -1.7665
11147SOL    HW245096   9.546   4.914   2.867  0.2215  0.7500  0.0295
11148SOL     OW45097   3.289   8.432   3.354 -0.1093 -0.4176 -0.1042
11148SOL    HW145098   3.307   8.390   3.443 -0.8511 -2.3285 -0.8316
11148SOL    HW245099   3.310   8.530   3.358 -0.7191 -0.3663  2.3349
11149SOL     OW45100   2.794   7.764   6.444 -0.0272  0.1541  0.0248
11149SOL    HW145101   2.866   7.814   6.491 -0.4799  1.6795 -0.8831
11149SOL    HW245102   2.800   7.781   6.346 -1.7613  0.4960 -0.0401
11150SOL     OW45103   6.722   2.150   3.910 -0.3647  0.6183 -0.0709
11150SOL    HW145104   6.759   2.194   3.828 -0.5250  0.0898 -0.4282
11150SOL    HW245105   6.756   2.056   3.915  1.0169  1.1641  1.3716
11151SOL     OW45106   3.582   1.270   0.536 -0.4104  0.3986  0.2847
11151SOL    HW145107   3.539   1.285   0.624 -0.9965  0.3521  0.0062
11151SOL    HW245108   3.550   1.339   0.471 -2.3025 -1.3960 -0.7171
11152SOL     OW45109   3.080   4.480   4.190 -0.3391  0.1617 -0.1244
11152SOL    HW145110   3.072   4.547   4.117 -0.9456  2.6327  2.1607
11152SOL    HW245111   3.176   4.464   4.212 -0.2086  0.5776 -0.4094
11153SOL     OW45112   5.350   1.690   1.783 -0.2112  0.0339  0.5353
11153SOL    HW145113   5.272   1.629   1.798 -1.5486  1.8815  1.3443
11153SOL    HW245114   5.319   1.775   1.741  1.3382  0.8952  1.0717
11154SOL     OW45115   3.710   3.786   5.005 -0.1021  0.2251  0.1092
11154SOL    HW145116   3.733   3.715   5.071 -0.4226 -0.9385 -0.9998
11154SOL    HW245117   3.653   3.856   5.049 -1.1077 -1.0178  0.8368
11155SOL     OW45118   9.649   9.585   6.891 -0.1960  0.0391  0.5484
11155SOL    HW145119   9.589   9.628   6.959 -2.2482 -1.6685 -0.1286
11155SOL    HW245120   9.678   9.496   6.925  1.3484  0.5073  0.5086
11156SOL     OW45121   4.759   3.737   7.492  0.3886 -0.9108  0.0321
11156SOL    HW145122   4.849   3.700   7.467  0.8865  0.2726  0.0719
11156SOL    HW245123   4.770   3.817   7.550 -0.6771 -0.0365 -0.9587
11157SOL     OW45124   7.544   6.601   1.420 -0.0028  0.2790  0.4163
11157SOL    HW145125   7.555   6.512   1.463 -0.7461  1.4115  3.0100
11157SOL    HW245126   7.449   6.611   1.389 -0.1842  0.5959  1.0814
11158SOL     OW45127   3.435   4.904   6.669  0.3018  0.1847 -0.0983
11158SOL    HW145128   3.474   4.968   6.603 -0.4146 -1.4309 -2.1291
11158SOL    HW245129   3.477   4.919   6.759 -0.7147  4.2777 -0.2197
11159SOL     OW45130   4.386   1.696   4.832  0.7398 -0.1667 -0.3248
11159SOL    HW145131   4.323   1.762   4.790 -2.1528 -1.3409  1.9881
11159SOL    HW245132   4.366   1.688   4.930  1.8155 -3.6002 -0.3107
11160SOL     OW45133   9.847   7.436   1.939  0.7044 -0.0456 -0.3913
11160SOL    HW145134   9.767   7.482   1.900  0.4917 -0.0112  0.0793
11160SOL    HW245135   9.818   7.377   2.015  1.2806  0.9316  0.5964
11161SOL     OW45136   3.937   4.513   5.446 -0.6176 -0.5474  0.3366
11161SOL    HW145137   3.984   4.550   5.367 -0.7744  0.0497  0.5235
11161SOL    HW245138   3.881   4.435   5.418 -0.9298 -0.1331 -0.1955
11162SOL     OW45139   3.773   3.598   2.507  0.3106 -0.4143  0.5751
11162SOL    HW145140   3.693   3.636   2.462  1.0893  1.3064  0.6194
11162SOL    HW245141   3.756   3.590   2.605 -0.1991 -1.1118  0.4354
11163SOL     OW45142   8.954   4.848   0.161  0.0420  0.4066  0.2694
11163SOL    HW145143   8.872   4.816   0.112  1.2269 -2.0358 -0.1901
11163SOL    HW245144   8.939   4.839   0.259 -0.3067  0.1400  0.1946
11164SOL     OW45145   1.195   4.354   6.087  0.2017  0.5754 -0.2811
11164SOL    HW145146   1.270   4.386   6.145  1.2364  0.7001 -1.6711
11164SOL    HW245147   1.119   4.323   6.145 -0.1407  3.8413  1.1463
11165SOL     OW45148   4.998   1.136   3.440 -0.0530 -0.5170 -0.6816
11165SOL    HW145149   5.077   1.171   3.490 -0.1964  1.0793 -1.5099
11165SOL    HW245150   4.917   1.139   3.500 -0.0094  0.3793 -0.6495
11166SOL     OW45151   5.782   1.514   4.876 -0.2317 -0.5206  0.1127
11166SOL    HW145152   5.706   1.451   4.890 -0.8550  0.4309  1.0805
11166SOL    HW245153   5.810   1.553   4.964  0.6434 -0.0374 -0.3781
11167SOL     OW45154   9.682   5.410   5.697 -0.3152 -0.3784  1.0371
11167SOL    HW145155   9.745   5.393   5.773 -0.6007  2.5287  1.9954
11167SOL    HW245156   9.590   5.383   5.724 -0.1691 -0.7185  1.1976
11168SOL     OW45157   4.553   3.842   7.866 -0.1795  0.2100  0.9479
11168SOL    HW145158   4.611   3.862   7.787  0.3673  0.6915  1.4645
11168SOL    HW245159   4.520   3.748   7.860 -1.3949  0.7161 -0.6347
11169SOL     OW45160   9.257   8.955   1.401  0.0898  0.0201 -0.3957
11169SOL    HW145161   9.175   8.929   1.350  0.3558  0.7098 -1.1856
11169SOL    HW245162   9.230   9.009   1.481 -0.4931 -2.8990  1.4692
11170SOL     OW45163   3.220   7.178   1.507  0.2751  0.3830 -0.1048
11170SOL    HW145164   3.241   7.125   1.425  2.3414  2.0595 -0.7003
11170SOL    HW245165   3.266   7.136   1.586 -1.4481 -1.0388  0.1863
11171SOL     OW45166   3.817   8.609   4.396  0.0779 -0.3439 -0.0562
11171SOL    HW145167   3.882   8.665   4.446  0.5652 -0.7274 -0.2467
11171SOL    HW245168   3.799   8.650   4.306  1.0881 -0.9321 -0.5324
11172SOL     OW45169   1.849   9.880   0.678  0.0618 -0.2770  0.0909
11172SOL    HW145170   1.890   9.963   0.715 -1.7701  1.0053 -0.6970
11172SOL    HW245171   1.787   9.904   0.603 -0.6239 -2.3378 -0.0248
11173SOL     OW45172   4.928   1.912   7.909  0.6807  0.2533 -0.3907
11173SOL    HW145173   4.937   1.812   7.910  1.8649  0.3631  0.0896
11173SOL    HW245174   5.017   1.953   7.890  0.0631  1.2035 -1.2648
11174SOL     OW45175   9.002   4.479   1.898 -1.4639  0.9229  0.1928
11174SOL    HW145176   9.023   4.550   1.966  0.3151  1.6169 -1.0449
11174SOL    HW245177   9.050   4.395   1.921 -1.7183  0.8220  0.3671
11175SOL     OW45178   8.628   2.610   3.426 -0.2282  0.1140  1.0548
11175SOL    HW145179   8.648   2.517   3.456 -0.9735 -0.1938  0.6001
11175SOL    HW245180   8.573   2.608   3.342  1.9839  0.9611 -0.4604
11176SOL     OW45181   4.518   3.841   2.738 -0.6974  0.0155  0.1385
11176SOL    HW145182   4.598   3.803   2.691 -0.6622 -0.9584  0.9849
11176SOL    HW245183   4.532   3.939   2.752 -0.1671  0.0752 -0.7683
11177SOL     OW45184   8.065   1.358   3.366  0.1830 -0.0831  0.1458
11177SOL    HW145185   8.078   1.285   3.433 -0.1995 -0.0489  0.2595
11177SOL    HW245186   8.041   1.318   3.278 -3.1227  0.0058  0.9420
11178SOL     OW45187   7.278   0.218   3.791 -0.1740  0.4348  1.1374
11178SOL    HW145188   7.333   0.292   3.752 -0.6386  0.3889  0.3933
11178SOL    HW245189   7.188   0.254   3.816 -0.1785  0.2639  1.3712
11179SOL     OW45190   9.491   8.365   2.852 -0.1053  0.1239  0.3116
11179SOL    HW145191   9.487   8.303   2.931  0.9292  0.7941  0.9078
11179SOL    HW245192   9.519   8.314   2.771 -2.0082 -0.7482  0.1697
11180SOL     OW45193   4.805   1.006   7.629 -0.3201  0.5346  0.2400
11180SOL    HW145194   4.723   1.056   7.602 -0.2616 -0.0221 -1.0361
11180SOL    HW245195   4.866   1.066   7.680 -1.2507  1.1223  0.6640
11181SOL     OW45196   0.927   6.135   6.721 -0.4410  0.3125  0.0852
11181SOL    HW145197   0.942   6.045   6.680  0.3315  0.3601  0.2426
11181SOL    HW245198   1.015   6.172   6.753 -0.9344  0.6075  1.0992
11182SOL     OW45199   9.424   3.656   5.330 -0.0002  0.3174  0.5003
11182SOL    HW145200   9.436   3.571   5.279  0.4993 -0.5516  2.0301
11182SOL    HW245201   9.508   3.710   5.323  0.3882 -0.1972  1.1072
11183SOL     OW45202   9.056   1.791   7.516 -0.0040 -0.0736  0.2698
11183SOL    HW145203   9.155   1.794   7.533  0.1775 -0.2230 -0.7402
11183SOL    HW245204   9.032   1.701   7.478 -0.4558  0.1297  0.0773
11184SOL     OW45205   4.637   1.886   1.452 -0.1668 -0.1684 -0.4793
11184SOL    HW145206   4.540   1.887   1.429 -0.3224 -0.3327  0.1538
11184SOL    HW245207   4.662   1.974   1.493 -0.6105 -0.9929  1.6115
11185SOL     OW45208   4.265   4.035   3.782 -0.1397  0.4325 -0.3645
11185SOL    HW145209   4.251   4.044   3.683  0.5511  0.4867 -0.4642
11185SOL    HW245210   4.203   3.966   3.819  0.6813 -0.7357 -1.1137
11186SOL     OW45211   8.350   1.554   4.555 -0.2562  0.4506 -0.0314
11186SOL    HW145212   8.424   1.532   4.492 -1.5572  0.5932 -1.6382
11186SOL    HW245213   8.279   1.483   4.549 -0.7184  0.8366  0.7592
11187SOL     OW45214   7.484   2.923   4.786  0.2350  0.1868  0.3123
11187SOL    HW145215   7.403   2.949   4.734 -0.1230 -0.5608  0.4815
11187SOL    HW245216   7.516   3.002   4.839  0.5023  0.8960 -0.8914
11188SOL     OW45217   9.549   8.631   7.334  0.2875 -0.1565 -0.1566
11188SOL    HW145218   9.644   8.632   7.364  0.4557  0.3978 -0.6967
11188SOL    HW245219   9.527   8.718   7.290 -0.3631 -0.4206 -0.3624
11189SOL     OW45220   0.228   5.673   3.823 -0.1810 -0.2258  0.4402
11189SOL    HW145221   0.162   5.617   3.872  0.5285 -1.2281  0.2687
11189SOL    HW245222   0.320   5.637   3.837  0.2252  0.5625 -0.1316
11190SOL     OW45223   8.721   3.844   7.731 -0.3901 -0.1325  0.2402
11190SOL    HW145224   8.728   3.797   7.819  1.0853 -1.0593 -0.3509
11190SOL    HW245225   8.672   3.786   7.666  1.7542 -1.0519 -0.5976
11191SOL     OW45226   8.084   1.274   5.628  0.0481  0.5909  0.3881
11191SOL    HW145227   8.091   1.208   5.702 -0.2255  1.0412  0.8137
11191SOL    HW245228   8.066   1.365   5.665  3.2187  1.4402  0.0105
11192SOL     OW45229   0.499   8.595   0.343 -0.6149  0.3372 -0.5607
11192SOL    HW145230   0.419   8.537   0.330 -1.2468  0.9975  0.3615
11192SOL    HW245231   0.471   8.690   0.348  0.2885  0.6178 -0.7624
11193SOL     OW45232   0.714   6.699   2.467  0.1110  0.1577 -0.1496
11193SOL    HW145233   0.724   6.600   2.480 -0.3986  0.4295  2.6385
11193SOL    HW245234   0.802   6.738   2.440  0.7631 -0.8266  0.5014
11194SOL     OW45235   2.569   0.586   5.178  0.1397 -0.0134 -0.1144
11194SOL    HW145236   2.474   0.605   5.205  0.0972 -0.2870 -0.0767
11194SOL    HW245237   2.613   0.528   5.246  0.2476 -0.1216 -0.2766
11195SOL     OW45238   1.244   5.064   0.391 -0.3383 -0.0960 -0.1196
11195SOL    HW145239   1.220   5.103   0.480  0.7089 -0.4840  0.3420
11195SOL    HW245240   1.200   4.975   0.381 -1.2386  0.3736 -0.4023
11196SOL     OW45241   2.310   9.061   1.769 -0.1775 -0.0487 -0.2839
11196SOL    HW145242   2.323   9.097   1.677  1.1496 -0.5511 -0.3005
11196SOL    HW245243   2.215   9.030   1.780 -0.5814  0.8745 -1.1664
11197SOL     OW45244   3.662   3.671   7.852  0.0479 -0.1798 -0.2129
11197SOL    HW145245   3.569   3.636   7.838 -0.3522  0.2581  1.2271
11197SOL    HW245246   3.703   3.693   7.764 -1.9091  1.3718 -0.7707
11198SOL     OW45247   9.819   4.435   2.841 -0.2717  0.1167 -0.1253
11198SOL    HW145248   9.826   4.376   2.761  0.4369 -1.2678  0.9492
11198SOL    HW245249   9.732   4.483   2.840 -0.5729 -0.4599 -1.3405
11199SOL     OW45250   1.468   2.999   2.685  0.3450 -0.8854  0.0525
11199SOL    HW145251   1.431   3.067   2.621  0.3538 -0.2292  0.7389
11199SOL    HW245252   1.425   3.011   2.774 -0.2349 -2.3090 -0.0289
11200SOL     OW45253   9.140   6.592   3.390 -0.2854 -0.4901  0.1242
11200SOL    HW145254   9.214   6.653   3.360  0.2788 -0.5408  1.4087
11200SOL    HW245255   9.052   6.639   3.381 -0.1222 -0.4674 -1.5105
11201SOL     OW45256   0.135   1.006   4.147  0.6365  0.2293  0.3563
11201SOL    HW145257   0.123   1.084   4.209  3.4984  0.3369  0.8724
11201SOL    HW245258   0.214   0.951   4.178  0.0211 -1.6325 -1.2658
11202SOL     OW45259   1.167   2.659   0.959 -0.0506  0.2346 -0.2268
11202SOL    HW145260   1.205   2.620   0.875  1.6743 -0.4481  0.8576
11202SOL    HW245261   1.186   2.598   1.036 -1.2324  1.0682  0.7471
11203SOL     OW45262   9.681   1.210   1.704 -0.0215 -0.0497 -0.0438
11203SOL    HW145263   9.757   1.201   1.640 -1.2443 -0.3327 -1.4873
11203SOL    HW245264   9.637   1.121   1.715  0.0482  0.0469  1.0301
11204SOL     OW45265   6.070   1.506   0.018 -0.0971 -0.0242 -0.1280
11204SOL    HW145266   6.158   1.525  -0.024 -0.0719 -0.0958 -0.1075
11204SOL    HW245267   5.996   1.533  -0.044 -0.0642  0.8168  0.1914
11205SOL     OW45268   1.481   7.045   5.233 -0.3068 -0.0087 -0.6743
11205SOL    HW145269   1.532   7.000   5.160  0.4581  0.6980 -0.5836
11205SOL    HW245270   1.385   7.053   5.206 -0.3936 -1.4128 -0.8114
11206SOL     OW45271   0.746   0.519   7.795  0.0440 -0.0046  0.1135
11206SOL    HW145272   0.697   0.496   7.711 -2.5696  2.4045  0.9071
11206SOL    HW245273   0.704   0.471   7.872  3.1714 -3.1501  0.0066
11207SOL     OW45274   4.053   1.578   3.485 -0.0115 -0.4841 -0.5383
11207SOL    HW145275   4.115   1.512   3.528 -0.3521 -1.4872 -1.5705
11207SOL    HW245276   4.020   1.541   3.399 -1.1063  0.5651 -0.5755
11208SOL     OW45277   9.201   0.635   5.574 -0.0916  0.5439  0.3272
11208SOL    HW145278   9.186   0.665   5.668  0.8865 -0.3677  0.7889
11208SOL    HW245279   9.116   0.641   5.523 -0.9767 -0.3875  1.6821
11209SOL     OW45280   5.958   0.240   2.286  0.2158  0.4387  0.4198
11209SOL    HW145281   5.950   0.167   2.217 -0.2182 -0.3057  1.2390
11209SOL    HW245282   6.042   0.227   2.338  1.3172  1.8829 -0.9450
11210SOL     OW45283   7.185   8.229   3.093 -0.4863 -0.3791 -0.0330
11210SOL    HW145284   7.088   8.204   3.096 -0.4679 -0.4793 -0.3003
11210SOL    HW245285   7.228   8.185   3.015 -0.3316  0.0621 -0.1964
11211SOL     OW45286   6.870   4.352   1.201  0.6442  0.6114 -0.5954
11211SOL    HW145287   6.817   4.362   1.116  1.9365  3.3381 -1.1381
11211SOL    HW245288   6.880   4.441   1.244  2.6519 -0.2712  0.8184
11212SOL     OW45289   4.611   9.047   1.114 -0.2105  0.3541 -0.1379
11212SOL    HW145290   4.620   8.975   1.183 -1.0151 -0.3448 -0.7624
11212SOL    HW245291   4.523   9.092   1.125 -1.3482 -1.2966 -2.1707
11213SOL     OW45292   7.629   4.463   0.569 -0.2675 -0.6585  0.2095
11213SOL    HW145293   7.644   4.493   0.475 -0.6483 -0.8478  0.0852
11213SOL    HW245294   7.533   4.477   0.593 -0.4203 -1.6362  0.1934
11214SOL     OW45295   9.947   2.736   7.039 -0.4506 -0.2177  0.2030
11214SOL    HW145296   9.899   2.717   6.953 -1.2172  0.0496  0.5696
11214SOL    HW245297  10.046   2.727   7.024 -0.4271  2.0445 -1.2768
11215SOL     OW45298   0.164   6.713   1.313 -0.3194 -0.4697 -0.3764
11215SOL    HW145299   0.077   6.746   1.350 -0.7708 -0.9348 -1.0257
11215SOL    HW245300   0.239   6.757   1.362 -0.9171  0.3008 -0.1384
11216SOL     OW45301   1.407   2.780   4.511  0.2938  0.6629 -0.1638
11216SOL    HW145302   1.377   2.861   4.459 -0.5082  0.9165  0.6689
11216SOL    HW245303   1.445   2.810   4.598  2.3994  0.2901 -0.9303
11217SOL     OW45304   8.962   5.626   8.086 -0.7970 -0.1299 -0.1648
11217SOL    HW145305   8.868   5.608   8.115 -0.0334  0.4649  2.9143
11217SOL    HW245306   8.976   5.725   8.079 -0.3515 -0.2123 -0.4273
11218SOL     OW45307   0.293   9.477   2.507 -0.1227 -0.2655  0.1770
11218SOL    HW145308   0.373   9.522   2.546  0.6367  0.6809 -2.3955
11218SOL    HW245309   0.313   9.448   2.413 -1.8396 -2.6296  0.4850
11219SOL     OW45310   9.800   6.479   1.802 -0.3568  0.8278  0.0482
11219SOL    HW145311   9.705   6.450   1.808 -0.1856  0.6242  2.4120
11219SOL    HW245312   9.806   6.578   1.813 -0.2787  0.8110  0.1598
11220SOL     OW45313   1.385   3.160   0.697 -0.1556 -0.4579 -0.3601
11220SOL    HW145314   1.381   3.083   0.633  0.2586  1.3091 -2.5842
11220SOL    HW245315   1.405   3.244   0.646  0.5090  0.9491  2.1653
11221SOL     OW45316   0.520   0.670   5.553 -0.1556 -0.1301 -0.4276
11221SOL    HW145317   0.422   0.690   5.554 -0.5345 -1.9332  0.5031
11221SOL    HW245318   0.571   0.753   5.532 -1.7706  1.3457  1.3014
11222SOL     OW45319   3.041   2.809   1.837  0.1776  0.3623 -0.5596
11222SOL    HW145320   3.099   2.739   1.879  0.4482  1.0577  0.2218
11222SOL    HW245321   3.016   2.877   1.906 -3.6882 -1.3002 -0.1968
11223SOL     OW45322   5.662   7.728   3.801 -0.4673 -0.0676  0.0723
11223SOL    HW145323   5.636   7.800   3.735 -1.6806 -2.0705 -1.7257
11223SOL    HW245324   5.595   7.726   3.875  0.2461  1.4252  0.7835
11224SOL     OW45325   1.345   4.884   6.029  0.3448 -0.1343  0.0726
11224SOL    HW145326   1.288   4.822   5.975 -0.5460  0.9108 -0.1915
11224SOL    HW245327   1.354   4.971   5.981  1.4782  0.0043  0.5148
11225SOL     OW45328   9.733   5.334   3.567 -0.2086  0.0881  0.4438
11225SOL    HW145329   9.791   5.397   3.515  0.7270 -1.5393 -0.5413
11225SOL    HW245330   9.720   5.250   3.514 -0.3037 -1.1046  2.3134
11226SOL     OW45331   5.296   0.771   7.392 -0.3109  0.4468  0.1883
11226SOL    HW145332   5.202   0.764   7.425 -0.0036 -1.1597  0.7889
11226SOL    HW245333   5.296   0.809   7.300 -1.6178 -0.2311 -0.1051
11227SOL     OW45334   3.358   2.202   5.595  0.2423  0.0634 -0.4648
11227SOL    HW145335   3.423   2.241   5.661  2.1537 -1.2364 -1.5492
11227SOL    HW245336   3.343   2.267   5.521  1.0913 -0.0463 -0.7310
11228SOL     OW45337   3.725   2.699   6.265  0.4822 -0.1956  0.0343
11228SOL    HW145338   3.807   2.741   6.304  0.1292 -1.2110  1.9099
11228SOL    HW245339   3.649   2.763   6.271  0.8593  0.3190 -0.6449
11229SOL     OW45340   5.941   0.650   4.521  0.7453  0.7251 -0.1972
11229SOL    HW145341   6.013   0.597   4.475  3.1563  2.2781  1.6943
11229SOL    HW245342   5.901   0.595   4.594 -1.1147 -0.6958 -2.1996
11230SOL     OW45343   9.008   6.056   4.898 -0.1036 -0.2115  0.1442
11230SOL    HW145344   9.028   6.064   4.996 -0.8939  0.6864  0.2442
11230SOL    HW245345   8.912   6.032   4.885 -0.2894  0.7762 -0.4191
11231SOL     OW45346   1.735   1.664   7.360 -0.3571  0.4462 -0.7123
11231SOL    HW145347   1.829   1.635   7.342  0.4912  2.7397 -0.0883
11231SOL    HW245348   1.706   1.729   7.290 -1.3531  0.0596 -0.6667
11232SOL     OW45349   2.365   6.384   1.060 -0.3744 -0.1422 -0.5600
11232SOL    HW145350   2.271   6.417   1.056 -0.9996 -2.0818 -2.2297
11232SOL    HW245351   2.373   6.315   1.132  0.3191  1.5834  1.0817
11233SOL     OW45352   4.683   8.312   5.931  0.2470 -0.1897  0.1033
11233SOL    HW145353   4.670   8.253   6.011 -2.1218  1.0318  0.6471
11233SOL    HW245354   4.656   8.405   5.953  1.5013  0.5938 -1.5475
11234SOL     OW45355   7.297   6.919   6.385  0.3397  0.4101  0.6865
11234SOL    HW145356   7.242   7.003   6.391 -0.8098 -0.3339  0.7667
11234SOL    HW245357   7.340   6.901   6.473  0.0553  0.5553  0.8560
11235SOL     OW45358   5.273   8.951   6.078  0.0506 -0.0173  0.3477
11235SOL    HW145359   5.346   8.909   6.131  0.4205 -0.4388 -0.4827
11235SOL    HW245360   5.186   8.904   6.097  0.2519 -0.4113  0.3051
11236SOL     OW45361   1.096   6.201   3.540  0.4782 -0.2708  0.0442
11236SOL    HW145362   1.032   6.203   3.464  0.0819 -1.0333  0.3628
11236SOL    HW245363   1.098   6.291   3.584 -0.9990 -0.4805  0.5588
11237SOL     OW45364   1.352   8.410   1.345  0.2470  0.1802 -0.0236
11237SOL    HW145365   1.446   8.400   1.312  0.6491  1.2890  0.7753
11237SOL    HW245366   1.345   8.378   1.439 -0.2492 -0.1347 -0.1593
11238SOL     OW45367   2.803   5.703   5.129 -0.1103  0.2003  0.3966
11238SOL    HW145368   2.773   5.617   5.087 -0.1367  0.5491 -0.2908
11238SOL    HW245369   2.874   5.683   5.197 -2.3752 -0.7129  2.5990
11239SOL     OW45370   3.828   8.996   3.129  0.1039 -0.1751  0.1107
11239SOL    HW145371   3.832   9.096   3.129 -0.7457 -0.1144  1.9152
11239SOL    HW245372   3.778   8.965   3.048  0.3704  0.8488 -0.4631
11240SOL     OW45373   1.667   2.918   8.038 -0.5177  0.4918 -0.4801
11240SOL    HW145374   1.733   2.991   8.057 -0.6955 -0.0614  2.4911
11240SOL    HW245375   1.581   2.938   8.086 -0.8853 -1.1979 -0.4272
11241SOL     OW45376   6.189   7.716   3.333  0.1905  0.4071  0.1655
11241SOL    HW145377   6.154   7.692   3.242 -1.1295 -2.5033  1.3778
11241SOL    HW245378   6.279   7.759   3.324 -0.3090  0.9849 -2.5422
11242SOL     OW45379   7.168   6.165   7.205 -0.0043 -0.7184 -0.2192
11242SOL    HW145380   7.159   6.199   7.299 -0.9529 -0.1801 -0.5042
11242SOL    HW245381   7.173   6.243   7.142 -2.2233 -1.0840 -0.8785
11243SOL     OW45382   4.775   7.560   2.634 -0.3368 -0.4669  0.0224
11243SOL    HW145383   4.856   7.619   2.639 -0.4750 -0.1664 -1.1386
11243SOL    HW245384   4.701   7.609   2.588 -1.1598 -0.7750  0.9883
11244SOL     OW45385   6.958   1.581   1.903 -0.1212 -0.5523 -0.7923
11244SOL    HW145386   6.895   1.658   1.902  0.1938 -0.2957 -0.8824
11244SOL    HW245387   7.020   1.590   1.981 -0.8714 -1.3554 -0.0822
11245SOL     OW45388   7.175   8.433   6.577 -0.3098  0.0154 -0.3227
11245SOL    HW145389   7.142   8.355   6.629  0.6090 -0.8247 -0.9637
11245SOL    HW245390   7.166   8.516   6.631  0.4710 -0.8121  1.1135
11246SOL     OW45391   8.198   8.113   6.407  0.0012  0.2677  0.6494
11246SOL    HW145392   8.167   8.029   6.362 -0.3007 -0.3822  2.0732
11246SOL    HW245393   8.287   8.098   6.450  0.8797  1.2496 -0.7632
11247SOL     OW45394   6.854   5.757   0.772 -0.1717  0.3232 -0.4396
11247SOL    HW145395   6.780   5.806   0.725 -0.7272 -0.5938 -0.5318
11247SOL    HW245396   6.896   5.692   0.708  0.4552  0.5642 -0.2732
11248SOL     OW45397   7.130   8.293   5.187  0.2044 -0.1820 -0.0997
11248SOL    HW145398   7.078   8.374   5.162 -0.3551 -1.0135 -1.6845
11248SOL    HW245399   7.075   8.235   5.247 -0.0102 -0.1707 -0.2858
11249SOL     OW45400   5.866   0.406   2.889 -0.2655 -0.0044 -0.3114
11249SOL    HW145401   5.812   0.328   2.920 -0.2799 -0.3904 -1.3006
11249SOL    HW245402   5.891   0.462   2.968  0.1235 -1.2418  0.4611
11250SOL     OW45403   0.058   9.825   5.572 -0.5851 -0.8911 -0.0329
11250SOL    HW145404   0.104   9.738   5.589 -2.1307 -2.0304 -1.4861
11250SOL    HW245405   0.030   9.830   5.477 -1.5486  0.6981  0.3152
11251SOL     OW45406   5.955   0.488   5.561  0.0798  0.2032  0.2920
11251SOL    HW145407   5.978   0.559   5.628 -2.7308  1.4203  0.0385
11251SOL    HW245408   5.867   0.446   5.586  1.3944 -2.7756  0.0820
11252SOL     OW45409   1.185   4.865   2.920 -0.6088  0.6244 -0.2946
11252SOL    HW145410   1.183   4.905   2.828  0.2776 -0.7599 -0.9456
11252SOL    HW245411   1.200   4.766   2.912  1.4720  0.7806  1.4030
11253SOL     OW45412   4.274   3.191   0.163  0.1993 -0.2087 -0.8585
11253SOL    HW145413   4.359   3.244   0.172  0.0010 -0.0050 -0.1740
11253SOL    HW245414   4.199   3.241   0.204 -0.0903 -0.7906 -0.6710
11254SOL     OW45415   2.871   3.663   1.700 -0.0722  0.3105  0.0702
11254SOL    HW145416   2.862   3.761   1.717  0.3980  0.5229 -0.9079
11254SOL    HW245417   2.801   3.634   1.636  1.3350  0.4976 -1.5905
11255SOL     OW45418   7.646   6.439   2.082 -0.3145  0.0202 -0.1242
11255SOL    HW145419   7.686   6.459   2.172 -1.3148  0.8258  0.1521
11255SOL    HW245420   7.659   6.517   2.021 -3.0309  1.0402  0.5340
11256SOL     OW45421   9.096   1.864   5.601  0.7645 -0.1155  0.2409
11256SOL    HW145422   9.036   1.886   5.524  2.7866  0.5742 -1.1913
11256SOL    HW245423   9.050   1.887   5.687 -0.5410  1.5873 -0.8637
11257SOL     OW45424   9.100   7.553   5.474 -0.4425 -0.0521 -0.8032
11257SOL    HW145425   9.187   7.505   5.485 -0.4293 -0.0112 -0.7372
11257SOL    HW245426   9.078   7.560   5.377 -0.9854 -1.1695 -0.7692
11258SOL     OW45427   6.221   0.598   2.782 -0.0578  0.3174  0.2621
11258SOL    HW145428   6.312   0.589   2.740 -0.0934  1.9155 -0.1611
11258SOL    HW245429   6.167   0.517   2.760 -0.3093  1.3930 -3.3769
11259SOL     OW45430   8.188   4.401   7.502 -0.2779 -0.4409  0.2795
11259SOL    HW145431   8.217   4.493   7.475 -0.2403 -0.6547 -0.4285
11259SOL    HW245432   8.186   4.394   7.602 -0.5109  0.4012  0.3365
11260SOL     OW45433   0.138   8.557   4.088 -0.4172  0.6358 -0.2603
11260SOL    HW145434   0.111   8.653   4.088  0.0661  0.7731 -0.9511
11260SOL    HW245435   0.182   8.534   4.174  1.1481  1.5182 -0.8052
11261SOL     OW45436   8.945   1.031   7.795  0.2913  0.2397 -0.3294
11261SOL    HW145437   8.961   1.103   7.863  0.5032  0.1278 -0.2604
11261SOL    HW245438   9.032   1.005   7.754  0.1067  0.6381 -0.9830
11262SOL     OW45439   0.716   4.935   3.091  0.1766 -0.5235 -0.1368
11262SOL    HW145440   0.742   4.841   3.071  0.9554  0.0298 -1.8769
11262SOL    HW245441   0.787   4.979   3.146  0.2965 -0.6451 -0.1969
11263SOL     OW45442   1.822   0.275   1.560  0.7814  0.0947  0.1999
11263SOL    HW145443   1.877   0.357   1.575  0.7559  0.2880 -0.7573
11263SOL    HW245444   1.842   0.237   1.470 -1.4283  0.7843 -0.6094
11264SOL     OW45445   2.858   0.707   7.797 -0.0777  0.5478 -0.0408
11264SOL    HW145446   2.772   0.685   7.751 -0.6700  0.5164  1.0655
11264SOL    HW245447   2.863   0.806   7.813  0.3808  0.6264 -0.6782
11265SOL     OW45448   0.585   8.014   5.687  0.5823 -0.3479  0.4287
11265SOL    HW145449   0.493   7.998   5.722  0.3033  1.3950  0.5573
11265SOL    HW245450   0.633   7.927   5.679 -1.3030 -1.3507 -0.3123
11266SOL     OW45451   1.002   6.467   4.082 -0.3522  0.3954  0.3756
11266SOL    HW145452   1.027   6.542   4.144 -2.8442  1.5146  0.0958
11266SOL    HW245453   1.018   6.379   4.127  4.2033  0.9538  0.1289
11267SOL     OW45454   1.242   2.045   1.126  0.0453  0.1219 -0.2998
11267SOL    HW145455   1.241   2.121   1.061 -0.4102  1.3620  1.1294
11267SOL    HW245456   1.182   2.066   1.203  1.3071 -0.9087  0.9997
11268SOL     OW45457   4.467   9.471   6.954  0.2152 -0.4801  0.3112
11268SOL    HW145458   4.377   9.438   6.923  0.2920  0.0048 -0.4350
11268SOL    HW245459   4.461   9.497   7.051 -0.5682 -0.0182  0.1448
11269SOL     OW45460   0.673   9.078   7.390  0.2299  0.1194  0.2378
11269SOL    HW145461   0.628   9.052   7.305  1.7206 -0.0459 -0.5175
11269SOL    HW245462   0.677   8.998   7.451  0.9858 -0.2964 -0.3574
11270SOL     OW45463   7.267   9.493   1.968  0.0382  0.1912 -0.0063
11270SOL    HW145464   7.334   9.518   1.898 -1.5634 -1.7221 -2.2804
11270SOL    HW245465   7.304   9.419   2.025  0.1489 -0.3744 -0.8077
11271SOL     OW45466   0.442   6.496   1.021 -0.5561  0.2259 -0.0267
11271SOL    HW145467   0.408   6.408   0.988 -1.4829 -0.0324  1.5657
11271SOL    HW245468   0.536   6.484   1.055 -1.1497 -0.4592  1.4168
11272SOL     OW45469   2.665   2.876   1.442  0.1949 -0.8543  0.1160
11272SOL    HW145470   2.715   2.804   1.489 -0.9144 -0.7040  1.5557
11272SOL    HW245471   2.708   2.964   1.460 -1.2081 -0.5824  2.2876
11273SOL     OW45472   8.230   3.562   6.628  0.3087 -0.7508  0.7377
11273SOL    HW145473   8.230   3.616   6.543  1.0542 -0.2711  1.0322
11273SOL    HW245474   8.252   3.467   6.607  1.9294 -0.3539  0.5418
11274SOL     OW45475   1.586   9.419   0.890 -0.4421  0.1577 -0.5356
11274SOL    HW145476   1.649   9.356   0.935  0.1788  0.5741 -0.8118
11274SOL    HW245477   1.622   9.443   0.800 -2.5870 -2.1673 -2.0911
11275SOL     OW45478   8.705   1.414   2.572 -0.1950 -0.5037  0.0947
11275SOL    HW145479   8.786   1.471   2.559  0.2653 -0.8939  1.2004
11275SOL    HW245480   8.684   1.365   2.487  2.7169 -2.9712  0.6968
11276SOL     OW45481   9.030   2.070   3.350  0.1308 -0.0518  0.0208
11276SOL    HW145482   9.083   2.015   3.285  0.5515 -0.4292  0.6762
11276SOL    HW245483   9.051   2.167   3.338 -0.5355 -0.0349 -1.0694
11277SOL     OW45484   8.334   8.368   6.511  0.0201  0.2642 -0.2159
11277SOL    HW145485   8.379   8.342   6.426 -1.2234  2.7341 -1.7006
11277SOL    HW245486   8.249   8.316   6.521 -0.0080  0.2324 -0.6516
11278SOL     OW45487   8.877   0.128   4.281  0.3596  0.6188 -0.6682
11278SOL    HW145488   8.839   0.104   4.192  1.5639 -2.4529 -0.3913
11278SOL    HW245489   8.802   0.149   4.345 -0.5348  1.6806 -2.0416
11279SOL     OW45490   1.946   2.215   1.091 -0.0849  0.1462  0.2959
11279SOL    HW145491   1.889   2.168   1.158 -0.5568  0.4820  0.1369
11279SOL    HW245492   1.901   2.300   1.062  0.0899 -0.0139 -0.4762
11280SOL     OW45493   4.631   8.538   8.096  0.1827  0.2886  0.1770
11280SOL    HW145494   4.631   8.597   8.015 -1.4616 -1.7305 -1.3502
11280SOL    HW245495   4.722   8.500   8.109  0.6352  1.1882 -0.2903
11281SOL     OW45496   3.212   0.195   2.574 -0.7059 -0.3155  0.6509
11281SOL    HW145497   3.163   0.255   2.511  0.9248 -0.0912 -0.4243
11281SOL    HW245498   3.222   0.240   2.662 -0.1870  0.6784  0.0896
11282SOL     OW45499   6.085   2.771   0.097 -0.5793 -0.3019  0.7622
11282SOL    HW145500   6.141   2.820   0.030  0.1909 -1.8273  0.2768
11282SOL    HW245501   6.067   2.831   0.176 -0.0055  0.8955 -0.0060
11283SOL     OW45502   3.954   1.175   6.935 -0.2718 -0.2853  0.2468
11283SOL    HW145503   4.026   1.122   6.980  0.7724  0.0862 -0.9656
11283SOL    HW245504   3.994   1.232   6.863 -1.9342 -0.8900 -1.1764
11284SOL     OW45505   9.257   8.379   3.870 -0.1132 -0.2791  0.8234
11284SOL    HW145506   9.191   8.423   3.931  1.3776 -1.4349  3.3202
11284SOL    HW245507   9.312   8.449   3.825 -1.5314  0.6034  0.4294
11285SOL     OW45508   5.677   0.955   2.723 -0.3310  0.8626 -0.2266
11285SOL    HW145509   5.648   0.936   2.629 -1.9391  1.0122  0.2145
11285SOL    HW245510   5.596   0.961   2.782  0.7253 -0.4490  1.4000
11286SOL     OW45511   3.204   5.344   0.235  0.2340  0.4353 -0.6696
11286SOL    HW145512   3.156   5.258   0.219  1.0769 -0.0327 -0.7244
11286SOL    HW245513   3.281   5.328   0.297  0.6961  1.0460 -1.0799
11287SOL     OW45514   4.688   3.635   1.321 -0.7573  0.3069  0.2962
11287SOL    HW145515   4.782   3.619   1.288 -1.8097  0.2809 -2.8611
11287SOL    HW245516   4.675   3.732   1.340  0.3415  0.0971  2.2776
11288SOL     OW45517   7.728   7.383   5.006  0.6375 -0.5416 -0.0295
11288SOL    HW145518   7.814   7.331   5.006  0.0067 -1.6020  1.0291
11288SOL    HW245519   7.707   7.412   4.913  2.2763 -0.0553 -0.2652
11289SOL     OW45520   8.447   9.338   0.896  0.0585  0.1358  0.2255
11289SOL    HW145521   8.423   9.349   0.800  0.4236  1.9539  0.3312
11289SOL    HW245522   8.367   9.303   0.946 -0.9759  1.6878 -0.2813
11290SOL     OW45523   7.248   3.102   4.715  0.3103  0.2674  0.5712
11290SOL    HW145524   7.290   3.191   4.702 -1.1540  0.9925  0.6845
11290SOL    HW245525   7.208   3.097   4.806 -1.3788  0.2668 -0.1416
11291SOL     OW45526   3.872   8.953   0.711  0.4922 -0.1806 -0.1036
11291SOL    HW145527   3.778   8.925   0.729  0.1516  0.0771 -1.4032
11291SOL    HW245528   3.902   8.915   0.623  1.5297 -0.0914  0.2029
11292SOL     OW45529   4.708   3.265   7.323  0.1303 -0.0337  0.0007
11292SOL    HW145530   4.764   3.305   7.250 -0.2876 -1.4785 -1.1291
11292SOL    HW245531   4.644   3.334   7.357  0.8526  0.8726 -0.4525
11293SOL     OW45532   7.556   5.065   1.969  0.3863  0.2414 -0.6239
11293SOL    HW145533   7.466   5.078   2.011  1.4935  0.8987  1.5974
11293SOL    HW245534   7.564   5.126   1.889 -0.9574  0.5238 -0.5489
11294SOL     OW45535   9.163   4.110   1.728  0.3187 -0.3878 -0.5480
11294SOL    HW145536   9.166   4.208   1.710  0.4564 -0.5028 -1.1607
11294SOL    HW245537   9.250   4.080   1.765 -0.4691  0.1280  1.8083
11295SOL     OW45538   0.499   7.665   0.644 -0.5371 -0.2559  0.0785
11295SOL    HW145539   0.461   7.742   0.592 -0.2541  0.4304  0.8758
11295SOL    HW245540   0.597   7.656   0.622 -0.2065  0.6065  1.1640
11296SOL     OW45541   0.783   1.958   6.958  0.6039  0.3973 -0.2856
11296SOL    HW145542   0.686   1.948   6.939  0.7059  1.4453 -1.4461
11296SOL    HW245543   0.826   2.013   6.885  1.9231  0.5394  0.5747
11297SOL     OW45544   9.841   7.039   3.411 -0.4422  0.1922  0.3698
11297SOL    HW145545   9.939   7.058   3.407 -0.5476  0.4102 -1.3431
11297SOL    HW245546   9.800   7.058   3.323 -2.0477  0.1283  1.0942
11298SOL     OW45547   9.209   5.602   0.346  0.5949  0.3867 -0.6439
11298SOL    HW145548   9.181   5.512   0.315 -0.2519  0.2850  0.3756
11298SOL    HW245549   9.145   5.635   0.415  0.9762  1.7065 -0.8963
11299SOL     OW45550   6.776   7.931   5.422  0.0347 -0.3036 -0.4077
11299SOL    HW145551   6.798   7.864   5.493  0.2544  0.7657  0.5542
11299SOL    HW245552   6.733   7.885   5.344  0.4512 -1.5926  0.1187
11300SOL     OW45553   0.434   7.321   2.186  0.2081  0.3439  0.2241
11300SOL    HW145554   0.478   7.399   2.143  1.4373  0.5434  1.7927
11300SOL    HW245555   0.394   7.348   2.273  1.3435 -0.9329  1.1661
11301SOL     OW45556   3.253   7.148   6.062  0.3885  0.4210 -0.2495
11301SOL    HW145557   3.256   7.165   6.160  1.0076 -1.8667  0.1472
11301SOL    HW245558   3.306   7.218   6.014  1.8157  0.3574  1.2145
11302SOL     OW45559   2.783   4.840   6.074  0.4865 -0.2751 -0.5451
11302SOL    HW145560   2.815   4.834   6.168 -2.6037 -1.3373  0.5029
11302SOL    HW245561   2.772   4.936   6.048 -0.8520  0.0021  0.9831
11303SOL     OW45562   3.433   7.965   7.914 -0.2071  0.8667  0.4421
11303SOL    HW145563   3.525   7.987   7.947 -0.6158  1.3783  1.2512
11303SOL    HW245564   3.371   7.960   7.992 -0.6020 -0.8003  0.0418
11304SOL     OW45565   2.438   0.917   7.173 -0.5211  0.3507 -0.2897
11304SOL    HW145566   2.419   0.986   7.103 -0.4863 -1.5991 -2.2755
11304SOL    HW245567   2.532   0.884   7.163 -0.2455  0.6747  1.2221
11305SOL     OW45568   3.943   1.302   5.389 -0.5224  0.4633 -0.1816
11305SOL    HW145569   3.926   1.393   5.426  0.1717  0.6619 -0.3346
11305SOL    HW245570   3.860   1.247   5.396 -1.1209  1.2951 -0.6398
11306SOL     OW45571   9.316   9.126   6.637  0.1039  0.9325 -0.1293
11306SOL    HW145572   9.300   9.124   6.539  2.5008  1.5057 -0.5502
11306SOL    HW245573   9.354   9.215   6.663 -1.6583  1.2462  1.5222
11307SOL     OW45574   2.685   3.276   0.003  0.2308 -0.0467 -0.0300
11307SOL    HW145575   2.729   3.209   0.062  0.4177 -0.8930 -1.1063
11307SOL    HW245576   2.731   3.365   0.014  0.8489 -0.4132  0.4140
11308SOL     OW45577   2.666   5.309   7.942 -0.3574 -0.0921 -0.3474
11308SOL    HW145578   2.663   5.345   8.035 -0.8556  0.5409 -0.6007
11308SOL    HW245579   2.759   5.282   7.919  0.1908  1.7705 -0.4202
11309SOL     OW45580   7.897   1.843   4.087 -0.0887 -0.2355  0.2247
11309SOL    HW145581   7.963   1.910   4.052 -0.0249 -0.3145  0.1938
11309SOL    HW245582   7.897   1.762   4.028 -2.4314  0.9974 -1.5626
11310SOL     OW45583   6.678   1.512   3.685 -0.3987  0.0409  0.4309
11310SOL    HW145584   6.741   1.539   3.612  0.2814 -0.4621  0.8200
11310SOL    HW245585   6.714   1.542   3.773 -1.2796  0.7544  0.5477
11311SOL     OW45586   0.073   3.745   3.693  0.2818  0.0484  0.0906
11311SOL    HW145587   0.047   3.810   3.621 -0.5168  0.5367  0.8148
11311SOL    HW245588   0.160   3.701   3.668 -0.9720 -1.2454 -2.1365
11312SOL     OW45589   6.518   8.666   5.260  0.5634 -0.1257 -0.4407
11312SOL    HW145590   6.524   8.763   5.286 -2.1851 -0.2703  0.9384
11312SOL    HW245591   6.434   8.627   5.297  0.2935 -2.3732 -3.2333
11313SOL     OW45592   4.239   3.549   2.767 -0.0881  0.0094 -0.3226
11313SOL    HW145593   4.147   3.549   2.807  0.4107  1.5979  0.8408
11313SOL    HW245594   4.236   3.591   2.677 -0.6455 -0.7227 -0.6546
11314SOL     OW45595   1.854   3.528   6.198 -0.0291 -0.4417 -0.0975
11314SOL    HW145596   1.916   3.467   6.147  0.1834 -1.3837  1.2707
11314SOL    HW245597   1.761   3.518   6.163  0.2496 -0.4595 -0.8568
11315SOL     OW45598   9.596   3.931   8.075  0.0812  0.1191 -0.0624
11315SOL    HW145599   9.591   4.008   8.139  0.1071 -0.2410  0.3741
11315SOL    HW245600   9.673   3.945   8.013  1.8629 -0.9793  1.8823
11316SOL     OW45601   5.893   1.281   2.321  0.2459  0.0338 -0.4032
11316SOL    HW145602   5.858   1.209   2.381 -1.5596  0.6887 -0.6603
11316SOL    HW245603   5.954   1.341   2.373 -1.0133  0.3843  0.7029
11317SOL     OW45604   4.020   8.364   0.888  0.1531  0.0860 -0.0249
11317SOL    HW145605   4.025   8.323   0.980  1.4849  0.6944  0.1813
11317SOL    HW245606   4.107   8.409   0.867  1.0518 -2.9374 -2.9743
11318SOL     OW45607   1.391   4.590   0.044 -0.8667  0.6029 -0.1537
11318SOL    HW145608   1.367   4.521  -0.024  0.6578 -1.8983  1.7619
11318SOL    HW245609   1.488   4.583   0.067 -0.9315  2.6402  0.9470
11319SOL     OW45610   4.409   7.716   5.559  0.8129  0.4021 -0.4096
11319SOL    HW145611   4.385   7.651   5.487  3.4495 -0.4385 -0.5646
11319SOL    HW245612   4.359   7.801   5.545 -0.8402 -0.7329 -1.5970
11320SOL     OW45613   6.780   3.321   2.103 -0.7068  0.7914 -0.0891
11320SOL    HW145614   6.847   3.349   2.034 -1.1331 -0.9884 -1.2705
11320SOL    HW245615   6.825   3.268   2.174 -0.8092 -0.2424 -0.7834
11321SOL     OW45616   1.634   7.591   0.995 -0.3472 -0.4346 -0.3641
11321SOL    HW145617   1.696   7.537   1.052  1.7657  1.4228 -0.7973
11321SOL    HW245618   1.560   7.533   0.961  1.1790 -2.7563  0.1375
11322SOL     OW45619   9.074   4.951   6.652  0.1058  0.3144  0.8337
11322SOL    HW145620   9.147   4.905   6.603 -1.3063  0.4133 -1.4149
11322SOL    HW245621   8.990   4.897   6.644 -0.8769  1.8558  0.5876
11323SOL     OW45622   4.011   1.525   1.305 -0.1291  0.7693 -0.1368
11323SOL    HW145623   4.007   1.446   1.243  2.2420  0.8404 -0.4145
11323SOL    HW245624   3.961   1.504   1.389  0.4711 -1.0282 -0.2080
11324SOL     OW45625   8.861   6.155   1.997 -0.2155 -0.4397  0.2066
11324SOL    HW145626   8.832   6.210   2.076 -0.8091 -0.8397  0.2687
11324SOL    HW245627   8.790   6.160   1.926  0.1643 -0.3563 -0.1643
11325SOL     OW45628   7.247   0.281   2.344  0.2038 -0.0790 -0.3298
11325SOL    HW145629   7.296   0.204   2.386  0.6205  0.4742  0.2036
11325SOL    HW245630   7.165   0.301   2.397 -0.4420 -0.7989 -1.0427
11326SOL     OW45631   1.362   8.698   2.212 -0.4907 -0.0699  0.3518
11326SOL    HW145632   1.326   8.607   2.229 -0.6463  0.4485  3.0553
11326SOL    HW245633   1.446   8.711   2.266  0.3064  0.9005 -1.0813
11327SOL     OW45634   4.117   9.023   2.600 -0.0408 -0.1336  0.2937
11327SOL    HW145635   4.060   9.035   2.681 -1.9492 -0.6102 -0.9407
11327SOL    HW245636   4.092   8.938   2.554  0.9958  0.1423 -0.8103
11328SOL     OW45637   0.442   8.577   3.527 -0.0307 -1.0105 -0.2771
11328SOL    HW145638   0.532   8.611   3.497 -0.0469 -1.0413 -0.3606
11328SOL    HW245639   0.446   8.552   3.624 -0.0130 -0.7891 -0.2199
11329SOL     OW45640   8.850   7.826   7.259  0.4056 -0.4814  0.3345
11329SOL    HW145641   8.948   7.849   7.259 -0.3818  3.1800  0.6199
11329SOL    HW245642   8.815   7.830   7.352 -0.8515  2.3162 -0.2151
11330SOL     OW45643   3.436   8.526   5.904 -0.0126  0.0151  0.0644
11330SOL    HW145644   3.457   8.479   5.819 -0.3679 -0.4087  0.2115
11330SOL    HW245645   3.418   8.623   5.885 -3.0896 -0.6709 -0.7495
11331SOL     OW45646   1.306   9.638   0.002  0.0623 -0.5047  0.3371
11331SOL    HW145647   1.357   9.691   0.069  0.4484  0.9692 -1.0896
11331SOL    HW245648   1.313   9.540   0.024  0.6740 -0.0801  2.0678
11332SOL     OW45649   9.342   7.202   6.779  0.2995  0.2775  0.2187
11332SOL    HW145650   9.384   7.135   6.717 -0.6503  1.9410 -2.2544
11332SOL    HW245651   9.265   7.159   6.827  1.8619 -1.4081  1.3084
11333SOL     OW45652   4.288   4.302   7.539 -0.0894 -0.0863 -0.3121
11333SOL    HW145653   4.201   4.334   7.577  0.1071 -1.5399  1.4260
11333SOL    HW245654   4.271   4.226   7.477 -0.2556  1.1739 -1.8327
11334SOL     OW45655   6.697   5.876   0.426  0.1661 -0.5099  0.1893
11334SOL    HW145656   6.684   5.851   0.522 -1.6352  1.2631  0.4288
11334SOL    HW245657   6.795   5.889   0.408  0.4895 -0.5287  1.8632
11335SOL     OW45658   6.060   9.279   2.473 -0.1798 -0.2218 -0.0711
11335SOL    HW145659   6.025   9.216   2.544  2.2635 -2.7366 -1.0080
11335SOL    HW245660   6.080   9.367   2.514 -3.4115 -0.0746  1.3669
11336SOL     OW45661   1.516   1.869   5.988 -0.2189 -0.2630 -0.2274
11336SOL    HW145662   1.431   1.921   5.979 -1.1785 -1.5946  0.8525
11336SOL    HW245663   1.498   1.772   5.973  0.7653 -0.7771  1.6589
11337SOL     OW45664   4.631   0.851   1.347 -0.4789 -0.6266  0.2997
11337SOL    HW145665   4.712   0.872   1.402  0.6842 -2.0904 -0.7893
11337SOL    HW245666   4.599   0.759   1.369 -2.3207  0.2182  1.2569
11338SOL     OW45667   1.898   5.252   6.449  0.0274  0.1346 -0.8250
11338SOL    HW145668   1.871   5.200   6.368 -0.4259 -0.8790 -0.0231
11338SOL    HW245669   1.849   5.217   6.529 -0.5775  2.0372 -0.3392
11339SOL     OW45670   7.620   5.443   6.480 -0.0801  0.4043  0.0180
11339SOL    HW145671   7.628   5.433   6.580 -0.5835 -0.6814 -0.0502
11339SOL    HW245672   7.691   5.389   6.435 -0.9879 -0.5647 -0.2605
11340SOL     OW45673   4.928   4.172   7.912  0.1880  0.9287  0.2614
11340SOL    HW145674   4.989   4.235   7.960  2.0178 -1.1460  0.7058
11340SOL    HW245675   4.901   4.098   7.974  0.9942 -0.7137 -1.3224
11341SOL     OW45676   4.992   6.537   1.572  0.5295 -0.5073  0.1515
11341SOL    HW145677   5.084   6.507   1.547  1.0336  1.0282  0.0934
11341SOL    HW245678   4.990   6.561   1.669  0.9061  1.9888 -0.4264
11342SOL     OW45679   2.008   3.056   6.006  0.3019 -0.6126 -0.0440
11342SOL    HW145680   2.035   2.977   5.952 -0.7653 -2.0634  1.4968
11342SOL    HW245681   1.920   3.091   5.974 -0.3614 -1.5121  0.7401
11343SOL     OW45682   1.642   7.204   6.545 -0.0519 -0.6924 -0.2887
11343SOL    HW145683   1.666   7.276   6.610 -0.4721  0.6575 -1.6040
11343SOL    HW245684   1.548   7.175   6.561 -0.2264 -0.2115 -0.4252
11344SOL     OW45685   2.104   2.595   0.861 -0.3997  0.0692  0.0333
11344SOL    HW145686   2.007   2.619   0.862 -0.6373 -0.7738 -1.2652
11344SOL    HW245687   2.154   2.662   0.807 -0.7808 -1.2919 -2.0547
11345SOL     OW45688   5.334   0.332   3.314  0.0017 -0.0427 -0.0661
11345SOL    HW145689   5.277   0.303   3.238  1.2075  0.6723 -1.2701
11345SOL    HW245690   5.277   0.374   3.385 -1.3992 -2.7207  0.4482
11346SOL     OW45691   1.243   1.492   8.028  0.1172 -0.1544 -0.3117
11346SOL    HW145692   1.208   1.558   8.095  2.3102  1.1645 -0.4056
11346SOL    HW245693   1.183   1.489   7.949 -2.1225 -1.1916  1.3685
11347SOL     OW45694   9.529   4.023   2.178  0.3184 -0.4488  0.3147
11347SOL    HW145695   9.439   4.062   2.162 -0.2159 -2.0795 -0.8891
11347SOL    HW245696   9.590   4.092   2.216 -2.1263  0.0250  3.5904
11348SOL     OW45697   3.124   2.365   4.382 -0.2104  0.3713  0.2322
11348SOL    HW145698   3.208   2.311   4.378 -0.6080 -0.2532  0.1967
11348SOL    HW245699   3.046   2.308   4.356 -0.7722  0.6945  1.1602
11349SOL     OW45700   8.652   8.754   1.774 -0.0916  0.1209 -0.0142
11349SOL    HW145701   8.698   8.835   1.811  1.1987  0.2484 -1.8639
11349SOL    HW245702   8.586   8.782   1.705 -0.3781 -0.3495  0.0678
11350SOL     OW45703   0.944   8.880   2.495 -0.7381  0.1118  0.5858
11350SOL    HW145704   0.898   8.941   2.431  1.0427  1.4962  0.5940
11350SOL    HW245705   1.011   8.932   2.549  0.9864 -1.8788  0.4308
11351SOL     OW45706   0.794   7.916   3.527  0.8073  0.0282 -0.1473
11351SOL    HW145707   0.859   7.972   3.579  0.2630  0.5819 -0.0648
11351SOL    HW245708   0.827   7.906   3.433  0.3125  1.4800 -0.4854
11352SOL     OW45709   9.576   6.913   6.798 -0.4585 -0.0892  0.5838
11352SOL    HW145710   9.610   6.827   6.759  0.2538  1.4807 -2.4193
11352SOL    HW245711   9.621   6.931   6.885  1.4880 -1.3481 -0.1499
11353SOL     OW45712   2.405   6.655   1.637 -0.3303 -0.1077 -0.9692
11353SOL    HW145713   2.483   6.599   1.664 -1.5739 -0.3370  2.3360
11353SOL    HW245714   2.430   6.709   1.557  2.7557 -1.1798 -0.8181
11354SOL     OW45715   2.473   8.496   5.126 -0.3280 -0.1387 -0.1820
11354SOL    HW145716   2.534   8.438   5.180 -4.1178 -3.3204  0.9578
11354SOL    HW245717   2.490   8.592   5.148  2.7287 -1.0243  1.6452
11355SOL     OW45718   8.649   3.273   4.675 -0.0228  0.2832 -0.0057
11355SOL    HW145719   8.642   3.176   4.700  1.3719  0.0885 -0.3033
11355SOL    HW245720   8.564   3.303   4.633 -0.8548 -0.5275  1.0730
11356SOL     OW45721   0.442   1.947   7.212  0.3079  0.2337 -0.0311
11356SOL    HW145722   0.356   1.968   7.260 -1.0045  0.9388 -2.5633
11356SOL    HW245723   0.501   2.028   7.214 -0.0601  0.5143 -0.1941
11357SOL     OW45724   6.798   2.848   3.342 -0.1615  0.2655  0.7053
11357SOL    HW145725   6.780   2.936   3.297  0.9674  0.0768 -0.1376
11357SOL    HW245726   6.879   2.856   3.401 -1.2929  0.3529  2.2800
11358SOL     OW45727   8.596   2.333   8.163  0.5253  0.2132  0.2166
11358SOL    HW145728   8.618   2.247   8.118 -0.6468  0.5356 -0.9884
11358SOL    HW245729   8.537   2.316   8.242 -0.6883  0.0059 -0.7168
11359SOL     OW45730   4.332   4.525   0.794  0.1781 -0.6260  0.3238
11359SOL    HW145731   4.342   4.558   0.888 -0.4707 -0.0520  0.1985
11359SOL    HW245732   4.422   4.502   0.756  0.3492 -1.7875  1.4107
11360SOL     OW45733   2.955   1.150   4.731  0.0303  0.1771 -0.3783
11360SOL    HW145734   3.050   1.127   4.709  0.0472 -0.3234  0.2210
11360SOL    HW245735   2.927   1.104   4.815 -0.6677  0.5209 -0.4124
11361SOL     OW45736   2.098   8.910   2.327 -0.6334  0.0142  0.7332
11361SOL    HW145737   2.197   8.905   2.345 -0.3475  0.2342 -0.7580
11361SOL    HW245738   2.054   8.829   2.364  0.3748 -1.0321 -0.3171
11362SOL     OW45739   6.345   0.557   3.036 -0.3002  0.6722  0.9576
11362SOL    HW145740   6.276   0.573   3.107 -1.1390 -0.0237  0.3023
11362SOL    HW245741   6.303   0.565   2.946  0.4221 -0.0243  0.5522
11363SOL     OW45742   2.155   3.626   7.906  0.1251 -0.0682  0.2836
11363SOL    HW145743   2.096   3.706   7.891  0.2624  0.1577  0.9360
11363SOL    HW245744   2.249   3.656   7.920  0.0701 -0.2974  1.1652
11364SOL     OW45745   3.746   0.568   5.413 -0.1072 -0.2388 -0.0416
11364SOL    HW145746   3.844   0.586   5.401 -0.2322 -0.0423 -0.7670
11364SOL    HW245747   3.728   0.471   5.400 -0.2039 -0.0683 -1.2130
11365SOL     OW45748   7.533   7.188   4.469  0.0592  0.0244 -0.1143
11365SOL    HW145749   7.552   7.113   4.405  1.0262 -1.3678  1.7593
11365SOL    HW245750   7.456   7.164   4.527  0.5638  0.3379  0.6988
11366SOL     OW45751   6.177   2.438   4.356  0.8181 -0.1338 -0.1259
11366SOL    HW145752   6.178   2.525   4.405  0.9684 -1.1710  1.7454
11366SOL    HW245753   6.097   2.435   4.296 -0.2321  0.5493  1.2083
11367SOL     OW45754   9.846   7.574   1.330  0.3799 -0.2374  0.6911
11367SOL    HW145755   9.883   7.533   1.413 -0.7352 -1.3771  0.6536
11367SOL    HW245756   9.750   7.598   1.345  0.5164  0.6616  0.1213
11368SOL     OW45757   5.157   4.932   2.229  0.2520 -0.2722 -0.5482
11368SOL    HW145758   5.254   4.953   2.243 -0.0233  0.5678  0.1127
11368SOL    HW245759   5.121   4.991   2.157  0.5011 -1.3615 -1.5858
11369SOL     OW45760   1.319   4.176   6.455  0.7825  0.1739  0.6649
11369SOL    HW145761   1.340   4.152   6.550  1.5683  2.5366  1.1184
11369SOL    HW245762   1.404   4.181   6.402  0.3338 -1.3050 -0.2366
11370SOL     OW45763   4.606   2.501   5.359 -0.5507  1.1031  0.1752
11370SOL    HW145764   4.695   2.538   5.383 -0.9675  3.1099 -1.2510
11370SOL    HW245765   4.609   2.462   5.266 -0.3708 -1.6642  1.2841
11371SOL     OW45766   5.089   2.188   4.555  0.3593  0.2386  0.2878
11371SOL    HW145767   5.004   2.157   4.512  0.3784  1.4916 -0.6799
11371SOL    HW245768   5.110   2.130   4.634 -0.5992 -1.0032 -0.3610
11372SOL     OW45769   8.569   4.948   1.697 -0.0982 -0.0675 -0.4512
11372SOL    HW145770   8.545   4.851   1.697 -0.7182  0.0698 -1.8367
11372SOL    HW245771   8.562   4.984   1.790  0.9915 -1.5460  0.2243
11373SOL     OW45772   6.188   1.150   5.672  0.1232  0.0906 -0.7873
11373SOL    HW145773   6.094   1.118   5.659  0.1065  0.2568 -1.0699
11373SOL    HW245774   6.241   1.080   5.719 -0.5424  0.5772  0.7356
11374SOL     OW45775   3.674   8.289   2.717  0.1960  0.1776 -0.1827
11374SOL    HW145776   3.768   8.299   2.682 -0.6131  0.1819 -2.4352
11374SOL    HW245777   3.677   8.272   2.815  2.4628  2.5863  0.2255
11375SOL     OW45778   3.835   6.404   4.058 -0.1755 -0.4291 -0.2610
11375SOL    HW145779   3.875   6.353   3.982 -0.2878 -1.5506  0.4235
11375SOL    HW245780   3.908   6.447   4.112  0.1162 -2.1850  0.7854
11376SOL     OW45781   9.195   9.452   0.193  0.6104  0.1039  0.2814
11376SOL    HW145782   9.187   9.391   0.271  1.6512 -0.4570 -0.0556
11376SOL    HW245783   9.223   9.543   0.224  0.0581  0.1500  0.6589
11377SOL     OW45784   4.143   5.363   1.220  0.7245 -0.3279  0.2599
11377SOL    HW145785   4.133   5.439   1.285 -0.4942  0.9413 -1.3662
11377SOL    HW245786   4.137   5.398   1.127  0.2747 -2.4197 -0.5160
11378SOL     OW45787   6.558   5.517   0.934 -0.2294  0.0501  0.2331
11378SOL    HW145788   6.578   5.422   0.958 -0.0046 -0.4113 -1.7276
11378SOL    HW245789   6.643   5.570   0.932 -0.2336  0.0599  0.3323
11379SOL     OW45790   4.194   0.062   4.278 -0.1034 -0.0288 -0.0749
11379SOL    HW145791   4.191   0.018   4.368  2.3682 -1.9669 -0.8995
11379SOL    HW245792   4.258   0.139   4.281  2.9208 -2.4053 -1.0903
11380SOL     OW45793   1.098   3.009   0.818 -0.1134  0.3322 -0.0462
11380SOL    HW145794   1.072   2.975   0.728  2.2412  0.5994 -0.8666
11380SOL    HW245795   1.195   3.034   0.818 -0.4349  1.7619  2.1416
11381SOL     OW45796   0.173   4.247   2.063 -0.3807 -0.0971  0.7530
11381SOL    HW145797   0.133   4.302   1.989  0.2536  0.7008  0.9890
11381SOL    HW245798   0.130   4.157   2.065 -0.7019  0.0244 -0.3161
11382SOL     OW45799   8.260   2.092   5.956 -0.2856 -0.2659 -0.6349
11382SOL    HW145800   8.235   2.180   5.917 -1.2413  1.1238  2.8825
11382SOL    HW245801   8.266   2.101   6.056  1.0517 -3.8370 -0.3335
11383SOL     OW45802   3.009   7.684   4.691 -0.3945 -0.2792  0.8814
11383SOL    HW145803   2.919   7.653   4.721 -0.5656 -1.6726 -0.9583
11383SOL    HW245804   3.000   7.768   4.638 -0.7273 -0.8984 -0.0566
11384SOL     OW45805   8.732   0.170   1.760  0.1951  0.6301 -0.3216
11384SOL    HW145806   8.808   0.171   1.824  0.7734  0.9236 -1.0096
11384SOL    HW245807   8.696   0.263   1.749  0.5776  0.7007 -0.9896
11385SOL     OW45808   1.784   0.041   6.866 -0.8163  0.1142 -0.6091
11385SOL    HW145809   1.813  -0.016   6.943 -0.6471  0.7071 -0.2269
11385SOL    HW245810   1.701   0.091   6.892 -0.2372  1.0072 -0.4958
11386SOL     OW45811   9.124   4.260   0.731 -0.1272 -0.1896 -0.0090
11386SOL    HW145812   9.078   4.236   0.646 -0.1011  2.2133 -0.7513
11386SOL    HW245813   9.073   4.222   0.808 -0.6637 -1.6007 -1.0489
11387SOL     OW45814   2.856   1.933   4.894  0.1528 -0.2116 -0.4281
11387SOL    HW145815   2.916   1.910   4.970 -1.5921 -1.7150  0.5456
11387SOL    HW245816   2.835   2.031   4.897  0.9982 -0.0480  0.3678
11388SOL     OW45817   1.953   2.487   7.517 -0.6166 -0.1778  0.0390
11388SOL    HW145818   1.966   2.390   7.536  0.7781 -0.0506 -0.2086
11388SOL    HW245819   1.960   2.539   7.603 -0.6536 -0.2269  0.0716
11389SOL     OW45820   7.561   9.357   5.656  0.0182 -0.4011  0.0955
11389SOL    HW145821   7.595   9.337   5.749  0.7412 -0.5191 -0.1905
11389SOL    HW245822   7.626   9.322   5.589  0.6546  1.7111 -0.4339
11390SOL     OW45823   7.335   5.573   6.904 -0.4060 -0.2079 -0.0904
11390SOL    HW145824   7.255   5.577   6.845 -1.3587  0.8616  1.2366
11390SOL    HW245825   7.415   5.610   6.855 -0.9433 -0.3463 -1.0729
11391SOL     OW45826   7.294   1.069   3.668 -0.1383 -0.4682  0.7531
11391SOL    HW145827   7.325   1.005   3.738  1.6122 -0.4740  0.0177
11391SOL    HW245828   7.267   1.155   3.711  0.7361 -0.5335  1.4542
11392SOL     OW45829   1.759   6.660   0.324  0.1021 -0.0865 -0.9374
11392SOL    HW145830   1.689   6.675   0.394 -0.5328  1.5995 -1.8892
11392SOL    HW245831   1.718   6.612   0.247  0.4300 -0.6267 -0.7743
11393SOL     OW45832   9.208   5.608   5.845 -0.1320  0.3131 -0.3460
11393SOL    HW145833   9.162   5.647   5.765 -0.0828  2.4596  0.6331
11393SOL    HW245834   9.305   5.634   5.844 -0.0641  0.0926  0.2450
11394SOL     OW45835   7.231   0.702   2.993  0.6395  0.1305  0.0277
11394SOL    HW145836   7.299   0.661   3.054  1.0352  1.0827  0.2388
11394SOL    HW245837   7.249   0.800   2.985 -0.4312  0.3036 -0.2904
11395SOL     OW45838   3.870   2.566   8.131 -0.3360  0.2848  0.2324
11395SOL    HW145839   3.838   2.570   8.225 -0.9081 -0.4339  0.0722
11395SOL    HW245840   3.970   2.576   8.128 -0.4566  1.8750  0.7905
11396SOL     OW45841   8.850   8.475   3.728 -0.8012  0.1868  0.0591
11396SOL    HW145842   8.903   8.557   3.749  0.1167 -0.8188  1.7549
11396SOL    HW245843   8.755   8.500   3.709 -0.1611  1.7984 -1.1240
11397SOL     OW45844   0.215   8.467   1.359 -0.4515 -0.1255 -0.0453
11397SOL    HW145845   0.229   8.566   1.347  0.7497 -0.1201  1.2011
11397SOL    HW245846   0.167   8.430   1.280  0.5234  1.1685 -1.2660
11398SOL     OW45847   6.318   2.242   0.064 -0.2987 -0.4065 -0.2133
11398SOL    HW145848   6.292   2.316   0.126 -1.0413 -0.1382 -0.8368
11398SOL    HW245849   6.416   2.223   0.073 -0.0641  0.7898 -0.2088
11399SOL     OW45850   1.218   5.353   0.066 -0.4178  0.3304  0.0196
11399SOL    HW145851   1.187   5.273   0.117 -0.6064  1.2679  1.4372
11399SOL    HW245852   1.311   5.377   0.095  0.5657 -0.7873 -2.1459
11400SOL     OW45853   0.779   3.473   2.804 -0.3571  0.6253  0.2779
11400SOL    HW145854   0.864   3.427   2.831 -0.1021  0.8679 -0.0945
11400SOL    HW245855   0.758   3.450   2.709 -1.1928 -0.1500  0.6401
11401SOL     OW45856   2.200   3.636   1.054  0.4172 -0.0914  0.4672
11401SOL    HW145857   2.170   3.558   1.110 -1.7506 -1.2806 -2.2257
11401SOL    HW245858   2.267   3.606   0.986 -0.4948  0.3523 -0.6485
11402SOL     OW45859   0.196   2.380   5.703  0.2462 -0.2597 -0.6761
11402SOL    HW145860   0.284   2.353   5.743 -0.6287 -2.0052  0.1058
11402SOL    HW245861   0.154   2.301   5.658 -0.3813  0.8547 -2.0705
11403SOL     OW45862   5.305   0.830   1.162 -0.4422 -0.3447  0.4264
11403SOL    HW145863   5.227   0.892   1.165  0.9802  1.5058  0.5492
11403SOL    HW245864   5.337   0.811   1.255  0.3255  0.3397  0.3122
11404SOL     OW45865   4.353   3.631   7.644  0.0378  0.3528  0.0270
11404SOL    HW145866   4.436   3.592   7.683 -0.0036  1.2308  1.0443
11404SOL    HW245867   4.280   3.562   7.644  0.3829 -0.0160  0.4177
11405SOL     OW45868   9.486   1.975   6.939  0.3111  0.1284 -0.6446
11405SOL    HW145869   9.395   2.002   6.972 -1.2028 -1.9137 -2.9786
11405SOL    HW245870   9.543   2.056   6.930 -1.8907  1.7051 -0.9129
11406SOL     OW45871   3.843   6.382   3.222 -0.3180 -0.1970  0.1831
11406SOL    HW145872   3.801   6.462   3.179 -0.1586  0.0362  0.4535
11406SOL    HW245873   3.910   6.341   3.160 -1.0108 -0.6218 -0.2812
11407SOL     OW45874   8.224   2.432   1.423 -0.0997 -0.0599 -0.0590
11407SOL    HW145875   8.239   2.441   1.324 -0.5327  1.2974 -0.0112
11407SOL    HW245876   8.126   2.443   1.443 -0.1423 -1.2643  0.4259
11408SOL     OW45877   5.942   8.251   5.327 -0.0602 -0.3062 -0.0119
11408SOL    HW145878   6.040   8.251   5.343 -0.1647  0.0031  0.6628
11408SOL    HW245879   5.909   8.345   5.316 -0.2884 -0.4027 -0.1655
11409SOL     OW45880   5.128   2.314   5.495 -0.5484  0.1286  0.3236
11409SOL    HW145881   5.148   2.366   5.578 -0.3528  1.7926 -0.7466
11409SOL    HW245882   5.032   2.322   5.472 -0.0840  1.9153 -1.0931
11410SOL     OW45883   9.933   6.746   0.298  0.0755 -0.2990 -0.2891
11410SOL    HW145884   9.942   6.719   0.394  1.7443 -0.0543 -0.3709
11410SOL    HW245885  10.019   6.731   0.250  0.3175  2.8342 -0.9412
11411SOL     OW45886   1.696   3.661   4.079 -0.0171 -0.4332 -0.0915
11411SOL    HW145887   1.623   3.640   4.015  0.6480 -0.5969 -0.8031
11411SOL    HW245888   1.688   3.601   4.159 -0.6138 -0.5054 -0.2028
11412SOL     OW45889   9.615   8.149   4.465 -0.0519  0.2399 -0.3485
11412SOL    HW145890   9.702   8.123   4.507 -0.9280 -0.6920  0.8989
11412SOL    HW245891   9.604   8.249   4.471 -0.2559  0.0979  1.8166
11413SOL     OW45892   1.435   6.331   2.660  0.3674 -0.0031  0.0212
11413SOL    HW145893   1.489   6.253   2.628  0.3627 -0.4869  1.1552
11413SOL    HW245894   1.472   6.363   2.748 -0.3351  0.5486  0.1181
11414SOL     OW45895   1.016   8.648   0.234 -0.1345 -0.0790  0.4773
11414SOL    HW145896   1.044   8.569   0.180 -0.0732 -1.3320  2.2926
11414SOL    HW245897   1.030   8.628   0.331 -0.0016  2.2096  0.9516
11415SOL     OW45898   5.084   9.931   7.237 -0.0747 -0.3684  0.0114
11415SOL    HW145899   5.038   9.907   7.322 -1.9171 -0.7535 -1.0544
11415SOL    HW245900   5.095   9.848   7.181  1.1019 -0.1179 -0.1344
11416SOL     OW45901   8.875   1.590   2.250 -0.3239 -0.4728 -0.0469
11416SOL    HW145902   8.780   1.610   2.224 -0.2914  0.2611  0.3661
11416SOL    HW245903   8.931   1.581   2.168 -1.0738 -2.6450 -0.3595
11417SOL     OW45904   9.484   6.356   3.568  0.5645  0.5316 -0.0663
11417SOL    HW145905   9.478   6.333   3.471 -0.4272  1.2018 -0.1697
11417SOL    HW245906   9.457   6.452   3.581 -0.2659  0.1562  1.0019
11418SOL     OW45907   1.781   7.589   3.603  0.5314 -0.1509 -0.1715
11418SOL    HW145908   1.842   7.532   3.547  0.3284 -0.8262  0.2868
11418SOL    HW245909   1.708   7.533   3.640  0.1606  0.4752  0.0494
11419SOL     OW45910   9.481   6.683   3.851 -0.0883 -0.3970 -0.3524
11419SOL    HW145911   9.417   6.739   3.798  1.7981  1.0253 -1.2029
11419SOL    HW245912   9.450   6.678   3.946 -0.6527  1.5846 -0.3985
11420SOL     OW45913   2.178   0.202   3.360  0.4931  0.0830 -0.0416
11420SOL    HW145914   2.166   0.159   3.449 -0.0943 -0.0947 -0.2098
11420SOL    HW245915   2.147   0.141   3.288 -0.5366  0.8673 -0.2667
11421SOL     OW45916   7.462   9.972   2.173  0.3496 -0.2664 -0.9745
11421SOL    HW145917   7.481  10.067   2.148 -0.6039 -0.2298 -1.5958
11421SOL    HW245918   7.380   9.941   2.125  0.0354 -1.0625  0.0626
11422SOL     OW45919   9.059   5.347   0.537  0.3068 -0.0119 -0.1221
11422SOL    HW145920   9.025   5.399   0.616 -1.0424  0.0907 -0.7551
11422SOL    HW245921   9.143   5.300   0.562 -1.0206 -1.3647  1.9109
11423SOL     OW45922   9.063   2.209   0.633 -0.3934  0.2424 -0.1671
11423SOL    HW145923   9.092   2.212   0.728 -1.3191  2.3770  0.0827
11423SOL    HW245924   9.143   2.202   0.573  0.2055 -0.7651  0.7380
11424SOL     OW45925   4.149   6.842   5.010 -0.5050  0.0201  0.0152
11424SOL    HW145926   4.124   6.904   4.936 -2.3109 -1.8551 -0.9904
11424SOL    HW245927   4.102   6.869   5.094  1.5667  2.1652  0.5635
11425SOL     OW45928   2.751   4.119   2.253  0.5081 -0.2591  0.4187
11425SOL    HW145929   2.805   4.087   2.331  0.9352  0.7450  0.5444
11425SOL    HW245930   2.806   4.183   2.199 -0.0703 -0.3209 -0.2417
11426SOL     OW45931   8.635   2.970   4.952 -0.4022 -0.6513  0.4825
11426SOL    HW145932   8.631   3.063   4.989  0.6537  0.3209 -1.7214
11426SOL    HW245933   8.730   2.939   4.951 -0.4929 -0.9380 -0.6373
11427SOL     OW45934   1.580   0.454   3.825 -0.6406 -0.3149  0.2677
11427SOL    HW145935   1.552   0.467   3.730 -0.6029 -0.1635  0.2786
11427SOL    HW245936   1.593   0.356   3.842  0.6444 -0.2343 -0.2423
11428SOL     OW45937   9.302   4.823   3.182  0.1405 -0.0993  0.0172
11428SOL    HW145938   9.369   4.845   3.110  1.0015  0.0367  0.8420
11428SOL    HW245939   9.267   4.731   3.168  0.1860 -0.0174 -0.6674
11429SOL     OW45940   8.192   3.263   5.801 -0.2976 -0.0503 -0.5252
11429SOL    HW145941   8.260   3.233   5.734  0.2125  0.6677 -0.3432
11429SOL    HW245942   8.112   3.300   5.754  0.2441  0.8609 -0.7515
11430SOL     OW45943   9.361   2.743   0.615  0.4161  0.4204  0.2596
11430SOL    HW145944   9.280   2.801   0.627 -0.0071 -0.4666  1.8663
11430SOL    HW245945   9.383   2.737   0.517 -2.2144 -0.3393 -0.3249
11431SOL     OW45946   7.463   0.692   7.042 -0.2826 -0.0838  0.1857
11431SOL    HW145947   7.414   0.645   7.116  1.0763 -1.7859  0.0329
11431SOL    HW245948   7.397   0.734   6.980 -1.5416 -1.4319  0.5795
11432SOL     OW45949   8.202   8.289   7.391 -0.5469  0.2043 -0.2621
11432SOL    HW145950   8.287   8.237   7.394 -0.8068 -0.1770  0.6009
11432SOL    HW245951   8.129   8.239   7.438 -0.8953  1.1558  0.2450
11433SOL     OW45952   7.937   5.681   7.143 -0.2825 -0.3457 -0.1356
11433SOL    HW145953   7.962   5.628   7.225 -0.2535 -0.5499 -0.2769
11433SOL    HW245954   7.855   5.734   7.162  0.5034  0.6795  0.4879
11434SOL     OW45955   3.052   5.922   7.023  0.3930  0.0263 -0.3714
11434SOL    HW145956   3.082   5.878   6.938 -0.5061 -0.0602 -0.6477
11434SOL    HW245957   2.981   5.989   7.002  0.0130 -0.1538  0.3447
11435SOL     OW45958   6.061   9.789   5.798  0.4673 -0.5678  0.4606
11435SOL    HW145959   5.992   9.758   5.863  0.1031  1.4365  1.0425
11435SOL    HW245960   6.021   9.854   5.734  1.4893 -0.4346 -0.0582
11436SOL     OW45961   3.214   4.439   7.558 -0.5711 -0.1704 -0.4471
11436SOL    HW145962   3.140   4.398   7.612  0.3671 -0.8880  0.3281
11436SOL    HW245963   3.234   4.530   7.594 -0.0673 -0.5768  0.3289
11437SOL     OW45964   2.726   3.093   5.954  0.4436  0.5256 -0.1325
11437SOL    HW145965   2.663   3.086   5.877  0.1882 -0.3134  0.1479
11437SOL    HW245966   2.756   3.188   5.964  0.2091  0.6999 -1.0472
11438SOL     OW45967   8.058   3.013   7.345  0.2632 -0.6193  0.5344
11438SOL    HW145968   8.012   3.060   7.269  1.2982  0.0364  0.3053
11438SOL    HW245969   8.099   2.928   7.311 -0.2174 -0.8839  0.6042
11439SOL     OW45970   3.483   8.980   2.240 -0.0773 -0.5935  0.3696
11439SOL    HW145971   3.405   8.947   2.187 -0.3399  0.3450  0.1584
11439SOL    HW245972   3.490   8.928   2.326 -1.4280 -0.1315  0.7649
11440SOL     OW45973   9.623   1.138   4.353 -0.2848  0.4786  0.3634
11440SOL    HW145974   9.542   1.191   4.379  0.5050  2.0615 -0.3421
11440SOL    HW245975   9.607   1.096   4.264 -0.9657 -0.6070  0.9822
11441SOL     OW45976   3.916   8.851   1.679  0.1202 -0.2317 -0.0469
11441SOL    HW145977   3.874   8.802   1.756 -0.9908  0.4656 -0.1937
11441SOL    HW245978   3.949   8.786   1.611 -0.1119 -0.8118  0.3949
11442SOL     OW45979   5.532   8.610   2.721  0.8350  0.1376  0.2109
11442SOL    HW145980   5.510   8.685   2.659 -0.0068 -0.3965 -0.1381
11442SOL    HW245981   5.616   8.564   2.689  0.8796  0.4001 -0.0509
11443SOL     OW45982   8.921   4.652   3.105  0.3732 -0.3305  0.2039
11443SOL    HW145983   8.902   4.649   3.203 -0.0155  0.9347  0.1803
11443SOL    HW245984   8.880   4.572   3.061 -1.2553  0.1698  0.7784
11444SOL     OW45985   4.587   9.034   8.036  0.0301  0.1696  0.2954
11444SOL    HW145986   4.646   9.020   8.116  0.1824  1.1101  0.3642
11444SOL    HW245987   4.620   8.978   7.960  1.9812  1.8383 -0.1308
11445SOL     OW45988   2.512   7.435   4.573  0.2866 -0.1168 -0.8500
11445SOL    HW145989   2.498   7.498   4.650 -1.0800 -0.7645 -0.5515
11445SOL    HW245990   2.609   7.413   4.566  0.6757  1.3946 -0.4611
11446SOL     OW45991   1.346   9.015   3.460  0.1882 -0.1981 -0.1526
11446SOL    HW145992   1.444   9.002   3.445  0.4656  1.9442 -0.2653
11446SOL    HW245993   1.298   9.015   3.372  0.2060 -0.3117 -0.1621
11447SOL     OW45994   5.050   1.449   5.825  0.3269  0.5163  0.1565
11447SOL    HW145995   5.132   1.421   5.775  0.9623  1.1835  0.8252
11447SOL    HW245996   5.076   1.486   5.914 -0.7755 -0.3259  0.8361
11448SOL     OW45997   7.249   0.660   7.998  0.4145  0.4375  0.0467
11448SOL    HW145998   7.283   0.729   7.933 -0.2626  0.8245  0.1004
11448SOL    HW245999   7.151   0.647   7.984  0.2734  0.5092  0.9921
11449SOL     OW46000   7.245   1.638   5.183  0.2232  0.1475  0.1024
11449SOL    HW146001   7.290   1.691   5.110  2.2326 -1.3341  0.2204
11449SOL    HW246002   7.200   1.559   5.143  1.1705 -0.5651  0.4333
11450SOL     OW46003   4.199   8.134   2.232  0.0505  0.3637  0.1931
11450SOL    HW146004   4.262   8.061   2.204 -0.3326 -0.5644  1.6474
11450SOL    HW246005   4.107   8.112   2.200 -0.1506 -0.0512  1.0273
11451SOL     OW46006   7.885   5.530   1.070 -0.0584  0.3167 -0.3131
11451SOL    HW146007   7.821   5.531   0.993 -1.2990  0.7877  0.6905
11451SOL    HW246008   7.883   5.619   1.116  2.0187  0.6339 -0.8167
11452SOL     OW46009   9.435   6.296   3.317  0.5899  0.4216 -0.1092
11452SOL    HW146010   9.442   6.199   3.292  1.2180  0.9725 -2.1605
11452SOL    HW246011   9.345   6.330   3.290  0.5750  0.5423  0.0958
11453SOL     OW46012   5.274   1.086   7.603 -0.3031 -0.1752 -0.1985
11453SOL    HW146013   5.268   1.186   7.602 -1.2631 -0.2190 -2.4020
11453SOL    HW246014   5.356   1.057   7.555 -1.0019 -0.4723 -1.2372
11454SOL     OW46015   5.843   1.805   4.195  0.0515 -0.1175 -0.1113
11454SOL    HW146016   5.906   1.792   4.118 -0.0642  0.7471 -0.3605
11454SOL    HW246017   5.893   1.845   4.272 -0.4576  1.8514 -0.7687
11455SOL     OW46018   8.910   6.868   4.109  0.1972  0.5847  0.3272
11455SOL    HW146019   8.829   6.909   4.150  0.6017  2.0815 -0.3573
11455SOL    HW246020   8.883   6.818   4.026  0.0572  1.5920 -0.2406
11456SOL     OW46021   9.038   6.004   3.554  0.4035 -0.0061 -0.2236
11456SOL    HW146022   9.041   6.062   3.472 -0.3726 -0.9169 -0.9015
11456SOL    HW246023   9.129   6.003   3.596  0.9741 -0.0413 -1.4344
11457SOL     OW46024   8.379   6.793   6.227  0.1384 -0.1354  0.2511
11457SOL    HW146025   8.456   6.743   6.188  0.1457  0.6527 -0.7761
11457SOL    HW246026   8.357   6.871   6.169 -0.8839  0.1503  0.9975
11458SOL     OW46027   7.380   1.311   5.001 -0.7338 -0.9419 -0.4213
11458SOL    HW146028   7.422   1.338   5.088 -1.1503  0.8039 -0.7490
11458SOL    HW246029   7.440   1.247   4.953  0.4498 -0.3070  0.2025
11459SOL     OW46030   8.528   6.557   5.500  0.0664  0.2024  0.2604
11459SOL    HW146031   8.558   6.630   5.439  0.9860 -1.2219 -1.0198
11459SOL    HW246032   8.607   6.515   5.543 -0.3648 -0.8523  0.0422
11460SOL     OW46033   9.746   3.597   2.679  0.3614  0.2283  0.2370
11460SOL    HW146034   9.765   3.631   2.587  3.1028 -0.3548  0.5504
11460SOL    HW246035   9.778   3.502   2.687  2.4752  1.0836  2.5325
11461SOL     OW46036   3.949   7.759   6.299  0.2332  0.0385  0.0576
11461SOL    HW146037   4.018   7.828   6.319 -0.4058  0.4369  0.9073
11461SOL    HW246038   3.878   7.760   6.370 -0.2459 -0.8858 -0.3909
11462SOL     OW46039   9.651   2.967   3.928  0.2251  0.9188 -0.8489
11462SOL    HW146040   9.738   3.013   3.945 -0.4561  2.5894 -1.8266
11462SOL    HW246041   9.664   2.868   3.941  1.6777  1.3428  1.2852
11463SOL     OW46042   1.846   5.534   1.932  0.2478  0.0369  0.1203
11463SOL    HW146043   1.863   5.522   2.030  2.5133  0.3589 -0.2113
11463SOL    HW246044   1.866   5.629   1.907  0.2392 -0.1956 -0.7597
11464SOL     OW46045   2.703   3.818   2.334  0.4906 -0.1620  0.0546
11464SOL    HW146046   2.700   3.918   2.326 -3.1980 -0.3808 -2.9380
11464SOL    HW246047   2.636   3.787   2.401  0.3489 -0.6830 -0.3172
11465SOL     OW46048   2.251   5.249   2.313 -0.2445 -0.4062 -0.0463
11465SOL    HW146049   2.347   5.258   2.287 -0.2860 -0.2332 -0.1454
11465SOL    HW246050   2.193   5.276   2.236 -0.3606  2.0881  0.8515
11466SOL     OW46051   6.490   1.793   3.071  0.0980 -0.1818  0.4077
11466SOL    HW146052   6.423   1.844   3.016  0.6773 -0.4348 -0.5406
11466SOL    HW246053   6.575   1.784   3.020  1.6194  1.9975  2.4457
11467SOL     OW46054   0.923   4.298   4.435 -0.2965 -0.2198  0.2768
11467SOL    HW146055   1.017   4.265   4.436 -0.2735 -0.1361  1.2056
11467SOL    HW246056   0.866   4.240   4.495 -0.9959 -0.7266 -0.8508
11468SOL     OW46057   3.542   9.298   3.578 -0.1889  0.6592  0.1229
11468SOL    HW146058   3.638   9.303   3.551 -0.4577  0.0329 -0.9793
11468SOL    HW246059   3.534   9.303   3.678  1.0875 -0.8591  0.3091
11469SOL     OW46060   9.879   6.939   2.988 -0.7195 -0.3656  0.1954
11469SOL    HW146061   9.802   6.988   2.947  0.9418  0.7927 -1.6622
11469SOL    HW246062   9.923   6.997   3.057 -0.6900 -0.4876  0.2790
11470SOL     OW46063   9.535   7.510   1.024  0.3683  0.1429  0.1883
11470SOL    HW146064   9.453   7.508   0.966  0.3873  0.6508  0.1410
11470SOL    HW246065   9.528   7.439   1.094  0.6392 -0.9126 -0.8334
11471SOL     OW46066   8.818   2.508   8.145  0.1672  0.0611  0.2766
11471SOL    HW146067   8.878   2.533   8.221  1.0267 -0.2925 -0.2652
11471SOL    HW246068   8.754   2.437   8.174 -0.3863  0.8650  1.0311
11472SOL     OW46069   2.669   2.532   7.533 -0.4182 -0.0437  0.5851
11472SOL    HW146070   2.614   2.492   7.459 -0.4491 -0.2043  0.6945
11472SOL    HW246071   2.764   2.539   7.504 -0.6975  1.2954 -0.0301
11473SOL     OW46072   2.324   3.757   3.523  0.1151 -0.3509 -0.1378
11473SOL    HW146073   2.346   3.661   3.543 -1.3949 -0.2727  2.0178
11473SOL    HW246074   2.320   3.809   3.608 -1.1065  1.2040 -1.1132
11474SOL     OW46075   1.531   6.274   2.920  0.2786  0.2758  0.8507
11474SOL    HW146076   1.584   6.280   3.004  0.8395 -0.4815  0.5492
11474SOL    HW246077   1.464   6.200   2.927  2.3747 -1.7963 -0.5076
11475SOL     OW46078   3.565   8.476   3.164 -0.0294  0.5250  0.0092
11475SOL    HW146079   3.589   8.403   3.228  2.2193 -0.2358 -1.6304
11475SOL    HW246080   3.509   8.544   3.211 -0.8965 -1.4729  1.9706
11476SOL     OW46081   6.462   2.758   5.674 -0.3175  0.1145  0.2357
11476SOL    HW146082   6.380   2.735   5.623 -0.6848  1.7076  0.0870
11476SOL    HW246083   6.505   2.840   5.634  2.0026 -1.3825 -0.4389
11477SOL     OW46084   4.938   8.624   6.867 -0.0510 -0.1235  0.2282
11477SOL    HW146085   4.940   8.527   6.841  0.3485 -0.6371  2.1051
11477SOL    HW246086   4.960   8.680   6.787  0.5347 -1.6149 -0.6813
11478SOL     OW46087   4.468   0.358   5.026 -0.4221  0.5703 -0.1041
11478SOL    HW146088   4.490   0.434   5.088 -1.7734  0.7419  0.1681
11478SOL    HW246089   4.536   0.355   4.952  0.5936  1.0181  0.7902
11479SOL     OW46090   0.821   7.871   3.910 -0.0224  0.0971 -0.7049
11479SOL    HW146091   0.841   7.794   3.850 -0.1670 -0.8983  0.4924
11479SOL    HW246092   0.732   7.909   3.887 -1.4028 -2.1364  0.7179
11480SOL     OW46093   0.285   7.832   6.442  0.2939 -0.0491 -0.0617
11480SOL    HW146094   0.314   7.737   6.459  0.2854 -0.2819 -1.3506
11480SOL    HW246095   0.314   7.889   6.519  0.7481 -1.0046  0.4863
11481SOL     OW46096   2.644   1.273   8.153 -0.3123  0.4156  0.1688
11481SOL    HW146097   2.733   1.317   8.141 -0.4153  0.2918 -1.0437
11481SOL    HW246098   2.642   1.226   8.242  1.4700 -1.0675 -0.5379
11482SOL     OW46099   3.744   2.267   6.735 -0.5729  0.5556 -0.2392
11482SOL    HW146100   3.693   2.313   6.808  0.6812  2.3648 -0.4806
11482SOL    HW246101   3.682   2.209   6.683 -1.6703 -0.0804  1.7053
11483SOL     OW46102   4.205   9.111   7.356  0.3837  0.1460 -0.2263
11483SOL    HW146103   4.222   9.208   7.343  1.7237 -0.1204 -0.5422
11483SOL    HW246104   4.252   9.079   7.438  0.7965 -0.4453 -0.6839
11484SOL     OW46105   8.240   4.714   0.893  0.1428 -0.1769  0.5411
11484SOL    HW146106   8.296   4.670   0.823  0.3723 -0.1303  0.6976
11484SOL    HW246107   8.156   4.661   0.906  0.9421 -1.2218  1.5610
11485SOL     OW46108   7.584   1.902   7.098 -0.0201  0.3701  0.4480
11485SOL    HW146109   7.544   1.913   7.189  1.8919  1.0604  1.2498
11485SOL    HW246110   7.599   1.805   7.080 -3.2685 -0.0009 -0.4446
11486SOL     OW46111   0.146   1.035   2.324 -0.5970  0.1527 -0.4625
11486SOL    HW146112   0.142   1.107   2.255  0.7309 -1.6138 -2.4378
11486SOL    HW246113   0.195   0.956   2.287  0.6300 -0.6340  2.6989
11487SOL     OW46114   8.631   0.846   2.805  0.6407  0.4944 -0.5322
11487SOL    HW146115   8.674   0.788   2.874 -1.3651 -0.6559 -0.2174
11487SOL    HW246116   8.586   0.924   2.849  0.1707  0.2800 -0.6369
11488SOL     OW46117   3.113   2.094   1.115  0.7498  0.1179  0.3829
11488SOL    HW146118   3.113   2.193   1.124  0.9140 -0.0756  2.8154
11488SOL    HW246119   3.169   2.054   1.187  0.3637 -1.7614 -0.3376
11489SOL     OW46120   7.809   5.277   6.352 -0.0035  0.5802 -0.4711
11489SOL    HW146121   7.893   5.275   6.405 -1.4641 -1.2591  1.8662
11489SOL    HW246122   7.803   5.195   6.295 -0.0274  0.8758 -0.8925
11490SOL     OW46123   5.120   1.075   5.845  0.4277  0.4517 -0.0146
11490SOL    HW146124   5.029   1.055   5.809  0.8754  0.5476 -1.2180
11490SOL    HW246125   5.175   0.991   5.847  0.9459  0.7533 -1.1395
11491SOL     OW46126   3.805   7.027   2.137 -0.4270 -0.3418 -0.1937
11491SOL    HW146127   3.780   6.946   2.190  0.2105  0.3520  1.2014
11491SOL    HW246128   3.888   7.009   2.085  0.2334 -0.2706  0.8433
11492SOL     OW46129   8.990   4.691   4.236 -0.1098 -0.0669 -0.0038
11492SOL    HW146130   8.946   4.615   4.283 -0.1682 -1.3909 -2.1528
11492SOL    HW246131   9.018   4.662   4.144 -1.2826  2.8754 -1.3439
11493SOL     OW46132   6.253   4.851   1.314 -0.5289  0.3005  0.1365
11493SOL    HW146133   6.277   4.940   1.352  0.3445  0.2637 -0.3373
11493SOL    HW246134   6.310   4.780   1.355 -0.3852  0.1117 -0.3870
11494SOL     OW46135   1.636   5.567   0.273  0.0883  0.4088 -0.9673
11494SOL    HW146136   1.583   5.486   0.249  1.8252 -0.8236 -0.7418
11494SOL    HW246137   1.663   5.562   0.369  1.6289  0.4246 -1.3892
11495SOL     OW46138   8.195   5.973   6.706  0.2010 -0.0863 -0.3413
11495SOL    HW146139   8.104   5.982   6.745  0.4817 -0.5274  0.4113
11495SOL    HW246140   8.257   5.931   6.772  0.9892  0.3415 -0.7923
11496SOL     OW46141   0.433   5.210   6.733 -0.1286 -0.2904  0.1561
11496SOL    HW146142   0.367   5.137   6.749  0.2158 -0.4198  1.0215
11496SOL    HW246143   0.385   5.298   6.728 -0.4973 -0.5265 -0.4825
11497SOL     OW46144   4.114   7.731   2.255 -0.0967  0.1469 -0.2097
11497SOL    HW146145   4.174   7.677   2.197 -0.2323  0.8494 -1.0076
11497SOL    HW246146   4.077   7.673   2.328  1.0007 -0.4524 -0.1134
11498SOL     OW46147   8.594   8.160   7.150 -0.0684  0.2413 -0.1766
11498SOL    HW146148   8.532   8.140   7.073 -0.0604  0.4507 -0.2383
11498SOL    HW246149   8.648   8.241   7.128 -0.6456  0.7883  0.3861
11499SOL     OW46150   7.774   1.326   0.252 -0.1890  0.3548  0.2620
11499SOL    HW146151   7.687   1.371   0.267  0.4012  1.7461 -0.4622
11499SOL    HW246152   7.849   1.384   0.285  0.6858  0.6546 -2.1256
11500SOL     OW46153   5.251   1.889   3.222 -0.3884  0.5012 -0.1665
11500SOL    HW146154   5.275   1.845   3.308 -0.2873 -0.7526 -0.8306
11500SOL    HW246155   5.250   1.821   3.148  0.8118  1.7759 -1.3898
11501SOL     OW46156   5.006   5.534   1.096 -0.1929  0.6032  0.4458
11501SOL    HW146157   5.093   5.569   1.061  0.1895 -1.4589 -0.7726
11501SOL    HW246158   5.012   5.434   1.105 -2.2594  0.4983  0.8664
11502SOL     OW46159   8.783   8.408   8.103  0.1292  0.4400 -0.0643
11502SOL    HW146160   8.708   8.345   8.127  1.1377 -1.4293 -1.7081
11502SOL    HW246161   8.762   8.499   8.139 -1.7090 -0.6459  1.7443
11503SOL     OW46162   4.422   6.471   1.414  0.3698  0.4998  0.3588
11503SOL    HW146163   4.433   6.425   1.326  1.2051  2.7116 -0.7225
11503SOL    HW246164   4.324   6.476   1.436 -0.0077  1.7022 -1.4363
11504SOL     OW46165   4.036   9.060   4.732  0.1544 -0.0157  0.2718
11504SOL    HW146166   4.018   9.152   4.766 -1.0807 -1.0779  2.6436
11504SOL    HW246167   4.064   9.001   4.808  0.3444 -1.7363 -1.0953
11505SOL     OW46168   0.081   1.894   8.176  0.5317  0.4381 -0.2326
11505SOL    HW146169   0.112   1.987   8.156 -0.6303  0.5971 -1.3477
11505SOL    HW246170  -0.003   1.898   8.230 -0.5943  0.0674 -1.9234
11506SOL     OW46171   2.643   6.098   6.594 -0.4629 -0.3607 -0.5851
11506SOL    HW146172   2.635   6.031   6.667  0.9609 -0.5481 -0.5895
11506SOL    HW246173   2.735   6.137   6.594 -1.0720  1.1150 -0.9938
11507SOL     OW46174   3.595   8.311   4.288 -0.2556  0.1904  0.1316
11507SOL    HW146175   3.524   8.305   4.358 -2.0473 -0.3267 -1.6769
11507SOL    HW246176   3.580   8.391   4.230  0.6595  0.1023 -0.2460
11508SOL     OW46177   6.193   8.743   3.376 -0.0626 -0.3451 -0.4319
11508SOL    HW146178   6.177   8.765   3.280  0.7441  1.6893 -0.1254
11508SOL    HW246179   6.181   8.644   3.390 -0.1396 -0.6739 -2.6211
11509SOL     OW46180   8.131   3.091   1.301 -0.5914 -0.2589  0.4130
11509SOL    HW146181   8.160   3.039   1.381  0.1292 -0.4661  0.0123
11509SOL    HW246182   8.150   3.040   1.218 -2.5876 -0.6356  0.1613
11510SOL     OW46183   9.954   0.217   3.561 -0.4387  0.6395  0.0794
11510SOL    HW146184   9.953   0.138   3.622 -0.9325  1.1765  0.7813
11510SOL    HW246185  10.024   0.204   3.490  0.6931  0.3604  1.2229
11511SOL     OW46186   1.335   3.976   7.215  0.0990 -0.2040 -0.0296
11511SOL    HW146187   1.346   4.050   7.148  1.1343  1.2119  1.6374
11511SOL    HW246188   1.245   3.982   7.256  0.2858  0.3182  0.3088
11512SOL     OW46189   4.721   0.368   0.715 -0.3108 -0.0927  0.2771
11512SOL    HW146190   4.766   0.447   0.757 -2.2704  1.1194  0.1407
11512SOL    HW246191   4.718   0.293   0.781  1.7306 -0.1456  0.3425
11513SOL     OW46192   5.494   1.240   1.347 -0.1050 -0.0356 -1.0006
11513SOL    HW146193   5.449   1.210   1.262  1.1842 -2.2429 -0.9405
11513SOL    HW246194   5.467   1.180   1.422  0.7396  0.3419 -0.3854
11514SOL     OW46195   4.584   1.635   1.619 -0.5090  0.4942 -0.0735
11514SOL    HW146196   4.643   1.688   1.558 -0.0698 -1.7123 -1.6494
11514SOL    HW246197   4.639   1.571   1.673 -1.2027  0.2056  0.3040
11515SOL     OW46198   1.025   1.713   1.205 -0.1284 -0.3181 -0.4725
11515SOL    HW146199   0.971   1.797   1.201  2.6929  1.5776 -0.6963
11515SOL    HW246200   1.080   1.712   1.288 -0.2071 -2.0108 -0.4177
11516SOL     OW46201   0.668   1.777   0.114  0.2021  0.0481  0.7308
11516SOL    HW146202   0.629   1.757   0.024  0.4439 -0.8006  0.8086
11516SOL    HW246203   0.764   1.803   0.104  0.5392 -1.1298  0.8370
11517SOL     OW46204   1.629   5.353   3.856  0.2185  0.0472 -0.1029
11517SOL    HW146205   1.656   5.449   3.853 -1.3456  0.4978  0.2604
11517SOL    HW246206   1.566   5.333   3.781 -0.6382 -0.3398  0.7107
11518SOL     OW46207   0.007   5.062   7.684 -0.3114  0.4868 -0.3988
11518SOL    HW146208  -0.009   4.969   7.716 -0.6421  0.1234 -1.5887
11518SOL    HW246209  -0.018   5.127   7.756  0.3515 -0.3513  0.5938
11519SOL     OW46210   7.602   5.808   4.801 -0.3418  0.0318  0.1147
11519SOL    HW146211   7.636   5.867   4.875  1.5947 -2.2285  1.0847
11519SOL    HW246212   7.667   5.734   4.785 -1.0596  0.0984 -3.4460
11520SOL     OW46213   8.385   7.240   0.766  0.0299 -0.1212 -0.4328
11520SOL    HW146214   8.468   7.186   0.758  0.3483  0.0972  1.1842
11520SOL    HW246215   8.357   7.273   0.676  1.5212 -0.4472 -1.0161
11521SOL     OW46216   0.560   3.060   0.843  0.3688  0.1398 -0.1495
11521SOL    HW146217   0.479   3.103   0.882 -0.2808 -1.4871  0.3356
11521SOL    HW246218   0.640   3.082   0.899  0.2732  1.7506 -0.6321
11522SOL     OW46219   3.186   1.739   5.260  0.0177  0.2042 -0.4353
11522SOL    HW146220   3.175   1.672   5.187 -1.3572  0.4888 -0.5026
11522SOL    HW246221   3.275   1.727   5.304  0.1801 -1.0177 -1.0924
11523SOL     OW46222   5.445   4.797   1.269  0.4120 -0.5480  0.3537
11523SOL    HW146223   5.522   4.748   1.310 -0.2857 -2.0679 -0.1283
11523SOL    HW246224   5.378   4.819   1.341  2.0114  2.2425  1.0741
11524SOL     OW46225   2.118   9.429   1.706  0.0804  0.4021  0.0986
11524SOL    HW146226   2.082   9.364   1.639  0.1699 -1.9683  2.2894
11524SOL    HW246227   2.051   9.502   1.721 -1.3788 -0.8973 -0.0292
11525SOL     OW46228   2.493   8.211   5.362  0.5898 -0.4911  0.0639
11525SOL    HW146229   2.415   8.179   5.308  1.1069 -2.2578  0.3352
11525SOL    HW246230   2.560   8.255   5.302  0.9554 -2.0450 -0.6783
11526SOL     OW46231   8.755   5.968   2.859  0.1287  0.4285 -0.2372
11526SOL    HW146232   8.851   5.962   2.834  0.8857  1.2718  2.3232
11526SOL    HW246233   8.730   6.064   2.873 -1.0226  0.1971 -0.6203
11527SOL     OW46234   9.025   8.680   3.770  0.2849 -0.2658 -0.5102
11527SOL    HW146235   9.085   8.637   3.703 -1.3129 -2.9721 -0.2960
11527SOL    HW246236   8.968   8.749   3.724 -0.2996 -1.5960 -1.8193
11528SOL     OW46237   8.896   1.317   4.579  0.4615 -0.3055 -0.3635
11528SOL    HW146238   8.990   1.350   4.585  0.7173 -0.6585 -2.3259
11528SOL    HW246239   8.833   1.393   4.589  0.9284 -0.0621  0.9307
11529SOL     OW46240   9.276   4.684   8.083 -0.0906 -0.5846 -0.7299
11529SOL    HW146241   9.264   4.752   8.155  0.6927 -0.3798 -0.7866
11529SOL    HW246242   9.304   4.597   8.124 -1.7674 -1.0763 -0.5919
11530SOL     OW46243   3.105   9.576   0.871  0.0824 -0.1736  0.0254
11530SOL    HW146244   3.154   9.646   0.923 -1.8801  1.1037  0.1920
11530SOL    HW246245   3.160   9.549   0.792  1.7544  0.0596  1.0870
11531SOL     OW46246   4.782   8.946   2.513  0.4644 -0.3901 -0.1478
11531SOL    HW146247   4.694   8.960   2.468 -0.6218 -2.9677  1.0558
11531SOL    HW246248   4.836   8.881   2.460  1.4770  0.8959 -0.6832
11532SOL     OW46249   0.464   5.676   6.925  0.6791 -0.0181  0.7037
11532SOL    HW146250   0.425   5.650   6.837 -1.1644  0.9847  1.2118
11532SOL    HW246251   0.511   5.597   6.965  0.0360 -0.9666 -0.3816
11533SOL     OW46252   6.177   0.870   0.043  0.5257  0.3629 -0.2068
11533SOL    HW146253   6.229   0.870   0.128  3.9667  2.9255 -2.1608
11533SOL    HW246254   6.224   0.815  -0.026 -2.1360 -1.5808 -0.5382
11534SOL     OW46255   7.903   3.126   3.967 -0.3976 -0.7224 -0.1901
11534SOL    HW146256   7.923   3.178   4.050  0.4357  0.2151 -0.9626
11534SOL    HW246257   7.984   3.074   3.940 -1.5083 -3.2331  1.1099
11535SOL     OW46258   6.757   7.297   3.677 -0.4703  0.3488  0.2540
11535SOL    HW146259   6.795   7.229   3.615 -2.5982 -0.7405  0.0999
11535SOL    HW246260   6.802   7.385   3.662 -0.5783 -0.0198 -2.4491
11536SOL     OW46261   0.289   6.573   2.577  0.1322  0.3116 -0.3907
11536SOL    HW146262   0.367   6.633   2.592 -0.5027  0.3135  3.4897
11536SOL    HW246263   0.292   6.497   2.643 -0.4580 -2.5331 -3.5081
11537SOL     OW46264   0.196   6.376   0.704 -0.3592  0.4634 -0.0188
11537SOL    HW146265   0.174   6.303   0.639  2.6614  0.2856 -0.9343
11537SOL    HW246266   0.209   6.462   0.653  1.9769  0.3324  0.3010
11538SOL     OW46267   2.094   2.024   1.978  0.3929  0.2355 -0.6362
11538SOL    HW146268   2.185   2.049   2.010 -0.2379 -0.7571  2.0163
11538SOL    HW246269   2.059   1.948   2.032 -1.6221 -0.0372 -2.2662
11539SOL     OW46270   1.376   2.921   6.295  0.1681  0.6494 -0.7013
11539SOL    HW146271   1.475   2.922   6.283  0.5489 -1.3045  1.7634
11539SOL    HW246272   1.353   2.959   6.385 -0.9187 -2.8696  0.6014
11540SOL     OW46273   0.443   1.673   2.150 -0.0464  0.3785 -0.0739
11540SOL    HW146274   0.417   1.626   2.066 -0.8813  0.3882  0.1729
11540SOL    HW246275   0.471   1.767   2.128  0.7034  0.0671 -0.4538
11541SOL     OW46276   3.174   9.817   0.094 -0.9523 -0.4111 -0.1341
11541SOL    HW146277   3.120   9.776   0.021 -1.5123  1.0638 -0.5626
11541SOL    HW246278   3.234   9.888   0.056 -1.3364  0.4491  0.8274
11542SOL     OW46279   0.449   7.329   6.903 -0.4014 -0.4212  0.2423
11542SOL    HW146280   0.495   7.253   6.948  1.2090 -0.5502 -1.5376
11542SOL    HW246281   0.387   7.294   6.833 -1.4297 -0.1602  1.0104
11543SOL     OW46282   0.231   5.165   2.801 -0.0718 -0.4186 -0.0073
11543SOL    HW146283   0.308   5.195   2.745 -1.1159  1.1266 -0.6530
11543SOL    HW246284   0.265   5.127   2.887  1.3767  0.9632  0.0531
11544SOL     OW46285   7.190   9.762   6.234 -0.3547 -0.1665 -0.1013
11544SOL    HW146286   7.246   9.837   6.197 -0.2215  0.3653  1.1486
11544SOL    HW246287   7.099   9.765   6.194 -0.5715  1.1030  0.4756
11545SOL     OW46288   4.325   1.918   1.494  0.2593  0.5209  0.3956
11545SOL    HW146289   4.289   1.904   1.586  0.9892  0.0664  0.6153
11545SOL    HW246290   4.262   1.878   1.427  0.6072 -0.7727  0.8152
11546SOL     OW46291   4.778   2.784   4.104  0.3121  0.3861 -0.2142
11546SOL    HW146292   4.836   2.704   4.120 -1.2225 -0.7922 -0.4115
11546SOL    HW246293   4.712   2.794   4.178 -0.3775  0.6635 -0.8478
11547SOL     OW46294   5.020   2.683   5.016 -0.5324 -0.9920 -0.4596
11547SOL    HW146295   5.069   2.672   4.930 -1.4384 -3.3447 -0.7310
11547SOL    HW246296   5.070   2.637   5.089  0.8203  1.9733  0.5482
11548SOL     OW46297   9.315   9.952   2.015 -0.3108 -0.3097  0.1272
11548SOL    HW146298   9.234   9.899   2.039  0.1056 -0.6949  0.7188
11548SOL    HW246299   9.383   9.892   1.973  0.5549 -0.4653  1.7113
11549SOL     OW46300   4.046   4.985   0.008  0.0811  0.4884  0.6853
11549SOL    HW146301   4.118   4.993  -0.061  0.3099 -0.0901  0.8495
11549SOL    HW246302   3.959   5.018  -0.029  0.0170 -0.6238 -0.1610
11550SOL     OW46303   4.496   9.295   7.999 -0.4692 -0.3061 -0.3996
11550SOL    HW146304   4.400   9.266   7.991 -0.5926  0.0328 -0.1631
11550SOL    HW246305   4.544   9.232   8.060 -0.6149 -0.3144 -0.2914
11551SOL     OW46306   1.813   7.500   2.624  0.2096 -0.0413 -0.4532
11551SOL    HW146307   1.903   7.539   2.609  0.4714 -0.3819  0.2191
11551SOL    HW246308   1.793   7.497   2.722 -0.5856  0.1618 -0.6049
11552SOL     OW46309   4.677   5.519   1.525  0.4567 -0.2177 -0.3349
11552SOL    HW146310   4.654   5.582   1.451 -0.3425  1.2604  1.1162
11552SOL    HW246311   4.637   5.429   1.507 -2.8583  1.1173  0.0251
11553SOL     OW46312   3.347   1.132   0.473 -0.1824  0.0435  0.1457
11553SOL    HW146313   3.443   1.154   0.494  0.3246 -1.5381 -0.4378
11553SOL    HW246314   3.293   1.216   0.474  1.7850  1.4325 -2.6744
11554SOL     OW46315   1.702   6.831   3.944  0.1562  0.1584  0.6597
11554SOL    HW146316   1.711   6.927   3.918 -0.2041  0.4244  1.4897
11554SOL    HW246317   1.649   6.824   4.029 -3.1362 -1.0115 -1.3823
11555SOL     OW46318   7.235   2.147   1.558  0.0919 -0.1673  0.3316
11555SOL    HW146319   7.190   2.153   1.647 -1.1739 -0.3227 -0.2971
11555SOL    HW246320   7.215   2.059   1.516 -0.1653  0.3061 -0.5599
11556SOL     OW46321   8.073   4.518   4.548  0.0343  0.1056 -0.6933
11556SOL    HW146322   8.153   4.573   4.526 -0.7830  0.9870 -1.4574
11556SOL    HW246323   8.008   4.573   4.601 -1.1568  0.1374 -2.1796
11557SOL     OW46324   1.609   5.876   0.317  0.2026  0.4891 -0.0374
11557SOL    HW146325   1.576   5.784   0.296  0.9863 -0.0005  0.8269
11557SOL    HW246326   1.665   5.910   0.242 -0.3426  0.3885 -0.4927
11558SOL     OW46327   2.657   5.332   0.938  0.1758  0.4528  0.4726
11558SOL    HW146328   2.734   5.353   0.997 -0.4225  0.2150  1.3521
11558SOL    HW246329   2.690   5.292   0.853  0.9271 -1.4921  1.6465
11559SOL     OW46330   2.718   5.882   2.186 -0.2953 -0.8575 -0.0744
11559SOL    HW146331   2.815   5.882   2.163 -0.2764 -0.1403 -0.0048
11559SOL    HW246332   2.705   5.832   2.272 -0.2237 -2.5192 -1.0066
11560SOL     OW46333   2.669   0.532   6.923  0.5929  0.5054 -0.0682
11560SOL    HW146334   2.763   0.511   6.949  0.8992 -0.1400 -1.6826
11560SOL    HW246335   2.659   0.529   6.824 -1.0681  0.8503  0.0608
11561SOL     OW46336   4.817   1.640   0.126  0.1503 -0.3339 -0.0459
11561SOL    HW146337   4.810   1.568   0.057 -2.4010 -0.1125 -0.0567
11561SOL    HW246338   4.800   1.729   0.083 -2.2827 -0.2656  0.9679
11562SOL     OW46339   2.500   2.348   6.522 -0.1106  0.1600 -0.3101
11562SOL    HW146340   2.517   2.391   6.433  0.9101 -1.1940 -0.7919
11562SOL    HW246341   2.402   2.334   6.534 -0.5985  3.8363  0.4645
11563SOL     OW46342   0.161   8.969   3.474 -0.1897 -0.1404  0.2415
11563SOL    HW146343   0.180   8.889   3.530 -2.5371 -0.1281  1.0846
11563SOL    HW246344   0.113   8.941   3.391  2.7888 -0.0942 -1.5801
11564SOL     OW46345   2.240   6.107   7.072 -0.2386 -0.2612 -0.1598
11564SOL    HW146346   2.218   6.181   7.135  0.5780 -0.3394  0.2357
11564SOL    HW246347   2.281   6.146   6.989 -2.0372 -0.1020 -0.9810
11565SOL     OW46348   9.936   9.191   3.766 -0.0329  0.8792 -0.2716
11565SOL    HW146349   9.890   9.260   3.821 -1.0632  0.2308 -0.3156
11565SOL    HW246350   9.929   9.102   3.810 -0.0585  0.5203 -0.9856
11566SOL     OW46351   8.670   1.481   1.111  0.1359 -0.0593 -0.3682
11566SOL    HW146352   8.707   1.483   1.204  0.1673 -1.7197 -0.3271
11566SOL    HW246353   8.571   1.493   1.114  0.3813  2.2094 -0.3152
11567SOL     OW46354   9.913   8.809   7.528  0.2923 -0.0039  0.1816
11567SOL    HW146355   9.973   8.885   7.501  0.5475 -0.2499  0.0447
11567SOL    HW246356   9.948   8.724   7.488  1.1794 -0.5088  1.9872
11568SOL     OW46357   9.243   3.613   1.488 -0.0864 -0.1840  0.2316
11568SOL    HW146358   9.289   3.584   1.572 -1.7494  0.2402  1.3266
11568SOL    HW246359   9.227   3.534   1.430  2.7469 -0.2261 -0.5672
11569SOL     OW46360   5.539   2.231   3.851 -0.3816 -0.0447  1.1594
11569SOL    HW146361   5.492   2.217   3.939 -1.3186 -1.2022  0.4914
11569SOL    HW246362   5.472   2.225   3.777  0.6195 -0.3788  0.2731
11570SOL     OW46363   7.939   8.602   6.493 -0.2546  0.0485 -0.6454
11570SOL    HW146364   7.934   8.701   6.484  2.1142  0.1021 -1.8797
11570SOL    HW246365   7.918   8.559   6.405 -0.8524 -0.5297 -0.2255
11571SOL     OW46366   8.157   2.409   7.165  0.4501 -0.2978  0.1046
11571SOL    HW146367   8.205   2.479   7.218  0.6900 -0.8026  0.5604
11571SOL    HW246368   8.199   2.402   7.074 -0.2284  0.8589 -0.3043
11572SOL     OW46369   4.394   5.559   1.161 -0.3514  0.1954 -0.2021
11572SOL    HW146370   4.306   5.605   1.158 -0.0093  0.8175 -0.6644
11572SOL    HW246371   4.452   5.601   1.231 -0.1294  0.3011 -0.4500
11573SOL     OW46372   3.749   2.020   3.538 -0.4062  0.2000  0.0430
11573SOL    HW146373   3.739   2.071   3.623 -0.0969 -1.0268  0.8183
11573SOL    HW246374   3.679   1.949   3.533 -3.1070  2.8893 -2.6646
11574SOL     OW46375   8.087   6.247   3.265  0.3015  0.2988 -0.3547
11574SOL    HW146376   8.176   6.286   3.286  1.1726 -0.7445 -2.0199
11574SOL    HW246377   8.078   6.235   3.166 -2.1370  1.4416 -0.2971
11575SOL     OW46378   7.749   5.581   1.800  0.2175 -0.2336  0.4961
11575SOL    HW146379   7.707   5.669   1.781 -1.6507 -0.8966  1.3856
11575SOL    HW246380   7.820   5.562   1.732  0.0620  1.5634 -0.1881
11576SOL     OW46381   8.103   5.359   3.000 -0.1250  0.1355 -0.1827
11576SOL    HW146382   8.149   5.440   2.965  0.7997 -0.6445 -0.8080
11576SOL    HW246383   8.023   5.339   2.943  0.3598 -0.1098 -0.7786
11577SOL     OW46384   1.025   6.440   2.230 -0.1129  0.9309 -0.2147
11577SOL    HW146385   1.119   6.468   2.253  0.3559  0.7181 -1.7772
11577SOL    HW246386   0.981   6.513   2.177  0.7226 -0.7209 -3.3243
11578SOL     OW46387   5.145   3.954   0.264 -0.3291  0.3370 -0.4825
11578SOL    HW146388   5.228   3.977   0.316 -0.4673  1.1428 -0.6053
11578SOL    HW246389   5.116   4.035   0.212 -0.4966 -0.3081 -1.3907
11579SOL     OW46390   8.796   4.093   2.574 -0.3199  0.3261  0.4660
11579SOL    HW146391   8.808   4.188   2.601  1.3615  0.4079 -0.5172
11579SOL    HW246392   8.699   4.069   2.577 -0.7781  2.1400  0.4611
11580SOL     OW46393   3.395   2.013   7.789  0.3380 -0.2493  0.5927
11580SOL    HW146394   3.459   1.937   7.789  1.7965  0.9520 -0.2202
11580SOL    HW246395   3.392   2.055   7.699 -1.9864 -0.5871  0.4857
11581SOL     OW46396   4.894   3.480   6.989  0.0535 -0.2001 -0.7709
11581SOL    HW146397   4.894   3.501   6.891 -1.1392  0.8169 -0.5562
11581SOL    HW246398   4.828   3.408   7.008  2.4736 -2.5891 -1.1516
11582SOL     OW46399   5.232   0.104   2.910 -0.0959 -0.3394  0.2368
11582SOL    HW146400   5.319   0.080   2.953 -0.4753 -1.0553  0.6240
11582SOL    HW246401   5.158   0.058   2.958 -0.6852  0.2268 -0.1248
11583SOL     OW46402   4.017   3.678   7.847  0.2170  0.0166 -0.2067
11583SOL    HW146403   3.945   3.681   7.916  0.8161  1.4000  0.3748
11583SOL    HW246404   4.015   3.762   7.793  2.0878  0.5596  0.5441
11584SOL     OW46405   2.648   3.963   5.256 -0.2556  0.4967  0.1476
11584SOL    HW146406   2.571   3.920   5.303 -0.5889 -1.6032 -2.1497
11584SOL    HW246407   2.613   4.032   5.192  0.1627  3.0635  2.6364
11585SOL     OW46408   4.996   2.557   4.059 -0.0503 -0.1990 -0.2479
11585SOL    HW146409   5.033   2.511   4.140  1.0562  0.8691 -0.1420
11585SOL    HW246410   4.920   2.503   4.022  1.3975 -2.2622 -0.2961
11586SOL     OW46411   7.837   7.528   3.174 -1.0065  0.2189  0.1813
11586SOL    HW146412   7.904   7.468   3.219 -1.8200 -0.3227  0.6772
11586SOL    HW246413   7.866   7.545   3.080 -0.2683 -0.1686  0.3317
11587SOL     OW46414   0.287   7.253   6.089 -0.2590  0.1919 -0.2612
11587SOL    HW146415   0.271   7.175   6.029 -2.1209  0.3098  0.0579
11587SOL    HW246416   0.331   7.327   6.037  0.4092 -0.6147 -0.8546
11588SOL     OW46417   9.151   9.532   6.439  0.2286  0.2545 -0.5385
11588SOL    HW146418   9.073   9.501   6.384 -0.5748 -0.2052  0.8439
11588SOL    HW246419   9.231   9.475   6.418  0.3377  0.9788 -2.2476
11589SOL     OW46420   4.108   4.810   6.843 -0.2977 -0.0496 -0.3883
11589SOL    HW146421   4.095   4.804   6.942 -2.6607 -1.3957 -0.7149
11589SOL    HW246422   4.205   4.803   6.821  0.0877 -1.8802  1.7236
11590SOL     OW46423   8.321   2.918   0.293 -0.1346  0.2357  0.4900
11590SOL    HW146424   8.301   2.821   0.274 -0.1614  0.5568 -1.2046
11590SOL    HW246425   8.390   2.950   0.229  1.4379  0.7817  2.4232
11591SOL     OW46426   3.425   1.043   1.402  0.1459  0.6384 -0.2296
11591SOL    HW146427   3.442   1.120   1.341 -1.5538  1.1505 -0.0983
11591SOL    HW246428   3.473   0.962   1.369 -0.2109  1.0865 -1.8584
11592SOL     OW46429   2.074   4.504   3.085  0.4394 -0.0387  0.3509
11592SOL    HW146430   2.060   4.592   3.040 -0.8572  0.1515  1.1169
11592SOL    HW246431   2.052   4.430   3.021 -0.3432  0.2174  0.3176
11593SOL     OW46432   9.287   3.563   4.057  0.5471  0.4296  0.4073
11593SOL    HW146433   9.230   3.579   4.138 -1.3231  0.0391 -0.8051
11593SOL    HW246434   9.292   3.646   4.002 -1.6211 -0.4335 -1.1766
11594SOL     OW46435   3.368   7.572   6.482 -0.2348 -0.2560 -0.0466
11594SOL    HW146436   3.420   7.556   6.567 -0.6343  0.3805  0.3148
11594SOL    HW246437   3.270   7.567   6.502 -0.3256 -0.8274 -0.6154
11595SOL     OW46438   2.814   0.276   5.213  0.1175 -0.7549  1.0745
11595SOL    HW146439   2.764   0.198   5.175  0.0138  0.1908 -0.7783
11595SOL    HW246440   2.883   0.306   5.148  1.9702 -0.9666  2.9028
11596SOL     OW46441   4.950   8.332   3.502  0.5096  0.5525  0.5695
11596SOL    HW146442   4.943   8.337   3.602  0.4305 -0.1037  0.5955
11596SOL    HW246443   4.871   8.377   3.461 -1.3061 -2.3036  0.8286
11597SOL     OW46444   1.544   6.952   4.971  0.3355 -0.3243  0.1051
11597SOL    HW146445   1.475   6.909   4.913 -0.1446 -0.6500  0.9121
11597SOL    HW246446   1.562   7.044   4.938 -0.9287 -0.0200  0.2405
11598SOL     OW46447   9.613   3.659   4.793  0.3209  0.0362  0.6561
11598SOL    HW146448   9.632   3.561   4.805  0.3866 -0.3032 -2.0481
11598SOL    HW246449   9.688   3.712   4.832  0.2410 -0.9657  2.2410
11599SOL     OW46450   1.920   3.725   1.103  0.0238  0.0307 -0.3562
11599SOL    HW146451   1.889   3.682   1.019  1.7423 -1.9307 -0.0251
11599SOL    HW246452   2.019   3.739   1.100  0.0019  0.6287  1.0372
11600SOL     OW46453   7.463   3.717   1.570 -0.0545  0.6793  0.0701
11600SOL    HW146454   7.504   3.626   1.564  1.0777  1.0073  2.2834
11600SOL    HW246455   7.367   3.709   1.596 -0.0138  0.0802  0.0285
11601SOL     OW46456   7.734   7.909   4.442  0.8355  0.2353  0.1996
11601SOL    HW146457   7.668   7.939   4.373 -1.0587  1.0689  2.3175
11601SOL    HW246458   7.736   7.809   4.446 -0.0867  0.2015 -0.0868
11602SOL     OW46459   0.335   2.477   0.499 -0.2104 -0.6376  0.0107
11602SOL    HW146460   0.324   2.495   0.597 -2.0764 -0.9848 -0.1135
11602SOL    HW246461   0.367   2.560   0.454 -1.3822  0.1481  0.6021
11603SOL     OW46462   0.698   8.488   5.602 -0.2095 -0.5591 -0.4166
11603SOL    HW146463   0.772   8.551   5.627 -1.4653  0.5034  0.6845
11603SOL    HW246464   0.710   8.459   5.507  1.5241 -0.2675 -0.2997
11604SOL     OW46465   3.779   7.824   0.729 -0.1409 -0.2462  0.1175
11604SOL    HW146466   3.754   7.729   0.746  0.0415 -0.3793 -0.3416
11604SOL    HW246467   3.714   7.885   0.776 -1.5468 -0.5802 -1.3466
11605SOL     OW46468   0.891   4.613   7.907  0.1596  0.0503  0.2484
11605SOL    HW146469   0.953   4.672   7.855 -0.5520 -0.6034 -1.3797
11605SOL    HW246470   0.880   4.526   7.859 -2.5360  0.4142  0.1448
11606SOL     OW46471   8.691   0.596   4.304  0.2706 -0.2654 -0.3234
11606SOL    HW146472   8.777   0.628   4.344  0.4866 -1.6459  0.3600
11606SOL    HW246473   8.662   0.660   4.233  2.6421 -0.5471 -1.6296
11607SOL     OW46474   9.349   4.688   1.311  0.2953 -0.5875 -0.3474
11607SOL    HW146475   9.294   4.618   1.358 -0.7528  1.5934  1.8004
11607SOL    HW246476   9.303   4.714   1.226 -0.3329 -1.0774 -0.1701
11608SOL     OW46477   3.170   3.884   6.276 -0.3217 -0.4025  0.1055
11608SOL    HW146478   3.254   3.831   6.291 -0.1524  0.4860  2.6036
11608SOL    HW246479   3.184   3.947   6.199  0.8715 -1.1479 -0.3034
11609SOL     OW46480   7.534   2.835   2.707 -0.0841 -0.4089 -1.0694
11609SOL    HW146481   7.528   2.736   2.693 -0.0091 -0.8640  1.7679
11609SOL    HW246482   7.444   2.870   2.733  0.1411  0.0552 -0.9125
11610SOL     OW46483   7.574   4.430   7.696  0.2518  0.0760 -0.8109
11610SOL    HW146484   7.534   4.521   7.682 -2.1567 -0.6532  1.1354
11610SOL    HW246485   7.665   4.440   7.734 -0.2873  1.6746  0.1228
11611SOL     OW46486   4.262   6.380   3.851  0.4532 -0.5770  0.5829
11611SOL    HW146487   4.286   6.295   3.805 -1.0639 -1.9643  2.2606
11611SOL    HW246488   4.171   6.408   3.823  0.0349 -0.7460  1.7519
11612SOL     OW46489  10.002   8.225   2.400  0.6778 -0.0416 -0.5430
11612SOL    HW146490   9.946   8.206   2.481 -0.1595 -0.3586 -1.1851
11612SOL    HW246491   9.997   8.147   2.338  2.5973 -0.4849 -0.1972
11613SOL     OW46492   2.879   9.865   0.794 -0.3684 -0.1156  0.4265
11613SOL    HW146493   2.974   9.895   0.801 -0.6807  0.3814  2.9108
11613SOL    HW246494   2.830   9.924   0.729  0.4768  1.0183  0.8076
11614SOL     OW46495   0.402   7.359   1.031  0.1336 -1.1156 -0.8731
11614SOL    HW146496   0.358   7.375   0.943  0.6039  1.0554 -0.7503
11614SOL    HW246497   0.468   7.432   1.049  1.7183 -2.7640  0.2431
11615SOL     OW46498   1.362   3.261   0.124 -0.2212  0.2883  0.7729
11615SOL    HW146499   1.381   3.346   0.074  0.0371 -0.0355  0.3127
11615SOL    HW246500   1.264   3.243   0.123 -0.2459  0.4266  0.6072
11616SOL     OW46501   3.767   0.426   5.095 -0.5827 -0.3220 -0.4285
11616SOL    HW146502   3.844   0.417   5.032  0.9017 -1.7290  1.5357
11616SOL    HW246503   3.756   0.523   5.120  1.3798 -0.2559  0.2567
11617SOL     OW46504   9.068   3.513   3.355  0.7631  0.0495 -0.5894
11617SOL    HW146505   9.028   3.487   3.443  0.0144 -0.0679 -0.9668
11617SOL    HW246506   9.128   3.592   3.369 -0.0016  0.5574 -0.1044
11618SOL     OW46507   4.209   0.687   0.187 -0.0147  0.0271 -0.2219
11618SOL    HW146508   4.284   0.750   0.167  1.4933 -1.5601  0.3184
11618SOL    HW246509   4.222   0.602   0.135 -0.9298 -0.6163  0.5842
11619SOL     OW46510   9.425   2.775   0.325  0.1015  0.2387  0.4590
11619SOL    HW146511   9.403   2.867   0.293  0.6058  0.1681 -0.0970
11619SOL    HW246512   9.388   2.708   0.262 -0.0521  0.0654  0.7329
11620SOL     OW46513   7.175   0.042   8.039  0.1621 -0.5450  0.2303
11620SOL    HW146514   7.169  -0.051   8.073 -0.5782  0.3042  2.5661
11620SOL    HW246515   7.269   0.065   8.017  0.3949 -1.7242  0.0197
11621SOL     OW46516   9.683   7.732   0.904  0.1768 -0.4728 -0.5247
11621SOL    HW146517   9.654   7.652   0.956  0.4431  0.1061  0.5217
11621SOL    HW246518   9.782   7.729   0.890  0.1538 -0.4453 -0.7066
11622SOL     OW46519   7.752   9.590   1.730  0.3161  0.6730  0.0097
11622SOL    HW146520   7.798   9.559   1.814  1.0013 -2.5500 -1.5080
11622SOL    HW246521   7.653   9.590   1.745  0.3350 -1.6206  0.2941
11623SOL     OW46522   0.472   8.841   4.356 -0.5798 -0.0848  0.4239
11623SOL    HW146523   0.517   8.839   4.445 -1.5547 -0.1899  0.9223
11623SOL    HW246524   0.457   8.936   4.329 -0.7294 -0.0540  0.6091
11624SOL     OW46525   7.749   2.867   2.383  0.2987  0.2372  0.3594
11624SOL    HW146526   7.800   2.860   2.469  1.1024 -1.1434 -0.2126
11624SOL    HW246527   7.701   2.954   2.381  0.2375  0.2823  2.2250
11625SOL     OW46528   9.198   2.076   1.371 -0.4952 -0.6283  0.1119
11625SOL    HW146529   9.178   2.028   1.286 -0.1625 -2.3007  0.9415
11625SOL    HW246530   9.149   2.030   1.446 -2.2519  1.9117  0.5796
11626SOL     OW46531   2.217   8.674   3.749  0.3275 -0.3884  0.1363
11626SOL    HW146532   2.120   8.684   3.726  0.2146  0.2638  0.8485
11626SOL    HW246533   2.225   8.644   3.844  0.8364  0.2741  0.3044
11627SOL     OW46534   4.202   4.067   7.399  0.5531 -0.1003 -0.4165
11627SOL    HW146535   4.126   4.076   7.335  0.5844  0.1988 -0.4120
11627SOL    HW246536   4.189   3.985   7.455 -0.5830  0.8144  0.6750
11628SOL     OW46537   2.004   4.969   3.945  0.0554  0.4735 -0.1468
11628SOL    HW146538   1.938   5.016   3.886  0.1731  1.9481  0.8776
11628SOL    HW246539   2.095   5.009   3.933  0.4576 -0.4558 -0.3181
11629SOL     OW46540   0.862   3.591   3.208  0.0459 -0.2192 -0.2186
11629SOL    HW146541   0.819   3.682   3.206  0.0821 -0.1882  0.3564
11629SOL    HW246542   0.902   3.575   3.298  0.3421 -0.6698 -0.4287
11630SOL     OW46543   8.754   7.575   2.234  0.2382 -0.1440 -0.0938
11630SOL    HW146544   8.674   7.630   2.212  0.5232  1.4939  2.7079
11630SOL    HW246545   8.834   7.634   2.244  0.9504 -1.2909  1.1209
11631SOL     OW46546   2.189   9.855   0.695  0.1212 -0.2496 -0.2603
11631SOL    HW146547   2.094   9.837   0.671  0.7750 -2.5701 -1.1988
11631SOL    HW246548   2.196   9.871   0.793 -1.5995  2.5992 -0.5483
11632SOL     OW46549   3.940   6.042   3.647 -0.1489  0.2930 -0.4010
11632SOL    HW146550   3.850   6.008   3.622  0.7324 -2.2574 -0.2738
11632SOL    HW246551   3.978   6.094   3.571 -1.4413  0.7989 -0.7127
11633SOL     OW46552   1.952   0.182   3.089 -0.0404 -0.3974  0.1512
11633SOL    HW146553   2.000   0.250   3.033 -0.2216 -0.3032  0.1101
11633SOL    HW246554   1.867   0.156   3.044  0.2948 -1.0704 -0.1129
11634SOL     OW46555   0.999   5.344   5.825 -0.4573  0.3123  0.1908
11634SOL    HW146556   1.062   5.406   5.779 -0.8655 -0.8544 -1.9875
11634SOL    HW246557   1.049   5.263   5.858 -0.8083 -0.7673 -1.8217
11635SOL     OW46558   9.580   4.778   6.626 -0.8222 -0.5643 -0.9449
11635SOL    HW146559   9.528   4.694   6.641 -1.9210  0.3269  0.3214
11635SOL    HW246560   9.616   4.812   6.713 -0.0993  0.0920 -1.4894
11636SOL     OW46561   7.447   2.174   6.316 -0.3721 -0.0756  0.4847
11636SOL    HW146562   7.456   2.083   6.276  0.1314  0.6051 -0.9962
11636SOL    HW246563   7.394   2.233   6.254  0.0617  0.8822  1.0044
11637SOL     OW46564   5.513   4.810   0.820 -0.0719 -0.4906 -0.5715
11637SOL    HW146565   5.541   4.714   0.810 -0.2110 -0.3609 -2.3864
11637SOL    HW246566   5.461   4.838   0.740 -1.2504  0.7077  0.5946
11638SOL     OW46567   6.988   5.738   7.780 -0.0293  0.4010  0.2224
11638SOL    HW146568   7.021   5.797   7.706  0.1615 -1.2384 -1.0258
11638SOL    HW246569   6.942   5.794   7.849  0.0802  1.9977 -0.9663
11639SOL     OW46570   6.456   8.187   7.239 -0.3555 -0.1392 -0.3207
11639SOL    HW146571   6.499   8.162   7.152  2.6407 -0.1354  1.0898
11639SOL    HW246572   6.444   8.105   7.295  0.7819  0.2703  0.5510
11640SOL     OW46573   4.471   7.496   5.161  0.2060 -0.1740  0.1268
11640SOL    HW146574   4.418   7.421   5.122  0.0125  0.0549 -0.0563
11640SOL    HW246575   4.546   7.460   5.215  1.0537 -0.4972 -1.2399
11641SOL     OW46576   5.952   0.276   6.687  0.1354 -0.1744  0.5384
11641SOL    HW146577   6.025   0.339   6.714  0.4619  0.1614 -1.0747
11641SOL    HW246578   5.863   0.316   6.709  0.3417  0.8617 -0.4632
11642SOL     OW46579   7.366   8.666   4.694 -0.3271  0.4761 -0.7839
11642SOL    HW146580   7.382   8.682   4.596  0.7108 -1.1425 -0.9059
11642SOL    HW246581   7.273   8.633   4.708  0.4644 -2.1546 -1.5883
11643SOL     OW46582   4.197   8.174   3.807 -0.3361  0.3267  0.4598
11643SOL    HW146583   4.292   8.148   3.789 -0.1920  0.2568  1.3013
11643SOL    HW246584   4.190   8.273   3.813 -0.3981  0.3558 -0.0357
11644SOL     OW46585   0.052   4.728   6.358  0.0206 -0.0585 -0.3053
11644SOL    HW146586  -0.002   4.644   6.369  0.6624 -0.4183  0.1231
11644SOL    HW246587   0.149   4.706   6.367  0.1805  0.7593 -0.0476
11645SOL     OW46588   0.551   8.524   4.025  0.2817 -0.0986 -0.6473
11645SOL    HW146589   0.543   8.619   4.054 -0.7752  0.2778 -2.1123
11645SOL    HW246590   0.641   8.489   4.049  1.2408  1.7607 -1.4956
11646SOL     OW46591   8.734   0.826   1.914 -0.2333 -0.1972  0.4895
11646SOL    HW146592   8.776   0.905   1.960  0.4946 -1.1152  1.4522
11646SOL    HW246593   8.806   0.763   1.885 -0.8243 -0.6458 -0.0056
11647SOL     OW46594   0.544   5.748   4.092 -0.2582 -0.2635 -0.2576
11647SOL    HW146595   0.568   5.706   4.180 -1.0709 -0.0028  0.0868
11647SOL    HW246596   0.458   5.797   4.101  0.4300  1.0609 -0.7989
11648SOL     OW46597   4.194   5.444   2.076  0.3589  0.1847  0.1602
11648SOL    HW146598   4.191   5.417   2.173 -0.2124 -0.5282 -0.0558
11648SOL    HW246599   4.121   5.509   2.058  1.6118  1.7510  0.6333
11649SOL     OW46600   3.859   1.418   2.264 -0.0320 -0.3836 -0.3013
11649SOL    HW146601   3.887   1.342   2.323  2.3711  0.2323 -0.5619
11649SOL    HW246602   3.821   1.383   2.179 -1.3070 -1.2751  0.6191
11650SOL     OW46603   8.181   6.087   7.290 -0.0177 -0.2425 -0.4599
11650SOL    HW146604   8.170   6.163   7.354  0.7558  0.2540 -0.9055
11650SOL    HW246605   8.254   6.109   7.226  0.4364 -1.5137 -0.3765
11651SOL     OW46606   9.720   1.124   3.584 -0.5027 -0.0593 -0.0022
11651SOL    HW146607   9.713   1.043   3.642  0.0222  1.2919  2.0085
11651SOL    HW246608   9.637   1.134   3.529 -1.5410 -0.7034  1.4219
11652SOL     OW46609   6.009   1.143   0.314 -0.3460 -0.4511 -0.0431
11652SOL    HW146610   6.081   1.153   0.246 -0.2684 -0.3174  0.0598
11652SOL    HW246611   6.042   1.175   0.403 -0.0348 -1.7620  0.3266
11653SOL     OW46612   6.880   8.938   2.567  0.6081 -0.7253  0.0170
11653SOL    HW146613   6.904   8.986   2.482 -0.2683 -0.2709  0.0208
11653SOL    HW246614   6.873   9.004   2.642  1.3542 -1.1243  0.4400
11654SOL     OW46615   6.805   9.660   2.784 -0.0310  0.2513 -0.3606
11654SOL    HW146616   6.762   9.684   2.871 -0.5971 -0.9204 -0.3157
11654SOL    HW246617   6.878   9.593   2.799  0.4904  0.7385 -0.6811
11655SOL     OW46618   7.925   5.382   1.317 -0.5720 -0.1394  0.2334
11655SOL    HW146619   7.900   5.428   1.232 -2.2715 -1.4643 -0.0250
11655SOL    HW246620   7.960   5.291   1.296  1.8558  0.6332  0.7909
11656SOL     OW46621   4.670   8.884   5.655 -0.0254 -0.2083 -0.0269
11656SOL    HW146622   4.595   8.825   5.683  0.9174 -0.8981  1.1182
11656SOL    HW246623   4.742   8.881   5.724  0.9714  0.5854 -1.0072
11657SOL     OW46624   4.270   8.515   3.340 -1.0659 -0.3440  0.7019
11657SOL    HW146625   4.353   8.569   3.326 -2.4462  1.7269  0.1701
11657SOL    HW246626   4.253   8.506   3.439 -0.6170 -0.1233  0.8022
11658SOL     OW46627   5.383   1.734   3.418 -0.1226 -0.1334  0.5535
11658SOL    HW146628   5.424   1.822   3.445  0.8430 -0.1544 -0.8245
11658SOL    HW246629   5.451   1.679   3.369 -1.2318 -0.9539 -0.0752
11659SOL     OW46630   7.069   1.391   3.499 -0.3539 -0.0523  0.4097
11659SOL    HW146631   7.095   1.296   3.480  2.4385  0.8495 -0.6390
11659SOL    HW246632   7.148   1.440   3.535 -1.6023  2.0372  0.3678
11660SOL     OW46633   6.298   0.182   6.780  0.0983  0.2361 -0.1261
11660SOL    HW146634   6.259   0.114   6.842 -2.5253  1.4650 -0.3899
11660SOL    HW246635   6.315   0.139   6.691  2.2259 -1.0665  0.8468
11661SOL     OW46636   8.123   4.538   6.828  0.0639  0.4081  0.0268
11661SOL    HW146637   8.169   4.606   6.884  0.1039  0.2253  0.2193
11661SOL    HW246638   8.157   4.543   6.734 -0.2539  0.9455 -0.0600
11662SOL     OW46639   2.421   6.603   7.920 -0.0325 -0.1509 -0.3543
11662SOL    HW146640   2.467   6.642   7.840 -0.0529  0.3401 -0.1270
11662SOL    HW246641   2.452   6.650   8.002 -0.6125 -0.1170 -0.1556
11663SOL     OW46642   3.658   4.867   7.367  0.3791 -0.4583 -0.0779
11663SOL    HW146643   3.638   4.828   7.277  1.7276  0.7097 -0.9134
11663SOL    HW246644   3.622   4.960   7.371 -1.5895 -1.2663  1.3890
11664SOL     OW46645   0.700   6.515   6.517  0.1759  0.3877 -0.7379
11664SOL    HW146646   0.797   6.493   6.515  0.4045  1.3022 -0.2433
11664SOL    HW246647   0.676   6.551   6.608 -0.5088  0.6770 -1.0275
11665SOL     OW46648   8.158   0.102   7.170 -0.0933  0.2626  0.3847
11665SOL    HW146649   8.115   0.042   7.238  1.3734 -0.9333  0.2812
11665SOL    HW246650   8.087   0.148   7.117 -1.2682 -1.4201  0.4359
11666SOL     OW46651   3.928   7.397   1.317 -0.0598  0.4394  0.3096
11666SOL    HW146652   3.869   7.316   1.319 -0.6625  0.8973  0.7345
11666SOL    HW246653   4.023   7.368   1.333 -0.4749  0.0130  2.1354
11667SOL     OW46654   8.726   5.959   4.883 -0.1483  0.4767  0.9254
11667SOL    HW146655   8.648   6.005   4.839  0.5509  0.6545 -0.1540
11667SOL    HW246656   8.740   5.870   4.840  0.1757  0.3982  1.1912
11668SOL     OW46657   4.400   9.902   1.898  0.2213 -0.0651  0.1316
11668SOL    HW146658   4.323   9.872   1.841 -0.2532 -0.7636  1.1502
11668SOL    HW246659   4.449   9.823   1.933  0.0725  0.3638  1.3116
11669SOL     OW46660   3.215   8.928   0.987 -0.1196 -0.1422 -0.5176
11669SOL    HW146661   3.271   8.857   0.944  0.9946 -0.3180  1.2023
11669SOL    HW246662   3.145   8.885   1.043  1.6280  0.0792  1.9041
11670SOL     OW46663   3.321   3.188   2.442  0.6333 -0.6219  0.0310
11670SOL    HW146664   3.354   3.282   2.453  1.4999 -0.8199 -0.7841
11670SOL    HW246665   3.222   3.186   2.456  0.6088  0.4035  0.0837
11671SOL     OW46666   1.020   4.352   7.732 -0.0258  0.1661  0.6251
11671SOL    HW146667   0.931   4.318   7.702  0.8434 -1.9299  0.3102
11671SOL    HW246668   1.039   4.319   7.824  1.5095 -1.5521 -0.2790
11672SOL     OW46669   3.711   6.406   2.952 -0.0612 -0.3560 -0.6179
11672SOL    HW146670   3.670   6.448   3.033 -0.3368  0.8750 -1.3882
11672SOL    HW246671   3.646   6.409   2.876  0.8158  0.0305 -1.3609
11673SOL     OW46672   7.149   0.649   7.422 -0.1827  0.2203 -0.1726
11673SOL    HW146673   7.118   0.737   7.387 -1.4850 -0.9120 -1.9559
11673SOL    HW246674   7.230   0.620   7.372 -2.1176 -1.4574 -2.4609
11674SOL     OW46675   3.158   7.673   7.000 -0.5461  0.5617  0.0549
11674SOL    HW146676   3.111   7.596   7.044 -0.2917 -0.3054 -1.1711
11674SOL    HW246677   3.130   7.758   7.045 -0.7424 -0.2421  1.5031
11675SOL     OW46678   0.711   2.325   5.889 -0.3005  0.5109 -0.0508
11675SOL    HW146679   0.780   2.253   5.878 -0.2856  0.3550  0.9654
11675SOL    HW246680   0.740   2.407   5.840 -0.2343 -0.1139 -1.0785
11676SOL     OW46681   0.483   6.855   2.749 -0.0457  0.0322 -0.6549
11676SOL    HW146682   0.497   6.853   2.650  2.0263 -0.4016 -0.3707
11676SOL    HW246683   0.571   6.863   2.795 -0.9816  0.0970  1.1728
11677SOL     OW46684   6.566   9.121   5.822 -0.4604 -0.0440  0.0097
11677SOL    HW146685   6.483   9.070   5.845 -0.6945 -0.3864 -1.5286
11677SOL    HW246686   6.634   9.058   5.783  0.7293  0.1358  1.7436
11678SOL     OW46687   0.551   9.508   1.751 -0.6239 -0.4753  0.5805
11678SOL    HW146688   0.604   9.564   1.815 -0.5227 -1.0092  0.9740
11678SOL    HW246689   0.549   9.413   1.784 -0.5995 -0.7502 -0.1959
11679SOL     OW46690   4.747   1.605   3.914  0.9671  0.4415 -0.5142
11679SOL    HW146691   4.813   1.658   3.967 -0.0855  0.8823  0.3548
11679SOL    HW246692   4.742   1.512   3.950  0.8080  0.5250 -0.3223
11680SOL     OW46693   0.901   2.640   0.990  0.1237 -0.0152 -0.0704
11680SOL    HW146694   0.889   2.719   0.929 -0.5512 -0.6586 -0.7648
11680SOL    HW246695   0.998   2.617   0.995  0.2551  0.4638 -0.3566
11681SOL     OW46696   7.655   0.497   0.719 -0.2988 -0.2253  0.1317
11681SOL    HW146697   7.640   0.406   0.757 -0.9438  0.2533  1.0570
11681SOL    HW246698   7.569   0.531   0.681 -1.0553  1.5358  3.2369
11682SOL     OW46699   1.824   0.540   3.079 -0.0121 -0.1399 -0.7825
11682SOL    HW146700   1.878   0.516   3.160 -0.8252 -2.7937 -1.0015
11682SOL    HW246701   1.751   0.473   3.066 -0.7700  1.0493 -2.9189
11683SOL     OW46702   8.108   2.738   8.177 -0.5265 -0.0883 -0.1089
11683SOL    HW146703   8.065   2.699   8.095  0.4024  1.5231 -1.4116
11683SOL    HW246704   8.204   2.758   8.157  0.3447 -1.8123  2.1337
11684SOL     OW46705   4.283   0.728   2.781 -0.2803 -0.6174  0.3972
11684SOL    HW146706   4.312   0.657   2.845  0.6765  0.2415  0.9514
11684SOL    HW246707   4.364   0.774   2.744 -0.8774  0.1710  0.0448
11685SOL     OW46708   0.542   7.190   6.497  0.2802 -0.3517  0.5178
11685SOL    HW146709   0.551   7.270   6.557 -0.0812  0.0732  0.0201
11685SOL    HW246710   0.530   7.221   6.403 -2.6099 -0.8993  0.6454
11686SOL     OW46711   4.456   7.127   4.110  0.6635 -0.1267  0.2180
11686SOL    HW146712   4.516   7.051   4.136  1.3794  0.4291  0.1830
11686SOL    HW246713   4.428   7.116   4.014  0.5383 -0.4941  0.2948
11687SOL     OW46714   0.781   6.569   2.027 -0.3859 -0.2472  0.1438
11687SOL    HW146715   0.724   6.492   1.999 -1.7236  1.5124 -2.0996
11687SOL    HW246716   0.724   6.651   2.040  1.2946  0.9256  0.3108
11688SOL     OW46717   3.564   6.126   2.310 -0.1448 -0.0391  0.1893
11688SOL    HW146718   3.517   6.114   2.223 -0.2647 -0.5585  0.3223
11688SOL    HW246719   3.650   6.175   2.296 -0.2819  0.0908 -0.1846
11689SOL     OW46720   7.617   4.866   6.477 -0.4531  0.1617  0.7033
11689SOL    HW146721   7.558   4.863   6.396  0.2266 -1.4560  0.2306
11689SOL    HW246722   7.699   4.919   6.456 -0.2964 -0.2200  0.3360
11690SOL     OW46723   2.170   9.552   3.006 -0.1286 -0.7788  0.2019
11690SOL    HW146724   2.146   9.459   2.979 -1.0599 -0.6031  0.4007
11690SOL    HW246725   2.160   9.563   3.105  0.8728 -0.7242  0.2988
11691SOL     OW46726   2.352   5.963   6.124  0.2423 -0.0410  0.4317
11691SOL    HW146727   2.339   6.012   6.210 -2.3154  2.2087 -1.1841
11691SOL    HW246728   2.275   5.902   6.108  0.0901  0.4826 -0.8671
11692SOL     OW46729   0.967   6.138   7.580  0.7077  0.9529 -0.3650
11692SOL    HW146730   0.994   6.226   7.618  0.7604  1.0395 -0.6007
11692SOL    HW246731   0.877   6.113   7.616  0.9131  0.8616  0.0927
11693SOL     OW46732   2.103   6.432   7.809 -0.3020  0.3463 -0.4933
11693SOL    HW146733   2.019   6.378   7.816 -1.0879  1.3975 -1.3870
11693SOL    HW246734   2.144   6.442   7.899 -2.7719  2.2781  0.5050
11694SOL     OW46735   7.967   6.759   3.817  0.3073 -0.0784 -0.0470
11694SOL    HW146736   7.915   6.674   3.812  1.7060 -0.9156 -0.7093
11694SOL    HW246737   7.963   6.805   3.728  1.4910 -0.6431 -0.4069
11695SOL     OW46738   9.288   1.404   0.266  0.1229 -0.1730  0.1887
11695SOL    HW146739   9.228   1.479   0.295 -0.3764 -0.9194  1.1102
11695SOL    HW246740   9.355   1.385   0.337  0.8571  0.0310 -0.4487
11696SOL     OW46741   7.175   8.990   6.645  0.2747 -0.1937  0.5247
11696SOL    HW146742   7.081   9.023   6.638  0.1576 -0.5887  0.2569
11696SOL    HW246743   7.214   9.021   6.732  0.4797  1.4345 -0.1291
11697SOL     OW46744   1.400   8.556   2.497  0.2763  0.0190  0.1198
11697SOL    HW146745   1.337   8.554   2.574  1.0394 -3.5638  0.7406
11697SOL    HW246746   1.377   8.483   2.433  3.7795 -1.4510  0.4064
11698SOL     OW46747   4.922   1.325   1.224 -0.4303 -0.3495  0.1090
11698SOL    HW146748   4.893   1.317   1.129  2.0155  2.8027 -1.0083
11698SOL    HW246749   4.863   1.390   1.272 -0.6273 -0.6537  0.2787
11699SOL     OW46750   9.772   9.958   3.912 -0.1512  0.1595  0.4657
11699SOL    HW146751   9.677   9.947   3.883 -0.4820  1.7852  0.8747
11699SOL    HW246752   9.795  10.056   3.913  1.2938 -0.1765  1.1148
11700SOL     OW46753   0.265   5.444   0.131  0.3673 -0.2285 -0.3446
11700SOL    HW146754   0.276   5.378   0.056  1.5768  0.6960 -1.0095
11700SOL    HW246755   0.236   5.397   0.214  2.1271 -1.7198 -0.5667
11701SOL     OW46756   8.192   7.798   6.775 -0.4810  0.0133  0.1430
11701SOL    HW146757   8.148   7.709   6.788 -1.2644  0.2818 -0.5754
11701SOL    HW246758   8.284   7.784   6.739 -0.4531 -0.5203  0.4094
11702SOL     OW46759   5.027   1.874   2.235  0.4922 -0.3179 -0.1052
11702SOL    HW146760   4.939   1.893   2.194  0.1767 -0.5026  0.4763
11702SOL    HW246761   5.014   1.847   2.331  1.2300  0.4942  0.2374
11703SOL     OW46762   4.800   1.767   7.399  0.1504  0.2007 -0.1822
11703SOL    HW146763   4.815   1.738   7.304 -1.0615 -0.6390 -0.1276
11703SOL    HW246764   4.767   1.861   7.400  0.8266  0.4430 -0.5585
11704SOL     OW46765   7.957   2.619   4.491  0.3315 -0.2425  0.4543
11704SOL    HW146766   7.957   2.689   4.420  0.1183  0.8561  1.5175
11704SOL    HW246767   8.050   2.584   4.504  0.2833 -0.8132 -0.7096
11705SOL     OW46768   3.542   9.361   7.809 -0.1865  0.4127 -0.0847
11705SOL    HW146769   3.483   9.313   7.873 -0.1172  1.7222  0.9731
11705SOL    HW246770   3.534   9.460   7.823  0.8773  0.6707 -1.1531
11706SOL     OW46771   8.195   1.516   0.142 -0.3764 -0.0328 -0.0794
11706SOL    HW146772   8.237   1.560   0.222 -0.0074  0.2074 -0.4054
11706SOL    HW246773   8.261   1.513   0.067 -0.7286 -0.2477 -0.3793
11707SOL     OW46774   1.432   9.890   6.949  0.3438 -0.4057 -0.3791
11707SOL    HW146775   1.345   9.869   6.995  0.3531 -1.1708 -0.6981
11707SOL    HW246776   1.413   9.918   6.854  0.4168 -0.1365 -0.3138
11708SOL     OW46777   4.805   3.844   6.241  0.2304  0.1615 -0.3897
11708SOL    HW146778   4.759   3.756   6.232  1.5657 -0.6523  0.4707
11708SOL    HW246779   4.823   3.863   6.337 -1.5394  2.1856 -0.4297
11709SOL     OW46780   9.724   5.799   7.688  1.2639 -0.2553  0.5382
11709SOL    HW146781   9.797   5.852   7.646 -1.3714  1.7246 -1.7050
11709SOL    HW246782   9.721   5.708   7.646  0.1059  0.9257 -2.0183
11710SOL     OW46783   3.547   7.946   4.725  0.1448 -0.7296  0.6848
11710SOL    HW146784   3.492   7.882   4.780 -2.4439 -0.8523 -1.9190
11710SOL    HW246785   3.572   7.902   4.639  1.1288  0.6923  0.2341
11711SOL     OW46786   7.800   3.638   0.638  0.3336  0.1976 -0.2632
11711SOL    HW146787   7.794   3.611   0.542 -1.7569 -0.7768  0.1116
11711SOL    HW246788   7.746   3.575   0.694  2.7372 -0.1295  1.7512
11712SOL     OW46789   0.684   6.609   7.228  0.0116 -0.0949 -0.0225
11712SOL    HW146790   0.713   6.697   7.264 -1.2627  0.4468 -0.2729
11712SOL    HW246791   0.764   6.552   7.209  0.7792  0.4475  1.5281
11713SOL     OW46792   9.600   2.201   0.402 -0.1538  0.4165  0.2801
11713SOL    HW146793   9.571   2.226   0.310  1.0204  0.5145 -0.0614
11713SOL    HW246794   9.694   2.231   0.418  0.3854 -1.4682  0.7651
11714SOL     OW46795   3.356   7.764   0.130  0.5785 -0.2173  0.3100
11714SOL    HW146796   3.286   7.808   0.075  1.5688  1.0504  0.0429
11714SOL    HW246797   3.398   7.689   0.079  0.9248  0.4288 -0.3584
11715SOL     OW46798   7.711   5.539   5.138  0.4313  0.7606 -0.5612
11715SOL    HW146799   7.732   5.543   5.041 -0.8108  1.0603 -0.8270
11715SOL    HW246800   7.659   5.620   5.164 -0.6307 -0.0948  0.0048
11716SOL     OW46801   9.271   7.316   7.600  0.1610 -0.5139  0.4982
11716SOL    HW146802   9.268   7.279   7.507 -1.3600 -1.3460  0.8524
11716SOL    HW246803   9.294   7.413   7.597  2.7059 -1.1119 -0.5584
11717SOL     OW46804   1.356   6.652   4.073 -0.2606  0.2465 -0.1500
11717SOL    HW146805   1.279   6.631   4.012  0.2955 -0.7863 -0.5159
11717SOL    HW246806   1.338   6.613   4.163  0.5100 -1.3558 -0.6668
11718SOL     OW46807   9.870   8.183   3.982  0.1717  0.1376 -0.9488
11718SOL    HW146808   9.813   8.104   4.005  0.0519  0.4445 -0.1737
11718SOL    HW246809   9.839   8.222   3.895 -0.1680 -0.2885 -1.0236
11719SOL     OW46810   8.380   2.785   7.239 -0.0546  0.8528 -0.5319
11719SOL    HW146811   8.327   2.820   7.162  0.2301 -1.3133 -1.7510
11719SOL    HW246812   8.421   2.862   7.289  1.0498  2.2399 -3.4429
11720SOL     OW46813   3.858   3.699   1.418  0.4515  0.1825  0.3947
11720SOL    HW146814   3.795   3.699   1.496  0.9320  0.3687  0.7884
11720SOL    HW246815   3.947   3.733   1.448  0.1787  1.8833 -0.6153
11721SOL     OW46816   1.374   5.013   3.642 -0.6924  0.1711  0.0346
11721SOL    HW146817   1.292   4.956   3.641  0.2016 -1.1593  0.0626
11721SOL    HW246818   1.429   4.993   3.561 -0.3251  0.9533  0.0875
11722SOL     OW46819   2.888   4.825   6.412 -0.0591 -0.0367 -0.1496
11722SOL    HW146820   2.808   4.779   6.449  0.3322 -0.7895 -0.2126
11722SOL    HW246821   2.886   4.922   6.436  0.2669 -0.5314  1.9671
11723SOL     OW46822   3.632   9.054   1.107 -0.6550  0.1305  0.6460
11723SOL    HW146823   3.659   8.961   1.084 -2.7598 -0.5031  0.6489
11723SOL    HW246824   3.540   9.053   1.148 -1.1669  2.3196 -0.3861
11724SOL     OW46825   7.756   1.883   0.575  0.3346  0.0360 -0.0827
11724SOL    HW146826   7.747   1.868   0.476  0.1338 -1.4413  0.1555
11724SOL    HW246827   7.746   1.796   0.623  0.0061  0.8165  1.2762
11725SOL     OW46828   2.845   7.594   6.003 -0.3852 -0.1116 -0.1378
11725SOL    HW146829   2.790   7.648   5.938  0.4964  0.1107 -0.7069
11725SOL    HW246830   2.907   7.534   5.952  0.7584  0.5121  0.4896
11726SOL     OW46831   8.900   4.576   1.412  0.2063 -0.1634 -0.3916
11726SOL    HW146832   8.951   4.658   1.440  1.0708 -1.0692  0.7859
11726SOL    HW246833   8.929   4.499   1.469 -0.5752 -1.2916 -1.5056
11727SOL     OW46834   1.787   0.320   0.908 -0.0765  0.5457 -0.2026
11727SOL    HW146835   1.740   0.233   0.891 -0.7900  1.2061 -1.6807
11727SOL    HW246836   1.723   0.383   0.952  1.0059 -0.2935  2.7058
11728SOL     OW46837   8.252   8.844   4.042 -0.1388  0.1751 -0.3531
11728SOL    HW146838   8.335   8.882   4.083 -0.4261  0.0365  0.3755
11728SOL    HW246839   8.175   8.904   4.064 -0.3712 -0.1424 -0.3051
11729SOL     OW46840   1.217   4.089   6.701  0.4748  0.0697  0.1215
11729SOL    HW146841   1.128   4.066   6.663  1.5715 -0.1021 -2.4715
11729SOL    HW246842   1.208   4.165   6.766 -1.2747  1.4310 -1.6735
11730SOL     OW46843   7.110   0.998   3.924 -0.4173 -0.0402 -0.4275
11730SOL    HW146844   7.108   0.981   4.023 -3.7110  0.6234 -0.3153
11730SOL    HW246845   7.192   1.051   3.901 -0.8088  1.8761  2.3162
11731SOL     OW46846   6.693   9.134   6.815  0.2122  0.0971 -0.2815
11731SOL    HW146847   6.765   9.074   6.849  0.7260  0.4885 -0.6693
11731SOL    HW246848   6.604   9.089   6.827  0.3109  0.5372  2.1954
11732SOL     OW46849   4.396   3.252   6.752 -0.1866 -0.2752  1.0588
11732SOL    HW146850   4.342   3.170   6.771  1.4765 -1.8377 -0.6682
11732SOL    HW246851   4.477   3.253   6.811  0.5141 -0.6387  0.1282
11733SOL     OW46852   3.163   5.486   0.473 -0.1171 -0.3469 -0.1128
11733SOL    HW146853   3.159   5.450   0.380 -1.7024  1.1263 -0.6430
11733SOL    HW246854   3.227   5.563   0.476 -1.0866  0.4776 -0.3106
11734SOL     OW46855   7.630   4.211   3.315 -0.6066  0.0504  0.8608
11734SOL    HW146856   7.535   4.226   3.287 -0.0898  0.4897 -0.7283
11734SOL    HW246857   7.636   4.125   3.366 -1.6004 -0.7908 -0.3935
11735SOL     OW46858   0.022   9.513   7.103  0.5644 -0.0848 -0.3166
11735SOL    HW146859   0.114   9.478   7.084  0.6620 -0.0096  0.0216
11735SOL    HW246860  -0.018   9.549   7.018  0.6920 -0.4817 -0.5441
11736SOL     OW46861   7.657   1.505   3.418 -0.4528 -0.1874 -0.6552
11736SOL    HW146862   7.661   1.603   3.401 -1.4860  0.1316  0.8124
11736SOL    HW246863   7.569   1.481   3.458  0.3337 -1.4830  0.3705
11737SOL     OW46864   2.445   4.473   3.601  0.0577  0.0184 -0.0979
11737SOL    HW146865   2.476   4.380   3.620 -1.9721 -0.0729  3.2003
11737SOL    HW246866   2.350   4.470   3.569  0.4038  0.8794 -1.2176
11738SOL     OW46867   8.629   9.034   4.380 -0.4916 -0.2732 -0.3236
11738SOL    HW146868   8.590   9.102   4.443 -0.2003  0.0209 -0.4595
11738SOL    HW246869   8.726   9.054   4.367 -0.7315  0.1299 -1.4922
11739SOL     OW46870   2.310   0.878   3.868 -0.9178  0.2430 -0.0510
11739SOL    HW146871   2.393   0.884   3.813 -0.8424  2.9088  0.3247
11739SOL    HW246872   2.260   0.964   3.863 -2.1896 -0.3427  2.0541
11740SOL     OW46873   0.146   0.219   0.171  0.4720 -0.5130 -0.2963
11740SOL    HW146874   0.056   0.179   0.153  0.2037 -0.4856  0.8912
11740SOL    HW246875   0.145   0.315   0.142 -0.1686 -0.2709  0.4867
11741SOL     OW46876   4.787   4.086   1.335  0.3323 -0.2804 -0.0172
11741SOL    HW146877   4.762   4.174   1.294  0.5869 -0.1534  0.1054
11741SOL    HW246878   4.834   4.101   1.421  0.7473 -0.5306 -0.2011
11742SOL     OW46879   9.832   4.297   4.596 -0.1343 -0.4808 -0.1657
11742SOL    HW146880   9.914   4.320   4.543  0.1925 -1.2678 -0.0089
11742SOL    HW246881   9.797   4.208   4.566 -0.7856 -0.2654 -0.0567
11743SOL     OW46882   9.961   2.245   3.807 -0.2511 -0.4889 -0.0414
11743SOL    HW146883   9.896   2.320   3.793 -0.9114 -1.1416 -0.5663
11743SOL    HW246884   9.983   2.237   3.904  2.1328  2.2732 -0.2749
11744SOL     OW46885   7.979   7.259   4.725  0.0448  0.2136  0.1306
11744SOL    HW146886   8.038   7.281   4.648  1.8940  0.1926  1.5089
11744SOL    HW246887   7.890   7.302   4.712 -0.1482 -0.9712 -2.6791
11745SOL     OW46888   3.366   5.211   5.551  0.6559  0.0155 -0.4935
11745SOL    HW146889   3.348   5.147   5.477 -0.7976 -1.0762  0.7888
11745SOL    HW246890   3.280   5.240   5.593  1.4642  0.4737  0.8972
11746SOL     OW46891   3.222   7.624   0.308  0.3108 -0.0713  0.0696
11746SOL    HW146892   3.292   7.666   0.251 -0.9029  1.3731 -0.3727
11746SOL    HW246893   3.131   7.647   0.273 -0.4598  0.7139  2.4769
11747SOL     OW46894   3.569   1.147   3.123 -0.2989 -0.3635 -0.7377
11747SOL    HW146895   3.641   1.080   3.138 -1.1814 -0.7895  1.8952
11747SOL    HW246896   3.529   1.173   3.211 -0.9554  2.5376 -1.8278
11748SOL     OW46897   0.915   1.040   1.192  0.0465 -0.6067 -0.4270
11748SOL    HW146898   0.945   1.134   1.176  0.1567 -0.8949 -2.0148
11748SOL    HW246899   0.973   0.997   1.261  1.5175 -0.2470 -1.4101
11749SOL     OW46900   2.469   7.598   1.953 -0.0991 -0.4367 -0.2036
11749SOL    HW146901   2.547   7.597   1.892 -2.6814 -2.3170 -3.6302
11749SOL    HW246902   2.458   7.508   1.996 -0.3916 -0.1853  0.2607
11750SOL     OW46903   2.910   9.151   2.464 -0.2421 -0.3699  0.1245
11750SOL    HW146904   2.877   9.070   2.513 -1.1619  0.9211  1.7302
11750SOL    HW246905   3.001   9.175   2.497 -0.1350 -0.5365 -0.0568
11751SOL     OW46906   2.676   1.754   4.951  0.1630  0.4791  0.4126
11751SOL    HW146907   2.723   1.682   5.001 -2.6436 -1.4313  0.3798
11751SOL    HW246908   2.743   1.822   4.921  2.7943 -1.7921  0.9193
11752SOL     OW46909   4.576   6.148   1.440  0.1437  0.1967 -0.1171
11752SOL    HW146910   4.571   6.210   1.518  0.7827 -2.4849  2.1736
11752SOL    HW246911   4.667   6.151   1.400 -0.0381  1.2318 -0.4516
11753SOL     OW46912   9.884   1.493   6.765  0.3137 -0.0290 -0.0096
11753SOL    HW146913   9.893   1.548   6.682 -0.5405  2.4159  1.4652
11753SOL    HW246914   9.842   1.405   6.743  2.7304 -0.6186 -2.5927
11754SOL     OW46915   5.846   0.141   5.036 -0.1561  0.5011 -0.0931
11754SOL    HW146916   5.905   0.216   5.005  0.1223  0.4431  0.2860
11754SOL    HW246917   5.887   0.099   5.117 -1.3061  1.1981  0.8599
11755SOL     OW46918   0.197   5.940   3.480 -0.1502  0.1085  0.7765
11755SOL    HW146919   0.119   5.975   3.429 -0.5676 -1.0497  0.6098
11755SOL    HW246920   0.223   6.007   3.550 -3.1138 -0.6939  2.7564
11756SOL     OW46921   3.261   2.710   0.506  0.0235  0.1714 -0.2158
11756SOL    HW146922   3.180   2.662   0.542  0.1349  0.6373  0.6391
11756SOL    HW246923   3.306   2.651   0.438  0.2770 -1.0385  0.9802
11757SOL     OW46924   2.574   0.814   5.524  0.3702 -0.1072 -0.8654
11757SOL    HW146925   2.647   0.868   5.566  0.8508 -1.7496  0.4483
11757SOL    HW246926   2.615   0.741   5.468 -0.2786  0.5711 -2.2545
11758SOL     OW46927   5.584   9.315   2.948 -0.3569  0.0074 -0.0370
11758SOL    HW146928   5.497   9.364   2.938 -0.4421 -0.4709 -1.8758
11758SOL    HW246929   5.646   9.369   3.004 -0.6271  2.0305 -1.6180
11759SOL     OW46930   9.694   7.307   3.091 -0.2530  0.1547  0.0755
11759SOL    HW146931   9.690   7.211   3.065 -0.6179  0.0261  0.5732
11759SOL    HW246932   9.604   7.336   3.125  0.2171  0.2886  1.2286
11760SOL     OW46933   8.229   0.957   1.771 -0.2365  0.3169  0.5041
11760SOL    HW146934   8.295   1.026   1.800 -0.9024  1.1737  0.0075
11760SOL    HW246935   8.167   0.937   1.847  1.0018 -1.0006  1.1958
11761SOL     OW46936   9.353   8.677   7.058  0.3172  0.2810 -0.5112
11761SOL    HW146937   9.430   8.683   6.994 -0.6438 -1.5825 -1.9085
11761SOL    HW246938   9.329   8.581   7.072 -1.2114  0.8058  0.5633
11762SOL     OW46939   5.796   3.750   1.062  0.3444 -0.0689 -0.0556
11762SOL    HW146940   5.749   3.670   1.098  0.6695 -0.6350 -0.8897
11762SOL    HW246941   5.889   3.754   1.099  0.0193  0.4472  0.7248
11763SOL     OW46942   7.184   3.710   1.588  0.0535  0.8428  0.1926
11763SOL    HW146943   7.127   3.719   1.669 -1.1100  2.0715 -0.7570
11763SOL    HW246944   7.132   3.735   1.507  1.3590  0.1071 -0.8987
11764SOL     OW46945   1.497   0.972   4.290  0.2282 -0.5354  0.1257
11764SOL    HW146946   1.430   0.962   4.217 -1.4334  0.0442  1.5403
11764SOL    HW246947   1.484   0.900   4.358 -0.8793  1.2387  1.8561
11765SOL     OW46948   2.274   7.893   5.889  0.3159  0.0625  0.2714
11765SOL    HW146949   2.353   7.939   5.849 -0.2350  0.8831  0.1099
11765SOL    HW246950   2.265   7.921   5.985 -0.3840  0.8000  0.0033
11766SOL     OW46951   4.680   3.739   3.305  0.5528  0.6270 -0.0189
11766SOL    HW146952   4.648   3.826   3.266  3.3698  3.1412  2.9774
11766SOL    HW246953   4.696   3.674   3.231  0.2167  3.2950 -2.5596
11767SOL     OW46954   7.340   0.099   7.362 -0.4464  0.4499 -1.0317
11767SOL    HW146955   7.360   0.085   7.459 -1.1836  1.6090 -0.7124
11767SOL    HW246956   7.410   0.053   7.307 -0.4557 -0.8745  0.0341
11768SOL     OW46957   3.587   7.119   2.551 -0.7994  0.0741  0.4945
11768SOL    HW146958   3.590   7.194   2.484 -0.6302  1.0395  1.5686
11768SOL    HW246959   3.651   7.138   2.626 -0.1538 -1.5424  0.3869
11769SOL     OW46960   2.519   8.848   6.860  0.1923  0.4208  0.3533
11769SOL    HW146961   2.568   8.779   6.807 -0.1321  1.0743 -0.8101
11769SOL    HW246962   2.539   8.939   6.824 -0.3388  0.8434  1.1085
11770SOL     OW46963   2.682   3.517   4.561 -0.2732  0.1511  0.3887
11770SOL    HW146964   2.609   3.449   4.552 -1.2048  1.2287 -0.3841
11770SOL    HW246965   2.767   3.472   4.589 -0.9102 -1.2967  0.0235
11771SOL     OW46966   6.452   7.107   4.717  0.3694 -0.1166  0.7401
11771SOL    HW146967   6.530   7.055   4.750 -0.4760 -2.6816 -1.1787
11771SOL    HW246968   6.376   7.097   4.781  0.2445 -1.1574  0.4270
11772SOL     OW46969   8.343   4.206   7.955 -0.0910 -0.4832 -0.4546
11772SOL    HW146970   8.437   4.177   7.934  0.2104 -0.5416  0.8953
11772SOL    HW246971   8.341   4.245   8.047 -1.7006 -1.9830  0.1741
11773SOL     OW46972   2.750   7.369   4.380  0.0976  0.9075  0.8821
11773SOL    HW146973   2.686   7.362   4.303  0.6526 -0.9668  0.5755
11773SOL    HW246974   2.752   7.282   4.429  2.1721  1.0611  1.0940
11774SOL     OW46975   2.357   1.825   7.207 -0.2400  0.1394 -0.4552
11774SOL    HW146976   2.360   1.766   7.288  3.0137 -0.0469 -0.6379
11774SOL    HW246977   2.331   1.917   7.234 -0.1226 -0.1498  0.6745
11775SOL     OW46978   7.014   1.107   2.727  0.3732  0.0925 -0.5446
11775SOL    HW146979   7.034   1.194   2.772  3.7717 -0.4514 -0.8168
11775SOL    HW246980   7.022   1.118   2.628  0.4753 -0.4136 -0.5958
11776SOL     OW46981   0.442   2.695   3.513  0.5892 -0.3638 -1.1106
11776SOL    HW146982   0.414   2.774   3.459  0.3448 -0.4993 -1.1852
11776SOL    HW246983   0.489   2.726   3.596 -1.1691 -0.0521 -0.1859
11777SOL     OW46984   9.715   2.814   6.090 -0.5155  0.0031  0.5529
11777SOL    HW146985   9.788   2.860   6.039  0.5772 -1.8773  0.4052
11777SOL    HW246986   9.693   2.868   6.171  0.0435  1.3061 -0.1396
11778SOL     OW46987   2.475   0.312   0.827  0.0104 -0.1887 -0.2060
11778SOL    HW146988   2.395   0.370   0.842  0.3411  0.0399  0.7037
11778SOL    HW246989   2.558   0.366   0.840  0.3157 -0.5919 -0.4629
11779SOL     OW46990   0.542   4.817   1.189 -0.3174  0.3957  0.2780
11779SOL    HW146991   0.567   4.891   1.127 -2.0351 -0.0275 -0.9446
11779SOL    HW246992   0.445   4.824   1.213 -0.2495 -0.8575  0.9805
11780SOL     OW46993   5.049   9.572   6.345  0.2024 -0.0543  0.4770
11780SOL    HW146994   4.950   9.555   6.346  0.3959 -1.2446  0.5014
11780SOL    HW246995   5.076   9.606   6.255 -0.5600  2.4432  1.1479
11781SOL     OW46996   0.932   7.288   0.795 -0.2110 -0.1356  0.3853
11781SOL    HW146997   0.972   7.206   0.835  0.3065 -1.0029 -1.8529
11781SOL    HW246998   0.998   7.331   0.733 -0.9540  1.2436  0.5186
11782SOL     OW46999   6.003   8.563   5.499 -0.2921 -0.2251  0.2370
11782SOL    HW147000   5.970   8.653   5.528 -1.8586 -0.9440  0.6994
11782SOL    HW247001   5.957   8.537   5.414  0.7534 -0.2515 -0.3299
11783SOL     OW47002   9.441   7.580   2.570 -0.3852 -0.5848  0.5279
11783SOL    HW147003   9.466   7.576   2.473 -1.4728  0.1985  0.2022
11783SOL    HW247004   9.390   7.498   2.596  2.8867 -2.4258  1.3197
11784SOL     OW47005   3.531   2.259   1.220 -0.0124 -0.8520 -0.2755
11784SOL    HW147006   3.494   2.198   1.150 -0.2913 -2.4592  1.2040
11784SOL    HW247007   3.512   2.354   1.196  0.1779 -1.3585 -2.5099
11785SOL     OW47008   2.490   7.328   7.765  0.0767 -0.0138  0.8607
11785SOL    HW147009   2.444   7.326   7.676 -1.0792  0.5535  1.4383
11785SOL    HW247010   2.563   7.397   7.764  0.9452 -0.9190 -0.0555
11786SOL     OW47011   5.297   9.145   2.192 -0.1387  0.6073  0.0921
11786SOL    HW147012   5.292   9.079   2.267 -0.3459  1.3992  0.7729
11786SOL    HW247013   5.355   9.221   2.217 -0.2637  0.9115 -0.5261
11787SOL     OW47014   2.183   1.650   0.143 -0.2574  0.7799  0.2498
11787SOL    HW147015   2.193   1.747   0.164  1.6943  0.8622 -1.0091
11787SOL    HW247016   2.267   1.601   0.166 -0.9478 -0.4913  0.1364
11788SOL     OW47017   8.016   1.383   1.337 -0.7264 -0.3883  0.3678
11788SOL    HW147018   7.988   1.470   1.297 -2.5155 -1.5055 -0.9057
11788SOL    HW247019   8.112   1.366   1.316 -0.6600  0.7800 -0.3038
11789SOL     OW47020   0.260   2.917   7.721  0.3939 -0.3422  0.0303
11789SOL    HW147021   0.335   2.970   7.759  0.4774 -0.9591  0.7525
11789SOL    HW247022   0.176   2.938   7.770  0.2008 -0.0227 -0.4436
11790SOL     OW47023   8.640   7.276   2.924 -0.0887 -0.3229 -0.2377
11790SOL    HW147024   8.661   7.269   2.826  0.3725 -1.7766 -0.0400
11790SOL    HW247025   8.658   7.188   2.968 -1.4203 -0.0050  0.9455
11791SOL     OW47026   1.961   1.270   7.650 -0.6886  0.1718 -0.1566
11791SOL    HW147027   2.023   1.235   7.579  0.3175  0.2240  0.6770
11791SOL    HW247028   1.983   1.366   7.670  1.4506 -0.8127  2.7108
11792SOL     OW47029   6.400   2.636   8.016  0.0798  0.0498 -0.5720
11792SOL    HW147030   6.367   2.598   8.102  2.9943 -0.1734  0.4754
11792SOL    HW247031   6.462   2.571   7.972  1.0180  1.4476 -1.3428
11793SOL     OW47032   8.444   4.033   4.808 -0.0774 -0.4253 -0.0600
11793SOL    HW147033   8.355   3.995   4.831 -1.0209  1.7944  0.0490
11793SOL    HW247034   8.433   4.125   4.771  2.0966 -0.5238 -1.0473
11794SOL     OW47035   1.482   7.533   4.145  0.4684  0.6211  0.4477
11794SOL    HW147036   1.401   7.493   4.103  0.8105  1.8889 -1.4654
11794SOL    HW247037   1.455   7.609   4.205  0.1827  0.5338  0.4283
11795SOL     OW47038   3.256   7.342   2.817 -0.2434 -0.6781 -0.2841
11795SOL    HW147039   3.205   7.295   2.889  3.0974 -1.7425  1.4830
11795SOL    HW247040   3.286   7.276   2.749  1.4239 -0.6150  0.3540
11796SOL     OW47041   0.956   5.496   3.105  0.9327 -0.1433 -0.0070
11796SOL    HW147042   0.997   5.568   3.161  0.6807  0.2745 -0.3529
11796SOL    HW247043   0.960   5.522   3.009  2.2901 -1.3309 -0.2733
11797SOL     OW47044   9.448   5.350   0.417 -0.0105 -0.5918  0.5297
11797SOL    HW147045   9.362   5.362   0.366  0.0309 -0.5441  0.4702
11797SOL    HW247046   9.432   5.289   0.494  0.2656 -1.8852 -0.4189
11798SOL     OW47047   1.789   5.658   0.008  0.0359 -1.0950 -0.0307
11798SOL    HW147048   1.843   5.591  -0.043  0.4380 -0.3515 -0.5933
11798SOL    HW247049   1.697   5.622   0.025 -0.4884 -0.8632 -2.3020
11799SOL     OW47050   6.772   9.217   4.900  0.1459 -0.2983 -0.7577
11799SOL    HW147051   6.731   9.144   4.954 -0.3409 -0.1560 -0.9328
11799SOL    HW247052   6.865   9.235   4.933 -0.0517 -0.3962 -0.1482
11800SOL     OW47053   5.497   9.718   2.829  0.0993 -1.1157  0.2657
11800SOL    HW147054   5.464   9.716   2.923  0.7815  1.0800  0.6016
11800SOL    HW247055   5.433   9.769   2.772 -1.2297 -4.0066 -0.8770
11801SOL     OW47056   2.530   4.239   2.649  0.0184  0.4179  0.4246
11801SOL    HW147057   2.614   4.289   2.629  0.1500  0.3023  0.6733
11801SOL    HW247058   2.539   4.145   2.615 -0.9871  1.0984 -1.7988
11802SOL     OW47059   2.566   0.900   0.338 -0.2062 -0.0296 -0.1360
11802SOL    HW147060   2.661   0.910   0.311 -0.3174 -3.7473 -2.1152
11802SOL    HW247061   2.558   0.830   0.408 -1.8283 -2.3139 -2.5240
11803SOL     OW47062   1.867   5.099   7.629 -0.1168 -0.2517  0.0758
11803SOL    HW147063   1.933   5.052   7.570  0.0836 -1.4196  1.1905
11803SOL    HW247064   1.915   5.140   7.706 -0.3758  1.2640 -0.5623
11804SOL     OW47065   4.938   6.555   1.889  0.0310 -0.1502 -0.3687
11804SOL    HW147066   4.852   6.542   1.937  0.0739 -2.5650 -0.8648
11804SOL    HW247067   4.991   6.470   1.893  3.1352  1.7928  1.3756
11805SOL     OW47068   8.445   4.392   2.041 -0.1973 -1.1626 -0.4585
11805SOL    HW147069   8.383   4.384   1.964 -2.6352  1.5702  1.1203
11805SOL    HW247070   8.531   4.435   2.012 -0.2821 -2.0296 -2.0082
11806SOL     OW47071   9.239   8.714   4.682 -0.0642 -0.2320 -0.6035
11806SOL    HW147072   9.222   8.628   4.730 -0.8324  0.1934 -0.0953
11806SOL    HW247073   9.178   8.721   4.603 -1.4594  0.7713  0.5472
11807SOL     OW47074   7.240   7.272   7.864  0.4493 -0.1877  0.0138
11807SOL    HW147075   7.191   7.358   7.858  1.2026  0.0627 -4.1671
11807SOL    HW247076   7.183   7.198   7.830  1.4291 -0.5920 -0.7762
11808SOL     OW47077   1.992   3.846   7.900  0.2267 -0.2791  0.4757
11808SOL    HW147078   1.893   3.846   7.914  0.3466 -0.5108  1.3640
11808SOL    HW247079   2.013   3.879   7.808 -0.7418 -1.7978 -0.2951
11809SOL     OW47080   2.003   4.039   0.472  0.0087  0.0029  0.0829
11809SOL    HW147081   2.043   3.984   0.545 -0.6948 -0.1493  0.3585
11809SOL    HW247082   1.920   3.995   0.439 -0.2192  0.5826 -0.1270
11810SOL     OW47083   9.213   0.870   2.027  0.4105 -0.4479  0.0045
11810SOL    HW147084   9.244   0.949   1.974  1.9568 -0.9244  0.1865
11810SOL    HW247085   9.144   0.820   1.974  1.5135 -0.5916 -1.3280
11811SOL     OW47086   2.244   0.965   6.374 -0.0393 -0.6192  0.6486
11811SOL    HW147087   2.231   0.926   6.466  0.6441  3.1826  2.4482
11811SOL    HW247088   2.155   0.975   6.329 -0.5454 -0.9739  1.5493
11812SOL     OW47089   0.832   6.691   7.641 -0.1115 -0.3501 -0.2607
11812SOL    HW147090   0.739   6.679   7.674  0.7170 -1.3778  1.7893
11812SOL    HW247091   0.888   6.734   7.712  0.5622  2.0598 -2.1377
11813SOL     OW47092   8.589   5.021   2.568  0.4940  0.0374 -0.1960
11813SOL    HW147093   8.511   4.970   2.531  0.8192  0.4323 -1.4676
11813SOL    HW247094   8.615   4.983   2.656 -1.3026  0.0775  0.3646
11814SOL     OW47095   1.596   2.630   2.115 -0.0087  0.4356  0.4931
11814SOL    HW147096   1.661   2.556   2.133 -3.3608 -2.3963  1.4352
11814SOL    HW247097   1.581   2.682   2.199 -0.7325 -0.4296  0.9144
11815SOL     OW47098   7.915   0.482   2.590 -0.0473 -0.2096  0.5295
11815SOL    HW147099   7.831   0.431   2.610  0.7227 -2.0741 -0.8253
11815SOL    HW247100   7.994   0.422   2.601  0.8998  0.7433 -0.8935
11816SOL     OW47101   3.856   1.656   0.110 -0.4367  0.0211 -0.3977
11816SOL    HW147102   3.896   1.607   0.188  1.0907  0.5510 -0.8248
11816SOL    HW247103   3.762   1.626   0.097 -0.0693 -1.5572  0.3962
11817SOL     OW47104   0.384   8.784   7.294 -0.9395 -0.1864 -0.4428
11817SOL    HW147105   0.289   8.780   7.262 -1.1117  0.7509 -0.0677
11817SOL    HW247106   0.387   8.758   7.391 -0.7943 -0.3651 -0.4958
11818SOL     OW47107   1.321   0.608   0.478  0.3346  0.4848  0.2046
11818SOL    HW147108   1.386   0.643   0.545  0.8772 -0.3327  0.1220
11818SOL    HW247109   1.355   0.521   0.441 -0.1091  0.7763 -0.9027
11819SOL     OW47110   1.233   4.887   2.655 -0.0683 -0.1043 -0.0089
11819SOL    HW147111   1.287   4.829   2.594 -0.1412 -0.7579  0.5329
11819SOL    HW247112   1.255   4.983   2.639  2.3089 -0.4224  1.1924
11820SOL     OW47113   9.640   6.692   6.392 -0.1641 -0.3726 -0.0499
11820SOL    HW147114   9.590   6.743   6.463 -1.4290 -2.2109  0.4327
11820SOL    HW247115   9.726   6.658   6.430 -0.5475 -0.8172  0.4493
11821SOL     OW47116   3.731   5.111   7.012  0.1472  0.2729 -0.1033
11821SOL    HW147117   3.810   5.071   7.057 -0.3891  0.4351  0.9779
11821SOL    HW247118   3.654   5.047   7.014  0.0312  0.3927 -0.5376
11822SOL     OW47119   3.635   5.815   2.068 -0.0286  0.0723  0.2861
11822SOL    HW147120   3.721   5.862   2.088 -0.0731  0.9922 -1.5980
11822SOL    HW247121   3.592   5.787   2.154  1.5473  0.6860  1.2985
11823SOL     OW47122   1.262   9.539   7.524  0.3184  0.4364 -0.2798
11823SOL    HW147123   1.270   9.516   7.621  1.0447 -0.4105 -0.5417
11823SOL    HW247124   1.268   9.639   7.513 -1.2229  0.6477  0.6846
11824SOL     OW47125   6.453   9.750   6.106  0.3596  0.0474 -0.5525
11824SOL    HW147126   6.441   9.737   6.204 -0.6931 -1.5897 -0.8858
11824SOL    HW247127   6.550   9.756   6.085  0.7276 -2.5122  0.2382
11825SOL     OW47128   3.155   8.835   4.131 -0.1017 -0.1127 -0.1441
11825SOL    HW147129   3.235   8.786   4.097 -0.0925 -1.2210  1.4290
11825SOL    HW247130   3.171   8.934   4.123  1.1102 -0.3337 -0.5408
11826SOL     OW47131   4.971   2.098   3.866 -0.6916 -0.0170  0.1444
11826SOL    HW147132   4.882   2.060   3.893 -1.0381  0.4254 -0.3762
11826SOL    HW247133   5.024   2.027   3.819  0.3092 -1.0970  2.8365
11827SOL     OW47134   2.207   9.742   4.838  0.5842 -0.1829 -0.1151
11827SOL    HW147135   2.159   9.830   4.836 -0.1062 -0.5818 -2.0729
11827SOL    HW247136   2.270   9.738   4.760 -0.2954 -1.9263 -0.7408
11828SOL     OW47137   8.308   1.269   5.030  0.1215 -0.0333  0.3117
11828SOL    HW147138   8.362   1.267   5.114  0.3888 -0.3085  0.1326
11828SOL    HW247139   8.211   1.272   5.053  0.2242  0.9196  0.6353
11829SOL     OW47140   1.456   7.200   2.750 -0.0329  0.2331 -0.1240
11829SOL    HW147141   1.432   7.103   2.756 -1.6805  0.4739 -2.2515
11829SOL    HW247142   1.380   7.251   2.710  0.2997  2.6366  2.1038
11830SOL     OW47143   1.057   0.946   6.213  0.0083  0.3291  0.2390
11830SOL    HW147144   1.146   0.902   6.226 -0.2404 -0.6535 -1.2820
11830SOL    HW247145   1.036   1.002   6.293  0.8829 -1.3841  1.7107
11831SOL     OW47146   9.519   4.963   0.579 -0.4283 -0.0868 -0.5246
11831SOL    HW147147   9.453   4.894   0.548  0.7287 -1.1220 -0.7520
11831SOL    HW247148   9.569   4.999   0.501 -1.2540  1.2604 -0.4376
11832SOL     OW47149   9.041   3.634   0.605  0.4787  0.3228  0.1644
11832SOL    HW147150   9.103   3.578   0.661 -0.7998 -1.1618  0.1401
11832SOL    HW247151   9.045   3.729   0.636  0.2168 -0.3702  2.4491
11833SOL     OW47152   8.128   4.061   7.586  0.0679 -0.7400  0.2134
11833SOL    HW147153   8.055   4.089   7.525 -0.0526 -1.6499 -0.0778
11833SOL    HW247154   8.114   4.100   7.677  1.3153  2.2655 -0.8305
11834SOL     OW47155   0.344   0.139   4.368  0.0202 -0.4051 -0.3326
11834SOL    HW147156   0.442   0.153   4.355 -0.1112  0.5960 -0.2840
11834SOL    HW247157   0.295   0.163   4.284 -0.1026 -1.8072 -0.6701
11835SOL     OW47158   3.872   1.796   2.180  0.2988  0.1052  0.2062
11835SOL    HW147159   3.802   1.829   2.243  1.1245 -0.0001  1.1873
11835SOL    HW247160   3.913   1.712   2.215 -0.0682 -0.6197 -1.0664
11836SOL     OW47161   2.398   3.085   6.903 -0.0775  0.0168  0.5523
11836SOL    HW147162   2.361   3.032   6.827 -0.3737  2.3185 -0.9581
11836SOL    HW247163   2.459   3.157   6.867 -0.0975  1.0229  2.4781
11837SOL     OW47164   0.614   4.821   7.142 -0.8913 -0.6388 -0.0860
11837SOL    HW147165   0.714   4.819   7.142 -0.9151 -2.5192 -0.4421
11837SOL    HW247166   0.581   4.871   7.062 -0.2594 -0.9560 -0.5394
11838SOL     OW47167   3.860   5.228   3.757  0.4377 -0.3008  0.2901
11838SOL    HW147168   3.767   5.265   3.761  0.4547  0.0180 -2.1060
11838SOL    HW247169   3.924   5.300   3.732  1.0464 -0.9911 -0.1609
11839SOL     OW47170   7.852   1.464   2.635  0.2329  0.3863 -0.2222
11839SOL    HW147171   7.784   1.433   2.702  1.2789 -0.6923  0.3593
11839SOL    HW247172   7.863   1.563   2.642 -0.9443  0.5186 -0.0201
11840SOL     OW47173   7.608   2.790   1.848  0.2700  0.0184 -0.2913
11840SOL    HW147174   7.651   2.877   1.872  0.4875 -0.1714 -0.0020
11840SOL    HW247175   7.547   2.804   1.770 -0.5343  0.6622  0.4393
11841SOL     OW47176   7.637   0.676   2.712 -0.1475 -0.2503 -0.2614
11841SOL    HW147177   7.608   0.597   2.658  4.0867 -1.1325 -1.4338
11841SOL    HW247178   7.608   0.760   2.667 -2.7856 -1.0298 -0.1346
11842SOL     OW47179   6.367   0.443   6.343 -0.1768 -0.5534  0.0479
11842SOL    HW147180   6.348   0.346   6.326  0.1479 -0.2934 -1.7919
11842SOL    HW247181   6.438   0.451   6.413 -2.3041 -1.6050  2.4076
11843SOL     OW47182   4.515   8.775   6.098 -0.5970  0.0635 -0.0317
11843SOL    HW147183   4.448   8.848   6.082  0.0030  0.5823 -0.2428
11843SOL    HW247184   4.492   8.726   6.182 -0.4622  1.1248  0.6305
11844SOL     OW47185   9.873   0.227   4.729 -0.0719 -0.0850 -0.5893
11844SOL    HW147186   9.889   0.130   4.710  0.1590 -0.4849  1.4996
11844SOL    HW247187   9.942   0.260   4.794  0.2022  1.6436 -1.7168
11845SOL     OW47188   0.465   5.120   3.418  0.3378  0.2148  0.1402
11845SOL    HW147189   0.417   5.168   3.492 -0.0015  0.8637 -0.4927
11845SOL    HW247190   0.563   5.114   3.441 -0.0913 -1.6012  1.6874
11846SOL     OW47191   1.480   2.345   7.265  0.0141 -0.1477 -0.0156
11846SOL    HW147192   1.485   2.386   7.357 -0.2833 -1.4469  0.5862
11846SOL    HW247193   1.547   2.272   7.257  1.5993  1.4540 -1.6196
11847SOL     OW47194   9.789   4.154   6.379  0.1836 -0.2124 -0.6565
11847SOL    HW147195   9.784   4.116   6.472  0.9149  1.1731 -0.0224
11847SOL    HW247196   9.850   4.098   6.324 -0.8934 -1.5149 -0.5409
11848SOL     OW47197   2.595   9.395   5.895  0.4814  0.4309 -0.0631
11848SOL    HW147198   2.497   9.408   5.879  0.4230 -0.0662 -0.1298
11848SOL    HW247199   2.624   9.451   5.973 -0.0405 -0.0823  0.5100
11849SOL     OW47200   9.470   5.393   4.268 -0.1023  0.7601  0.4961
11849SOL    HW147201   9.473   5.390   4.168 -0.1982 -0.3657  0.5128
11849SOL    HW247202   9.445   5.302   4.303 -2.9575  1.8483  1.4391
11850SOL     OW47203   8.695   7.670   3.085  0.2008  0.4308 -0.5437
11850SOL    HW147204   8.665   7.762   3.061 -1.7974  0.0939  0.5365
11850SOL    HW247205   8.753   7.674   3.167 -2.0168  0.5167  1.0711
11851SOL     OW47206   7.529   6.019   7.567 -0.3670  0.3067 -0.3059
11851SOL    HW147207   7.581   6.104   7.567  0.4223 -0.1582 -1.8302
11851SOL    HW247208   7.561   5.960   7.493 -0.1182 -1.8269  1.4456
11852SOL     OW47209   1.141   7.972   6.268  0.3228  0.0542  0.2737
11852SOL    HW147210   1.131   7.979   6.169 -0.5761 -0.3808  0.3284
11852SOL    HW247211   1.211   8.036   6.299  2.7411 -1.8557 -0.9849
11853SOL     OW47212   9.272   7.809   7.926  0.4788 -0.4174  0.3843
11853SOL    HW147213   9.295   7.898   7.887  0.9176 -0.1369  1.2547
11853SOL    HW247214   9.174   7.791   7.913  0.6145 -0.3257 -0.8001
11854SOL     OW47215   5.660   7.924   6.617  0.3245 -0.2480 -0.0981
11854SOL    HW147216   5.565   7.921   6.586  0.3128  1.6777 -0.3023
11854SOL    HW247217   5.719   7.888   6.544  0.1645  2.9776 -1.8843
11855SOL     OW47218   1.387   7.267   5.035 -0.3898  0.0766  0.1262
11855SOL    HW147219   1.454   7.342   5.041  2.0221 -1.9452 -0.6898
11855SOL    HW247220   1.422   7.188   5.085 -1.8030 -1.3073 -1.0368
11856SOL     OW47221   7.531   1.098   4.394  0.2542  0.3522 -0.1979
11856SOL    HW147222   7.528   1.193   4.363 -1.3790 -0.1721 -1.7085
11856SOL    HW247223   7.577   1.042   4.326 -0.1279 -0.2038 -0.0016
11857SOL     OW47224   1.667   4.119   4.050  0.3457 -0.2354  0.5376
11857SOL    HW147225   1.597   4.178   4.009 -0.4355 -0.4951  1.4766
11857SOL    HW247226   1.635   4.086   4.139  1.1122 -1.4350  0.3817
11858SOL     OW47227   9.181   1.784   2.526  0.2478  0.8054  0.0692
11858SOL    HW147228   9.275   1.794   2.494 -0.6316  0.0575 -2.8663
11858SOL    HW247229   9.124   1.853   2.483 -1.2632 -1.2108 -1.2162
11859SOL     OW47230   0.507   3.475   5.630  0.0701  0.5538 -0.4671
11859SOL    HW147231   0.578   3.412   5.660  0.7437  0.8230 -1.4474
11859SOL    HW247232   0.418   3.444   5.663  0.5718 -0.1228  0.2516
11860SOL     OW47233   7.551   3.468   1.533  0.2573 -0.2035  0.4170
11860SOL    HW147234   7.610   3.397   1.497  1.8799  1.8224 -1.0399
11860SOL    HW247235   7.475   3.427   1.583  0.8107 -2.9360 -0.9423
11861SOL     OW47236   2.740   8.079   7.163 -0.2083  0.1711  0.1400
11861SOL    HW147237   2.758   8.064   7.065 -3.1987  0.9283 -0.5609
11861SOL    HW247238   2.755   8.176   7.184  0.0496  0.0824  0.3702
11862SOL     OW47239   4.203   0.350   7.068 -0.3523 -0.3889 -0.6032
11862SOL    HW147240   4.134   0.282   7.044  1.7239 -2.2305 -1.4135
11862SOL    HW247241   4.294   0.310   7.064  0.8060  1.9845  0.5598
11863SOL     OW47242   2.845   1.240   6.203 -0.3528  0.4734 -0.1952
11863SOL    HW147243   2.907   1.179   6.252  1.5801  0.8405 -2.1337
11863SOL    HW247244   2.883   1.333   6.201 -1.0538  0.7507 -1.2495
11864SOL     OW47245   3.906   9.289   0.453  0.8083 -0.0012 -0.3209
11864SOL    HW147246   3.912   9.384   0.424 -0.9010 -0.7655 -3.3697
11864SOL    HW247247   3.826   9.277   0.513 -0.0435  0.1546 -1.4106
11865SOL     OW47248   1.331   0.344   4.689  0.8374 -0.4720  0.5244
11865SOL    HW147249   1.232   0.335   4.677  0.5837  2.4667 -0.0233
11865SOL    HW247250   1.368   0.259   4.724 -1.5901 -2.3353 -1.2099
11866SOL     OW47251   0.666   4.747   4.433  0.4493 -0.1364  0.1426
11866SOL    HW147252   0.588   4.691   4.461  0.2568 -0.4460 -0.9922
11866SOL    HW247253   0.737   4.744   4.504 -0.3683 -0.2418  0.9576
11867SOL     OW47254   3.413   9.229   5.094 -0.0503  0.2947 -0.3566
11867SOL    HW147255   3.415   9.252   4.997 -1.6515  0.5755 -0.3388
11867SOL    HW247256   3.329   9.178   5.115  1.2041 -1.4476  0.5137
11868SOL     OW47257   7.361   4.552   0.589 -0.3791  0.1451  0.0906
11868SOL    HW147258   7.279   4.588   0.635  0.2300 -0.2430  1.5205
11868SOL    HW247259   7.350   4.560   0.490 -1.4145  1.6821  0.3101
11869SOL     OW47260   4.562   0.143   0.583 -0.3512  0.2494 -0.1722
11869SOL    HW147261   4.599   0.233   0.607  0.4184  0.0643 -0.6654
11869SOL    HW247262   4.485   0.122   0.644 -0.0779  0.9277  0.4203
11870SOL     OW47263   0.698   3.608   7.328 -0.3564 -0.3248  0.1457
11870SOL    HW147264   0.664   3.519   7.358  0.3173 -0.5412  0.2734
11870SOL    HW247265   0.623   3.661   7.290 -0.9621 -0.5595  1.0014
11871SOL     OW47266   7.630   2.704   0.094  0.3107 -0.3719 -0.5143
11871SOL    HW147267   7.615   2.693  -0.005 -1.2541  0.4502 -0.3861
11871SOL    HW247268   7.726   2.724   0.111  0.3103  1.0334 -2.0219
11872SOL     OW47269   1.711   0.367   6.382 -0.2734  0.2155 -0.2648
11872SOL    HW147270   1.737   0.432   6.454 -0.3408 -0.3035  0.2375
11872SOL    HW247271   1.759   0.280   6.398 -1.0073 -0.1994 -0.3176
11873SOL     OW47272   2.376   3.851   7.624  0.3640 -0.0055  0.5977
11873SOL    HW147273   2.475   3.864   7.620  0.6964 -2.6402 -3.0030
11873SOL    HW247274   2.333   3.897   7.546 -1.2613  1.1137  2.1273
11874SOL     OW47275   9.260   3.008   1.949 -0.4294  0.2291 -0.1608
11874SOL    HW147276   9.288   2.926   1.898  0.7414  0.8847 -0.5968
11874SOL    HW247277   9.329   3.029   2.018 -1.0268  0.5119  0.3545
11875SOL     OW47278   7.876   0.917   2.366  0.0652  0.0697 -0.0887
11875SOL    HW147279   7.888   0.819   2.380 -0.8796 -0.1383 -0.6691
11875SOL    HW247280   7.953   0.954   2.316 -0.4843 -0.7454 -1.5615
11876SOL     OW47281   1.686   9.416   1.792  0.6014 -0.0100 -0.2212
11876SOL    HW147282   1.625   9.487   1.758 -0.1032 -1.0208 -1.1018
11876SOL    HW247283   1.781   9.447   1.785  0.4172  0.1518 -2.3292
11877SOL     OW47284   2.886   8.066   3.037  0.2993  0.0537 -0.0714
11877SOL    HW147285   2.889   8.028   2.944  0.3594 -0.0465 -0.0275
11877SOL    HW247286   2.955   8.138   3.045 -0.3493  0.7195 -0.3959
11878SOL     OW47287   8.132   9.704   4.521 -0.3648  0.4246  0.1654
11878SOL    HW147288   8.075   9.766   4.467 -0.8111  0.1070  0.2708
11878SOL    HW247289   8.114   9.718   4.618  0.1592  0.7266  0.2223
11879SOL     OW47290   1.338   3.505   5.163  0.1382  0.3292  0.4904
11879SOL    HW147291   1.413   3.447   5.131  0.7389  0.6413  1.3067
11879SOL    HW247292   1.327   3.493   5.262 -0.9352  0.2371  0.3630
11880SOL     OW47293   4.284   4.589   6.236  0.5604  0.4443  0.0489
11880SOL    HW147294   4.224   4.562   6.161 -0.6858  1.9518  0.4940
11880SOL    HW247295   4.379   4.591   6.203  0.0361  1.0020 -1.4563
11881SOL     OW47296   3.487   8.426   6.153  0.2360  0.3178  0.4315
11881SOL    HW147297   3.496   8.453   6.057  0.2868  1.9310  0.8708
11881SOL    HW247298   3.394   8.393   6.169  0.1701  0.2251 -0.1329
11882SOL     OW47299   3.700   0.275   1.781  0.1957 -0.5300  0.2485
11882SOL    HW147300   3.715   0.183   1.816 -0.0787 -0.2402  1.1458
11882SOL    HW247301   3.755   0.289   1.698 -1.1191 -2.0814 -0.8974
11883SOL     OW47302   7.023   1.366   4.699  0.0765 -0.6875 -0.4369
11883SOL    HW147303   7.117   1.355   4.667  0.0976  0.6230 -0.8556
11883SOL    HW247304   6.961   1.317   4.637  0.6152 -3.1124  0.8733
11884SOL     OW47305   0.065   3.718   5.624 -0.7836 -0.3895  0.1590
11884SOL    HW147306   0.043   3.764   5.710  1.0636  1.1047 -0.1366
11884SOL    HW247307   0.066   3.619   5.639 -0.1537 -0.1370  1.9232
11885SOL     OW47308   8.611   7.560   4.978 -0.8937 -0.0883  0.2115
11885SOL    HW147309   8.636   7.641   4.925 -0.1112  0.4831  1.4342
11885SOL    HW247310   8.516   7.536   4.959 -0.3783 -0.4067 -2.0924
11886SOL     OW47311   8.240   6.464   5.892 -0.4511  0.2906 -0.2449
11886SOL    HW147312   8.287   6.553   5.894 -0.0230  0.0625 -0.0889
11886SOL    HW247313   8.234   6.427   5.984  0.8304 -0.5979 -0.4966
11887SOL     OW47314   8.931   4.087   2.861  0.5602 -0.2782 -0.3543
11887SOL    HW147315   8.883   3.999   2.865  0.9055 -0.5291 -1.4114
11887SOL    HW247316   8.867   4.161   2.884 -0.0773 -0.6913 -0.7687
11888SOL     OW47317   8.333   8.500   7.640  0.1634  0.1073  0.2567
11888SOL    HW147318   8.420   8.493   7.688 -0.5528 -2.6592  1.2626
11888SOL    HW247319   8.349   8.517   7.543  1.8983 -1.7853  0.1743
11889SOL     OW47320   4.807   6.807   2.365 -0.1763  0.5129 -0.0950
11889SOL    HW147321   4.812   6.875   2.438  1.8646  1.5105 -1.1111
11889SOL    HW247322   4.729   6.828   2.306 -0.6211  0.9244  0.6347
11890SOL     OW47323   3.757   5.669   3.091  0.0511  0.3511  0.4397
11890SOL    HW147324   3.715   5.598   3.034 -0.5451  1.4329 -0.4695
11890SOL    HW247325   3.857   5.664   3.081 -0.0175  0.0704 -0.1250
11891SOL     OW47326   2.850   2.099   2.619 -0.0245 -0.5633 -0.3326
11891SOL    HW147327   2.859   2.070   2.714 -0.0571 -0.3684 -0.2697
11891SOL    HW247328   2.869   2.196   2.612 -2.1509 -0.1094 -0.1661
11892SOL     OW47329   9.961   1.799   5.441 -0.2625 -0.5409  0.1092
11892SOL    HW147330   9.924   1.877   5.492 -0.8040 -0.6907 -0.0507
11892SOL    HW247331   9.887   1.735   5.420  0.3121 -1.5200  0.9794
11893SOL     OW47332   4.009   3.450   7.091  0.1352  0.2989 -0.2472
11893SOL    HW147333   3.943   3.463   7.166  1.5421 -0.6797  1.1898
11893SOL    HW247334   3.961   3.457   7.003 -1.2179  3.3840  0.6614
11894SOL     OW47335   0.156   6.723   1.026  0.4430 -0.1791  0.3171
11894SOL    HW147336   0.234   6.721   0.964  1.7934 -0.0122  2.0036
11894SOL    HW247337   0.187   6.741   1.119 -1.6011 -0.1291  1.0111
11895SOL     OW47338   5.333   0.105   5.212  0.1371  0.0656 -0.2096
11895SOL    HW147339   5.317   0.010   5.186  1.1643 -0.5145  1.2226
11895SOL    HW247340   5.414   0.111   5.271 -0.0616  1.7897 -0.0756
11896SOL     OW47341   0.837   0.627   0.309 -0.9067  0.1124 -0.0411
11896SOL    HW147342   0.866   0.659   0.399  0.6825 -0.2869 -0.3981
11896SOL    HW247343   0.798   0.704   0.257 -0.7331  0.6067  0.5531
11897SOL     OW47344   2.480   4.536   4.936 -0.2093  0.3706 -0.5278
11897SOL    HW147345   2.397   4.480   4.941  0.7242 -1.0160 -0.4246
11897SOL    HW247346   2.557   4.480   4.907  0.5357  1.8446 -1.5178
11898SOL     OW47347   6.746   9.440   6.405 -0.2566  0.0596 -0.6800
11898SOL    HW147348   6.729   9.353   6.451  1.6981  0.3546  0.6664
11898SOL    HW247349   6.706   9.514   6.459  0.4069  0.2400 -0.4382
11899SOL     OW47350   3.990   2.032   7.401  0.1040  0.0706 -0.0941
11899SOL    HW147351   4.064   2.018   7.335  1.2460  1.7749  0.7746
11899SOL    HW247352   4.029   2.064   7.488 -1.7386  2.2225 -0.0190
11900SOL     OW47353   9.411   9.877   0.453 -0.3727  0.2115 -0.1355
11900SOL    HW147354   9.391   9.828   0.369  1.3251  2.2078 -1.7587
11900SOL    HW247355   9.461   9.817   0.516  2.3716  0.0172 -2.3951
11901SOL     OW47356   6.727   1.027   5.260 -0.0961  0.2675 -0.3591
11901SOL    HW147357   6.740   1.119   5.224 -0.8349  0.9352  1.0348
11901SOL    HW247358   6.814   0.993   5.295  0.3587  0.0992 -1.6519
11902SOL     OW47359   3.274   0.396   5.034  0.3081 -0.4454 -0.0213
11902SOL    HW147360   3.366   0.357   5.046  1.6163  3.0769  2.0360
11902SOL    HW247361   3.273   0.451   4.951 -0.4606 -1.7367 -0.8929
11903SOL     OW47362   9.881   6.345   0.311  0.6815  0.2300 -0.0297
11903SOL    HW147363   9.808   6.311   0.251  0.4490  1.4218 -0.4421
11903SOL    HW247364   9.874   6.300   0.401 -0.2288 -0.0588 -0.2367
11904SOL     OW47365   1.371   0.455   4.442  0.0160  0.5602  0.2529
11904SOL    HW147366   1.354   0.394   4.520  0.6014  1.2358  0.9240
11904SOL    HW247367   1.465   0.443   4.411 -1.1078 -2.0055 -2.4153
11905SOL     OW47368   6.898   3.906   7.634 -0.3121 -0.6773 -0.2415
11905SOL    HW147369   6.822   3.920   7.571  0.2409  1.2129 -0.5213
11905SOL    HW247370   6.927   3.994   7.672 -0.3649 -1.7249  2.3602
11906SOL     OW47371   6.833   0.811   7.171  0.1518  0.9629  0.1403
11906SOL    HW147372   6.830   0.903   7.131 -1.3049  1.1351  0.5832
11906SOL    HW247373   6.886   0.813   7.255  1.2348  1.1071 -0.5321
11907SOL     OW47374   8.898   5.116   8.183  0.2472 -0.1119  0.0417
11907SOL    HW147375   8.979   5.142   8.130  0.4538 -0.2389  0.2937
11907SOL    HW247376   8.925   5.055   8.257 -0.3519 -1.7177 -1.0399
11908SOL     OW47377   4.208   3.350   3.659 -0.0780  0.5362 -0.1446
11908SOL    HW147378   4.115   3.322   3.684  0.2602  1.0033  1.7714
11908SOL    HW247379   4.272   3.314   3.726  1.1747 -0.0767 -1.6609
11909SOL     OW47380   3.247   1.932   3.460 -0.2579  0.2470 -0.4489
11909SOL    HW147381   3.205   1.902   3.545 -1.2489  0.8854 -0.6975
11909SOL    HW247382   3.185   1.912   3.384 -0.0798  1.1285 -0.8317
11910SOL     OW47383   4.681   5.834   0.650 -0.2908  0.3751  0.1472
11910SOL    HW147384   4.722   5.757   0.601  0.6198  0.0119  1.4381
11910SOL    HW247385   4.600   5.865   0.601 -1.4812 -2.3073  0.2887
11911SOL     OW47386   9.117   9.304   7.721 -0.1652  0.5571 -0.1879
11911SOL    HW147387   9.070   9.274   7.638 -2.2608  1.9012  0.4564
11911SOL    HW247388   9.205   9.258   7.728 -1.2005 -1.7812 -1.6609
11912SOL     OW47389   7.833   5.995   5.733  0.5291  0.2341  0.0410
11912SOL    HW147390   7.873   6.087   5.736  0.0192  0.5152 -1.3882
11912SOL    HW247391   7.884   5.935   5.795  2.3931  0.8825 -0.8145
11913SOL     OW47392   4.429   4.771   3.517 -0.5306 -0.6747 -0.3991
11913SOL    HW147393   4.336   4.807   3.512 -0.1829  0.4054  0.5951
11913SOL    HW247394   4.475   4.810   3.597  1.0682 -0.5058 -1.3851
11914SOL     OW47395   8.104   3.406   4.315  0.1554  0.2948  0.3988
11914SOL    HW147396   8.061   3.316   4.303  1.5872 -0.2833 -0.5780
11914SOL    HW247397   8.157   3.407   4.399 -0.5297  0.5179  0.8375
11915SOL     OW47398   9.440   2.598   6.469 -0.2549  0.1254  0.3432
11915SOL    HW147399   9.473   2.597   6.375 -0.1021  1.4298  0.3817
11915SOL    HW247400   9.428   2.692   6.500  1.0119 -0.2656  2.0874
11916SOL     OW47401   0.045   0.868   2.498 -0.4652  0.2027  0.4266
11916SOL    HW147402   0.078   0.935   2.431  0.9193 -0.9681 -0.0975
11916SOL    HW247403  -0.008   0.797   2.450  1.3680 -1.1814  0.4014
11917SOL     OW47404   6.374   3.530   0.823 -0.3061 -0.1938 -0.4918
11917SOL    HW147405   6.311   3.577   0.760 -0.7045  1.1555  0.8736
11917SOL    HW247406   6.468   3.556   0.802 -0.3867 -0.3319 -1.0163
11918SOL     OW47407   9.917   6.852   4.111  0.1384  0.0357  0.2602
11918SOL    HW147408   9.984   6.904   4.057  0.4709  0.7307  1.3183
11918SOL    HW247409   9.847   6.814   4.050 -1.1143  3.2137 -0.3977
11919SOL     OW47410   0.153   3.076   0.791 -0.1310 -0.3963 -0.0703
11919SOL    HW147411   0.073   3.136   0.796  0.7038  0.8080 -0.6885
11919SOL    HW247412   0.200   3.075   0.879 -0.9667 -1.3197  0.3730
11920SOL     OW47413   8.581   9.271   3.714 -0.0674  0.5005 -0.4052
11920SOL    HW147414   8.559   9.363   3.682 -1.5619  0.3714  0.2022
11920SOL    HW247415   8.540   9.204   3.653 -0.5166  0.2478  0.1695
11921SOL     OW47416   1.382   5.476   6.822 -0.5693  0.3254 -0.1018
11921SOL    HW147417   1.408   5.523   6.738  0.5969 -2.0234 -1.0782
11921SOL    HW247418   1.289   5.440   6.814 -0.2085 -0.4821 -0.6370
11922SOL     OW47419   9.450   6.654   5.813 -0.2633  0.9016  0.7415
11922SOL    HW147420   9.429   6.628   5.719  0.6922 -1.0671  1.0609
11922SOL    HW247421   9.549   6.651   5.828 -0.3569  1.8257  1.6386
11923SOL     OW47422   6.220   8.284   5.396  0.0574 -0.1168  0.2774
11923SOL    HW147423   6.178   8.327   5.477 -1.1211 -1.1147  0.2106
11923SOL    HW247424   6.285   8.215   5.426 -0.2824 -0.3954  0.3812
11924SOL     OW47425   0.687   5.359   2.801 -0.2316  0.6506 -0.2029
11924SOL    HW147426   0.625   5.285   2.828  0.1532  0.4312  0.0880
11924SOL    HW247427   0.640   5.447   2.809  0.0243  0.6301  1.6090
11925SOL     OW47428   3.047   8.820   1.155 -0.4249  0.1471 -0.3022
11925SOL    HW147429   3.015   8.732   1.190 -1.4055  0.8817  0.6809
11925SOL    HW247430   2.999   8.895   1.201  2.4503  1.2940  0.9945
11926SOL     OW47431   1.480   8.724   1.315 -0.9981  0.3086  0.2090
11926SOL    HW147432   1.553   8.657   1.303 -1.6233 -0.3472 -0.0211
11926SOL    HW247433   1.506   8.791   1.384 -0.8218 -0.8286  1.2559
11927SOL     OW47434   9.444   8.315   1.111  0.5365  0.1294 -0.2734
11927SOL    HW147435   9.525   8.371   1.132 -0.0863  0.1598  2.2735
11927SOL    HW247436   9.451   8.228   1.160 -0.2324 -0.5313 -1.3209
11928SOL     OW47437   9.394   9.705   3.961  0.0602  0.2511 -0.1580
11928SOL    HW147438   9.364   9.624   4.011 -0.2876  0.4704 -0.0112
11928SOL    HW247439   9.373   9.787   4.014 -0.4942  0.5020 -0.7534
11929SOL     OW47440   8.654   6.791   3.211  0.2310 -0.0905  0.1914
11929SOL    HW147441   8.738   6.759   3.255  0.6392 -0.2791 -0.7142
11929SOL    HW247442   8.592   6.714   3.198  0.2654 -0.1048  0.1072
11930SOL     OW47443   3.517   5.577   4.558  0.5159 -0.3200  0.2642
11930SOL    HW147444   3.596   5.575   4.496  2.4545  0.7726  2.6205
11930SOL    HW247445   3.460   5.656   4.535  1.3271  0.1955 -0.0067
11931SOL     OW47446   0.204   0.966   4.829  0.4037 -0.0276  0.2555
11931SOL    HW147447   0.295   0.926   4.830  0.4361  0.0496  1.2536
11931SOL    HW247448   0.186   1.010   4.917  0.0555  1.4418 -0.5384
11932SOL     OW47449   0.138   8.467   5.424 -0.0678  0.1574  0.4600
11932SOL    HW147450   0.134   8.552   5.372  1.1630  0.9277  1.5765
11932SOL    HW247451   0.233   8.434   5.427 -0.3520 -0.6464  0.9876
11933SOL     OW47452   9.961   5.052   2.435  0.1847 -0.1581  0.2327
11933SOL    HW147453   9.928   4.965   2.396  2.0525  0.2195 -2.3886
11933SOL    HW247454  10.029   5.033   2.505  0.9450 -0.8465 -0.6712
11934SOL     OW47455   1.881   8.761   2.451 -0.3011  0.8099 -0.2957
11934SOL    HW147456   1.790   8.745   2.414 -0.4959  1.6446 -0.1835
11934SOL    HW247457   1.876   8.830   2.524  0.1782 -0.2920  0.8059
11935SOL     OW47458   2.801   5.183   7.492 -0.0795 -0.4619  0.3706
11935SOL    HW147459   2.848   5.263   7.528 -0.3805  0.0950 -0.4549
11935SOL    HW247460   2.703   5.202   7.485 -0.3322 -1.3745  1.4427
11936SOL     OW47461   7.526   4.233   7.518 -0.3410 -0.4134 -0.0426
11936SOL    HW147462   7.512   4.289   7.436 -0.8307 -1.0007 -0.3605
11936SOL    HW247463   7.570   4.289   7.589 -1.8987  0.7144  0.0549
11937SOL     OW47464   1.736   7.312   0.084 -0.2118 -0.0069  0.4380
11937SOL    HW147465   1.776   7.376   0.018  1.4502  0.3405  1.7455
11937SOL    HW247466   1.787   7.226   0.080 -0.6250 -0.2605  0.6991
11938SOL     OW47467   5.294   5.061   8.143  0.0285  0.0074 -0.6177
11938SOL    HW147468   5.202   5.076   8.108 -0.6222 -2.2630  0.0641
11938SOL    HW247469   5.349   5.014   8.074  0.4974  0.7437 -0.7594
11939SOL     OW47470   6.846   1.870   3.720 -0.9652 -0.0984 -0.7717
11939SOL    HW147471   6.882   1.853   3.628  0.1722  0.2802 -0.4170
11939SOL    HW247472   6.917   1.850   3.787 -1.8526 -0.5403  0.0335
11940SOL     OW47473   0.689   1.462   2.882 -0.0209  0.3717  0.2789
11940SOL    HW147474   0.590   1.449   2.879  0.1603 -0.6213 -3.3015
11940SOL    HW247475   0.712   1.554   2.853  0.1632  0.3028  0.2013
11941SOL     OW47476   2.882   2.790   2.605  0.4498 -0.0462  0.5318
11941SOL    HW147477   2.937   2.785   2.522  1.2004 -2.3800  1.1281
11941SOL    HW247478   2.906   2.872   2.657 -0.0548  1.4378 -1.5604
11942SOL     OW47479   4.182   9.857   8.030  0.3370  0.0891  0.0313
11942SOL    HW147480   4.098   9.885   8.078  1.4921  1.9013  1.0495
11942SOL    HW247481   4.200   9.760   8.048 -2.4097 -0.7628 -1.5428
11943SOL     OW47482   3.246   7.227   6.322  0.2158  0.4541  0.3507
11943SOL    HW147483   3.227   7.317   6.283 -0.0431 -0.0424 -0.6836
11943SOL    HW247484   3.335   7.229   6.368 -0.3955  1.6130  1.5284
11944SOL     OW47485   2.213   2.479   6.107  0.2672 -0.1240  1.0246
11944SOL    HW147486   2.244   2.406   6.168  1.1943  0.2094  0.9564
11944SOL    HW247487   2.260   2.564   6.129  1.2019 -0.1909 -0.6529
11945SOL     OW47488   1.688   0.673   7.889 -0.2219  0.5008  0.1378
11945SOL    HW147489   1.652   0.719   7.808 -0.7920  1.4717  0.9340
11945SOL    HW247490   1.615   0.660   7.955 -0.1213 -1.7936 -0.1719
11946SOL     OW47491   7.919   0.038   6.656 -0.7295  0.2886 -0.0043
11946SOL    HW147492   7.881   0.103   6.721  0.7854  1.4622 -0.2591
11946SOL    HW247493   7.918   0.078   6.564 -1.4629 -0.7667 -0.4651
11947SOL     OW47494   6.432   0.999   0.185  0.2840  0.8230 -0.4617
11947SOL    HW147495   6.362   1.066   0.161  0.6204  1.2867 -0.1377
11947SOL    HW247496   6.400   0.943   0.261  0.7908  1.8802  0.5336
11948SOL     OW47497   2.260   0.836   8.162 -0.1897  0.2437 -0.3263
11948SOL    HW147498   2.235   0.741   8.145  0.9653 -0.1643  0.2146
11948SOL    HW247499   2.278   0.882   8.075 -0.8568  0.0044 -0.5932
11949SOL     OW47500   8.101   0.872   4.348 -0.2369  0.0233 -0.0607
11949SOL    HW147501   8.043   0.944   4.385 -0.9143 -0.3493 -0.3910
11949SOL    HW247502   8.092   0.790   4.403  0.8138  0.2975  0.5305
11950SOL     OW47503   6.307   3.092   0.118  0.4988 -0.1381 -0.6646
11950SOL    HW147504   6.375   3.058   0.183 -0.3137  0.3101  0.4328
11950SOL    HW247505   6.275   3.182   0.147 -0.3544 -0.2163 -1.3356
11951SOL     OW47506   9.340   0.473   5.766  0.2933 -0.1389 -0.2109
11951SOL    HW147507   9.323   0.538   5.692 -1.7132 -1.1602 -0.6872
11951SOL    HW247508   9.400   0.400   5.735 -0.2874 -0.3907 -0.7521
11952SOL     OW47509   1.434   5.025   2.505 -0.6049 -0.3217 -0.2786
11952SOL    HW147510   1.456   4.997   2.598 -1.1168 -0.7300 -0.2819
11952SOL    HW247511   1.445   5.125   2.497  1.4592 -0.5370 -0.3428
11953SOL     OW47512   8.180   7.322   2.719 -0.2736  0.3131 -0.4555
11953SOL    HW147513   8.131   7.404   2.747 -1.4074 -0.7472  0.7294
11953SOL    HW247514   8.214   7.274   2.800  0.7059 -0.2036 -1.1535
11954SOL     OW47515   4.400   2.864   7.804  0.0505 -0.6761 -0.4456
11954SOL    HW147516   4.485   2.842   7.756  0.5834 -1.3191  0.7684
11954SOL    HW247517   4.376   2.959   7.787  1.9424  0.0032  0.5917
11955SOL     OW47518   9.487   3.739   2.923  0.0649 -0.3891  0.2715
11955SOL    HW147519   9.489   3.839   2.932  2.8313 -0.4472  0.7765
11955SOL    HW247520   9.467   3.715   2.828  0.6183  0.6805 -0.1308
11956SOL     OW47521   1.392   6.451   1.132  0.4038 -0.0458  0.1514
11956SOL    HW147522   1.453   6.382   1.095 -0.7004 -1.1173  0.2941
11956SOL    HW247523   1.304   6.447   1.084  1.0836  2.8131 -1.4499
11957SOL     OW47524   0.389   1.075   3.948 -0.0977  0.4418 -0.7477
11957SOL    HW147525   0.467   1.025   3.912  0.6863  0.7980  0.4260
11957SOL    HW247526   0.370   1.044   4.041 -0.1566  1.6932 -0.3332
11958SOL     OW47527   3.542   5.717   0.675 -0.6101 -0.1726 -0.3692
11958SOL    HW147528   3.611   5.735   0.746  0.6418 -0.9753 -1.3627
11958SOL    HW247529   3.568   5.765   0.591 -1.4693 -0.1907 -0.6496
11959SOL     OW47530   1.747   5.366   5.589  0.4547  0.2809 -0.3851
11959SOL    HW147531   1.750   5.279   5.639  1.6360  0.5823  0.0788
11959SOL    HW247532   1.690   5.431   5.639  1.1551  0.3918  0.2715
11960SOL     OW47533   5.040   8.623   4.120 -0.2340 -0.0678  0.3781
11960SOL    HW147534   5.068   8.715   4.095  1.8088 -0.4133  1.3357
11960SOL    HW247535   5.087   8.594   4.203  0.3149 -2.5437 -0.7299
11961SOL     OW47536   0.501   9.633   7.033 -0.0315 -0.1341  0.1873
11961SOL    HW147537   0.468   9.689   6.957  1.3015  1.1112  0.5099
11961SOL    HW247538   0.469   9.672   7.119  0.5084 -0.1426  0.3921
11962SOL     OW47539   7.344   1.295   4.672  0.0121  0.4174 -0.4975
11962SOL    HW147540   7.375   1.362   4.740  1.1308  0.6481 -1.2281
11962SOL    HW247541   7.379   1.320   4.582 -0.6636 -0.4283 -1.0011
11963SOL     OW47542   0.981   2.689   7.882 -0.3950 -0.1102  0.1800
11963SOL    HW147543   0.937   2.777   7.860 -0.1063 -0.2584 -0.9997
11963SOL    HW247544   1.014   2.647   7.798  1.5301 -0.2695  1.0097
11964SOL     OW47545   2.247   8.154   4.426 -0.5988 -0.0076 -0.6827
11964SOL    HW147546   2.187   8.089   4.380 -0.2059  1.0791 -2.7788
11964SOL    HW247547   2.191   8.219   4.478 -1.1191 -0.4230 -0.7230
11965SOL     OW47548   0.607   8.683   3.058 -0.5759 -0.5676  0.1009
11965SOL    HW147549   0.511   8.657   3.064 -1.6433  2.8504 -1.0915
11965SOL    HW247550   0.614   8.778   3.029  3.1944 -0.7638  0.1299
11966SOL     OW47551   1.509   1.469   8.049  0.3791  0.4236  0.7460
11966SOL    HW147552   1.410   1.475   8.040  0.2935 -0.9970  0.5819
11966SOL    HW247553   1.553   1.507   7.967 -0.0862 -0.8098 -0.0883
11967SOL     OW47554   2.546   0.727   0.084  0.5389 -0.6526 -0.1120
11967SOL    HW147555   2.540   0.802   0.150 -2.2944 -0.4143 -0.5969
11967SOL    HW247556   2.566   0.763  -0.006  0.7507 -0.6388 -0.0602
11968SOL     OW47557   0.852   4.040   0.731 -0.3869  0.3601 -0.5478
11968SOL    HW147558   0.886   4.029   0.637  1.3602  1.1091 -0.0133
11968SOL    HW247559   0.845   3.950   0.774  2.3447  0.2803 -0.1904
11969SOL     OW47560   7.275   7.673   6.219  0.2074  0.5230  0.1510
11969SOL    HW147561   7.345   7.621   6.170  0.3038  1.2488 -0.4779
11969SOL    HW247562   7.291   7.771   6.207 -1.3642  0.6987 -0.6665
11970SOL     OW47563   9.922   2.695   3.179  0.4560 -0.6327 -0.1516
11970SOL    HW147564   9.853   2.708   3.108  0.2778  0.6463  0.2323
11970SOL    HW247565   9.975   2.612   3.161  1.9269  0.8751 -3.0471
11971SOL     OW47566   1.048   1.405   7.335  0.7661 -0.3965 -0.0826
11971SOL    HW147567   1.060   1.371   7.428  0.5811 -2.1231 -0.6783
11971SOL    HW247568   0.963   1.370   7.296  1.2297 -0.3609 -1.1757
11972SOL     OW47569   6.649   6.790   5.223  0.0804 -0.0029 -0.3872
11972SOL    HW147570   6.589   6.749   5.154 -0.7927 -0.5839  0.7059
11972SOL    HW247571   6.610   6.776   5.314  2.0640 -0.7043  0.3794
11973SOL     OW47572   9.013   8.330   2.863 -0.0167 -0.3839 -0.4318
11973SOL    HW147573   8.984   8.402   2.925  1.4936 -0.2040  0.0818
11973SOL    HW247574   9.050   8.370   2.779 -1.0677 -0.6083 -1.0132
11974SOL     OW47575   1.687   3.050   0.544 -0.1890 -0.6607 -0.5153
11974SOL    HW147576   1.733   3.128   0.586  0.4935 -1.9484  1.1974
11974SOL    HW247577   1.737   3.021   0.462  1.6610 -1.5593  0.8955
11975SOL     OW47578   2.837   2.755   1.613 -0.6123 -0.4059  0.0553
11975SOL    HW147579   2.888   2.693   1.554  0.9276  1.9379 -1.1477
11975SOL    HW247580   2.891   2.774   1.696 -0.1432  0.9190 -0.5390
11976SOL     OW47581   8.339   2.083   7.646  0.0542 -0.0391 -0.5132
11976SOL    HW147582   8.385   2.166   7.615  2.8281 -1.2491  0.2441
11976SOL    HW247583   8.342   2.014   7.575  1.3744 -0.8766  0.3456
11977SOL     OW47584   1.492   7.521   7.799  0.3459  0.7652 -0.0626
11977SOL    HW147585   1.403   7.478   7.791  0.9647 -0.5298 -0.1674
11977SOL    HW247586   1.531   7.537   7.708  0.9031 -0.1393  0.0124
11978SOL     OW47587   7.069   1.681   1.203  0.1209  0.8245  0.5796
11978SOL    HW147588   7.024   1.679   1.114  0.3993  0.2963  0.4467
11978SOL    HW247589   7.001   1.690   1.275 -0.1912  0.1292  0.3742
11979SOL     OW47590   7.937   9.891   7.486 -0.4252 -0.0116  0.2141
11979SOL    HW147591   7.967   9.796   7.483 -2.2219 -0.6638  2.0634
11979SOL    HW247592   8.017   9.951   7.477  0.9124 -1.6888  0.6068
11980SOL     OW47593   3.106   1.649   3.839  0.0520 -0.0199 -0.3543
11980SOL    HW147594   3.052   1.693   3.767 -0.7277  0.5851  0.5740
11980SOL    HW247595   3.203   1.656   3.817 -0.0392  2.3355 -0.1801
11981SOL     OW47596   3.867   5.340   7.047  0.2114 -0.2302 -0.3701
11981SOL    HW147597   3.823   5.251   7.034  0.9847 -0.5913 -0.5707
11981SOL    HW247598   3.915   5.366   6.963 -0.4795  0.6424 -0.5018
11982SOL     OW47599   4.507   0.245   6.774  0.7344 -0.5043 -0.1149
11982SOL    HW147600   4.478   0.163   6.724 -1.1668 -0.5768  1.0432
11982SOL    HW247601   4.466   0.244   6.865  3.3743  0.0952  1.1418
11983SOL     OW47602   3.418   7.381   1.342  0.1201 -0.7599  0.4286
11983SOL    HW147603   3.398   7.287   1.371  1.4795 -1.2115 -0.0474
11983SOL    HW247604   3.488   7.380   1.271 -0.5467  0.5674 -0.2614
11984SOL     OW47605   6.260   0.107   4.379  0.3779 -0.3549  0.0684
11984SOL    HW147606   6.330   0.078   4.445  0.0229  0.5349  0.8474
11984SOL    HW247607   6.169   0.089   4.418  0.1485  1.5924  0.4961
11985SOL     OW47608   1.718   6.215   6.254  0.9032 -0.2832  0.0647
11985SOL    HW147609   1.787   6.284   6.271  1.7787 -1.3206  0.7701
11985SOL    HW247610   1.754   6.144   6.193  0.4552 -0.8003  0.3842
11986SOL     OW47611   8.478   6.548   1.880  0.6617  0.1774  0.4267
11986SOL    HW147612   8.461   6.486   1.956 -0.6116  0.0474  0.0456
11986SOL    HW247613   8.542   6.619   1.908  2.8619 -1.8159  0.6080
11987SOL     OW47614   5.276   1.840   0.617  0.0238 -0.6864 -0.5741
11987SOL    HW147615   5.309   1.752   0.581  0.6199 -0.7101  0.0329
11987SOL    HW247616   5.297   1.913   0.552  2.5350 -0.4771  0.4145
11988SOL     OW47617   8.389   1.804   4.667 -1.0991 -0.1444  0.3605
11988SOL    HW147618   8.409   1.796   4.765  1.9392  1.3262 -0.0595
11988SOL    HW247619   8.409   1.718   4.621  0.5474  0.0943  0.5948
11989SOL     OW47620   0.624   3.997   5.502 -0.4483 -0.3700 -0.6223
11989SOL    HW147621   0.651   3.920   5.560 -0.1360  0.0910 -0.1543
11989SOL    HW247622   0.546   3.969   5.445 -2.2259 -0.1386  1.6468
11990SOL     OW47623   1.970   6.173   6.914 -0.2714  0.3003 -0.1959
11990SOL    HW147624   1.962   6.250   6.977  2.4143  0.9189 -0.5377
11990SOL    HW247625   2.051   6.186   6.856 -0.7869 -1.9145 -1.4518
11991SOL     OW47626   5.243   1.900   5.953 -0.2559  0.2018 -0.0618
11991SOL    HW147627   5.294   1.957   5.889 -0.9154  1.0342  0.1537
11991SOL    HW247628   5.180   1.841   5.902 -0.7102  0.7958 -0.1876
11992SOL     OW47629   2.741   9.314   3.047  0.2388  0.1909 -0.5129
11992SOL    HW147630   2.665   9.300   3.111  1.1969 -2.8946 -0.0054
11992SOL    HW247631   2.713   9.380   2.976 -2.1792  0.6363  0.8129
11993SOL     OW47632   8.886   9.364   3.996 -0.2138 -0.9048 -0.5101
11993SOL    HW147633   8.907   9.458   3.968  1.7795 -1.1118  0.1876
11993SOL    HW247634   8.792   9.359   4.028  0.7898  1.8029  3.2592
11994SOL     OW47635   8.138   3.096   0.400 -0.5704  0.2745 -0.3156
11994SOL    HW147636   8.210   3.036   0.365 -0.1376  0.7634 -0.2796
11994SOL    HW247637   8.050   3.048   0.398 -0.4576  0.0992 -1.5530
11995SOL     OW47638   0.637   1.899   5.727 -0.0481 -0.0919  0.0871
11995SOL    HW147639   0.656   1.963   5.652  0.0090  0.8143  0.8723
11995SOL    HW247640   0.648   1.945   5.815 -1.9585 -0.6450  0.6365
11996SOL     OW47641   7.832   6.279   1.199 -0.0356 -0.6748 -0.3087
11996SOL    HW147642   7.887   6.357   1.168 -0.7323  0.7090  1.7978
11996SOL    HW247643   7.838   6.205   1.132  0.9197  1.0547 -2.1967
11997SOL     OW47644   9.101   3.825   4.579 -0.2227  0.1365  0.2461
11997SOL    HW147645   9.096   3.725   4.573 -1.4140  0.1901  0.4019
11997SOL    HW247646   9.178   3.851   4.637 -0.1911 -0.6974  0.5821
11998SOL     OW47647   3.740   8.883   2.107 -0.3564  0.3811 -0.8746
11998SOL    HW147648   3.787   8.845   2.187 -0.8199 -1.7872 -1.6055
11998SOL    HW247649   3.649   8.915   2.135  0.6342  2.4589  0.0670
11999SOL     OW47650   3.708   6.765   0.622 -0.1511  0.7457  0.7319
11999SOL    HW147651   3.658   6.848   0.597  0.3166  0.7785 -0.1138
11999SOL    HW247652   3.724   6.764   0.721 -0.5736  1.4305  0.8098
12000SOL     OW47653   2.436   3.787   1.914 -0.1263  1.2757 -0.2144
12000SOL    HW147654   2.409   3.810   2.007 -0.7375  0.0431 -0.0745
12000SOL    HW247655   2.354   3.777   1.857  0.2267  1.6234 -0.7964
12001SOL     OW47656   9.856   8.331   2.053  0.1151  0.1396 -0.2656
12001SOL    HW147657   9.837   8.319   2.150  1.0719 -1.0412 -0.2223
12001SOL    HW247658   9.929   8.269   2.025  0.0734  0.7077 -1.6674
12002SOL     OW47659   2.177   3.355   2.922 -0.1677  0.5785  0.6855
12002SOL    HW147660   2.104   3.287   2.926 -0.8847  1.2068 -1.0389
12002SOL    HW247661   2.237   3.335   2.844 -0.8700  2.3671 -0.3474
12003SOL     OW47662   5.142   1.523   1.833 -0.0269  0.5671  0.4157
12003SOL    HW147663   5.134   1.426   1.855  1.1145  0.2614 -0.4835
12003SOL    HW247664   5.051   1.565   1.834 -0.5837 -0.6194  0.3227
12004SOL     OW47665   3.494   2.010   4.836  0.2899 -0.1976 -0.3279
12004SOL    HW147666   3.584   1.994   4.875  0.0867  0.9883  0.6722
12004SOL    HW247667   3.454   1.924   4.806  1.1464 -0.9211  0.5973
12005SOL     OW47668   5.834   2.888   4.602  0.0481 -0.1200 -0.4183
12005SOL    HW147669   5.788   2.946   4.669  0.1048  1.4757 -1.7310
12005SOL    HW247670   5.933   2.900   4.610  0.1622 -1.8795  0.9275
12006SOL     OW47671   3.501   9.600   4.014  0.2119 -0.5722 -0.2703
12006SOL    HW147672   3.601   9.591   4.012  0.2289 -0.2890 -1.3013
12006SOL    HW247673   3.474   9.684   3.967 -0.4481  0.0173  1.1662
12007SOL     OW47674   8.546   6.159   5.743  0.0496  0.8685  0.6033
12007SOL    HW147675   8.503   6.172   5.653  0.5128  0.0170  0.2617
12007SOL    HW247676   8.499   6.086   5.792 -0.2610  1.3924  1.1005
12008SOL     OW47677   4.449   9.019   0.428 -0.0206 -0.4557 -0.4609
12008SOL    HW147678   4.398   9.100   0.399 -2.2414 -1.4865  0.4454
12008SOL    HW247679   4.392   8.963   0.489  2.2128 -1.6483  0.6146
12009SOL     OW47680   3.262   0.738   3.915 -0.2590  0.2574 -0.1964
12009SOL    HW147681   3.337   0.766   3.975  0.5999 -0.3354 -0.9736
12009SOL    HW247682   3.266   0.639   3.901 -2.7604 -0.2002  1.8625
12010SOL     OW47683   1.042   4.807   7.791 -0.0152  0.2606  0.1266
12010SOL    HW147684   1.074   4.843   7.878  2.3030  0.0918 -0.6338
12010SOL    HW247685   0.984   4.876   7.746  0.2389  1.0395  0.9917
12011SOL     OW47686   3.072   9.701   5.598 -0.4422  0.2471  0.5327
12011SOL    HW147687   2.987   9.731   5.642 -1.5894  0.0072 -1.4751
12011SOL    HW247688   3.095   9.609   5.630 -1.7777 -0.3069 -0.0393
12012SOL     OW47689   7.314   5.445   6.465  0.2301 -0.0213  0.5945
12012SOL    HW147690   7.249   5.510   6.427 -0.2433 -0.1274  1.1961
12012SOL    HW247691   7.399   5.492   6.489  0.4384  0.0881 -0.3432
12013SOL     OW47692   7.295   9.209   6.999  0.4025 -0.4281 -0.2441
12013SOL    HW147693   7.324   9.265   6.921  0.5210 -1.8671 -1.2637
12013SOL    HW247694   7.352   9.231   7.078  0.1769  1.1768 -0.4947
12014SOL     OW47695   1.335   6.052   0.672  0.0385  0.0318  0.6377
12014SOL    HW147696   1.420   6.001   0.679 -1.2765 -2.0076  2.8044
12014SOL    HW247697   1.260   5.989   0.648 -1.3743  1.1955  1.8766
12015SOL     OW47698   1.684   6.752   3.123  0.8434 -0.1760 -0.2530
12015SOL    HW147699   1.722   6.718   3.209  0.6072  1.0608  0.3675
12015SOL    HW247700   1.758   6.784   3.064  0.8963  0.8347  0.3349
12016SOL     OW47701   0.575   5.509   6.208 -0.2323 -0.0930  0.1263
12016SOL    HW147702   0.587   5.435   6.274 -0.6886  0.2971  0.6478
12016SOL    HW247703   0.528   5.585   6.251 -0.9303  0.0004 -0.7686
12017SOL     OW47704   2.844   7.281   5.342 -0.2400  0.7061  0.0931
12017SOL    HW147705   2.897   7.224   5.279  0.4194  1.4000  0.0225
12017SOL    HW247706   2.842   7.375   5.309 -0.1205  1.0166  0.9684
12018SOL     OW47707   4.785   4.506   6.947 -0.0823  0.3402  0.2298
12018SOL    HW147708   4.824   4.417   6.970 -0.6584  0.0299  0.0225
12018SOL    HW247709   4.686   4.497   6.932  0.0806  0.7381 -1.2165
12019SOL     OW47710   2.486   0.392   4.390 -0.0940  0.1948 -0.1659
12019SOL    HW147711   2.488   0.490   4.368  0.0833  0.1260 -0.4702
12019SOL    HW247712   2.575   0.351   4.367 -0.6404 -0.3279 -1.4294
12020SOL     OW47713   1.806   6.610   7.355 -0.3995 -0.3442 -0.0161
12020SOL    HW147714   1.780   6.640   7.263 -0.7508  0.1352  0.2417
12020SOL    HW247715   1.739   6.544   7.389 -1.1132  0.6403  0.5131
12021SOL     OW47716   2.812   3.432   1.516  0.2339  0.2234  0.0994
12021SOL    HW147717   2.899   3.385   1.531  0.7385  1.3023  0.6378
12021SOL    HW247718   2.749   3.412   1.591  0.6397  0.8430  0.6056
12022SOL     OW47719   2.513   9.082   6.736 -0.0003  0.0037 -0.3115
12022SOL    HW147720   2.532   9.181   6.737 -1.1247  0.2186  0.5091
12022SOL    HW247721   2.426   9.065   6.691 -0.2325 -0.5420  0.3399
12023SOL     OW47722   2.054   7.600   2.538  0.3364 -0.2580  0.5826
12023SOL    HW147723   2.041   7.698   2.556  1.3279 -0.3577  1.8956
12023SOL    HW247724   2.098   7.588   2.449 -1.2321  0.4050 -0.3093
12024SOL     OW47725   0.270   3.029   2.013  0.4849  0.0313  0.0812
12024SOL    HW147726   0.296   3.097   1.944 -1.3059 -0.3200 -0.9873
12024SOL    HW247727   0.195   3.065   2.069 -0.4186 -1.0041 -0.4365
12025SOL     OW47728   2.541   4.483   3.328  0.3069  0.3387 -0.1426
12025SOL    HW147729   2.457   4.537   3.318 -0.1740 -0.8568 -2.7366
12025SOL    HW247730   2.518   4.386   3.332  1.3775  0.1348  2.0573
12026SOL     OW47731   4.671   9.342   1.757 -0.1732 -0.2221 -0.1975
12026SOL    HW147732   4.578   9.336   1.792 -0.0136  0.2610  0.3256
12026SOL    HW247733   4.714   9.252   1.758 -0.7709 -0.5158 -0.8338
12027SOL     OW47734   3.698   7.863   1.502 -0.5800  0.0631  0.7002
12027SOL    HW147735   3.685   7.962   1.512  0.3144  0.1580  0.9459
12027SOL    HW247736   3.616   7.816   1.535 -0.9414  0.7133  0.7469
12028SOL     OW47737   0.432   8.909   2.660  0.1422 -0.4325 -0.2850
12028SOL    HW147738   0.340   8.877   2.683  0.2763 -0.7595 -0.1986
12028SOL    HW247739   0.440   9.006   2.684 -0.5688 -0.0812 -1.4164
12029SOL     OW47740   8.344   8.918   5.927  0.8868 -0.2245 -0.2672
12029SOL    HW147741   8.297   8.844   5.975  0.4822 -0.2072 -0.6304
12029SOL    HW247742   8.277   8.987   5.899  1.5002  1.2869  1.8573
12030SOL     OW47743   2.135   3.371   3.721 -0.5030 -0.3856 -0.2069
12030SOL    HW147744   2.151   3.372   3.622 -1.6062 -0.2759 -0.3922
12030SOL    HW247745   2.124   3.465   3.754  0.6090 -0.3689  0.1597
12031SOL     OW47746   1.681   9.557   3.643  0.5115 -0.5517 -0.1595
12031SOL    HW147747   1.689   9.462   3.674 -1.1062 -0.5983  0.1500
12031SOL    HW247748   1.598   9.598   3.682  0.7575  0.7322 -0.9661
12032SOL     OW47749   3.462   4.938   0.185  0.4493  0.0288 -0.4553
12032SOL    HW147750   3.460   4.924   0.284 -0.6822  2.2953 -0.1127
12032SOL    HW247751   3.411   4.865   0.139  0.4981 -0.7237  0.6891
12033SOL     OW47752   0.207   9.378   0.640  0.3789 -0.1401  0.0570
12033SOL    HW147753   0.114   9.396   0.672 -0.2030  0.0278 -1.6431
12033SOL    HW247754   0.261   9.337   0.713 -0.9951 -0.1113  1.1024
12034SOL     OW47755   8.232   6.559   0.223 -0.3448 -0.7468  0.6322
12034SOL    HW147756   8.259   6.494   0.152 -2.6511 -0.2842 -0.7107
12034SOL    HW247757   8.204   6.508   0.305 -1.2827 -1.4465 -0.1027
12035SOL     OW47758   5.348   9.486   2.461 -0.2274  0.1644  0.0315
12035SOL    HW147759   5.436   9.460   2.502 -0.0071  1.4409  0.4154
12035SOL    HW247760   5.348   9.463   2.364  0.1797 -0.6897  0.2304
12036SOL     OW47761   6.053   8.060   5.798 -0.6470 -0.5334 -0.7578
12036SOL    HW147762   6.107   8.136   5.834 -1.6100 -0.7583  1.2676
12036SOL    HW247763   6.004   8.088   5.716 -1.8174  1.3625  0.5657
12037SOL     OW47764   0.130   0.113   3.872  0.1248  0.2339  0.0073
12037SOL    HW147765   0.221   0.072   3.874  0.0417  0.0795  0.7891
12037SOL    HW247766   0.108   0.140   3.778  0.5811 -0.6018 -0.3503
12038SOL     OW47767   2.133   4.272   1.736  0.2647 -0.0707 -0.5731
12038SOL    HW147768   2.129   4.346   1.668  0.7734 -0.0801 -0.6168
12038SOL    HW247769   2.130   4.184   1.690 -0.9104 -0.0822 -0.4853
12039SOL     OW47770   0.422   6.905   4.794 -0.1277 -0.0042 -0.0020
12039SOL    HW147771   0.494   6.878   4.730  3.4080  1.1185  3.3046
12039SOL    HW247772   0.378   6.989   4.763  0.9149  0.0346 -1.3790
12040SOL     OW47773   0.287   6.734   6.584  0.1614 -0.2925  0.4382
12040SOL    HW147774   0.231   6.812   6.554  0.0338 -0.7465 -0.5190
12040SOL    HW247775   0.345   6.762   6.660  0.3718  0.8437 -0.1322
12041SOL     OW47776   1.225   8.036   0.623 -0.2608  0.5209 -0.3594
12041SOL    HW147777   1.234   8.101   0.697  0.8252 -1.7776  1.5990
12041SOL    HW247778   1.137   7.988   0.631  0.1508 -0.2035 -0.1631
12042SOL     OW47779   2.310   9.201   4.424  0.1480  0.2202 -0.1304
12042SOL    HW147780   2.315   9.114   4.376 -0.3956  0.6413 -0.9755
12042SOL    HW247781   2.395   9.252   4.410  0.0806  0.2442 -0.4537
12043SOL     OW47782   5.853   8.502   5.292  0.7117 -0.0542  0.4237
12043SOL    HW147783   5.859   8.524   5.195  1.3914 -3.7473 -0.4466
12043SOL    HW247784   5.758   8.490   5.318  0.6827 -2.2536 -0.6030
12044SOL     OW47785   4.180   3.697   5.805 -0.2019 -0.1112  0.0214
12044SOL    HW147786   4.124   3.779   5.791  2.8103  1.9371 -0.6355
12044SOL    HW247787   4.171   3.636   5.726 -0.1065  1.0871 -0.9357
12045SOL     OW47788   1.385   0.874   2.055  0.6607 -0.2553  0.8040
12045SOL    HW147789   1.319   0.948   2.046  0.4374 -0.4887  0.5254
12045SOL    HW247790   1.339   0.793   2.090  0.0988 -1.4181 -2.4941
12046SOL     OW47791   9.960   1.093   6.800  0.3048  0.2583 -0.3297
12046SOL    HW147792  10.054   1.119   6.820  0.3465 -0.4070  0.3488
12046SOL    HW247793   9.959   0.999   6.764 -0.1774 -0.0425  0.4602
12047SOL     OW47794   3.974   0.101   4.949 -0.1873  0.3837 -0.1010
12047SOL    HW147795   4.058   0.068   4.907 -1.3236 -0.8187 -1.4997
12047SOL    HW247796   3.906   0.120   4.877 -1.1316  1.2584  1.0014
12048SOL     OW47797   4.805   3.067   5.223  0.0364  0.0841  0.3865
12048SOL    HW147798   4.808   3.165   5.243 -1.6920  0.1510  0.3608
12048SOL    HW247799   4.750   3.020   5.293 -0.9157 -0.5621 -0.7737
12049SOL     OW47800   7.108   7.444   4.361  0.5280  0.7686 -0.0951
12049SOL    HW147801   7.137   7.471   4.452  1.4589 -0.1003 -0.1296
12049SOL    HW247802   7.149   7.356   4.337  0.0084  0.8171 -1.2084
12050SOL     OW47803   1.778   8.205   6.658  0.7316  0.5816  0.5876
12050SOL    HW147804   1.774   8.256   6.744 -0.9964  0.7176  0.4516
12050SOL    HW247805   1.795   8.109   6.678 -0.3755  0.4888  1.1502
12051SOL     OW47806   4.408   7.685   7.073 -0.1382 -0.2385  0.4767
12051SOL    HW147807   4.316   7.722   7.055  0.3724  1.6187  1.5594
12051SOL    HW247808   4.473   7.760   7.081  1.1531 -1.4439  1.5837
12052SOL     OW47809   4.819   5.341   3.916  0.3393  0.6244  0.2125
12052SOL    HW147810   4.879   5.400   3.969  0.8661  0.4495 -0.1894
12052SOL    HW247811   4.756   5.397   3.862  1.3302  0.8355 -0.7380
12053SOL     OW47812   1.746   2.423   2.134  0.1199  0.7414  0.6077
12053SOL    HW147813   1.792   2.461   2.053 -0.1892 -0.2772 -0.0468
12053SOL    HW247814   1.764   2.325   2.140 -1.1199  0.5286  0.9302
12054SOL     OW47815   1.071   3.231   4.998  0.4514  0.1707  1.1658
12054SOL    HW147816   1.051   3.293   5.074  0.2929  0.8449  0.5871
12054SOL    HW247817   1.081   3.285   4.914 -0.4189 -0.6626  0.5225
12055SOL     OW47818   0.513   4.133   2.615 -0.2674  0.2014  0.0983
12055SOL    HW147819   0.425   4.144   2.569 -0.6635 -0.1946  0.7494
12055SOL    HW247820   0.573   4.078   2.557  0.1887  1.9773 -1.1522
12056SOL     OW47821   9.772   6.014   6.393 -0.3229 -1.1029  0.3103
12056SOL    HW147822   9.784   5.935   6.333  0.5003 -0.7849  0.0587
12056SOL    HW247823   9.852   6.024   6.452 -0.6365 -0.7455  0.6817
12057SOL     OW47824   2.651   3.097   6.259  0.7910  0.5352  0.6900
12057SOL    HW147825   2.657   3.178   6.317 -1.4370  0.8129  0.5778
12057SOL    HW247826   2.612   3.121   6.170  1.8027 -0.3443 -0.0123
12058SOL     OW47827   1.901   8.051   4.923 -0.0645  0.4642  0.1407
12058SOL    HW147828   1.985   8.013   4.884 -1.2773 -0.6656 -1.4422
12058SOL    HW247829   1.924   8.110   5.000  2.2718  1.2222 -1.0807
12059SOL     OW47830   8.961   7.245   3.989 -0.6493 -0.0928 -0.0137
12059SOL    HW147831   8.918   7.165   3.947 -1.8887  0.6834 -0.2683
12059SOL    HW247832   9.048   7.219   4.030 -1.1384 -1.6078  0.0905
12060SOL     OW47833   9.215   6.415   6.891 -0.0576 -0.1113  0.2186
12060SOL    HW147834   9.303   6.429   6.937  0.3423 -1.7535 -0.0282
12060SOL    HW247835   9.141   6.446   6.951  0.5813 -0.3687  1.1520
12061SOL     OW47836   9.199   3.539   8.135 -0.6370 -0.3699 -0.4798
12061SOL    HW147837   9.185   3.441   8.148 -0.8707 -0.2174  0.4548
12061SOL    HW247838   9.292   3.555   8.103 -0.2120 -0.8070  0.5180
12062SOL     OW47839   9.342   5.830   0.369  0.2803  0.2604  0.1474
12062SOL    HW147840   9.314   5.734   0.367 -0.1111  0.3761 -3.4665
12062SOL    HW247841   9.283   5.881   0.431 -1.4556 -1.2884 -0.1735
12063SOL     OW47842   8.261   3.656   6.345 -0.1086 -0.1228  0.3943
12063SOL    HW147843   8.216   3.608   6.270 -0.9071 -0.2266  0.9259
12063SOL    HW247844   8.217   3.745   6.357 -1.2587 -0.8803  1.9681
12064SOL     OW47845   8.532   0.994   6.494 -0.1948  0.1980 -0.1469
12064SOL    HW147846   8.560   1.055   6.419 -0.6410  0.5937  0.0043
12064SOL    HW247847   8.583   1.018   6.577  0.8541 -0.7363 -0.5106
12065SOL     OW47848   2.356   4.374   1.979  0.2038 -0.3123  0.4936
12065SOL    HW147849   2.393   4.454   1.932  1.0019 -1.8378 -1.5605
12065SOL    HW247850   2.256   4.378   1.977  0.2352  0.0827 -0.5671
12066SOL     OW47851   1.589   7.340   4.356  0.3706 -0.2318  0.1761
12066SOL    HW147852   1.631   7.261   4.312 -2.6737 -1.1911 -1.1547
12066SOL    HW247853   1.554   7.403   4.286  1.6093  1.6545  1.2311
12067SOL     OW47854   7.220   0.913   0.742  0.3948 -0.0462 -0.1178
12067SOL    HW147855   7.243   0.951   0.831  0.2648  1.2505 -0.6288
12067SOL    HW247856   7.300   0.918   0.682  0.1963 -0.0193 -0.3819
12068SOL     OW47857   4.081   2.361   1.774  0.0667  0.4732  0.0481
12068SOL    HW147858   4.095   2.346   1.676  0.1989  0.4245  0.0749
12068SOL    HW247859   4.168   2.379   1.818 -0.2479  3.1192 -0.2788
12069SOL     OW47860   2.690   2.632   0.430  0.2450  0.6976 -0.0455
12069SOL    HW147861   2.679   2.581   0.345  1.7841  4.4328 -2.6485
12069SOL    HW247862   2.782   2.619   0.466  1.3381  3.0228 -1.8160
12070SOL     OW47863   0.293   0.811   0.472  0.2905  0.5290  0.1303
12070SOL    HW147864   0.199   0.846   0.465 -0.0658 -0.4126  0.0795
12070SOL    HW247865   0.354   0.867   0.416 -0.2316  1.1705  0.1929
12071SOL     OW47866   6.652   2.098   4.334 -0.6070 -0.1399  0.1515
12071SOL    HW147867   6.689   2.190   4.342  0.0276 -0.0789 -2.7923
12071SOL    HW247868   6.688   2.041   4.407  0.0298  1.6114  1.2238
12072SOL     OW47869   9.361   7.711   5.635  0.3047 -0.0570 -0.1176
12072SOL    HW147870   9.439   7.748   5.685 -0.1131  0.5797  0.0681
12072SOL    HW247871   9.333   7.623   5.676  1.2104 -0.5175 -0.4747
12073SOL     OW47872   0.356   9.744   2.829  0.1291 -0.3643  0.3776
12073SOL    HW147873   0.423   9.674   2.802  1.8779  0.7025  1.7748
12073SOL    HW247874   0.404   9.818   2.876 -1.7898  1.4473 -0.4614
12074SOL     OW47875   9.103   8.934   6.645 -0.6377 -0.3843  0.4456
12074SOL    HW147876   9.176   9.003   6.645  0.7371 -1.8210  0.6269
12074SOL    HW247877   9.105   8.884   6.732 -0.7077 -1.6131 -0.2595
12075SOL     OW47878   6.656   0.520   6.405  0.3776 -0.7033  0.0908
12075SOL    HW147879   6.665   0.568   6.318  1.9229 -0.2793  0.4692
12075SOL    HW247880   6.736   0.538   6.462 -0.3917 -1.3651  1.4167
12076SOL     OW47881   3.610   2.132   2.558 -0.0668  0.3821  0.8595
12076SOL    HW147882   3.652   2.218   2.587  2.0235 -0.3930  0.2420
12076SOL    HW247883   3.669   2.088   2.489 -0.8445 -1.7962  1.5510
12077SOL     OW47884   0.768   9.217   3.807  0.9064  0.1958  0.6957
12077SOL    HW147885   0.804   9.183   3.720  0.5122  1.1845  0.1303
12077SOL    HW247886   0.673   9.246   3.795  0.9684  0.6948  1.3616
12078SOL     OW47887   8.213   2.587   0.194  0.1270 -0.6485  0.2214
12078SOL    HW147888   8.151   2.639   0.137  1.4193  0.3845 -0.2628
12078SOL    HW247889   8.212   2.491   0.166  0.1211 -0.2998 -0.9752
12079SOL     OW47890   0.285   5.850   1.151 -0.0809 -0.2985  0.5914
12079SOL    HW147891   0.359   5.827   1.088 -0.3847 -0.3328  0.2448
12079SOL    HW247892   0.271   5.950   1.152 -0.3389 -0.3325  0.3078
12080SOL     OW47893   3.167   9.506   4.937  0.2429  0.4559  0.3574
12080SOL    HW147894   3.097   9.535   5.002 -0.4732  1.1123 -0.6911
12080SOL    HW247895   3.198   9.585   4.883  1.7169  0.1584  0.7315
12081SOL     OW47896   2.242   8.034   2.504  0.0298  0.0827  0.4166
12081SOL    HW147897   2.311   7.965   2.529  0.4314  0.2771 -0.1391
12081SOL    HW247898   2.285   8.124   2.501 -0.5994  0.4339  1.6161
12082SOL     OW47899   2.981   2.816   7.300 -0.2058  0.2475 -0.2182
12082SOL    HW147900   3.052   2.843   7.235 -0.1204 -0.0522 -0.2513
12082SOL    HW247901   2.894   2.806   7.252 -0.3237  0.8495 -0.1358
12083SOL     OW47902   0.872   7.964   7.891 -0.4292  0.4774 -0.3520
12083SOL    HW147903   0.816   7.900   7.839  0.2787 -0.7967  0.4184
12083SOL    HW247904   0.856   8.058   7.858 -3.4649  0.2287  0.2432
12084SOL     OW47905   4.549   3.940   4.867  0.2726  0.0749  0.4410
12084SOL    HW147906   4.591   4.025   4.899 -1.1036  0.3027  1.6895
12084SOL    HW247907   4.619   3.882   4.825  1.6700  0.8498  1.6427
12085SOL     OW47908   1.686   3.490   3.664 -0.1639  0.1066 -0.3005
12085SOL    HW147909   1.735   3.573   3.689  0.8613 -0.4136 -0.5349
12085SOL    HW247910   1.676   3.430   3.744  2.0754 -1.0317 -0.8306
12086SOL     OW47911   1.718   8.716   5.456 -0.4754 -0.4346 -0.0005
12086SOL    HW147912   1.644   8.700   5.521  0.0587  0.0130  0.7272
12086SOL    HW247913   1.711   8.809   5.420  0.2821 -0.0805  0.7759
12087SOL     OW47914   5.887   0.579   5.070  0.2843 -0.0754  0.1460
12087SOL    HW147915   5.954   0.545   5.136  0.8239  0.4222 -0.1394
12087SOL    HW247916   5.868   0.676   5.088 -0.0975 -0.1254  0.0118
12088SOL     OW47917   2.698   7.506   7.775  0.1702 -0.1322 -0.4807
12088SOL    HW147918   2.774   7.442   7.764  2.1124  1.9404  0.4396
12088SOL    HW247919   2.734   7.596   7.803 -2.7077  0.6465  0.8611
12089SOL     OW47920   8.461   8.998   7.875  0.5477 -0.4356  0.2406
12089SOL    HW147921   8.386   9.064   7.881  0.6600 -0.2363 -0.4637
12089SOL    HW247922   8.486   8.985   7.779  0.6880 -1.3191  0.3894
12090SOL     OW47923   3.801   2.283   5.520 -0.1032  0.3198  0.2521
12090SOL    HW147924   3.755   2.214   5.575 -1.2088  0.4754 -0.4600
12090SOL    HW247925   3.886   2.245   5.484 -0.8564 -0.7907 -0.4004
12091SOL     OW47926   8.120   7.136   1.932  0.0502  0.1233  0.5172
12091SOL    HW147927   8.142   7.039   1.923 -1.3696 -0.2474  0.8719
12091SOL    HW247928   8.067   7.165   1.853 -2.1561 -0.1655  1.8585
12092SOL     OW47929   6.224   1.453   3.801  0.4019  0.0770 -0.0449
12092SOL    HW147930   6.148   1.462   3.866  1.6499 -0.7634  1.5784
12092SOL    HW247931   6.253   1.544   3.770  1.4469  0.6842  2.5721
12093SOL     OW47932   5.868   2.448   4.856 -0.0302  0.1141 -0.0936
12093SOL    HW147933   5.819   2.386   4.917 -0.2077 -0.2120 -0.5666
12093SOL    HW247934   5.828   2.443   4.764  1.3836 -0.7367 -0.6774
12094SOL     OW47935   8.744   1.425   3.904 -0.1696 -0.5279 -0.2693
12094SOL    HW147936   8.836   1.423   3.944 -1.3323 -0.4552  2.5130
12094SOL    HW247937   8.707   1.333   3.901 -0.6402 -0.3500  0.1161
12095SOL     OW47938   1.828   1.676   2.434  0.0165 -0.0900 -0.2696
12095SOL    HW147939   1.833   1.772   2.408 -1.8696  0.1865  0.2977
12095SOL    HW247940   1.920   1.635   2.429  0.7519  1.5936 -0.9838
12096SOL     OW47941   8.132   8.302   3.555  0.1347  0.1349 -0.5235
12096SOL    HW147942   8.117   8.399   3.573 -1.7133 -0.5348  1.8207
12096SOL    HW247943   8.211   8.270   3.609 -0.3288 -0.0299  0.0663
12097SOL     OW47944   7.472   9.708   5.452  0.3530 -0.1631  0.0764
12097SOL    HW147945   7.530   9.777   5.411 -0.8518  0.6527 -0.2718
12097SOL    HW247946   7.513   9.676   5.538  1.9530 -0.5573 -0.8303
12098SOL     OW47947   1.808   0.485   2.730 -0.1869  0.0133  0.2873
12098SOL    HW147948   1.776   0.425   2.656  0.9610 -0.9078  0.5146
12098SOL    HW247949   1.834   0.574   2.692  0.8080 -0.5996 -0.5030
12099SOL     OW47950   5.660   8.850   4.996  0.9574 -0.8438 -0.3013
12099SOL    HW147951   5.690   8.875   4.905 -0.6030 -0.8347 -0.8279
12099SOL    HW247952   5.560   8.841   4.997  0.9067 -0.2826  1.5301
12100SOL     OW47953   9.380   1.133   0.831 -0.2080 -0.4752  0.5413
12100SOL    HW147954   9.405   1.078   0.911  0.9384 -0.8754 -0.0800
12100SOL    HW247955   9.462   1.155   0.778 -0.8337  0.6651  0.0312
12101SOL     OW47956   2.111   0.449   3.277  0.1323 -0.3740  0.1400
12101SOL    HW147957   2.145   0.374   3.333  0.5812  0.5766  1.1507
12101SOL    HW247958   2.158   0.449   3.189 -0.6839 -1.9639 -0.3267
12102SOL     OW47959   8.922   4.012   4.526 -0.5896  0.0745  0.0883
12102SOL    HW147960   9.004   3.957   4.541 -0.2620  0.1574 -1.2654
12102SOL    HW247961   8.880   4.034   4.613  1.3656  0.8396  0.8593
12103SOL     OW47962   2.110   7.365   6.719 -0.1894  0.1859  0.2049
12103SOL    HW147963   2.060   7.347   6.804 -0.8919  2.0363  0.2109
12103SOL    HW247964   2.207   7.378   6.740 -0.6719  2.8142  1.0749
12104SOL     OW47965   6.673   1.353   0.768 -0.2949 -0.2542  0.0386
12104SOL    HW147966   6.658   1.358   0.669 -1.9790  2.0366  0.3591
12104SOL    HW247967   6.603   1.294   0.809 -0.2781 -0.2935  0.0118
12105SOL     OW47968   3.246   0.748   2.781 -0.5560  0.2981 -0.3111
12105SOL    HW147969   3.264   0.687   2.703 -0.9282  0.6149 -0.6477
12105SOL    HW247970   3.328   0.803   2.799  0.3127 -1.3639  0.9641
12106SOL     OW47971   1.472   5.828   2.038 -0.0361 -0.1545 -1.1452
12106SOL    HW147972   1.531   5.847   2.116  0.6291 -2.1495 -1.1213
12106SOL    HW247973   1.517   5.860   1.954 -0.5856  1.6530 -0.7631
12107SOL     OW47974   0.159   1.064   7.939  0.0559  0.2398 -0.2409
12107SOL    HW147975   0.072   1.102   7.908  0.9716  2.3859 -0.3242
12107SOL    HW247976   0.145   0.972   7.974 -2.4212  0.9296  0.6898
12108SOL     OW47977   9.038   7.004   6.128 -0.3766 -0.4914 -0.2502
12108SOL    HW147978   9.125   6.957   6.143 -1.0894 -1.3228  1.4536
12108SOL    HW247979   9.039   7.092   6.176  0.8809  1.2001 -3.2724
12109SOL     OW47980   2.622   1.167   2.984  0.5955  0.4912  0.1716
12109SOL    HW147981   2.527   1.185   3.011  0.8356  1.8526  0.1290
12109SOL    HW247982   2.671   1.126   3.061  0.4923  1.6250  0.8552
12110SOL     OW47983   8.354   8.893   1.343  0.0068  0.1974  0.4613
12110SOL    HW147984   8.315   8.984   1.359 -0.2402  0.2912 -0.6785
12110SOL    HW247985   8.382   8.854   1.431 -2.2527  0.3119  1.2805
12111SOL     OW47986   3.700   3.832   2.966 -0.0783  0.0992  0.2051
12111SOL    HW147987   3.687   3.889   2.885  1.6842  2.4646  1.4868
12111SOL    HW247988   3.675   3.885   3.047  0.3495 -1.4242  1.3440
12112SOL     OW47989   8.846   7.920   0.541  0.1549 -0.0031 -0.8191
12112SOL    HW147990   8.909   7.911   0.618 -1.4597  0.2994  0.5668
12112SOL    HW247991   8.840   8.016   0.514 -0.1285  0.0509 -0.5748
12113SOL     OW47992   8.787   4.891   4.183  0.1457  0.0506 -0.0068
12113SOL    HW147993   8.848   4.817   4.155  0.2040  0.3653 -0.7414
12113SOL    HW247994   8.694   4.856   4.189 -0.0030  0.1622 -1.4489
12114SOL     OW47995   0.210   2.828   4.999 -0.2274 -0.0316 -0.0126
12114SOL    HW147996   0.282   2.774   5.043 -0.2641  0.8829  1.1860
12114SOL    HW247997   0.122   2.807   5.042 -0.8151 -1.6685 -1.9312
12115SOL     OW47998   8.697   5.554   4.970 -0.1578 -0.2642  0.3208
12115SOL    HW147999   8.769   5.484   4.970 -0.3829 -0.4996  0.6400
12115SOL    HW248000   8.725   5.631   4.912  0.4177 -0.2882  0.5620
12116SOL     OW48001   3.080   7.253   8.016  0.1704 -0.1015  0.3516
12116SOL    HW148002   3.025   7.169   8.019  0.5587 -0.3219  1.3423
12116SOL    HW248003   3.094   7.287   8.109  1.3839  0.1725  0.0679
12117SOL     OW48004   0.617   0.963   7.892  0.0689  0.5015 -0.7039
12117SOL    HW148005   0.649   1.006   7.977 -1.6318  0.8344 -0.2180
12117SOL    HW248006   0.690   0.907   7.854  1.4731  1.8181 -0.0008
12118SOL     OW48007   1.712   2.548   4.169  0.3432  0.1017 -0.0864
12118SOL    HW148008   1.756   2.571   4.082  1.9796  0.9595  0.9292
12118SOL    HW248009   1.780   2.551   4.242 -1.1599  0.1123  1.3426
12119SOL     OW48010   1.577   0.175   3.866 -0.0029  0.5318 -0.1158
12119SOL    HW148011   1.632   0.122   3.801 -0.0064  1.0290 -0.5291
12119SOL    HW248012   1.480   0.158   3.849  0.0099  0.1699  0.1763
12120SOL     OW48013   2.115   3.776   6.589  0.3074 -0.4134  0.7098
12120SOL    HW148014   2.051   3.828   6.646 -0.5501  0.6162 -1.1704
12120SOL    HW248015   2.065   3.714   6.529  1.0145  0.5318 -0.9037
12121SOL     OW48016   8.095   4.974   4.376  0.0190 -0.2982  0.4917
12121SOL    HW148017   8.170   4.937   4.430 -0.4369 -0.8800  0.7294
12121SOL    HW248018   8.108   5.073   4.365  1.6849 -0.6494 -0.8673
12122SOL     OW48019   3.496   9.084   6.719 -0.1154  0.1478  0.0450
12122SOL    HW148020   3.465   9.086   6.815  0.4447 -0.0801  0.2319
12122SOL    HW248021   3.562   9.010   6.707  0.7085  0.9261 -0.2484
12123SOL     OW48022   9.912   6.017   3.116 -0.7495 -0.1945 -0.2829
12123SOL    HW148023   9.950   5.925   3.117 -1.4404 -0.4887 -0.2792
12123SOL    HW248024   9.955   6.071   3.044  2.2990  0.6239  2.0684
12124SOL     OW48025   7.449   0.367   3.360  0.0223 -0.2250  0.4140
12124SOL    HW148026   7.545   0.394   3.364  0.1776 -0.7379  0.1784
12124SOL    HW248027   7.442   0.270   3.334 -0.5453 -0.2724  0.7271
12125SOL     OW48028   3.041   2.223   3.497 -0.5410  0.2434  0.1245
12125SOL    HW148029   2.979   2.209   3.421 -0.8900 -1.4830  0.7163
12125SOL    HW248030   3.134   2.235   3.462 -0.7322 -0.3017 -0.5772
12126SOL     OW48031   2.098   3.394   6.509  0.3225 -0.2085  0.3731
12126SOL    HW148032   2.064   3.300   6.500 -0.4346  0.0147  0.9032
12126SOL    HW248033   2.168   3.397   6.581  2.8073 -1.0170 -1.9069
12127SOL     OW48034   0.551   5.249   8.177 -0.4737 -0.2188 -0.2920
12127SOL    HW148035   0.451   5.248   8.172 -0.4491  0.9482 -0.9881
12127SOL    HW248036   0.588   5.303   8.102  0.7194 -1.2602 -0.4666
12128SOL     OW48037   5.901   1.355   4.266 -0.0397 -0.3655 -0.1871
12128SOL    HW148038   5.974   1.387   4.206 -0.0692 -0.8939 -0.5081
12128SOL    HW248039   5.917   1.259   4.289 -0.3941 -0.3560  0.1031
12129SOL     OW48040   2.011   4.307   7.165  0.0029  0.1050 -0.8193
12129SOL    HW148041   2.105   4.278   7.148 -0.3228 -0.0548 -2.4805
12129SOL    HW248042   1.975   4.350   7.083 -1.9683 -1.4634 -0.8157
12130SOL     OW48043   7.611   8.670   7.285 -0.2279 -0.3535  0.7357
12130SOL    HW148044   7.562   8.721   7.215 -0.0924 -1.2842 -0.0517
12130SOL    HW248045   7.645   8.733   7.355 -0.5118  0.5619  0.0594
12131SOL     OW48046   4.362   8.960   3.475  0.4464 -0.3138 -0.5243
12131SOL    HW148047   4.333   8.898   3.548 -1.1407 -0.6706 -1.4343
12131SOL    HW248048   4.453   8.934   3.443  1.2930  0.0348  1.5257
12132SOL     OW48049   4.722   8.360   4.969  0.3362 -0.1294 -0.0924
12132SOL    HW148050   4.673   8.393   4.889 -0.1129 -0.7678 -0.0903
12132SOL    HW248051   4.702   8.262   4.982  0.4444 -0.0435  0.7570
12133SOL     OW48052   8.251   3.057   4.232 -0.4434 -0.0966 -0.0076
12133SOL    HW148053   8.341   3.101   4.238 -0.7058  0.5100 -0.4592
12133SOL    HW248054   8.263   2.958   4.231  0.2869 -0.0126 -1.0125
12134SOL     OW48055   2.060   8.422   1.232  0.7956 -0.0979  0.1736
12134SOL    HW148056   2.088   8.405   1.138  0.7068 -0.5594  0.2275
12134SOL    HW248057   2.086   8.515   1.259 -2.5966  1.4024 -1.5434
12135SOL     OW48058   8.492   4.538   5.213 -0.2186 -0.3484 -0.4916
12135SOL    HW148059   8.420   4.475   5.243 -1.0080  0.3957 -0.8243
12135SOL    HW248060   8.557   4.489   5.155 -1.0776 -0.7613 -1.1181
12136SOL     OW48061   8.341   8.927   4.431  0.2862  0.4876 -0.7416
12136SOL    HW148062   8.263   8.867   4.414 -0.5063  0.8214  1.4804
12136SOL    HW248063   8.418   8.900   4.373 -0.5613 -1.6675 -0.9080
12137SOL     OW48064   1.778   6.177   6.730 -0.1895 -0.1298  0.1339
12137SOL    HW148065   1.854   6.184   6.795  0.6679 -0.1296 -0.8427
12137SOL    HW248066   1.710   6.246   6.750  0.8698  0.9721  0.0028
12138SOL     OW48067   4.511   0.708   6.041  0.2745 -0.0627  0.8690
12138SOL    HW148068   4.447   0.779   6.068  0.5664 -0.2276  1.9966
12138SOL    HW248069   4.461   0.632   5.998 -0.3236 -0.3369  2.0358
12139SOL     OW48070   4.307   9.166   3.241 -0.0436  0.5051  0.2958
12139SOL    HW148071   4.365   9.247   3.240  1.4108 -0.5141  0.1452
12139SOL    HW248072   4.318   9.118   3.328  0.4410 -0.4732 -0.3022
12140SOL     OW48073   1.642   4.115   5.634  0.0359  0.6983 -0.5764
12140SOL    HW148074   1.615   4.158   5.547  0.8649  1.1224 -0.6324
12140SOL    HW248075   1.721   4.163   5.671  0.3131 -0.1212 -0.0952
12141SOL     OW48076   0.354   3.681   1.054 -0.0231 -0.0221 -0.2462
12141SOL    HW148077   0.405   3.767   1.052  1.4199 -0.7973  2.1085
12141SOL    HW248078   0.277   3.690   1.118 -0.7327 -0.0323 -1.0881
12142SOL     OW48079   4.176   1.645   0.410 -0.1495  0.2481  0.3535
12142SOL    HW148080   4.235   1.713   0.366 -0.3550  2.3499  3.2175
12142SOL    HW248081   4.225   1.599   0.483 -1.2927  0.2111  1.1069
12143SOL     OW48082   8.988   8.885   2.918  0.0350 -0.3188  0.0524
12143SOL    HW148083   8.938   8.883   3.004 -0.3158  0.2993 -0.1353
12143SOL    HW248084   9.044   8.802   2.910 -0.6731 -0.8411  0.4352
12144SOL     OW48085   8.547   9.774   3.813 -0.8928 -0.0287 -0.3991
12144SOL    HW148086   8.591   9.691   3.778  0.4452  0.9527 -1.1047
12144SOL    HW248087   8.452   9.777   3.782 -0.8038 -1.0397 -0.8056
12145SOL     OW48088   9.252   2.659   0.122  0.1818  0.8587  0.1628
12145SOL    HW148089   9.274   2.644   0.026 -2.0966 -0.7321 -0.1411
12145SOL    HW248090   9.215   2.751   0.134  0.5165  1.0795 -0.4674
12146SOL     OW48091   3.718   8.353   4.944  0.2899 -0.8918  0.2278
12146SOL    HW148092   3.633   8.395   4.978  0.6815  0.0672  0.0454
12146SOL    HW248093   3.696   8.290   4.870 -0.2738 -0.6473  0.1808
12147SOL     OW48094   8.280   4.421   4.054 -0.1459  0.1768 -0.5998
12147SOL    HW148095   8.190   4.418   4.098  0.5921 -1.6710  0.8177
12147SOL    HW248096   8.300   4.332   4.013  2.0458 -0.1779  1.1459
12148SOL     OW48097   8.248   4.690   0.544 -0.0434 -0.7056  0.7004
12148SOL    HW148098   8.337   4.656   0.577  0.3279 -0.3594  0.0642
12148SOL    HW248099   8.176   4.656   0.603  0.4344 -1.7155  0.7099
12149SOL     OW48100   9.198   6.721   6.722  0.0639 -0.3009 -0.1263
12149SOL    HW148101   9.261   6.657   6.680 -1.2351 -2.0193  0.4837
12149SOL    HW248102   9.119   6.671   6.759 -0.9517  1.6349  0.3954
12150SOL     OW48103   3.458   0.610   6.484  0.0777  0.0814  0.2211
12150SOL    HW148104   3.436   0.570   6.572  0.7441 -0.6109  0.0780
12150SOL    HW248105   3.531   0.557   6.440  0.0827  0.6969 -0.5313
12151SOL     OW48106   3.517   1.916   3.457 -0.4153  0.2682  0.3732
12151SOL    HW148107   3.546   1.962   3.373 -0.3361 -1.0059 -0.3120
12151SOL    HW248108   3.418   1.911   3.460 -0.3976 -0.3781 -0.0302
12152SOL     OW48109   1.822   0.079   3.963 -0.0131 -0.1755  0.3597
12152SOL    HW148110   1.827  -0.016   3.993  0.3340 -0.7316 -1.3629
12152SOL    HW248111   1.734   0.119   3.992  0.3796 -0.6042  2.1884
12153SOL     OW48112   3.510   4.209   8.153  0.1508  0.2538 -0.1935
12153SOL    HW148113   3.583   4.226   8.086  0.3529 -2.2337 -0.6509
12153SOL    HW248114   3.449   4.138   8.118  0.0078 -0.7726  2.0927
12154SOL     OW48115   3.592   7.854   6.203 -0.2392  0.4547  0.0169
12154SOL    HW148116   3.666   7.826   6.263 -0.9481 -0.4369  0.4738
12154SOL    HW248117   3.603   7.951   6.180  1.2830  0.2379 -0.2405
12155SOL     OW48118   6.307   1.368   5.566 -0.4220 -0.6394 -0.3544
12155SOL    HW148119   6.279   1.275   5.591  0.8224 -1.0901 -0.6070
12155SOL    HW248120   6.335   1.370   5.470  1.4500 -0.4505  0.1729
12156SOL     OW48121   7.316   7.659   6.651  0.0589 -0.2671  0.0933
12156SOL    HW148122   7.314   7.620   6.559  0.1126  0.6623 -0.3126
12156SOL    HW248123   7.387   7.614   6.705  0.7148 -0.1305 -0.6413
12157SOL     OW48124   1.304   2.308   6.626 -0.0353 -0.2448 -0.5265
12157SOL    HW148125   1.278   2.324   6.722 -1.7751  0.9762 -1.1732
12157SOL    HW248126   1.327   2.396   6.583  1.5234 -0.8763 -1.0291
12158SOL     OW48127   9.047   0.025   7.669  0.0380  0.0843 -0.0241
12158SOL    HW148128   8.959  -0.020   7.685  0.6893 -2.2057 -2.4825
12158SOL    HW248129   9.042   0.120   7.699 -2.8715 -0.3647  1.0376
12159SOL     OW48130   3.012   8.561   1.801  0.5355 -0.1561 -0.1518
12159SOL    HW148131   3.001   8.574   1.899 -1.6276 -0.3552 -0.3251
12159SOL    HW248132   2.941   8.613   1.753  0.4437 -1.5147 -1.5101
12160SOL     OW48133   1.030   3.795   1.354 -0.0287  0.7165  0.0696
12160SOL    HW148134   0.980   3.794   1.441 -0.1533 -1.9090  0.0104
12160SOL    HW248135   1.126   3.820   1.371  0.2968 -1.2023  1.1786
12161SOL     OW48136   9.336   9.063   2.273  0.5610  0.3854  0.1712
12161SOL    HW148137   9.302   9.013   2.192  0.1079  0.6474  0.2000
12161SOL    HW248138   9.278   9.142   2.290  1.8040  1.4535 -0.4099
12162SOL     OW48139   7.029   6.296   6.329 -0.5572 -0.4871  0.3523
12162SOL    HW148140   7.120   6.333   6.345 -1.2571  1.4960 -0.0795
12162SOL    HW248141   6.992   6.333   6.244 -0.8925 -3.0440 -0.6752
12163SOL     OW48142   3.799   6.622   4.662  0.1871 -0.5645 -0.4864
12163SOL    HW148143   3.801   6.536   4.713  0.8758  0.0175  0.5027
12163SOL    HW248144   3.773   6.605   4.567 -1.1667 -1.6631  0.0804
12164SOL     OW48145   8.657   4.312   6.973  0.3972 -0.4478  0.2215
12164SOL    HW148146   8.741   4.259   6.973  0.4038 -0.5140 -2.3335
12164SOL    HW248147   8.602   4.287   6.893 -0.9734  1.2424  0.6017
12165SOL     OW48148   0.038   3.991   1.606 -0.5425  0.0297  0.2562
12165SOL    HW148149   0.042   4.091   1.609  0.3578  0.0499 -1.2653
12165SOL    HW248150   0.131   3.953   1.604 -0.8834 -0.8208  0.1574
12166SOL     OW48151   9.802   9.407   3.883  0.5093  0.0431  0.2304
12166SOL    HW148152   9.714   9.388   3.839  0.3900 -0.8655  0.8441
12166SOL    HW248153   9.790   9.479   3.951 -0.0183 -0.9002  1.1499
12167SOL     OW48154   8.392   4.276   6.605 -0.3096  0.0742  0.0773
12167SOL    HW148155   8.406   4.375   6.610  0.3381  0.0505 -1.1782
12167SOL    HW248156   8.297   4.257   6.583 -0.3871  0.4234  0.1118
12168SOL     OW48157   6.549   1.120   0.618 -0.2699  0.1609  0.5529
12168SOL    HW148158   6.519   1.206   0.575 -0.3285  0.5911  1.4251
12168SOL    HW248159   6.526   1.123   0.716  0.6583 -0.4216  0.7919
12169SOL     OW48160   2.011   0.929   4.236  0.1689 -0.1569 -0.0165
12169SOL    HW148161   1.932   0.964   4.287  0.4068  0.2989  0.0340
12169SOL    HW248162   1.987   0.840   4.197 -0.5477  0.1998 -0.4165
12170SOL     OW48163   2.523   2.277   1.159  0.4397 -0.7047 -0.2056
12170SOL    HW148164   2.479   2.186   1.154  2.0180 -1.5965  1.5695
12170SOL    HW248165   2.504   2.327   1.074 -2.0457 -1.9474 -0.4528
12171SOL     OW48166   3.676   0.754   3.636 -0.0999  0.2359 -0.3657
12171SOL    HW148167   3.723   0.782   3.552  2.0559  1.1385  1.1142
12171SOL    HW248168   3.723   0.793   3.715 -1.9198 -0.8737  1.2904
12172SOL     OW48169   1.009   6.259   5.913  0.4075 -0.4573 -0.2801
12172SOL    HW148170   1.039   6.353   5.898  0.6279 -0.6059 -0.7738
12172SOL    HW248171   1.088   6.201   5.936  0.4492 -0.7596 -1.1546
12173SOL     OW48172   6.781   1.366   6.655  0.1163  0.2455  0.5050
12173SOL    HW148173   6.718   1.303   6.611  1.1050 -0.3938 -0.0127
12173SOL    HW248174   6.870   1.323   6.665  1.1433  1.9234 -0.8951
12174SOL     OW48175   0.634   8.822   0.535  0.3981 -0.1749  0.1248
12174SOL    HW148176   0.690   8.844   0.614  0.6113  2.0210 -0.6281
12174SOL    HW248177   0.657   8.882   0.459  0.6826 -2.7058 -1.8583
12175SOL     OW48178   8.502   7.644   7.358  0.0825  0.8434 -0.5516
12175SOL    HW148179   8.425   7.612   7.304 -0.2007  0.0713  0.2998
12175SOL    HW248180   8.514   7.742   7.344 -1.0800  0.9779 -0.6659
12176SOL     OW48181   5.872   1.527   7.694 -0.0313 -0.2668 -0.0212
12176SOL    HW148182   5.844   1.432   7.677  0.8711 -0.9403  2.0504
12176SOL    HW248183   5.814   1.589   7.640 -1.5882 -1.9093 -0.3062
12177SOL     OW48184   4.358   2.576   6.830  0.4216  0.7563 -0.2959
12177SOL    HW148185   4.354   2.666   6.875  0.6786  0.8565 -0.4769
12177SOL    HW248186   4.368   2.505   6.900 -0.4209  0.8159 -0.1001
12178SOL     OW48187   4.926   7.735   5.414  0.0412  0.0485  0.0566
12178SOL    HW148188   4.861   7.661   5.427  0.0968 -0.1243 -0.6418
12178SOL    HW248189   4.883   7.809   5.362 -0.3081  0.9134  1.5406
12179SOL     OW48190   3.139   6.573   0.333  0.2103 -0.4262 -0.3099
12179SOL    HW148191   3.069   6.541   0.396  0.7047 -2.3062 -0.7008
12179SOL    HW248192   3.146   6.510   0.256  0.3339  1.2865 -1.7444
12180SOL     OW48193   8.302   0.018   3.910  0.0360  0.0453  0.0039
12180SOL    HW148194   8.239   0.093   3.887 -3.5044 -2.9954 -0.8898
12180SOL    HW248195   8.372   0.051   3.973 -2.4934  3.6207  1.1255
12181SOL     OW48196   6.963   2.491   5.544 -0.1347  0.2210  0.3667
12181SOL    HW148197   6.913   2.578   5.541  0.6061  0.6207 -0.7866
12181SOL    HW248198   7.000   2.470   5.453  1.5466 -0.1961  1.1220
12182SOL     OW48199   4.696   9.223   5.891 -0.8742 -0.1190  0.1736
12182SOL    HW148200   4.772   9.158   5.888  1.4526  2.5146 -0.3666
12182SOL    HW248201   4.644   9.218   5.806  1.1686  0.8138 -1.1696
12183SOL     OW48202   0.746   2.822   6.429 -0.2091  0.0198 -0.9607
12183SOL    HW148203   0.786   2.890   6.490 -0.3574 -0.9995  0.3061
12183SOL    HW248204   0.651   2.847   6.409 -0.4929 -0.1812  0.0901
12184SOL     OW48205   9.399   6.013   3.262  0.2571 -0.2674 -0.3007
12184SOL    HW148206   9.312   6.061   3.274  0.6726  0.3818  0.1315
12184SOL    HW248207   9.415   5.952   3.339  0.5730  0.2170  0.0148
12185SOL     OW48208   8.035   5.623   5.082 -0.7215  0.0244 -0.3752
12185SOL    HW148209   8.023   5.647   4.986 -1.8372  0.2339 -0.1961
12185SOL    HW248210   7.946   5.600   5.122 -0.3138  0.2693  0.6922
12186SOL     OW48211   2.351   2.730   6.147 -0.4922 -0.2484 -0.0046
12186SOL    HW148212   2.289   2.795   6.191 -0.6167 -0.3134 -0.0832
12186SOL    HW248213   2.433   2.777   6.116  1.1620 -0.7340  3.3340
12187SOL     OW48214   8.039   2.277   5.057  0.2504 -0.4173  0.2541
12187SOL    HW148215   8.087   2.210   5.001 -0.8425 -0.2166 -0.9305
12187SOL    HW248216   7.968   2.231   5.111 -0.2391 -0.2803 -0.2673
12188SOL     OW48217   5.235   8.424   4.837  0.6540 -0.4303  0.5448
12188SOL    HW148218   5.257   8.389   4.746  0.5812  0.5427  0.1535
12188SOL    HW248219   5.270   8.360   4.906  0.8592 -1.0835 -0.1543
12189SOL     OW48220   2.376   0.546   6.110  0.6797 -0.2228 -0.0529
12189SOL    HW148221   2.375   0.646   6.109 -1.4203 -0.1750  2.0711
12189SOL    HW248222   2.396   0.512   6.018  1.0376  2.1434 -0.8789
12190SOL     OW48223   0.140   0.892   2.772 -0.3039  0.1059  0.1218
12190SOL    HW148224   0.134   0.984   2.813  1.0626 -0.3940  1.4607
12190SOL    HW248225   0.115   0.898   2.675 -0.2894  1.8828  0.1989
12191SOL     OW48226   8.581   7.557   7.811 -0.0958  0.2339  0.1759
12191SOL    HW148227   8.679   7.565   7.827  0.1994  0.6227 -1.6672
12191SOL    HW248228   8.533   7.635   7.851  0.3221 -0.0481  1.2286
12192SOL     OW48229   3.926   1.075   3.693  0.6300  0.8138 -0.1616
12192SOL    HW148230   4.006   1.094   3.750  0.6689  0.7314 -0.1886
12192SOL    HW248231   3.915   1.148   3.625 -1.0026  2.3154  1.6861
12193SOL     OW48232   0.107   0.751   6.742 -0.0497  0.1811 -0.1592
12193SOL    HW148233   0.092   0.778   6.837 -0.3205  0.0181 -0.1546
12193SOL    HW248234   0.066   0.661   6.726  0.6313 -0.1182 -0.2383
12194SOL     OW48235   1.126   7.116   7.778  0.1836 -0.0722  0.0361
12194SOL    HW148236   1.121   7.028   7.731  1.9259 -0.9167  1.3815
12194SOL    HW248237   1.036   7.139   7.815  0.3181 -2.6340  2.0473
12195SOL     OW48238   9.503   7.728   3.703  0.3007  0.1399 -0.2931
12195SOL    HW148239   9.544   7.700   3.616 -1.3341 -1.5012 -0.5631
12195SOL    HW248240   9.494   7.648   3.763  1.3759  1.2505  1.3791
12196SOL     OW48241   9.957   8.277   7.385  0.2621  0.1089 -0.0250
12196SOL    HW148242   9.902   8.228   7.452 -0.3285 -1.6417 -1.7324
12196SOL    HW248243  10.026   8.215   7.347  0.0188  0.7896 -1.6437
12197SOL     OW48244   2.996   4.203   0.663 -0.1844  0.1108  1.1285
12197SOL    HW148245   3.067   4.169   0.602 -0.3656 -0.9045  1.4876
12197SOL    HW248246   2.919   4.139   0.665  1.3331 -1.7368  5.2124
12198SOL     OW48247   3.342   9.278   0.653 -0.6977  0.2289  0.2713
12198SOL    HW148248   3.260   9.295   0.708 -0.4400 -0.1098  0.7601
12198SOL    HW248249   3.404   9.218   0.703 -0.3280  0.1612 -0.2681
12199SOL     OW48250   7.215   1.321   1.356 -0.0450  0.1320 -0.0712
12199SOL    HW148251   7.256   1.388   1.418 -1.3509  0.6285  0.2718
12199SOL    HW248252   7.219   1.230   1.398  2.3482 -0.1550 -0.8277
12200SOL     OW48253   1.378   8.356   1.908 -0.4934 -0.1619 -0.0370
12200SOL    HW148254   1.420   8.445   1.890  1.0611 -0.7361  0.6125
12200SOL    HW248255   1.314   8.363   1.984  0.0944  0.2877  0.4222
12201SOL     OW48256   5.695   0.491   1.893  0.0854  0.1277  0.2153
12201SOL    HW148257   5.625   0.553   1.928  2.3713  1.0554  3.3353
12201SOL    HW248258   5.695   0.407   1.947  0.1058 -0.6977 -1.0369
12202SOL     OW48259   9.497   0.948   1.002  0.1541  0.3799 -0.0304
12202SOL    HW148260   9.559   0.935   0.925 -0.4691  4.4333 -1.3557
12202SOL    HW248261   9.551   0.967   1.085  0.7383 -0.2734 -0.2554
12203SOL     OW48262   0.292   1.647   5.928 -0.2206 -0.9520 -0.5701
12203SOL    HW148263   0.325   1.741   5.932  0.2349 -1.1342 -0.0661
12203SOL    HW248264   0.237   1.634   5.845  0.5613 -0.5268 -1.1507
12204SOL     OW48265   9.508   1.855   6.612  0.1446 -0.3011 -0.1290
12204SOL    HW148266   9.569   1.921   6.568  1.2224 -2.1634 -1.4867
12204SOL    HW248267   9.435   1.904   6.660  0.0572  1.8319 -2.3643
12205SOL     OW48268   4.841   1.160   2.750 -0.0021  0.1772 -1.2595
12205SOL    HW148269   4.826   1.250   2.708  0.7966  1.6322  1.4808
12205SOL    HW248270   4.757   1.130   2.795  0.5036  0.8185  0.1364
12206SOL     OW48271   1.154   8.606   6.485  0.4748  0.2592 -0.1235
12206SOL    HW148272   1.130   8.516   6.449 -1.7655  0.3455  1.0224
12206SOL    HW248273   1.119   8.678   6.425 -0.0765  0.3760  0.3322
12207SOL     OW48274   7.298   4.148   0.153 -0.0691 -0.3076 -0.1247
12207SOL    HW148275   7.335   4.240   0.169 -0.1957 -0.3215  0.2605
12207SOL    HW248276   7.322   4.118   0.061  0.9547 -0.3471  0.1484
12208SOL     OW48277   1.052   8.866   4.457 -0.3774 -0.1921  0.0152
12208SOL    HW148278   0.981   8.937   4.454 -0.1696  0.1214  2.1824
12208SOL    HW248279   1.009   8.776   4.443 -1.2000  0.0091  1.1543
12209SOL     OW48280   8.037   7.191   7.316 -0.0177 -0.3570 -0.4211
12209SOL    HW148281   8.020   7.094   7.299 -0.2006 -0.4284  0.1461
12209SOL    HW248282   8.005   7.215   7.408  2.2210 -0.3104  0.3825
12210SOL     OW48283   4.519   4.404   7.256  0.2633 -0.0049  0.3786
12210SOL    HW148284   4.449   4.415   7.327 -0.4967 -0.0030 -0.3669
12210SOL    HW248285   4.520   4.308   7.226  0.4670  0.0323  0.2682
12211SOL     OW48286   3.755   4.948   2.788  0.1262  0.3364  0.0705
12211SOL    HW148287   3.659   4.943   2.762 -0.1087  1.1369  0.7732
12211SOL    HW248288   3.809   4.892   2.726 -0.8306 -0.3621 -0.1455
12212SOL     OW48289   9.225   7.704   5.241  0.6832  0.4101  0.6107
12212SOL    HW148290   9.302   7.680   5.300 -0.1038 -0.6102  1.2222
12212SOL    HW248291   9.220   7.639   5.165 -1.2081 -1.1749  2.0526
12213SOL     OW48292   9.393   6.169   1.274 -0.2059 -0.4253 -0.7234
12213SOL    HW148293   9.461   6.242   1.279  1.5246 -1.7072 -4.2736
12213SOL    HW248294   9.438   6.082   1.253 -2.3188 -2.4571  2.6370
12214SOL     OW48295   8.440   9.728   0.537  0.0277  0.6143  0.6681
12214SOL    HW148296   8.392   9.692   0.456 -2.4297  1.6656  1.6002
12214SOL    HW248297   8.532   9.756   0.511 -0.1325 -0.6087 -1.4107
12215SOL     OW48298   9.552   9.660   5.512  0.5999 -0.1332 -0.3935
12215SOL    HW148299   9.576   9.602   5.591 -0.9238  0.3829  0.4715
12215SOL    HW248300   9.632   9.672   5.454  1.3502 -1.8150  0.2504
12216SOL     OW48301   3.354   9.114   1.131  0.0165 -0.3652 -0.2353
12216SOL    HW148302   3.322   9.039   1.073  0.3532 -0.2073 -0.6289
12216SOL    HW248303   3.277   9.173   1.154 -0.3709 -1.2056  0.6320
12217SOL     OW48304   7.673   2.653   5.365  0.0387 -0.3715  0.6363
12217SOL    HW148305   7.758   2.658   5.417  0.8931 -0.2178 -0.7810
12217SOL    HW248306   7.692   2.653   5.267 -1.4565 -2.5296  0.2896
12218SOL     OW48307   1.155   2.638   5.401 -0.4126 -0.0194  0.6492
12218SOL    HW148308   1.193   2.570   5.339  1.4406  0.5918  1.0953
12218SOL    HW248309   1.117   2.593   5.482 -2.2020 -0.7628 -0.5566
12219SOL     OW48310   7.588   3.691   5.077 -0.5169 -0.2704  0.0603
12219SOL    HW148311   7.674   3.738   5.094 -0.4438 -0.6455  0.7641
12219SOL    HW248312   7.604   3.610   5.019 -0.2382 -0.8992  1.0073
12220SOL     OW48313   3.333   6.603   6.172 -0.9895 -0.1910 -0.0590
12220SOL    HW148314   3.324   6.643   6.081  0.4469 -0.9491 -0.5422
12220SOL    HW248315   3.324   6.676   6.241  1.5621  1.0023 -0.9212
12221SOL     OW48316   1.477   7.980   4.793  0.4345  0.0374 -0.4144
12221SOL    HW148317   1.466   7.966   4.892 -0.8645  1.9706 -0.2651
12221SOL    HW248318   1.389   8.004   4.753  1.3183  1.1238 -1.7293
12222SOL     OW48319   8.195   8.883   7.184  0.8278 -0.4883  0.3966
12222SOL    HW148320   8.225   8.971   7.221  1.3573  0.1421 -1.4198
12222SOL    HW248321   8.114   8.852   7.232  0.2068  1.3532  0.5893
12223SOL     OW48322   8.551   1.381   6.960 -0.8327  0.0815 -0.0350
12223SOL    HW148323   8.590   1.436   6.885  1.7204 -0.1838  1.0465
12223SOL    HW248324   8.495   1.439   7.018 -0.0420  1.0376 -0.2159
12224SOL     OW48325   0.631   8.126   7.850  0.3646 -0.2380  0.0231
12224SOL    HW148326   0.536   8.100   7.835  0.3408  0.0305 -0.3018
12224SOL    HW248327   0.670   8.070   7.923  0.2814 -1.1099 -0.5974
12225SOL     OW48328   1.646   6.570   7.106  0.3812 -0.5337 -0.2959
12225SOL    HW148329   1.640   6.474   7.079  1.5555 -1.1708  1.5968
12225SOL    HW248330   1.555   6.603   7.132  0.0093 -1.2053 -0.7330
12226SOL     OW48331   0.808   1.027   4.545  0.1294 -0.5339 -0.7536
12226SOL    HW148332   0.908   1.034   4.543  0.0629  0.6583 -0.5022
12226SOL    HW248333   0.777   1.022   4.640 -0.0404 -1.1652 -0.8401
12227SOL     OW48334   1.506   0.238   6.254  0.0749 -0.1951  0.4169
12227SOL    HW148335   1.555   0.311   6.301 -1.5486  0.0446  1.8249
12227SOL    HW248336   1.446   0.278   6.184  1.2322 -0.4145 -0.7088
12228SOL     OW48337   8.636   7.017   7.830  0.2171 -0.3446 -0.1635
12228SOL    HW148338   8.583   7.027   7.745  0.3302 -2.1483 -0.4796
12228SOL    HW248339   8.696   6.937   7.822 -0.6580 -1.2606  2.0790
12229SOL     OW48340   6.757   8.311   6.610  0.2226  0.2983 -0.4757
12229SOL    HW148341   6.808   8.228   6.585 -0.3808  0.2852 -1.7239
12229SOL    HW248342   6.668   8.309   6.566 -0.1709  1.1688  0.2691
12230SOL     OW48343   1.343   2.380   3.042  0.0414 -0.0606  0.0173
12230SOL    HW148344   1.418   2.329   3.084  1.1065  1.0667 -0.4899
12230SOL    HW248345   1.378   2.436   2.967 -0.8520  2.5451  1.4951
12231SOL     OW48346   7.426   5.493   0.254  0.2592 -0.6510 -0.4583
12231SOL    HW148347   7.427   5.394   0.267  0.9119 -0.6656 -0.6052
12231SOL    HW248348   7.516   5.524   0.222  0.2794  0.0822  0.2729
12232SOL     OW48349   1.926   5.343   3.525 -0.1571 -0.0208  0.3086
12232SOL    HW148350   1.828   5.353   3.505  0.0068 -0.3436 -0.6471
12232SOL    HW248351   1.946   5.388   3.612 -0.9777  0.8763  0.0519
12233SOL     OW48352   2.164   8.220   1.405  0.2133 -0.2651  0.2171
12233SOL    HW148353   2.251   8.236   1.358  0.0051 -1.1950 -0.4930
12233SOL    HW248354   2.092   8.208   1.336 -0.8426  2.4440  0.7839
12234SOL     OW48355   9.841   2.752   3.905  0.0555 -0.1375  0.6763
12234SOL    HW148356   9.891   2.796   3.830 -1.2033 -0.9259 -0.6578
12234SOL    HW248357   9.904   2.700   3.962  1.1432  1.0954  0.6206
12235SOL     OW48358   9.601   9.202   6.438  0.5087  0.4704 -0.2194
12235SOL    HW148359   9.587   9.106   6.461  0.2248  0.1560 -1.6249
12235SOL    HW248360   9.642   9.250   6.515 -1.7782 -0.1869  1.4741
12236SOL     OW48361   9.370   9.377   6.728  0.3325  0.1860  0.4708
12236SOL    HW148362   9.419   9.443   6.671 -0.3686  0.8358  0.6163
12236SOL    HW248363   9.395   9.390   6.824  0.6814 -0.1923  0.4366
12237SOL     OW48364   1.407   9.358   7.758  0.3028 -0.0343 -0.3636
12237SOL    HW148365   1.476   9.323   7.696 -0.0856  0.5347 -1.1228
12237SOL    HW248366   1.360   9.281   7.802 -0.0823 -0.4542 -1.4996
12238SOL     OW48367   8.813   5.821   6.364  1.0227  0.5327 -1.2050
12238SOL    HW148368   8.751   5.769   6.307  0.2588  0.1831 -0.0751
12238SOL    HW248369   8.786   5.917   6.365 -2.2214 -0.2582  2.6964
12239SOL     OW48370   2.633   6.132   2.112 -0.2087  0.3196  0.4967
12239SOL    HW148371   2.671   6.047   2.149  0.1700  0.0763 -0.4209
12239SOL    HW248372   2.542   6.115   2.074 -0.7322  0.6383  1.6041
12240SOL     OW48373   8.342   4.285   5.958  0.2318 -0.6104 -0.0611
12240SOL    HW148374   8.373   4.221   5.888  0.3536  0.1080 -0.6707
12240SOL    HW248375   8.385   4.261   6.045 -1.1282 -2.4435  0.1271
12241SOL     OW48376   7.682   6.434   6.103  0.1470 -0.4144  0.3491
12241SOL    HW148377   7.686   6.358   6.167  0.8333  0.3475  1.2160
12241SOL    HW248378   7.716   6.404   6.014 -0.8827 -1.4908  0.3041
12242SOL     OW48379   5.042   4.906   1.795  0.2907  0.1881 -0.5314
12242SOL    HW148380   5.046   4.961   1.712 -0.7090  0.1011 -0.6399
12242SOL    HW248381   5.124   4.923   1.850 -0.5584  2.7654  0.0408
12243SOL     OW48382   7.967   2.041   7.706 -0.1999  0.0626  0.7936
12243SOL    HW148383   8.035   2.113   7.722 -0.8900  0.3196  2.7481
12243SOL    HW248384   7.876   2.082   7.702 -0.1132  0.0150 -4.1497
12244SOL     OW48385   1.520   7.978   3.256  0.1095  0.5439 -0.4857
12244SOL    HW148386   1.465   7.973   3.339  0.0737 -1.5185 -0.5920
12244SOL    HW248387   1.485   8.051   3.197  0.7802  2.7088  1.7249
12245SOL     OW48388   4.091   9.709   0.230  0.2951 -0.0555 -0.1359
12245SOL    HW148389   4.015   9.651   0.258  0.0697  0.4959  0.4050
12245SOL    HW248390   4.171   9.652   0.212 -0.2244 -0.6324 -0.6647
12246SOL     OW48391   0.017   5.670   2.535  0.2689  0.3360 -0.0432
12246SOL    HW148392  -0.008   5.606   2.608 -1.8497  1.1709  0.0085
12246SOL    HW248393   0.110   5.703   2.550 -0.0332  0.2672  2.1270
12247SOL     OW48394   4.815   2.378   6.057 -0.4297 -0.4083  0.1611
12247SOL    HW148395   4.904   2.334   6.056 -0.3391 -0.2428  0.8553
12247SOL    HW248396   4.757   2.335   6.126 -0.4504  0.3370  0.6148
12248SOL     OW48397   3.659   6.879   2.370  0.3121 -0.4051  0.0475
12248SOL    HW148398   3.584   6.814   2.373 -0.6737  0.7328  0.9530
12248SOL    HW248399   3.651   6.943   2.446  1.4638  0.5478 -0.5982
12249SOL     OW48400   8.342   2.214   6.216  0.1578 -0.7936  0.4823
12249SOL    HW148401   8.339   2.313   6.203  2.2136 -0.7744 -0.1064
12249SOL    HW248402   8.267   2.186   6.276  2.0675  1.6732  4.1979
12250SOL     OW48403   7.967   1.916   6.173 -0.1424  0.0827  0.4165
12250SOL    HW148404   7.874   1.921   6.209  0.1761  0.4298  1.2010
12250SOL    HW248405   8.023   1.857   6.231  0.0064 -0.5125 -0.3252
12251SOL     OW48406   4.827   0.777   6.087 -0.6024 -0.3427  0.1400
12251SOL    HW148407   4.741   0.731   6.065  0.0870 -2.3646  1.5608
12251SOL    HW248408   4.841   0.775   6.186  1.9233 -1.5958 -0.1995
12252SOL     OW48409   7.596   3.981   8.088  0.0843 -0.0132 -0.6132
12252SOL    HW148410   7.636   4.070   8.066  0.8910 -0.8676 -2.7609
12252SOL    HW248411   7.500   3.994   8.114  0.0341  1.4470 -1.4270
12253SOL     OW48412   3.505   8.916   3.325  0.0766  0.3038 -0.1054
12253SOL    HW148413   3.481   9.012   3.343  0.2778  0.3330  0.0054
12253SOL    HW248414   3.603   8.903   3.340 -0.3743 -0.4916  2.3445
12254SOL     OW48415   2.092   3.873   5.889  0.0700 -0.3861 -0.0998
12254SOL    HW148416   2.006   3.826   5.910 -0.3416 -0.3763 -1.6602
12254SOL    HW248417   2.080   3.972   5.903 -0.1857 -0.3813 -0.3444
12255SOL     OW48418   8.778   7.624   3.863  0.0471  0.0660 -0.3711
12255SOL    HW148419   8.718   7.601   3.787  2.3530 -0.7348 -2.0049
12255SOL    HW248420   8.845   7.693   3.834 -1.2053  2.3823  1.9494
12256SOL     OW48421   3.009   6.665   6.720 -0.1848  0.0387  0.3391
12256SOL    HW148422   3.012   6.741   6.785 -0.8848  0.8628 -0.5833
12256SOL    HW248423   3.102   6.641   6.692  0.0923 -0.0184  1.2770
12257SOL     OW48424   2.243   1.454   0.650  0.4217 -0.2771 -0.4413
12257SOL    HW148425   2.326   1.476   0.702 -0.3095  0.0679  0.6025
12257SOL    HW248426   2.231   1.520   0.576  0.4209  0.4145  0.1717
12258SOL     OW48427   8.105   4.929   2.823  0.9892  0.4041 -0.3161
12258SOL    HW148428   8.017   4.927   2.871  0.4803  0.2015 -1.2431
12258SOL    HW248429   8.145   5.020   2.831  1.3252  0.1499  1.2064
12259SOL     OW48430   0.974   5.577   1.498  0.2099  0.3061 -0.0084
12259SOL    HW148431   0.993   5.577   1.399 -1.0722 -1.0670 -0.2817
12259SOL    HW248432   0.903   5.509   1.518  0.3457  0.6838  1.8486
12260SOL     OW48433   9.581   7.514   5.064  0.7497 -0.1616  0.0811
12260SOL    HW148434   9.563   7.612   5.078  0.5315 -0.4642  2.0873
12260SOL    HW248435   9.534   7.483   4.982  1.6376  1.6479 -1.1393
12261SOL     OW48436   2.303   6.622   7.531  0.4841 -0.2674  0.4491
12261SOL    HW148437   2.337   6.694   7.470  0.1807  0.6910  1.4098
12261SOL    HW248438   2.370   6.605   7.603 -0.0933  0.0737  1.0654
12262SOL     OW48439   1.207   8.281   7.032  0.3123 -0.3177 -0.4721
12262SOL    HW148440   1.165   8.332   6.957  1.8362  0.9402 -0.4952
12262SOL    HW248441   1.194   8.330   7.118  1.3659 -0.1090 -0.4200
12263SOL     OW48442   0.588   9.922   3.822 -0.2307 -0.0089  0.2284
12263SOL    HW148443   0.592   9.881   3.731 -1.0526  0.0822  0.1452
12263SOL    HW248444   0.678   9.959   3.846  0.0290 -0.1637 -0.4859
12264SOL     OW48445   0.301   8.100   2.506  0.0184  0.1021  0.1188
12264SOL    HW148446   0.365   8.034   2.545 -0.4911 -0.3257  0.2304
12264SOL    HW248447   0.339   8.192   2.514 -0.1125  0.0355  1.6959
12265SOL     OW48448   9.766   9.867   0.746 -0.3192 -0.0790  0.6788
12265SOL    HW148449   9.697   9.938   0.756  0.8469  0.9010  2.1455
12265SOL    HW248450   9.857   9.910   0.741  0.1565 -1.3015 -1.8040
12266SOL     OW48451   9.245   7.408   1.695  0.1571 -0.2092 -0.2778
12266SOL    HW148452   9.145   7.405   1.692  0.1139 -1.3909  1.4325
12266SOL    HW248453   9.276   7.370   1.782  1.9431  4.1856  1.1344
12267SOL     OW48454   0.906   0.115   4.229 -0.0377  0.5015 -0.8118
12267SOL    HW148455   0.991   0.118   4.281 -0.9381 -0.1224  0.7152
12267SOL    HW248456   0.897   0.199   4.175  2.3592 -0.1724 -2.3244
12268SOL     OW48457   4.348   2.007   3.100 -0.2264 -0.0036 -0.0155
12268SOL    HW148458   4.316   2.101   3.090 -1.6273 -0.3696  0.8547
12268SOL    HW248459   4.271   1.945   3.087  0.7696 -1.0586 -0.9761
12269SOL     OW48460   0.666   1.427   3.836 -0.3162  0.1717  0.3762
12269SOL    HW148461   0.748   1.373   3.818 -0.8478 -1.1209  1.6758
12269SOL    HW248462   0.652   1.436   3.935 -0.9751  1.5725  0.1720
12270SOL     OW48463   2.954   7.504   6.327 -0.6047  0.2961 -0.2214
12270SOL    HW148464   2.898   7.579   6.291  2.4028  4.0048  2.4021
12270SOL    HW248465   3.016   7.472   6.255 -2.3723 -0.1594 -1.5677
12271SOL     OW48466   0.521   3.157   4.404  0.0296  0.0129  0.0194
12271SOL    HW148467   0.427   3.140   4.376 -0.2062  2.0792 -0.5847
12271SOL    HW248468   0.541   3.108   4.489 -1.0203 -1.8585 -0.8020
12272SOL     OW48469   5.130   9.533   6.857 -0.3435 -0.7979  0.1316
12272SOL    HW148470   5.090   9.451   6.898 -0.4620 -0.4270  0.7560
12272SOL    HW248471   5.072   9.566   6.783 -1.9194  0.5430  1.9335
12273SOL     OW48472   2.121   1.713   3.315 -0.0343 -0.1191  0.2509
12273SOL    HW148473   2.133   1.766   3.399 -2.3572  0.5128  0.2328
12273SOL    HW248474   2.175   1.753   3.241  0.4251  0.5341  0.9388
12274SOL     OW48475   1.108   4.396   5.643 -0.3378  0.2324 -0.7385
12274SOL    HW148476   1.204   4.424   5.633  0.0026 -1.5979 -2.8210
12274SOL    HW248477   1.049   4.475   5.623  0.6951  0.8644 -1.3813
12275SOL     OW48478   2.715   7.875   8.050  0.3665 -0.1786  0.0392
12275SOL    HW148479   2.623   7.912   8.032  1.0339  1.7590  0.4577
12275SOL    HW248480   2.707   7.799   8.114 -0.8924  0.5000  0.7300
12276SOL     OW48481   9.864   5.491   5.255 -0.0867 -0.1481 -0.2168
12276SOL    HW148482   9.867   5.467   5.352 -0.9706 -1.7161 -0.5569
12276SOL    HW248483   9.952   5.469   5.212  0.6297  1.4309  0.4117
12277SOL     OW48484   9.014   2.317   0.188 -0.3140  0.0321 -0.3365
12277SOL    HW148485   8.990   2.414   0.183  0.2786  0.2123  0.2346
12277SOL    HW248486   8.936   2.265   0.225 -0.1841  0.4618  0.5293
12278SOL     OW48487   3.959   3.819   2.697  0.0119  0.4579  0.1098
12278SOL    HW148488   3.991   3.726   2.712 -1.2772  0.1066  0.7497
12278SOL    HW248489   3.961   3.870   2.783  0.0954  0.8248 -0.1080
12279SOL     OW48490   8.629   5.393   0.429 -0.5396  0.0140 -0.1243
12279SOL    HW148491   8.556   5.326   0.442 -1.3299  0.3710 -2.4284
12279SOL    HW248492   8.589   5.485   0.423  0.4051  0.5635  1.6338
12280SOL     OW48493   0.441   6.810   5.047 -0.1303  0.3671 -0.0971
12280SOL    HW148494   0.348   6.789   5.080 -0.3185  2.1335  0.5454
12280SOL    HW248495   0.437   6.831   4.949 -0.8634  3.0712  0.4712
12281SOL     OW48496   8.576   2.928   3.175 -0.3748 -0.4492 -0.4058
12281SOL    HW148497   8.478   2.923   3.196 -0.0705 -0.4462  1.0752
12281SOL    HW248498   8.624   2.970   3.252  0.8752 -0.9698 -0.8982
12282SOL     OW48499   5.729   9.634   4.150  0.0667  0.2172 -0.3110
12282SOL    HW148500   5.677   9.710   4.192 -0.9646  0.2005 -1.5155
12282SOL    HW248501   5.665   9.570   4.108  1.0423 -0.2677 -1.0682
12283SOL     OW48502   2.388   6.240   7.419 -0.2247 -0.0983 -0.3394
12283SOL    HW148503   2.396   6.149   7.459 -0.4257  0.1453  0.2620
12283SOL    HW248504   2.324   6.295   7.473  2.6256  1.5772  1.4493
12284SOL     OW48505   3.850   4.346   6.342  0.0340  0.3343  0.2280
12284SOL    HW148506   3.867   4.440   6.370  1.8793 -0.3652  1.5721
12284SOL    HW248507   3.931   4.290   6.362 -0.8907 -1.4619 -0.8933
12285SOL     OW48508   8.198   7.618   7.899 -0.5925  0.4980  0.2622
12285SOL    HW148509   8.137   7.657   7.829  0.1198 -0.0674 -0.6823
12285SOL    HW248510   8.201   7.679   7.978 -2.7292  0.3243  0.5059
12286SOL     OW48511   1.289   9.171   5.340  0.2276 -0.6208  0.0078
12286SOL    HW148512   1.298   9.073   5.357  0.5448 -0.8902 -1.6268
12286SOL    HW248513   1.195   9.193   5.317  0.2905 -0.6535 -0.2821
12287SOL     OW48514   2.510   7.058   6.866  0.0599 -0.3508 -0.7468
12287SOL    HW148515   2.575   6.982   6.876  1.2828  0.4710 -2.3706
12287SOL    HW248516   2.520   7.100   6.776  1.1234  3.3435  0.9965
12288SOL     OW48517   7.906   1.844   5.202  0.3793  0.4074 -0.0200
12288SOL    HW148518   7.924   1.902   5.282  0.6019 -0.9192  0.9236
12288SOL    HW248519   7.808   1.846   5.181  0.0394 -0.4979  1.3315
12289SOL     OW48520   4.500   5.221   1.706  0.3758  0.9064 -0.0926
12289SOL    HW148521   4.458   5.298   1.754  1.9923  1.3441  0.6540
12289SOL    HW248522   4.476   5.135   1.752 -1.7391  0.9038 -1.1476
12290SOL     OW48523   6.067   3.866   0.895  0.1152  0.0990  0.2342
12290SOL    HW148524   6.122   3.826   0.969  0.6408  0.3686 -0.0041
12290SOL    HW248525   6.032   3.955   0.924 -1.6130 -0.8196  1.0120
12291SOL     OW48526   3.558   7.578   2.206  0.2150 -0.2501  0.4238
12291SOL    HW148527   3.553   7.479   2.195  0.0905  0.0251 -2.4308
12291SOL    HW248528   3.652   7.609   2.190 -0.1051  0.2702 -0.4733
12292SOL     OW48529   1.557   1.355   2.026  1.0327 -0.4786 -0.9404
12292SOL    HW148530   1.615   1.426   1.986  1.9930 -0.3301  0.6806
12292SOL    HW248531   1.590   1.332   2.118  0.3329 -2.5491 -1.1697
12293SOL     OW48532   2.588   6.759   1.187  0.4333  0.6828 -0.3281
12293SOL    HW148533   2.606   6.705   1.105  0.8053 -0.9854  0.8278
12293SOL    HW248534   2.672   6.771   1.238  0.1614  1.5347 -0.0819
12294SOL     OW48535   5.698   4.045   7.739  0.1322  0.2868  0.2271
12294SOL    HW148536   5.626   4.113   7.725 -0.3590 -0.5728 -1.6793
12294SOL    HW248537   5.765   4.080   7.804 -0.8951  1.9629  0.4257
12295SOL     OW48538   1.093   4.094   2.830  0.1828  0.2324  0.0257
12295SOL    HW148539   1.000   4.093   2.794  0.3503  1.0895 -0.4612
12295SOL    HW248540   1.131   4.186   2.819  1.1538 -0.1633  0.0399
12296SOL     OW48541   0.594   4.418   3.884  0.2184  0.3277 -0.3021
12296SOL    HW148542   0.656   4.395   3.809  1.7526  1.1653  0.6735
12296SOL    HW248543   0.509   4.457   3.847  0.9973  0.8338 -1.6022
12297SOL     OW48544   9.018   6.889   1.480  0.1014 -0.4018  0.4029
12297SOL    HW148545   9.022   6.831   1.398  1.5034 -1.3516  1.1178
12297SOL    HW248546   8.933   6.870   1.530  0.7660 -2.2251  0.8794
12298SOL     OW48547   7.768   8.659   5.693 -0.3320  0.2969 -0.3639
12298SOL    HW148548   7.687   8.703   5.732 -1.4445  0.6290 -2.9700
12298SOL    HW248549   7.741   8.573   5.648  0.5369  1.0400 -2.3624
12299SOL     OW48550   3.132   5.134   2.860  0.0293 -0.3441 -0.2029
12299SOL    HW148551   3.040   5.107   2.889  0.7745 -2.9764 -0.2410
12299SOL    HW248552   3.135   5.234   2.848 -2.7556 -0.2151 -0.0381
12300SOL     OW48553   2.759   4.452   7.642 -0.0079 -0.7082 -0.5268
12300SOL    HW148554   2.754   4.529   7.706 -0.1971 -0.9928 -0.1947
12300SOL    HW248555   2.682   4.455   7.579  0.1061 -0.5030 -0.6597
12301SOL     OW48556   7.205   1.144   6.028 -0.7273 -0.1114 -0.5333
12301SOL    HW148557   7.109   1.119   6.040 -0.3503 -1.2468  0.1661
12301SOL    HW248558   7.263   1.086   6.086  0.4766 -0.2772 -1.8653
12302SOL     OW48559   7.427   3.762   3.168 -0.3218 -0.1713  0.8073
12302SOL    HW148560   7.475   3.676   3.152 -0.5456 -0.0530 -0.5154
12302SOL    HW248561   7.488   3.839   3.149 -1.0932 -0.0144 -1.2120
12303SOL     OW48562   8.907   3.474   6.033 -0.0355 -0.0955 -0.2019
12303SOL    HW148563   8.970   3.488   6.110 -1.7665 -1.1149  1.4586
12303SOL    HW248564   8.815   3.502   6.060 -0.5084  0.3939 -2.2430
12304SOL     OW48565   3.584   4.881   4.772 -0.4087 -0.3974 -0.9419
12304SOL    HW148566   3.576   4.968   4.822 -0.3020 -0.0993 -1.4444
12304SOL    HW248567   3.598   4.900   4.675  0.5093 -0.9758 -0.9234
12305SOL     OW48568   1.859   0.256   0.488 -0.1717  0.3243 -0.3382
12305SOL    HW148569   1.787   0.279   0.552 -0.2260  0.7337 -0.5438
12305SOL    HW248570   1.947   0.258   0.535 -0.3600 -0.8295  0.0671
12306SOL     OW48571   4.224   2.783   4.168 -0.3195 -0.5197  0.1056
12306SOL    HW148572   4.291   2.738   4.109 -0.6883 -0.1607 -0.5851
12306SOL    HW248573   4.167   2.713   4.213 -0.8545 -0.7481 -0.9198
12307SOL     OW48574   8.028   2.190   0.324  0.1685  0.1274 -0.2159
12307SOL    HW148575   8.093   2.205   0.250 -0.2158 -0.2251 -0.6306
12307SOL    HW248576   8.002   2.278   0.365  0.3559  0.3239 -0.5199
12308SOL     OW48577   9.941   0.593   3.675  0.2130  0.5009  0.1038
12308SOL    HW148578   9.883   0.514   3.658  2.3402 -0.8418 -1.1036
12308SOL    HW248579   9.884   0.673   3.693 -1.9849 -0.8532 -0.6807
12309SOL     OW48580   9.733   2.461   2.787 -0.6502  0.2499 -0.1731
12309SOL    HW148581   9.819   2.462   2.736 -1.4841  0.1550 -1.6306
12309SOL    HW248582   9.657   2.452   2.722 -1.8282  1.7513  0.9636
12310SOL     OW48583   0.392   0.900   4.219 -0.5078 -0.3196  0.5391
12310SOL    HW148584   0.465   0.935   4.278 -1.6306  0.2435  1.6167
12310SOL    HW248585   0.399   0.801   4.213  1.4260 -0.1347 -0.8240
12311SOL     OW48586   7.138   2.214   5.970  0.1268  0.0913 -0.0756
12311SOL    HW148587   7.049   2.191   6.010  0.2074  1.3818  0.8648
12311SOL    HW248588   7.125   2.262   5.884 -0.0675 -0.7514 -0.5237
12312SOL     OW48589   1.490   3.482   2.503 -0.3694 -0.5654  0.4934
12312SOL    HW148590   1.517   3.422   2.579  0.5570 -0.3969  0.3000
12312SOL    HW248591   1.550   3.467   2.425 -1.1065 -0.4878 -0.0926
12313SOL     OW48592   4.891   8.263   4.225  1.0701 -0.0596 -0.0873
12313SOL    HW148593   4.973   8.232   4.274  1.6886 -0.6139 -1.4475
12313SOL    HW248594   4.899   8.240   4.128 -0.7421 -0.1952 -0.2315
12314SOL     OW48595   6.370   2.586   0.450 -0.2058 -0.0233 -0.2316
12314SOL    HW148596   6.465   2.580   0.421 -0.6023 -1.0896 -1.3258
12314SOL    HW248597   6.311   2.541   0.383 -1.7707  2.9777 -0.9625
12315SOL     OW48598   2.344   1.116   7.352  0.4433 -0.1642  0.5131
12315SOL    HW148599   2.396   1.119   7.437  1.8181  0.2788 -0.3321
12315SOL    HW248600   2.350   1.024   7.313  0.2187 -0.2352  0.6460
12316SOL     OW48601   4.642   8.651   7.409  0.2985  0.0520  0.1817
12316SOL    HW148602   4.608   8.601   7.329  1.2221 -1.2585  0.5949
12316SOL    HW248603   4.716   8.711   7.380 -0.2637  0.5891 -0.1719
12317SOL     OW48604   8.082   2.760   7.214  0.1109  0.0189  0.1122
12317SOL    HW148605   8.095   2.752   7.115  0.7270 -2.2603  0.3558
12317SOL    HW248606   8.164   2.729   7.261 -0.4929  0.2785  1.3580
12318SOL     OW48607   8.920   1.168   0.514 -0.0822  0.5291 -0.3298
12318SOL    HW148608   8.859   1.242   0.484 -1.1900 -0.3493 -0.2545
12318SOL    HW248609   8.921   1.097   0.444  1.7205  1.0326 -0.8325
12319SOL     OW48610   3.394   2.263   5.074  0.1050 -0.1584  0.2829
12319SOL    HW148611   3.321   2.215   5.122  0.0247 -0.5953 -0.2775
12319SOL    HW248612   3.355   2.336   5.018  0.0018 -0.9661 -0.7223
12320SOL     OW48613   1.390   4.677   1.776  0.1835 -0.3313  0.1239
12320SOL    HW148614   1.377   4.689   1.677  1.1046  0.2927  0.0698
12320SOL    HW248615   1.415   4.765   1.817  1.9524 -1.0135  0.5534
12321SOL     OW48616   2.697   0.045   5.128  0.1512  1.2072  0.2973
12321SOL    HW148617   2.712   0.082   5.036  2.7413 -0.5322 -0.0353
12321SOL    HW248618   2.651  -0.044   5.121  2.6245 -0.1175  0.5033
12322SOL     OW48619   7.631   6.783   6.657  0.0847  0.0868  0.7348
12322SOL    HW148620   7.717   6.777   6.605  0.4392  0.0929  1.3119
12322SOL    HW248621   7.633   6.864   6.715 -0.2518  0.0063  0.8575
12323SOL     OW48622   0.426   7.330   4.543  0.1995  0.8041  0.5361
12323SOL    HW148623   0.386   7.278   4.467  0.5797 -0.1958  1.0112
12323SOL    HW248624   0.383   7.420   4.548 -0.3673  0.5934 -0.3914
12324SOL     OW48625   6.597   0.926   3.789 -0.7658 -0.4099 -0.0996
12324SOL    HW148626   6.613   0.850   3.853 -2.0470 -0.5822  0.0393
12324SOL    HW248627   6.684   0.962   3.757 -0.0872  0.1325  2.2937
12325SOL     OW48628   8.084   5.185   1.124 -0.1871  0.1949 -0.0726
12325SOL    HW148629   8.007   5.137   1.166 -0.4812 -0.0703 -0.9167
12325SOL    HW248630   8.150   5.118   1.089 -1.2796  0.3597 -2.5298
12326SOL     OW48631   0.518   9.573   2.581 -0.3635 -0.8059  0.6652
12326SOL    HW148632   0.584   9.558   2.654 -0.7131  1.0871  1.3982
12326SOL    HW248633   0.563   9.561   2.493  0.8767  0.0317  1.1622
12327SOL     OW48634   1.728   2.216   1.636  0.2892  0.2854 -0.6361
12327SOL    HW148635   1.793   2.245   1.565 -0.7259  0.4280 -1.5280
12327SOL    HW248636   1.775   2.160   1.703  1.6877  1.6803 -0.4032
12328SOL     OW48637   2.876   4.310   2.070 -0.3762  0.1010  0.2196
12328SOL    HW148638   2.859   4.401   2.109  0.7110  0.3624  0.1105
12328SOL    HW248639   2.795   4.279   2.020 -0.8839  0.8530  0.5790
12329SOL     OW48640   8.895   8.365   7.782 -0.3163  0.0003 -0.7060
12329SOL    HW148641   8.942   8.299   7.841 -0.6971  1.0368  0.7866
12329SOL    HW248642   8.904   8.457   7.821 -2.5359  0.3805 -1.0364
12330SOL     OW48643   5.830   8.955   3.271  0.5733  0.3240 -0.3291
12330SOL    HW148644   5.796   8.877   3.324  3.4036 -0.7341 -0.0001
12330SOL    HW248645   5.774   8.965   3.188 -0.9775 -0.8742  0.5351
12331SOL     OW48646   2.565   1.160   3.595 -0.7245 -0.0672 -0.2924
12331SOL    HW148647   2.550   1.253   3.629  0.0615  0.0193 -0.1677
12331SOL    HW248648   2.499   1.140   3.523 -1.3077  0.3576  0.1238
12332SOL     OW48649   4.163   7.706   5.207  0.3224 -0.1204  0.4467
12332SOL    HW148650   4.257   7.698   5.240  1.3785  1.0181 -2.1287
12332SOL    HW248651   4.119   7.786   5.247  0.3877 -0.7024  1.7146
12333SOL     OW48652   6.946   8.985   4.312  0.2873  0.1872  0.1665
12333SOL    HW148653   6.910   8.900   4.349  2.1277 -0.9506 -0.5787
12333SOL    HW248654   6.876   9.056   4.317 -0.8085 -0.9903  2.0967
12334SOL     OW48655   8.055   5.017   7.725 -0.6136  0.0949  0.2664
12334SOL    HW148656   8.076   4.920   7.734 -1.2991 -0.1977 -1.0636
12334SOL    HW248657   8.130   5.071   7.763  0.0407 -0.9448  0.4928
12335SOL     OW48658   0.217   0.818   5.814  0.6062  0.3240 -0.1951
12335SOL    HW148659   0.315   0.805   5.830  0.4988  0.2046  0.3798
12335SOL    HW248660   0.186   0.901   5.862  0.4631  0.4634 -0.5244
12336SOL     OW48661   5.532   0.346   2.093 -0.1141 -0.4031  0.5776
12336SOL    HW148662   5.526   0.329   2.191  0.1252  0.1725  0.6958
12336SOL    HW248663   5.471   0.421   2.068  0.2216 -0.1932  0.3779
12337SOL     OW48664   3.242   2.934   4.335  0.6328  0.4131 -0.0568
12337SOL    HW148665   3.144   2.952   4.348  0.5025  1.6287 -2.5638
12337SOL    HW248666   3.291   3.020   4.321  1.9643 -0.2553  0.3907
12338SOL     OW48667   0.082   9.124   0.915  0.0573  1.0344  0.2288
12338SOL    HW148668   0.101   9.084   1.005 -0.8341  0.3087  0.0997
12338SOL    HW248669   0.127   9.213   0.909  1.5271  0.3556  0.7643
12339SOL     OW48670   3.934   2.463   3.385  0.5552  0.0095  0.2842
12339SOL    HW148671   4.023   2.422   3.366  1.1459  1.7937 -0.8613
12339SOL    HW248672   3.862   2.395   3.369  1.5942 -0.9251 -0.4788
12340SOL     OW48673   2.454   7.684   4.002  0.0099  0.2028  0.4083
12340SOL    HW148674   2.416   7.776   4.012  0.8418  0.9052 -2.4265
12340SOL    HW248675   2.379   7.620   3.982 -0.3087  0.6592  0.1214
12341SOL     OW48676   0.795   1.341   7.265  0.2308 -0.1549 -0.2452
12341SOL    HW148677   0.797   1.241   7.258 -2.2069 -0.1713 -1.1426
12341SOL    HW248678   0.701   1.372   7.274  1.0002  2.0589  0.5435
12342SOL     OW48679   9.279   1.740   0.791 -0.1627 -0.2224 -0.2920
12342SOL    HW148680   9.323   1.651   0.800  1.1598  0.4387 -0.0056
12342SOL    HW248681   9.348   1.812   0.799 -1.2812  0.8421 -0.0549
12343SOL     OW48682   8.402   0.855   6.182 -0.5169 -0.0772 -0.4077
12343SOL    HW148683   8.366   0.861   6.275 -0.5152  0.4453 -0.4391
12343SOL    HW248684   8.484   0.798   6.182  1.7379  3.0320  0.6076
12344SOL     OW48685   8.734   7.212   4.380 -0.5917  0.5982  0.6009
12344SOL    HW148686   8.719   7.161   4.295 -0.1342  0.0724  0.8262
12344SOL    HW248687   8.662   7.190   4.445 -0.0211 -0.2839  0.9361
12345SOL     OW48688   9.116   2.755   7.149 -0.4505  0.9665  0.0596
12345SOL    HW148689   9.132   2.829   7.084  0.7041  0.0847 -0.6722
12345SOL    HW248690   9.195   2.747   7.210 -0.8192  0.6955  0.5065
12346SOL     OW48691   1.100   4.004   4.575  0.0555 -0.2607 -0.0685
12346SOL    HW148692   1.129   3.920   4.620 -1.2998 -0.3615  0.6476
12346SOL    HW248693   1.053   4.063   4.642 -0.0045  0.5661 -0.8258
12347SOL     OW48694   0.622   8.931   2.913  0.8065 -0.2476  0.5671
12347SOL    HW148695   0.545   8.901   2.857  1.1302  1.7108 -1.0134
12347SOL    HW248696   0.708   8.912   2.865  1.1173  0.9746  0.6212
12348SOL     OW48697   3.076   7.266   3.778  0.0694 -0.1190  0.1123
12348SOL    HW148698   2.985   7.307   3.778 -0.3891 -1.0983  1.1697
12348SOL    HW248699   3.097   7.231   3.869  2.6136  2.4713  0.5946
12349SOL     OW48700   3.754   7.903   2.638  0.6533  0.3193 -0.0257
12349SOL    HW148701   3.828   7.946   2.689  0.5741  0.5988 -0.1433
12349SOL    HW248702   3.676   7.966   2.633  0.2246 -0.1568  0.5124
12350SOL     OW48703   0.628   2.033   5.985  0.1871 -0.3824 -0.5574
12350SOL    HW148704   0.606   2.030   6.082 -1.5616  0.5267 -0.8939
12350SOL    HW248705   0.726   2.046   5.973  0.4557 -0.7661  1.0673
12351SOL     OW48706   5.003   1.709   3.954  0.4391  0.0789  0.8961
12351SOL    HW148707   4.989   1.764   3.871 -0.6340  1.3599  1.9111
12351SOL    HW248708   5.101   1.692   3.966  0.8683  2.4815  1.0202
12352SOL     OW48709   7.504   0.841   0.860  0.2337 -0.0395 -0.4741
12352SOL    HW148710   7.456   0.762   0.822  1.7109 -0.9086 -0.5324
12352SOL    HW248711   7.443   0.890   0.922 -0.6318 -1.3185 -0.2993
12353SOL     OW48712   9.033   5.367   1.527  0.4478  0.1322  0.2464
12353SOL    HW148713   9.125   5.379   1.565 -0.7480  1.7397  2.7690
12353SOL    HW248714   8.973   5.328   1.597 -0.3625 -2.8078 -1.9860
12354SOL     OW48715   3.456   2.435   4.398 -0.3065  0.8478  0.7851
12354SOL    HW148716   3.478   2.349   4.443  1.6095  0.3546 -0.9802
12354SOL    HW248717   3.451   2.509   4.466  1.0876 -0.1130  1.9620
12355SOL     OW48718   9.300   6.342   1.963  0.0156 -0.6463 -0.0277
12355SOL    HW148719   9.247   6.291   1.895 -0.3924  0.4707 -0.5624
12355SOL    HW248720   9.253   6.428   1.984  0.3383 -0.8046  1.3817
12356SOL     OW48721   3.024   8.973   5.674 -0.4220  0.0662  0.0364
12356SOL    HW148722   3.086   8.902   5.641 -0.2735  0.0117  0.4280
12356SOL    HW248723   3.068   9.024   5.748 -0.2762  0.9980 -0.6824
12357SOL     OW48724   6.352   1.764   8.129 -0.5719 -0.3114 -0.0495
12357SOL    HW148725   6.297   1.691   8.087  2.2469 -1.4327 -1.9984
12357SOL    HW248726   6.352   1.844   8.069  3.0503 -1.7351 -2.1230
12358SOL     OW48727   0.489   2.987   7.250  0.2191  0.0425  0.0707
12358SOL    HW148728   0.477   2.945   7.160  0.0124 -0.9127  0.5388
12358SOL    HW248729   0.459   2.923   7.321 -2.5982  1.9920  0.6929
12359SOL     OW48730   3.437   7.058   0.822 -0.0473  0.2955 -0.4622
12359SOL    HW148731   3.370   6.986   0.807  1.6307 -0.9717 -2.0788
12359SOL    HW248732   3.517   7.021   0.869  0.5656  1.2408 -0.7290
12360SOL     OW48733   1.012   1.698   3.417  0.7458  0.1369 -0.7765
12360SOL    HW148734   1.103   1.671   3.450  1.2997  1.4875 -1.1740
12360SOL    HW248735   1.008   1.687   3.318 -0.1145 -1.5901 -0.5647
12361SOL     OW48736   7.825   1.309   8.006  0.2302 -0.1642 -0.8024
12361SOL    HW148737   7.792   1.257   8.085  0.7019 -0.4741 -0.8098
12361SOL    HW248738   7.922   1.291   7.992  0.8130  1.9448  0.1901
12362SOL     OW48739   5.563   2.581   8.006  0.2025  0.3510 -0.5402
12362SOL    HW148740   5.465   2.568   7.994  0.1318 -0.1085  0.4678
12362SOL    HW248741   5.580   2.664   8.059  0.2261 -0.9009  1.4906
12363SOL     OW48742   7.899   6.906   7.305  0.0176 -0.0100 -0.5412
12363SOL    HW148743   7.930   6.821   7.262  0.8562  0.4419 -0.8438
12363SOL    HW248744   7.907   6.898   7.405  0.3184 -0.2013 -0.5800
12364SOL     OW48745   7.520   2.586   2.622 -0.3608  0.0641  0.4665
12364SOL    HW148746   7.534   2.611   2.526  0.3234 -1.4474  0.1671
12364SOL    HW248747   7.586   2.517   2.649 -1.8519 -1.0051  1.4620
12365SOL     OW48748   1.620   7.545   5.244  0.1048 -0.2440  0.1233
12365SOL    HW148749   1.621   7.533   5.144  2.0253 -0.9029  0.2052
12365SOL    HW248750   1.570   7.629   5.266 -1.9313 -1.0306 -1.2669
12366SOL     OW48751   9.184   9.276   2.371  0.3495  0.2794 -0.2902
12366SOL    HW148752   9.088   9.296   2.350  0.3965  1.7405  0.8076
12366SOL    HW248753   9.201   9.293   2.468  1.6971 -0.0709 -0.4512
12367SOL     OW48754   3.636   2.565   1.325 -0.1365 -0.7537  0.2999
12367SOL    HW148755   3.689   2.627   1.269  0.6886 -0.5102  1.3454
12367SOL    HW248756   3.693   2.487   1.352 -1.7080 -3.0873 -2.7143
12368SOL     OW48757   8.538   9.491   4.568  0.4049  0.3938  0.3793
12368SOL    HW148758   8.546   9.584   4.532  0.0199  0.7853  1.2910
12368SOL    HW248759   8.610   9.475   4.636  0.8327 -0.1791 -0.1960
12369SOL     OW48760   1.519   4.939   5.737 -0.1290 -0.0605  0.3909
12369SOL    HW148761   1.475   5.011   5.791 -2.6669 -0.3059 -1.2766
12369SOL    HW248762   1.510   4.960   5.640 -1.0588 -2.7096 -0.1253
12370SOL     OW48763   1.703   6.763   8.058  0.2994  0.4816  0.3904
12370SOL    HW148764   1.751   6.692   8.109 -0.3848 -0.2547  0.0239
12370SOL    HW248765   1.625   6.723   8.009 -0.8578  1.6934  1.1834
12371SOL     OW48766   3.495   0.808   2.457 -0.1287 -0.2234  0.1920
12371SOL    HW148767   3.579   0.859   2.471  0.2189 -0.4377 -1.0284
12371SOL    HW248768   3.418   0.872   2.453  0.0003 -0.0052  1.0355
12372SOL     OW48769   4.034   2.172   3.275 -0.5946  0.4772  0.3924
12372SOL    HW148770   4.011   2.139   3.183 -1.8082 -0.1063  0.8891
12372SOL    HW248771   3.950   2.192   3.325  0.0527  0.4294  1.5191
12373SOL     OW48772   4.008   1.560   4.067  0.1726 -0.1318  0.6648
12373SOL    HW148773   4.068   1.626   4.021  0.1801 -1.2960 -1.0036
12373SOL    HW248774   3.944   1.610   4.126  0.4965  1.3294 -0.1851
12374SOL     OW48775   2.374   3.298   1.154  0.2734  0.1608  0.1665
12374SOL    HW148776   2.339   3.217   1.200  4.0414 -0.0995  2.7956
12374SOL    HW248777   2.325   3.379   1.189  0.0261 -0.4738  1.3373
12375SOL     OW48778   7.878   9.638   2.536 -0.1709 -0.2548 -0.1853
12375SOL    HW148779   7.807   9.702   2.562 -0.6370 -1.5663  1.9151
12375SOL    HW248780   7.837   9.559   2.491 -0.0303 -0.8797  0.7689
12376SOL     OW48781   8.479   5.948   6.520 -0.4147  0.3535 -0.2328
12376SOL    HW148782   8.417   6.025   6.534  0.1923  1.2787 -2.4427
12376SOL    HW248783   8.428   5.871   6.484 -0.6322  0.4479 -0.1307
12377SOL     OW48784   5.040   3.228   1.297 -0.1826 -0.6428 -0.1488
12377SOL    HW148785   5.029   3.287   1.377  0.5458 -0.1384 -0.4180
12377SOL    HW248786   5.122   3.256   1.246 -0.4186 -1.2201 -0.8459
12378SOL     OW48787   3.971   0.356   7.576  0.2008 -0.1375  0.0177
12378SOL    HW148788   3.973   0.345   7.476  3.1523  2.3356 -0.2565
12378SOL    HW248789   3.912   0.433   7.600  2.7325  1.8962 -0.1483
12379SOL     OW48790   8.389   2.473   3.263 -0.3517 -0.1351  0.5339
12379SOL    HW148791   8.419   2.396   3.205 -0.7384 -0.2100  0.4304
12379SOL    HW248792   8.336   2.537   3.208  2.5501  1.8007 -0.1358
12380SOL     OW48793   2.159   2.358   5.008 -0.0494  0.6062  0.5322
12380SOL    HW148794   2.162   2.295   4.930  0.9617  0.8190  0.3861
12380SOL    HW248795   2.183   2.450   4.977  1.6116  0.4520  1.3264
12381SOL     OW48796   8.916   9.662   0.884 -0.1942 -0.6732 -0.4622
12381SOL    HW148797   8.847   9.602   0.924  0.3808 -1.4266 -0.5985
12381SOL    HW248798   8.995   9.608   0.856  0.5977  0.2381  0.0102
12382SOL     OW48799   7.683   2.054   2.113  0.3242  0.0035  0.2629
12382SOL    HW148800   7.692   2.095   2.204 -5.0545  0.6089  0.6615
12382SOL    HW248801   7.649   1.960   2.123 -1.4338  0.4724 -1.1357
12383SOL     OW48802   2.354   8.658   8.095  0.6151 -0.4909 -0.3303
12383SOL    HW148803   2.330   8.623   8.185  0.6170  0.2402 -0.0388
12383SOL    HW248804   2.454   8.655   8.083  0.7224  0.6016  0.2022
12384SOL     OW48805   9.014   1.675   0.898 -0.1502  0.0628 -0.0729
12384SOL    HW148806   8.970   1.764   0.893 -2.4860 -1.1894 -2.9634
12384SOL    HW248807   9.107   1.682   0.862 -0.6164  1.1430 -1.0868
12385SOL     OW48808   2.529   9.938   1.699 -0.2606  0.0858 -0.5549
12385SOL    HW148809   2.481   9.855   1.727 -0.4927 -0.0413 -1.3493
12385SOL    HW248810   2.501   9.965   1.607  0.4365  0.5729 -0.6315
12386SOL     OW48811   0.852   6.909   6.751 -0.4911  0.3040  0.2171
12386SOL    HW148812   0.839   6.811   6.765 -0.9914  0.3951  0.3813
12386SOL    HW248813   0.927   6.923   6.685 -1.9958 -0.2495 -1.6634
12387SOL     OW48814   8.876   5.730   7.110  0.1422  0.2214 -0.0890
12387SOL    HW148815   8.852   5.760   7.202  0.6355  0.6563 -0.1008
12387SOL    HW248816   8.837   5.793   7.043  1.8053  1.2494 -0.0861
12388SOL     OW48817   2.015   3.816   3.148 -0.6129 -0.2135 -0.4426
12388SOL    HW148818   1.982   3.830   3.055 -0.1960  0.5971 -0.4739
12388SOL    HW248819   2.087   3.747   3.149  0.0273  0.4456 -0.8578
12389SOL     OW48820   4.184   8.387   0.273  0.3142 -0.1864  0.4776
12389SOL    HW148821   4.175   8.293   0.303 -0.9844 -0.1422  0.2378
12389SOL    HW248822   4.107   8.411   0.213  0.4062  1.1507  0.8772
12390SOL     OW48823   1.362   8.107   6.376  0.1921  0.3399  0.1912
12390SOL    HW148824   1.307   8.139   6.453 -0.9896 -0.6200 -0.2296
12390SOL    HW248825   1.455   8.143   6.384 -0.2015  1.1074  1.4941
12391SOL     OW48826   9.459   0.496   2.428  0.1059 -0.6833 -0.4812
12391SOL    HW148827   9.414   0.580   2.458  0.3451 -0.7104 -0.0443
12391SOL    HW248828   9.536   0.519   2.368 -0.4231 -0.6329 -1.1436
12392SOL     OW48829   2.071   5.017   2.374 -0.0385  0.5160 -0.0731
12392SOL    HW148830   1.980   5.056   2.360 -0.2908 -0.0946 -0.1327
12392SOL    HW248831   2.141   5.085   2.350 -0.4697  1.6252  1.6536
12393SOL     OW48832   3.847   5.909   0.041  0.2999  0.4341 -0.1124
12393SOL    HW148833   3.794   5.883   0.121  1.1008  0.6419  0.4939
12393SOL    HW248834   3.822   5.850  -0.036 -0.1840 -0.0305  0.3979
12394SOL     OW48835   3.094   4.957   6.013  0.4649  0.3610  0.1097
12394SOL    HW148836   3.010   5.012   6.012 -0.5993 -1.2538 -1.3963
12394SOL    HW248837   3.071   4.862   6.034  1.8570 -0.1888 -0.8188
12395SOL     OW48838   0.078   6.925   2.370  0.3603  0.1051 -0.2332
12395SOL    HW148839   0.104   7.007   2.318 -0.0329 -0.5863 -1.5546
12395SOL    HW248840   0.153   6.860   2.369  0.1921 -0.0873 -0.2927
12396SOL     OW48841   4.666   6.203   0.966  0.3361  0.0579  0.0355
12396SOL    HW148842   4.708   6.247   0.887  3.0616 -1.2454  0.7100
12396SOL    HW248843   4.682   6.104   0.962 -0.2066 -0.1221  1.8125
12397SOL     OW48844   8.731   9.490   4.750 -0.8339 -0.6254 -0.1576
12397SOL    HW148845   8.713   9.433   4.830  0.7612  0.4438  1.0062
12397SOL    HW248846   8.715   9.586   4.773 -2.1292 -0.4606 -1.6763
12398SOL     OW48847   0.218   9.823   6.162  0.0252  0.0092 -0.2984
12398SOL    HW148848   0.254   9.883   6.090 -0.5744 -1.2446 -1.6665
12398SOL    HW248849   0.170   9.879   6.230 -0.8890  1.0467 -1.7658
12399SOL     OW48850   0.117   2.633   8.117  0.3751 -0.5645  0.0406
12399SOL    HW148851   0.213   2.633   8.088  0.2006  1.9138 -0.6458
12399SOL    HW248852   0.109   2.681   8.204 -0.3329 -0.2275 -0.2091
12400SOL     OW48853   0.271   8.863   3.168 -0.6419  0.0921  0.1007
12400SOL    HW148854   0.352   8.921   3.176 -1.0144  0.4218  1.5492
12400SOL    HW248855   0.223   8.884   3.083  1.1101 -0.5305 -1.0650
12401SOL     OW48856   3.032   2.070   4.599  0.0733 -0.6782 -0.5261
12401SOL    HW148857   2.971   2.140   4.635  2.1361  0.1241  1.6248
12401SOL    HW248858   2.985   2.016   4.530 -2.8530  0.2489  0.6685
12402SOL     OW48859   3.385   6.899   4.886 -0.0107  0.2229  0.1608
12402SOL    HW148860   3.437   6.984   4.879 -0.4334  0.6030  1.4384
12402SOL    HW248861   3.312   6.910   4.953 -2.1384 -0.1141 -2.0288
12403SOL     OW48862   0.739   2.918   7.324  0.1341 -0.2864 -0.4726
12403SOL    HW148863   0.653   2.928   7.274 -0.3653 -1.1178  0.1899
12403SOL    HW248864   0.798   2.854   7.275  0.5372  0.5820 -1.1298
12404SOL     OW48865   2.551   9.299   1.141 -0.5519 -0.3605 -0.4354
12404SOL    HW148866   2.583   9.273   1.050 -2.6184 -1.7065 -0.8195
12404SOL    HW248867   2.613   9.261   1.210  0.8961  0.4766 -1.2545
12405SOL     OW48868   9.767   7.602   7.451  0.3987 -0.6473 -0.0423
12405SOL    HW148869   9.753   7.521   7.395  1.7123 -0.9334  0.0229
12405SOL    HW248870   9.757   7.684   7.394 -1.7824 -0.8208  0.0787
12406SOL     OW48871   3.036   5.081   6.794  0.5438 -0.0541 -0.7048
12406SOL    HW148872   3.096   5.008   6.760  0.6370 -0.1214 -0.4024
12406SOL    HW248873   3.052   5.093   6.893 -0.4945 -0.5946 -0.4703
12407SOL     OW48874   3.000   6.082   6.188  0.2847  0.1019 -0.2510
12407SOL    HW148875   2.988   6.036   6.100 -0.9867  0.8101 -0.4498
12407SOL    HW248876   3.015   6.014   6.260 -1.3371 -0.6255 -0.5858
12408SOL     OW48877   8.620   2.234   6.256 -0.0821 -0.1486  0.4397
12408SOL    HW148878   8.526   2.199   6.256  0.0842 -0.6030  0.3742
12408SOL    HW248879   8.647   2.256   6.350  0.0013 -0.7256  0.5569
12409SOL     OW48880   9.844   4.507   5.704 -0.6551 -0.0469 -0.2106
12409SOL    HW148881   9.939   4.538   5.698 -0.3069 -1.3744 -2.2647
12409SOL    HW248882   9.803   4.540   5.789  1.4758  0.9820  0.4545
12410SOL     OW48883   0.484   8.847   2.394 -0.3728 -0.7736  0.0728
12410SOL    HW148884   0.501   8.861   2.492  0.2602 -0.0879 -0.1276
12410SOL    HW248885   0.386   8.841   2.378 -0.7003  2.5074  0.3390
12411SOL     OW48886   2.139   6.948   5.550 -0.4690  0.5052  0.6234
12411SOL    HW148887   2.060   6.999   5.581 -0.3800 -0.0880  1.8524
12411SOL    HW248888   2.182   6.995   5.473 -1.3785  1.3781  0.6526
12412SOL     OW48889   1.682   6.271   7.036  0.0413  0.5345  0.1059
12412SOL    HW148890   1.767   6.323   7.041 -0.5982  1.6417 -0.3466
12412SOL    HW248891   1.637   6.289   6.949 -1.7791  1.7730  1.2457
12413SOL     OW48892   1.440   0.949   0.559  0.1599 -0.1193  0.0901
12413SOL    HW148893   1.413   0.880   0.627 -0.0818 -0.0430  0.0712
12413SOL    HW248894   1.370   0.955   0.488 -0.1180  0.5877  0.4233
12414SOL     OW48895   9.468   5.862   1.221  0.0487  0.1391  0.4520
12414SOL    HW148896   9.383   5.869   1.169 -0.0324 -0.5131  0.4952
12414SOL    HW248897   9.540   5.825   1.163 -0.3025 -1.5473  1.0887
12415SOL     OW48898   8.622   1.807   7.900 -0.5399 -0.6885  0.1526
12415SOL    HW148899   8.546   1.865   7.873  1.1474  1.7076  0.3889
12415SOL    HW248900   8.684   1.794   7.822 -1.2026 -2.7203 -0.0757
12416SOL     OW48901   9.573   5.941   3.977 -0.2803  0.2460 -0.4714
12416SOL    HW148902   9.548   5.912   3.885  0.3440  0.0332 -0.5756
12416SOL    HW248903   9.522   6.023   4.002 -1.9760 -0.8581 -0.2304
12417SOL     OW48904   4.956   3.373   6.184  0.2950  0.1030  0.7429
12417SOL    HW148905   4.877   3.400   6.238  1.6864  0.9555  2.3897
12417SOL    HW248906   4.992   3.453   6.135  0.2550 -0.2476  0.1282
12418SOL     OW48907   2.335   1.858   2.606  0.1679  0.8321 -0.0165
12418SOL    HW148908   2.257   1.799   2.584  2.1052 -0.6422 -3.1961
12418SOL    HW248909   2.310   1.954   2.590 -1.4174  0.5071  0.3837
12419SOL     OW48910   9.184   7.738   2.439  0.4333  0.0143  0.0259
12419SOL    HW148911   9.109   7.803   2.439 -1.5757 -2.2492  0.1394
12419SOL    HW248912   9.229   7.739   2.349 -0.9323  0.0286 -0.6594
12420SOL     OW48913   1.763   7.905   3.136  0.0997  0.1293 -0.1312
12420SOL    HW148914   1.664   7.894   3.145  0.2716 -1.4621  0.0152
12420SOL    HW248915   1.798   7.953   3.217 -0.3659 -0.6896  0.5771
12421SOL     OW48916   3.303   0.239   0.346 -0.3628  0.0007 -0.0922
12421SOL    HW148917   3.272   0.236   0.441 -0.5925 -1.6342 -0.1986
12421SOL    HW248918   3.391   0.192   0.339 -0.9881 -1.0721 -0.9088
12422SOL     OW48919   9.811   8.105   7.553  1.1631 -0.7627  0.3152
12422SOL    HW148920   9.855   8.025   7.513  4.1437  0.9555  0.0090
12422SOL    HW248921   9.806   8.095   7.652  0.3066 -1.8767  0.1715
12423SOL     OW48922   2.995   3.992   2.932  0.2860  0.4622 -0.4198
12423SOL    HW148923   2.971   4.079   2.890 -1.8547 -0.3725 -0.9769
12423SOL    HW248924   2.991   3.919   2.864  0.5715 -0.3086  0.3733
12424SOL     OW48925   8.460   9.962   5.713 -0.5483 -0.0202  0.3580
12424SOL    HW148926   8.515  10.032   5.760  0.3622 -1.4349  1.4429
12424SOL    HW248927   8.420  10.001   5.631  0.4903  1.6019  0.5964
12425SOL     OW48928   9.754   5.447   4.286 -0.1218 -0.6199 -0.1139
12425SOL    HW148929   9.657   5.455   4.307 -0.0321 -0.1342  0.1196
12425SOL    HW248930   9.770   5.468   4.189 -0.0088  1.2110  0.2779
12426SOL     OW48931   5.633   9.057   5.822  0.3035  0.1023  0.1150
12426SOL    HW148932   5.679   9.146   5.817 -1.4582  1.0611  0.7695
12426SOL    HW248933   5.679   8.993   5.761  0.7559  1.8405 -1.4077
12427SOL     OW48934   6.435   5.256   1.278 -0.1041 -0.3057 -0.2740
12427SOL    HW148935   6.461   5.227   1.186 -0.1370 -0.0849 -0.3553
12427SOL    HW248936   6.389   5.345   1.272 -0.2292 -0.3571 -0.0583
12428SOL     OW48937   7.727   8.260   3.760  0.2528  0.3419  0.5859
12428SOL    HW148938   7.653   8.193   3.751  0.2732  0.1955  1.4576
12428SOL    HW248939   7.759   8.261   3.855 -0.1028  1.9571  0.6997
12429SOL     OW48940   2.611   7.694   1.660  0.3606 -0.1538  0.4703
12429SOL    HW148941   2.669   7.775   1.654  1.6847 -1.0156  1.4190
12429SOL    HW248942   2.517   7.722   1.678  0.5885  1.2291 -0.4169
12430SOL     OW48943   2.372   4.698   5.250 -0.1895  0.4416 -0.1658
12430SOL    HW148944   2.458   4.736   5.215 -0.0976  0.1942 -0.2111
12430SOL    HW248945   2.384   4.672   5.346 -0.7132  1.9779  0.3285
12431SOL     OW48946   7.774   4.402   2.912 -0.6897  0.3636  0.5638
12431SOL    HW148947   7.687   4.384   2.865 -0.0157  1.7327 -1.2667
12431SOL    HW248948   7.828   4.318   2.914 -1.8318 -0.3755  1.2682
12432SOL     OW48949   8.315   4.285   2.699  0.1746  0.2037 -0.0960
12432SOL    HW148950   8.254   4.328   2.766  0.5886  0.6898 -0.0255
12432SOL    HW248951   8.286   4.191   2.683  0.4082 -0.1162  1.2226
12433SOL     OW48952   6.590   3.127   1.015  0.0855 -0.5250 -0.3495
12433SOL    HW148953   6.580   3.206   1.075  0.5794 -0.5982 -0.1649
12433SOL    HW248954   6.500   3.093   0.987 -0.1249  0.0510 -0.3633
12434SOL     OW48955   8.127   7.677   4.147  0.0027 -0.1386 -0.5491
12434SOL    HW148956   8.187   7.754   4.125 -0.9348  0.7129 -0.2034
12434SOL    HW248957   8.176   7.591   4.134  1.5316  0.5657  0.4355
12435SOL     OW48958   3.517   7.010   5.232 -0.6697 -0.2887 -0.5261
12435SOL    HW148959   3.562   6.927   5.198 -1.4467 -0.5578 -0.9107
12435SOL    HW248960   3.526   7.083   5.163 -0.9436 -0.3874 -0.6687
12436SOL     OW48961   2.686   5.509   1.532 -0.2734  0.3158  0.2613
12436SOL    HW148962   2.594   5.546   1.522 -0.5883 -0.2740  1.0144
12436SOL    HW248963   2.752   5.584   1.536 -0.6394  0.7220 -1.0246
12437SOL     OW48964   3.775   1.911   4.625 -0.0310  0.3397 -0.1091
12437SOL    HW148965   3.775   1.977   4.550 -2.1976  0.4339 -0.0406
12437SOL    HW248966   3.690   1.859   4.624  1.3383 -1.9687  0.2829
12438SOL     OW48967   1.289   3.868   7.659  0.5872  0.8210  0.6331
12438SOL    HW148968   1.319   3.847   7.566  0.9695 -1.3272  1.2167
12438SOL    HW248969   1.271   3.966   7.667  1.7683  1.2233 -1.3520
12439SOL     OW48970   0.083   2.037   1.560 -0.5714  0.4816  0.5298
12439SOL    HW148971   0.080   1.993   1.471 -1.3997  2.0719 -0.2375
12439SOL    HW248972   0.007   2.004   1.616 -1.1701  0.8965 -0.0315
12440SOL     OW48973   8.414   5.200   5.421  0.4339  1.0311 -0.0154
12440SOL    HW148974   8.397   5.118   5.366 -0.7626  0.3790  1.2691
12440SOL    HW248975   8.326   5.235   5.455  1.1396  1.4784  1.3657
12441SOL     OW48976   7.722   2.272   6.156  0.3856  0.5097  0.1996
12441SOL    HW148977   7.812   2.234   6.137  1.2905  1.7203  2.0048
12441SOL    HW248978   7.679   2.223   6.231  0.6235  1.5831  1.0502
12442SOL     OW48979   5.084   9.219   6.664 -0.1385 -0.6400  0.5406
12442SOL    HW148980   5.075   9.144   6.599 -0.8015 -0.8296  0.8445
12442SOL    HW248981   5.000   9.226   6.718  1.5887 -2.5104  3.5921
12443SOL     OW48982   4.261   4.321   0.092 -0.4095  0.1071  0.1680
12443SOL    HW148983   4.292   4.249   0.154  1.5066 -1.6302 -2.6571
12443SOL    HW248984   4.331   4.393   0.086 -0.8266  0.5378  0.4390
12444SOL     OW48985   9.436   1.813   2.367  0.1626 -0.1855 -0.3792
12444SOL    HW148986   9.515   1.776   2.318  1.6824 -0.1437  1.9505
12444SOL    HW248987   9.437   1.913   2.361 -0.2782 -0.2245 -1.1744
12445SOL     OW48988   5.664   8.509   4.439 -0.0901  0.2216  0.1775
12445SOL    HW148989   5.593   8.554   4.493 -0.6945 -1.8526  1.1735
12445SOL    HW248990   5.629   8.491   4.347 -0.0824  1.1646 -0.0094
12446SOL     OW48991   4.487   6.497   1.876 -0.2407 -0.3252  0.0205
12446SOL    HW148992   4.403   6.478   1.927 -0.6204  1.5422  0.1322
12446SOL    HW248993   4.566   6.488   1.937 -0.5623  0.2365  0.5340
12447SOL     OW48994   3.980   9.117   5.701  0.4908 -0.5863 -0.2162
12447SOL    HW148995   3.978   9.099   5.603  0.7086  0.9071 -0.5051
12447SOL    HW248996   3.991   9.215   5.717 -2.0116 -0.4945  1.2901
12448SOL     OW48997   8.563   9.882   8.041  0.9951 -0.4923  0.6755
12448SOL    HW148998   8.548   9.847   8.134 -3.0575  0.8401  0.6217
12448SOL    HW248999   8.578   9.981   8.045 -3.5336  0.3053 -0.3506
12449SOL     OW49000   5.643   0.781   8.158  0.0969  0.6995 -0.0808
12449SOL    HW149001   5.586   0.854   8.122 -1.9538  0.2656  2.1801
12449SOL    HW249002   5.738   0.813   8.163 -0.8488  3.4171  1.4492
12450SOL     OW49003   4.580   9.634   4.702 -0.3022  0.1365 -0.5563
12450SOL    HW149004   4.588   9.695   4.781 -0.8620  1.9369 -1.8664
12450SOL    HW249005   4.510   9.669   4.639  1.3454 -0.3034 -2.6993
12451SOL     OW49006   7.972   7.017   6.633  0.0199 -0.2466  0.4053
12451SOL    HW149007   7.971   7.097   6.573 -1.4746 -0.6022 -0.0598
12451SOL    HW249008   7.945   7.044   6.725 -0.0254 -0.1292  0.3579
12452SOL     OW49009   2.312   2.926   5.376  0.4297 -0.3084  0.1264
12452SOL    HW149010   2.349   2.990   5.443 -1.9062 -0.0062  1.1538
12452SOL    HW249011   2.367   2.843   5.376  2.1606  0.8061  0.3488
12453SOL     OW49012   9.232   4.488   3.543  0.2473 -0.0120 -0.3022
12453SOL    HW149013   9.182   4.427   3.604  0.2262  0.6666  0.3648
12453SOL    HW249014   9.267   4.566   3.595 -2.9697  2.5504 -1.7959
12454SOL     OW49015   3.160   6.320   0.672 -0.0351  0.2839  0.0498
12454SOL    HW149016   3.176   6.234   0.623  0.6766  0.0357  0.7028
12454SOL    HW249017   3.096   6.377   0.621  1.8033  0.6496 -1.9291
12455SOL     OW49018   2.609   8.494   4.894 -0.3310  0.1095 -0.0768
12455SOL    HW149019   2.611   8.581   4.845 -1.1076 -0.5785 -1.3619
12455SOL    HW249020   2.580   8.510   4.989  0.4960  1.3632 -0.0273
12456SOL     OW49021   9.094   6.872   0.350 -0.2679 -0.3010  0.1990
12456SOL    HW149022   9.042   6.835   0.427 -0.8806  1.2315  0.5501
12456SOL    HW249023   9.172   6.924   0.385  0.6422 -1.3279 -0.2846
12457SOL     OW49024   3.297   6.208   6.838 -0.0214  0.5482  0.1813
12457SOL    HW149025   3.254   6.170   6.920 -0.1946  1.8266  0.6940
12457SOL    HW249026   3.393   6.181   6.835 -0.6990 -1.9506 -0.7335
12458SOL     OW49027   4.602   3.491   7.467  0.1930 -0.4855  0.7311
12458SOL    HW149028   4.506   3.507   7.445  0.7068  2.3526  0.3782
12458SOL    HW249029   4.649   3.578   7.479  2.8569 -1.8099  0.4165
12459SOL     OW49030   0.051   7.220   6.277 -0.2328  0.0720 -0.5418
12459SOL    HW149031   0.019   7.126   6.273  1.0870 -0.4561  0.8117
12459SOL    HW249032   0.135   7.228   6.222 -0.2210  0.4086 -0.4749
12460SOL     OW49033   7.972   5.832   4.806 -0.0800  0.3244 -0.1444
12460SOL    HW149034   8.068   5.838   4.779 -0.8765  0.5897 -3.0031
12460SOL    HW249035   7.938   5.924   4.827  0.3097  0.2135  1.0143
12461SOL     OW49036   9.949   3.447   3.345  0.3807  0.9416 -0.5691
12461SOL    HW149037  10.034   3.445   3.292  1.5050  2.6154  1.1507
12461SOL    HW249038   9.926   3.541   3.368 -0.2299  0.2631  1.7137
12462SOL     OW49039   9.860   1.710   7.092  0.3405 -0.0833  0.1664
12462SOL    HW149040   9.803   1.709   7.010  0.9636  0.3319 -0.2809
12462SOL    HW249041   9.812   1.665   7.167 -1.5437  2.3725  0.4731
12463SOL     OW49042   0.395   3.532   4.559  0.4034 -0.2779  0.2000
12463SOL    HW149043   0.495   3.531   4.563  0.3959  0.2827  0.5815
12463SOL    HW249044   0.358   3.553   4.650 -0.0596 -0.4407  0.0492
12464SOL     OW49045   6.159   8.186   5.116  1.0369  0.4664 -0.1813
12464SOL    HW149046   6.154   8.285   5.108 -0.5660  0.5460  1.6396
12464SOL    HW249047   6.219   8.161   5.191  0.9235  0.0797 -0.2169
12465SOL     OW49048   4.028   4.616   0.801  0.3966  0.0514 -0.0632
12465SOL    HW149049   4.108   4.555   0.807  0.7825  0.6837  1.5873
12465SOL    HW249050   4.042   4.682   0.728  0.7417 -0.7518 -0.7351
12466SOL     OW49051   5.009   7.182   3.045  0.2012  0.1393  0.0410
12466SOL    HW149052   4.933   7.198   2.982 -0.3236 -1.3881  0.2554
12466SOL    HW249053   5.044   7.270   3.078  0.0815  0.9364 -1.8793
12467SOL     OW49054   0.017   3.813   2.179  0.1445 -0.4574  0.2419
12467SOL    HW149055   0.064   3.868   2.249 -0.9652 -1.5287  1.8749
12467SOL    HW249056  -0.023   3.874   2.110  4.0960  0.4511 -1.3553
12468SOL     OW49057   6.264   8.674   6.796  0.2803 -0.1706  0.0331
12468SOL    HW149058   6.311   8.588   6.817  0.8150  0.4120  1.3227
12468SOL    HW249059   6.185   8.684   6.857 -0.6469 -0.4211 -1.0991
12469SOL     OW49060   8.963   5.389   1.034 -0.1305  0.2063  0.3970
12469SOL    HW149061   8.907   5.308   1.051  2.3836 -2.1711 -2.2128
12469SOL    HW249062   9.047   5.384   1.088 -0.2745  1.4718  0.7664
12470SOL     OW49063   9.872   5.469   0.337 -0.0693  0.0274  0.3201
12470SOL    HW149064   9.903   5.405   0.267 -0.3734  0.3024 -0.0673
12470SOL    HW249065   9.872   5.424   0.426 -3.3876 -1.5280 -0.3858
12471SOL     OW49066   5.894   8.028   2.995  0.3718  0.2908 -0.7003
12471SOL    HW149067   5.980   8.076   3.015 -0.9343  1.6214  1.8907
12471SOL    HW249068   5.837   8.086   2.938 -1.1532  1.8711  2.3253
12472SOL     OW49069   1.837   0.461   7.137  0.3697  0.6044 -0.2272
12472SOL    HW149070   1.908   0.434   7.072  1.1204  0.9031  0.4575
12472SOL    HW249071   1.780   0.382   7.159 -0.6054  0.7415 -2.1045
12473SOL     OW49072   8.270   7.117   7.733 -0.3494 -0.0716 -0.3185
12473SOL    HW149073   8.248   7.206   7.772 -0.9087 -0.0847 -0.5979
12473SOL    HW249074   8.269   7.048   7.805  1.8952  0.4357  0.2308
12474SOL     OW49075   1.172   3.599   4.964 -0.3374 -0.4165 -0.8724
12474SOL    HW149076   1.097   3.654   5.001  0.3686 -0.5715  0.8437
12474SOL    HW249077   1.225   3.560   5.039 -0.0418 -2.3762 -2.0763
12475SOL     OW49078   4.918   9.315   4.710  0.3419 -0.2600 -0.6353
12475SOL    HW149079   4.998   9.372   4.728  0.8063 -0.5993 -1.6221
12475SOL    HW249080   4.860   9.359   4.642  0.1385 -0.4428 -0.5808
12476SOL     OW49081   1.080   5.159   1.168 -0.0217  0.4160 -0.6369
12476SOL    HW149082   1.044   5.082   1.116  0.5969  0.8965 -1.7931
12476SOL    HW249083   1.114   5.229   1.105  2.8436  0.0224  0.3800
12477SOL     OW49084   7.940   8.441   1.075 -0.4366 -0.0813 -0.1537
12477SOL    HW149085   7.954   8.368   1.141 -1.9614 -1.7657 -1.6105
12477SOL    HW249086   8.024   8.494   1.065  0.2749 -0.7697  1.9500
12478SOL     OW49087   2.391   0.495   7.000 -0.3529 -0.0966  0.5334
12478SOL    HW149088   2.473   0.503   6.942 -0.5759 -2.1003 -0.1059
12478SOL    HW249089   2.328   0.569   6.979  1.4996  1.7794  1.3951
12479SOL     OW49090   4.553   4.666   7.215 -0.0344  0.1976  0.0029
12479SOL    HW149091   4.650   4.675   7.234 -0.4667  0.6247  2.0871
12479SOL    HW249092   4.527   4.569   7.214  1.0902 -0.1839 -4.3353
12480SOL     OW49093   9.668   5.720   2.455 -0.1001  0.4770  0.5089
12480SOL    HW149094   9.648   5.745   2.550  0.4401 -1.5148  1.1666
12480SOL    HW249095   9.765   5.699   2.445 -0.4513 -0.9325 -0.0953
12481SOL     OW49096   9.547   2.279   5.766  0.5194 -0.3304  0.2739
12481SOL    HW149097   9.513   2.313   5.854 -0.5820 -2.3053  0.6280
12481SOL    HW249098   9.473   2.231   5.719  1.2118  0.3816 -1.5832
12482SOL     OW49099   4.420   1.656   4.240 -0.2675 -0.5507  0.0229
12482SOL    HW149100   4.413   1.701   4.151  1.4079  0.5158  0.4115
12482SOL    HW249101   4.357   1.699   4.305 -0.0480 -0.0219 -0.1181
12483SOL     OW49102   3.533   2.544   0.742 -0.0290  0.0764  0.7612
12483SOL    HW149103   3.511   2.641   0.739 -1.1663 -0.2030 -0.1974
12483SOL    HW249104   3.490   2.503   0.823 -2.6263 -0.3500 -0.7967
12484SOL     OW49105   7.582   0.597   4.046 -0.2221  0.1522 -0.4643
12484SOL    HW149106   7.549   0.574   3.954 -0.8080 -1.5390  0.1545
12484SOL    HW249107   7.681   0.611   4.043  0.0446 -1.6629 -1.0387
12485SOL     OW49108   7.257   4.587   1.835 -0.2745 -0.1371 -0.0967
12485SOL    HW149109   7.342   4.629   1.867 -0.8356 -0.1001  1.3887
12485SOL    HW249110   7.188   4.592   1.907 -2.3536  2.1083 -2.1434
12486SOL     OW49111   0.081   6.988   0.292 -0.1496 -0.3500  0.3082
12486SOL    HW149112   0.120   6.946   0.374  1.4796  2.1296  0.8602
12486SOL    HW249113  -0.010   7.023   0.312 -0.9221 -2.2744  0.2407
12487SOL     OW49114   0.541   3.867   1.121  0.6121  0.2952  0.3833
12487SOL    HW149115   0.600   3.947   1.131  1.6116 -0.1935 -1.3411
12487SOL    HW249116   0.596   3.784   1.117 -0.1200 -0.1181 -1.8767
12488SOL     OW49117   3.845   7.129   5.432 -0.1230 -0.2551  0.1302
12488SOL    HW149118   3.843   7.226   5.409  0.8330 -0.2186  0.1437
12488SOL    HW249119   3.793   7.112   5.515 -0.3240  0.2426  0.1007
12489SOL     OW49120   8.230   2.104   4.909  0.5279 -0.2484 -0.4506
12489SOL    HW149121   8.230   2.034   4.981 -0.0431 -0.4228 -0.6178
12489SOL    HW249122   8.325   2.124   4.882  0.7235 -0.4902  0.0473
12490SOL     OW49123   9.371   5.857   2.724 -0.0083 -0.6797 -0.1685
12490SOL    HW149124   9.315   5.806   2.659 -0.3004  0.7693 -1.0854
12490SOL    HW249125   9.326   5.859   2.813 -0.3968 -1.3102 -0.3539
12491SOL     OW49126   5.298   3.468   0.776  0.3104  0.2638  0.1833
12491SOL    HW149127   5.367   3.531   0.811  0.5512  0.0986  0.0064
12491SOL    HW249128   5.231   3.519   0.722  0.1316  0.4679  0.5976
12492SOL     OW49129   0.316   1.357   7.931  0.0060  0.2296  0.0116
12492SOL    HW149130   0.274   1.367   7.841  1.8181  0.2980 -0.8590
12492SOL    HW249131   0.416   1.357   7.921  0.2256 -0.8450  1.8962
12493SOL     OW49132   8.147   7.217   8.007  0.1399 -0.2520  0.2241
12493SOL    HW149133   8.149   7.252   8.101 -3.0069  1.3498 -0.2562
12493SOL    HW249134   8.187   7.286   7.946 -0.9187  0.1544 -0.0166
12494SOL     OW49135   8.121   0.889   2.657 -0.0029 -0.2994 -0.1657
12494SOL    HW149136   8.093   0.975   2.613  2.5284  1.5105  1.6324
12494SOL    HW249137   8.166   0.830   2.589  0.4942  0.8667 -0.8694
12495SOL     OW49138   4.686   6.202   3.151 -0.0806  0.3570  0.0701
12495SOL    HW149139   4.588   6.211   3.169  0.3030  1.4037  1.7925
12495SOL    HW249140   4.725   6.293   3.138  0.5701 -0.0963 -1.1687
12496SOL     OW49141   6.445   2.806   4.440  0.1131  0.2830 -0.2071
12496SOL    HW149142   6.376   2.754   4.491  0.4867  1.6551  1.7638
12496SOL    HW249143   6.522   2.827   4.500  0.3281  2.4182 -1.1771
12497SOL     OW49144   0.805   3.093   5.587  0.1812  0.5070 -0.3182
12497SOL    HW149145   0.806   3.141   5.499  0.0635  0.2982 -0.4357
12497SOL    HW249146   0.894   3.104   5.632  0.1125  0.9276 -0.2916
12498SOL     OW49147   3.605   3.318   4.996 -0.2079  0.2324  0.0861
12498SOL    HW149148   3.513   3.279   4.991 -0.4472  0.8454 -0.5191
12498SOL    HW249149   3.609   3.400   4.939  1.4976 -1.3295 -2.1247
12499SOL     OW49150   9.860   7.873   1.434  0.2716  0.3733  0.0887
12499SOL    HW149151   9.864   7.832   1.343  0.3111 -0.4983  0.4778
12499SOL    HW249152   9.934   7.940   1.444  1.3687 -0.8268  0.1069
12500SOL     OW49153   1.167   7.485   1.035 -0.3731  0.3589  0.1119
12500SOL    HW149154   1.158   7.397   1.082 -2.0262  0.2456 -0.3764
12500SOL    HW249155   1.258   7.493   0.995  0.0095 -0.8453  0.7256
12501SOL     OW49156   0.954   4.000   8.065  0.2790 -0.3391  0.4500
12501SOL    HW149157   0.958   4.008   8.165 -0.3780  3.4005  0.2534
12501SOL    HW249158   0.858   4.003   8.036  0.6327  2.2692 -0.5093
12502SOL     OW49159   9.373   2.814   4.132 -0.2528  0.1212 -0.1394
12502SOL    HW149160   9.447   2.751   4.110  0.7151  0.7537  1.2114
12502SOL    HW249161   9.295   2.763   4.169 -0.9096 -0.6546 -2.4530
12503SOL     OW49162   5.560   7.713   5.285 -0.0206  0.5375  0.2709
12503SOL    HW149163   5.580   7.782   5.216 -0.3590  0.5365  0.1700
12503SOL    HW249164   5.467   7.727   5.321 -0.3482 -0.2796 -0.2461
12504SOL     OW49165   5.425   1.462   6.024  0.2809 -0.0432 -0.4189
12504SOL    HW149166   5.481   1.404   5.965  0.0170 -0.2417 -0.4739
12504SOL    HW249167   5.485   1.512   6.087  0.5680  0.2583 -0.9320
12505SOL     OW49168   9.084   0.494   3.691  0.3683 -0.4991 -0.4080
12505SOL    HW149169   9.059   0.520   3.598  1.9128 -0.3844 -0.8025
12505SOL    HW249170   9.180   0.466   3.693  0.7218  0.7625  1.4112
12506SOL     OW49171   8.252   4.882   3.947 -0.2508 -0.0369  0.2616
12506SOL    HW149172   8.169   4.918   3.992 -0.1565  1.1597 -0.4987
12506SOL    HW249173   8.248   4.782   3.946 -0.7530 -0.0555  1.9889
12507SOL     OW49174   3.349   4.775   4.179  0.4572  0.2378 -0.4125
12507SOL    HW149175   3.270   4.806   4.126 -0.8798  1.3172  2.1177
12507SOL    HW249176   3.386   4.692   4.137 -2.7381 -0.9454 -1.0348
12508SOL     OW49177   9.045   0.518   1.902 -0.2970 -0.3543 -0.4574
12508SOL    HW149178   8.952   0.487   1.885  1.2055 -5.2170 -0.6465
12508SOL    HW249179   9.069   0.500   1.998  0.8432 -0.3751 -0.7391
12509SOL     OW49180   1.780   5.919   0.089 -0.1260  0.0103  0.4655
12509SOL    HW149181   1.790   5.993   0.022 -1.2765  0.1171  0.4046
12509SOL    HW249182   1.798   5.831   0.046  1.7870  0.2770  0.6622
12510SOL     OW49183   2.089   1.473   3.397 -0.1214  0.5783  0.0231
12510SOL    HW149184   2.034   1.475   3.481  1.5666 -0.5289  1.1929
12510SOL    HW249185   2.101   1.566   3.363 -1.8758  0.9251  0.3067
12511SOL     OW49186   9.019   0.773   1.777  0.4568 -0.1441 -0.0205
12511SOL    HW149187   9.029   0.681   1.814 -1.0817  0.2855  1.5310
12511SOL    HW249188   8.936   0.778   1.721 -0.0431  0.5415  0.7559
12512SOL     OW49189   8.431   7.117   6.051 -0.4890  0.0865  0.2040
12512SOL    HW149190   8.515   7.115   6.105 -0.2058 -3.1471 -0.2181
12512SOL    HW249191   8.402   7.211   6.036  2.9524  1.2462  0.5081
12513SOL     OW49192   1.566   1.089   4.902 -0.1931 -0.1632 -0.4395
12513SOL    HW149193   1.516   1.148   4.838 -0.7713 -0.8907 -0.6631
12513SOL    HW249194   1.518   1.002   4.912  0.9089 -0.7851 -0.4812
12514SOL     OW49195   4.365   2.390   5.134  0.7490  0.0451 -0.0403
12514SOL    HW149196   4.462   2.409   5.118  0.8859 -0.0827  0.6420
12514SOL    HW249197   4.315   2.476   5.141  0.8808  0.1148  0.0444
12515SOL     OW49198   0.502   6.932   7.500  0.4462  0.8159 -0.4690
12515SOL    HW149199   0.459   6.986   7.428 -0.2781  1.0036  0.0988
12515SOL    HW249200   0.599   6.922   7.480  0.4283  1.6412 -1.0025
12516SOL     OW49201   4.440   8.647   6.714  0.3382  0.1037  0.3363
12516SOL    HW149202   4.513   8.700   6.671  0.7598 -0.6872  0.0672
12516SOL    HW249203   4.418   8.567   6.657 -0.6331  0.2559  0.4878
12517SOL     OW49204   2.287   2.035   4.548  0.1747 -0.0976  0.4079
12517SOL    HW149205   2.253   1.942   4.534  0.6016 -0.4418  1.6543
12517SOL    HW249206   2.381   2.032   4.582 -0.1301  0.7802  1.3467
12518SOL     OW49207   9.041   2.158   2.536 -0.5777  0.3645 -0.0715
12518SOL    HW149208   9.047   2.146   2.636 -0.1931  1.7353  0.0781
12518SOL    HW249209   9.015   2.071   2.494  1.2091 -0.7703  1.0548
12519SOL     OW49210   2.186   8.032   3.545 -0.4393  0.2029 -0.1047
12519SOL    HW149211   2.249   8.101   3.580 -1.4863  0.3026  1.6292
12519SOL    HW249212   2.098   8.074   3.522 -0.9162 -0.4602  0.4871
12520SOL     OW49213   5.541   1.527   3.339  0.6408  0.3677 -0.0833
12520SOL    HW149214   5.544   1.493   3.433  0.5483 -0.1024 -0.2486
12520SOL    HW249215   5.594   1.466   3.280  2.6070  1.8713  0.0382
12521SOL     OW49216   2.707   0.257   6.376  0.0270  0.1064  0.1553
12521SOL    HW149217   2.743   0.199   6.450 -1.0139  0.1337  0.6884
12521SOL    HW249218   2.649   0.203   6.317  0.6281  0.1560 -0.4854
12522SOL     OW49219   1.236   6.645   2.326 -0.1438  0.2999 -0.6688
12522SOL    HW149220   1.295   6.608   2.397 -0.7629  0.5870  0.0008
12522SOL    HW249221   1.288   6.657   2.242  0.5175 -0.3230 -0.3504
12523SOL     OW49222   8.050   6.977   7.077 -0.5061 -0.0822 -0.5185
12523SOL    HW149223   8.075   7.021   6.991 -0.2029  0.1852 -0.2974
12523SOL    HW249224   7.953   6.954   7.076 -1.0004  1.9178 -0.0644
12524SOL     OW49225   1.240   7.711   2.800  0.3747  0.2648 -0.3150
12524SOL    HW149226   1.290   7.636   2.755 -0.3051 -0.7433  0.5816
12524SOL    HW249227   1.302   7.787   2.816  2.1245 -1.6110  2.3500
12525SOL     OW49228   4.227   1.793   3.430 -0.2299 -0.3392  0.2006
12525SOL    HW149229   4.272   1.773   3.343  0.2029  1.5291 -0.0375
12525SOL    HW249230   4.177   1.713   3.461 -0.2229 -1.1000 -1.6766
12526SOL     OW49231   8.042   8.277   1.338 -0.1238 -0.0963  0.3664
12526SOL    HW149232   7.961   8.301   1.392  0.0599 -1.1468  1.1345
12526SOL    HW249233   8.115   8.343   1.357 -1.0489  1.3577 -0.9785
12527SOL     OW49234   8.247   5.520   5.199  0.2439 -0.6318  0.9864
12527SOL    HW149235   8.179   5.566   5.142  0.0892 -1.4941  0.4666
12527SOL    HW249236   8.203   5.484   5.281  0.4445  0.5080  1.5929
12528SOL     OW49237   0.567   7.972   5.123 -0.3259 -0.2204 -0.0487
12528SOL    HW149238   0.537   8.062   5.092 -1.2790 -0.6165 -0.2687
12528SOL    HW249239   0.617   7.927   5.050 -0.9038 -0.3683 -0.3526
12529SOL     OW49240   5.264   2.517   0.588  0.0629  0.1048 -0.2396
12529SOL    HW149241   5.190   2.473   0.538 -0.4346 -1.8455  2.0897
12529SOL    HW249242   5.251   2.616   0.588 -1.9737 -0.1579 -0.7155
12530SOL     OW49243   4.964   3.590   7.401  0.2620  0.0356 -0.2105
12530SOL    HW149244   4.995   3.499   7.429 -0.5953  0.1278  1.1154
12530SOL    HW249245   4.982   3.604   7.304  1.6051 -1.0461 -0.1302
12531SOL     OW49246   8.135   8.088   3.102 -0.0700 -0.2648 -0.2641
12531SOL    HW149247   8.081   8.108   3.183 -0.1509 -0.0535 -0.3695
12531SOL    HW249248   8.075   8.083   3.022  0.1202  0.4099 -0.4500
12532SOL     OW49249   4.151   7.607   1.662  0.3949 -0.2139  0.3607
12532SOL    HW149250   4.126   7.511   1.656  2.0173 -0.6190 -0.1653
12532SOL    HW249251   4.079   7.663   1.621 -0.5711 -1.1916  0.7086
12533SOL     OW49252   8.461   7.205   5.233  0.2742 -0.6897  0.0222
12533SOL    HW149253   8.397   7.156   5.292  0.2214 -0.2435  0.3387
12533SOL    HW249254   8.437   7.189   5.137 -1.6697  1.2371  0.1423
12534SOL     OW49255   5.298   2.646   0.987 -0.7011  0.4845  0.4305
12534SOL    HW149256   5.376   2.702   0.960 -1.6386  2.6785  2.0945
12534SOL    HW249257   5.231   2.703   1.033 -2.2826 -1.8090  1.0545
12535SOL     OW49258   4.229   0.486   5.267  0.7653  0.0928  0.0058
12535SOL    HW149259   4.198   0.391   5.270  0.1859  0.1924 -2.3461
12535SOL    HW249260   4.174   0.538   5.202  1.4790  1.9106  0.8069
12536SOL     OW49261   3.304   3.898   7.647  0.0482  0.1520 -0.1142
12536SOL    HW149262   3.245   3.974   7.674  1.2483  0.5659  1.4209
12536SOL    HW249263   3.254   3.812   7.656 -0.4601  0.5369  0.8262
12537SOL     OW49264   2.901   3.489   6.691 -0.1072 -0.1892  0.8865
12537SOL    HW149265   2.875   3.485   6.788 -0.8431 -0.5395  0.6780
12537SOL    HW249266   2.834   3.438   6.637  0.6266 -0.4938  0.2570
12538SOL     OW49267   7.945   7.366   7.751  0.7190  0.0364  0.2609
12538SOL    HW149268   7.910   7.390   7.842  0.7071  2.0441 -0.2544
12538SOL    HW249269   7.995   7.443   7.713  3.3904 -1.8584 -0.1752
12539SOL     OW49270   9.848   2.834   0.163  0.1007 -0.0327 -0.1458
12539SOL    HW149271   9.843   2.933   0.174  0.6071 -0.1053  0.8259
12539SOL    HW249272   9.803   2.807   0.078 -0.1731  1.0138 -0.3363
12540SOL     OW49273   7.363   0.822   1.458  0.2234 -0.2405  0.1231
12540SOL    HW149274   7.379   0.816   1.360  0.5013 -0.0936  0.1596
12540SOL    HW249275   7.274   0.782   1.480  1.2126 -2.4691  0.1256
12541SOL     OW49276   7.395   6.250   5.986  1.0153 -0.5761  0.0051
12541SOL    HW149277   7.410   6.339   6.030 -2.3334  0.4449 -0.7145
12541SOL    HW249278   7.435   6.251   5.894  1.4517  0.0251  0.2002
12542SOL     OW49279   7.902   8.141   6.142 -0.2186 -0.5910  0.7501
12542SOL    HW149280   7.879   8.081   6.066 -1.6786  0.4723  0.3208
12542SOL    HW249281   7.990   8.185   6.124 -0.4999 -0.4387 -0.2795
12543SOL     OW49282   3.857   4.448   4.341  0.0327  0.8254 -0.6286
12543SOL    HW149283   3.895   4.485   4.425 -0.7472  0.5175 -0.1343
12543SOL    HW249284   3.920   4.379   4.304 -0.6379 -0.6383  0.8919
12544SOL     OW49285   7.603   2.807   7.737 -0.0678 -0.0330  0.0021
12544SOL    HW149286   7.669   2.811   7.662 -0.4045  3.5583 -0.2017
12544SOL    HW249287   7.510   2.798   7.700  0.0065 -1.2512  0.1157
12545SOL     OW49288   0.395   7.406   0.746  0.4574 -0.3489 -0.6739
12545SOL    HW149289   0.390   7.501   0.715  0.9436 -0.7658 -2.0656
12545SOL    HW249290   0.490   7.383   0.767  0.3602 -0.5751 -0.4822
12546SOL     OW49291   1.444   9.004   6.602  0.1337  0.6743  0.6523
12546SOL    HW149292   1.543   8.998   6.620  0.2990  2.3498  0.3477
12546SOL    HW249293   1.396   8.940   6.663  1.3262  0.5448  1.4939
12547SOL     OW49294   1.958   3.957   5.490 -0.1383 -0.1143  0.9797
12547SOL    HW149295   1.998   3.945   5.400  0.9512 -0.1943  1.4692
12547SOL    HW249296   1.886   4.026   5.486  0.6307  0.6518  0.2679
12548SOL     OW49297   6.250   9.885   5.962  0.5589  0.1530 -0.2272
12548SOL    HW149298   6.319   9.831   6.010 -0.7117 -0.7129  0.6525
12548SOL    HW249299   6.202   9.828   5.895 -0.3283  0.3446  0.2341
12549SOL     OW49300   8.764   5.692   2.012  0.1990  0.7530 -0.1909
12549SOL    HW149301   8.819   5.776   2.017  0.7746  0.4743 -1.6967
12549SOL    HW249302   8.727   5.672   2.103  1.0600  1.9620  0.4509
12550SOL     OW49303   9.529   7.362   6.654  0.3242  0.5167 -0.2406
12550SOL    HW149304   9.502   7.456   6.634 -2.2198 -0.4300 -1.4737
12550SOL    HW249305   9.458   7.317   6.708  0.9223 -1.0807 -0.7412
12551SOL     OW49306   2.536   6.380   2.283  0.3414  0.1336 -0.0579
12551SOL    HW149307   2.592   6.299   2.266  0.2153  0.1695 -0.6582
12551SOL    HW249308   2.584   6.442   2.345  0.0404 -0.8285  1.1559
12552SOL     OW49309   2.458   1.317   1.970 -0.1050  0.2288 -0.3397
12552SOL    HW149310   2.440   1.414   1.989  0.0866  0.0480  0.8494
12552SOL    HW249311   2.476   1.304   1.873 -1.1660  1.2249 -0.6764
12553SOL     OW49312   1.189   8.510   3.189  0.4965 -0.0756 -1.0232
12553SOL    HW149313   1.217   8.588   3.245  0.6659 -1.0062  0.2234
12553SOL    HW249314   1.242   8.508   3.104  0.8137  0.8938 -0.8484
12554SOL     OW49315   3.160   7.203   0.333  0.6056  0.5429  0.2163
12554SOL    HW149316   3.095   7.220   0.407  0.5694 -0.0798  0.3267
12554SOL    HW249317   3.241   7.158   0.369 -0.2479 -1.5610 -0.4243
12555SOL     OW49318   3.708   1.537   7.987 -0.0621 -0.6085 -0.2113
12555SOL    HW149319   3.718   1.631   7.954 -2.1615  0.3087  1.6443
12555SOL    HW249320   3.725   1.473   7.912  2.2599  1.1927 -1.2893
12556SOL     OW49321   9.727   1.270   6.749 -0.5214  0.3389  0.1994
12556SOL    HW149322   9.646   1.213   6.751  0.3434 -1.2443 -3.7390
12556SOL    HW249323   9.809   1.212   6.755  0.3367  1.5436  0.2961
12557SOL     OW49324   1.592   0.719   2.283 -0.0565 -0.2417 -0.0521
12557SOL    HW149325   1.582   0.814   2.256 -0.3643 -0.6078 -1.2496
12557SOL    HW249326   1.531   0.699   2.360 -0.0814  0.4989  0.1161
12558SOL     OW49327   4.218   4.138   5.876  0.8721 -0.0029 -0.4078
12558SOL    HW149328   4.315   4.129   5.857  0.6028 -2.0563 -0.8509
12558SOL    HW249329   4.170   4.054   5.851 -1.2151  1.4283 -1.3904
12559SOL     OW49330   8.812   7.052   7.559  0.3452 -0.1973 -0.8171
12559SOL    HW149331   8.713   7.055   7.570  0.4699 -0.3508  0.4837
12559SOL    HW249332   8.844   6.958   7.576  0.8187  0.0814 -0.1434
12560SOL     OW49333   1.638   5.330   0.858  0.2252 -0.0624 -0.3079
12560SOL    HW149334   1.552   5.380   0.853  0.7283  0.8454 -0.0690
12560SOL    HW249335   1.621   5.232   0.844 -0.7609  0.1778 -0.8618
12561SOL     OW49336   3.688   4.628   4.310  0.4836 -0.0084  0.2238
12561SOL    HW149337   3.624   4.583   4.248  0.7498  0.4712 -0.4018
12561SOL    HW249338   3.759   4.563   4.337  1.7764  0.4325 -1.9348
12562SOL     OW49339   8.632   8.916   8.066 -0.3629 -0.0773  0.2607
12562SOL    HW149340   8.725   8.922   8.028 -0.2939 -1.0496  0.2471
12562SOL    HW249341   8.566   8.942   7.996 -0.0335  2.3721  0.8056
12563SOL     OW49342   1.041   6.290   0.888 -0.2393  0.4862  0.7492
12563SOL    HW149343   0.997   6.327   0.970  0.5724  3.7484 -0.2038
12563SOL    HW249344   1.139   6.305   0.894  0.0980 -1.4479  0.2364
12564SOL     OW49345   6.928   3.082   5.212 -0.3722 -0.1299  0.5421
12564SOL    HW149346   6.850   3.119   5.261 -0.3305  0.0415  0.4781
12564SOL    HW249347   6.938   2.985   5.233 -0.4156 -0.0787  0.7906
12565SOL     OW49348   3.747   1.735   6.888 -0.1117  0.4374 -0.0063
12565SOL    HW149349   3.765   1.671   6.814  1.8410  1.1844 -0.2175
12565SOL    HW249350   3.677   1.801   6.859  1.0062  1.0359 -1.4024
12566SOL     OW49351   4.459   4.350   4.094  0.1099  0.1989  0.2714
12566SOL    HW149352   4.460   4.280   4.022  0.3846 -1.3914  1.7872
12566SOL    HW249353   4.464   4.441   4.052 -1.5454 -0.6192 -1.8014
12567SOL     OW49354   0.657   4.671   3.635 -0.0382  0.0525  0.4166
12567SOL    HW149355   0.604   4.742   3.680  0.9224  0.2254  1.2937
12567SOL    HW249356   0.734   4.713   3.586 -0.0336 -0.2987  0.1158
12568SOL     OW49357   9.703   3.718   3.248  0.1565 -0.1518 -0.9406
12568SOL    HW149358   9.800   3.737   3.267 -0.4673  0.1246  2.3214
12568SOL    HW249359   9.653   3.804   3.243 -0.6213 -0.3642  1.8961
12569SOL     OW49360   2.149   4.320   5.730 -0.1798 -0.4968  0.3305
12569SOL    HW149361   2.081   4.392   5.719 -0.2709 -0.4961  0.8752
12569SOL    HW249362   2.171   4.280   5.641 -0.4285 -0.0719  0.0802
12570SOL     OW49363   2.041   0.311   4.723  0.2961  0.3025  0.1516
12570SOL    HW149364   2.070   0.347   4.635  0.3562  1.2033  0.5225
12570SOL    HW249365   2.069   0.216   4.732 -0.1255  0.0720 -0.9855
12571SOL     OW49366   6.494   1.003   3.263 -0.2130  0.2296  0.5742
12571SOL    HW149367   6.456   1.000   3.170  1.3544  0.5048 -0.0845
12571SOL    HW249368   6.466   1.088   3.308  0.8060  1.1061 -0.4282
12572SOL     OW49369   2.632   1.363   4.020 -0.8476  0.4161 -0.0821
12572SOL    HW149370   2.635   1.268   4.052 -3.3134 -0.3399 -1.9209
12572SOL    HW249371   2.663   1.424   4.093 -0.0363 -1.7287  1.4116
12573SOL     OW49372   8.438   4.095   2.435 -0.1384 -0.8109  0.5684
12573SOL    HW149373   8.415   4.005   2.399 -1.2752 -1.1015  1.9810
12573SOL    HW249374   8.474   4.086   2.528  2.2838 -0.0174 -0.2428
12574SOL     OW49375   3.524   8.502   5.061 -0.4286 -0.0269  0.1650
12574SOL    HW149376   3.572   8.588   5.047 -0.0506  0.1718  2.5073
12574SOL    HW249377   3.430   8.510   5.029 -0.0253  0.8296 -0.8211
12575SOL     OW49378   8.701   7.121   6.271  0.5758  0.1606  0.0932
12575SOL    HW149379   8.697   7.052   6.198 -0.7266  0.4223 -0.1009
12575SOL    HW249380   8.748   7.083   6.351  2.0816 -0.1099 -0.8957
12576SOL     OW49381   5.145   0.990   1.692 -0.4278  0.0821  0.3508
12576SOL    HW149382   5.224   1.030   1.647 -0.0881 -0.7953  0.1572
12576SOL    HW249383   5.167   0.972   1.788 -0.2972 -0.4149  0.2294
12577SOL     OW49384   4.463   2.155   5.913 -0.0704 -0.4555 -0.1037
12577SOL    HW149385   4.498   2.111   5.995 -0.6438  1.3137  1.1121
12577SOL    HW249386   4.363   2.157   5.916 -0.0470  1.3668  0.1276
12578SOL     OW49387   2.676   6.300   7.406 -0.2483  0.0415 -0.0126
12578SOL    HW149388   2.748   6.246   7.450 -0.8986 -1.2291 -0.4889
12578SOL    HW249389   2.588   6.281   7.450 -0.2883  1.7268  0.6874
12579SOL     OW49390   0.615   6.679   1.180  0.2427 -0.0885 -0.4951
12579SOL    HW149391   0.596   6.617   1.257 -2.0369 -1.2869 -1.9853
12579SOL    HW249392   0.530   6.717   1.145  1.3807  1.5685 -1.5387
12580SOL     OW49393   9.750   8.260   5.710  0.5366 -0.0469 -0.0646
12580SOL    HW149394   9.810   8.193   5.754 -0.6210 -1.4423 -0.5763
12580SOL    HW249395   9.789   8.286   5.622  0.6967 -0.4970 -0.1281
12581SOL     OW49396   1.724   2.087   3.750 -1.0448 -0.2065 -0.5960
12581SOL    HW149397   1.723   2.102   3.849  0.4830  1.0673 -0.7612
12581SOL    HW249398   1.632   2.064   3.719 -1.7048  0.2638  0.9859
12582SOL     OW49399   2.758   8.266   1.944 -0.6067 -0.5498  0.3250
12582SOL    HW149400   2.829   8.237   2.008 -0.5113 -2.9356 -0.7946
12582SOL    HW249401   2.681   8.304   1.995  1.5260  2.3498  1.5533
12583SOL     OW49402   1.248   9.083   7.330  0.4067  0.0546 -0.1400
12583SOL    HW149403   1.246   9.182   7.320  0.9741  0.1720  0.8959
12583SOL    HW249404   1.157   9.045   7.310  0.5335  0.6410 -1.9106
12584SOL     OW49405   2.496   2.171   2.316  0.1306  0.1395 -0.2692
12584SOL    HW149406   2.581   2.184   2.266 -0.5825  1.0919 -1.2584
12584SOL    HW249407   2.491   2.076   2.349  2.7171  0.7070  1.9957
12585SOL     OW49408   7.133   1.074   4.246 -0.7883  0.4803  0.3706
12585SOL    HW149409   7.167   1.168   4.240  2.6467 -0.7158 -0.1309
12585SOL    HW249410   7.149   1.038   4.338  2.7417 -1.2434 -0.8031
12586SOL     OW49411   4.006   9.462   3.031 -0.7633  0.2128  0.3200
12586SOL    HW149412   3.965   9.496   2.946  0.7878 -0.4381 -0.7259
12586SOL    HW249413   4.090   9.514   3.049  0.3206 -1.4075  0.0253
12587SOL     OW49414   7.849   6.028   8.056 -0.1295 -0.2610  0.1329
12587SOL    HW149415   7.840   5.941   8.008  0.2510 -0.3424  0.2122
12587SOL    HW249416   7.790   6.027   8.137  0.5750 -0.8031  0.6476
12588SOL     OW49417   1.087   0.802   1.778  0.3670 -0.3744 -0.3927
12588SOL    HW149418   0.989   0.812   1.761  0.2415 -0.0104  0.5568
12588SOL    HW249419   1.107   0.706   1.800 -0.0498 -0.0996  1.2040
12589SOL     OW49420   4.780   9.477   5.993 -0.1508 -0.3995  0.1896
12589SOL    HW149421   4.737   9.388   5.972  0.6891 -1.8479  4.1790
12589SOL    HW249422   4.878   9.471   5.975  0.0964 -0.6999  1.5773
12590SOL     OW49423   0.840   9.780   2.825 -0.6784 -0.1549 -0.1737
12590SOL    HW149424   0.921   9.800   2.880 -1.0639  1.5233 -0.2168
12590SOL    HW249425   0.801   9.693   2.855  1.2155 -1.0648 -0.2545
12591SOL     OW49426   2.463   9.281   6.532 -0.5319 -0.2576  0.4523
12591SOL    HW149427   2.428   9.350   6.468  2.5236  0.8629 -0.1385
12591SOL    HW249428   2.451   9.190   6.493 -0.5780  0.2766 -0.7993
12592SOL     OW49429   6.995   0.879   2.405 -0.2536 -0.7484  0.2270
12592SOL    HW149430   6.968   0.874   2.501  0.1961  0.0130  0.4038
12592SOL    HW249431   7.087   0.919   2.399 -0.8423  0.5143 -0.5973
12593SOL     OW49432   7.838   2.246   1.162 -0.1813 -0.4289  0.7500
12593SOL    HW149433   7.806   2.341   1.163  1.1638  0.0491  0.1284
12593SOL    HW249434   7.878   2.224   1.251 -0.4390 -0.3969  0.8751
12594SOL     OW49435   5.599   1.475   1.479 -0.2326  0.3208  0.2081
12594SOL    HW149436   5.515   1.515   1.516 -1.2822 -0.2951 -1.4241
12594SOL    HW249437   5.577   1.388   1.433  1.6027 -0.8511  1.4577
12595SOL     OW49438   4.307   9.410   1.732 -0.3759 -0.3115  0.4101
12595SOL    HW149439   4.363   9.490   1.710 -3.7510  1.8524 -0.7774
12595SOL    HW249440   4.255   9.428   1.816  1.0149 -2.4677  1.7711
12596SOL     OW49441   7.489   0.234   2.109 -0.3222  0.0210  0.0856
12596SOL    HW149442   7.465   0.249   2.013  2.2931  0.0230 -0.6120
12596SOL    HW249443   7.444   0.304   2.166 -1.4427  0.3568 -1.1905
12597SOL     OW49444   9.679   4.506   2.288  0.1533 -0.1361 -0.1648
12597SOL    HW149445   9.599   4.449   2.268  0.0441  0.4846 -1.5427
12597SOL    HW249446   9.762   4.455   2.265  0.0974 -0.1490 -0.3388
12598SOL     OW49447   8.433   8.123   0.840 -0.0254 -0.6178 -0.0181
12598SOL    HW149448   8.488   8.202   0.812  0.9990 -0.6539  1.8516
12598SOL    HW249449   8.371   8.150   0.913 -0.2423 -1.3664  0.0810
12599SOL     OW49450   3.514   2.271   5.807 -0.0154  0.1344 -0.0573
12599SOL    HW149451   3.478   2.236   5.893  0.7309 -1.4974 -0.3878
12599SOL    HW249452   3.540   2.367   5.818 -1.1512  0.3067  1.1542
12600SOL     OW49453   1.852   2.677   0.911 -0.0239 -0.5348 -0.0240
12600SOL    HW149454   1.757   2.674   0.941 -0.2914 -1.1481 -0.8952
12600SOL    HW249455   1.873   2.769   0.876 -0.7835 -0.8339 -1.3215
12601SOL     OW49456   8.133   8.327   3.865  0.6640 -0.2618  0.1261
12601SOL    HW149457   8.112   8.303   3.960  0.0846 -1.3311 -0.2691
12601SOL    HW249458   8.195   8.258   3.826 -1.8991 -1.7988 -1.3700
12602SOL     OW49459   4.035   5.447   7.425  0.3323 -0.7611 -0.3240
12602SOL    HW149460   4.053   5.349   7.426  3.1239 -0.3025 -1.1348
12602SOL    HW249461   4.022   5.478   7.331 -2.4177 -0.6446  0.0693
12603SOL     OW49462   6.671   0.795   6.701 -0.2180  0.3941 -0.0391
12603SOL    HW149463   6.580   0.755   6.702 -0.1397  0.1770 -1.1103
12603SOL    HW249464   6.735   0.731   6.659  0.4059  0.5956  0.5897
12604SOL     OW49465   3.465   4.873   5.765 -0.2790  0.1772  0.2379
12604SOL    HW149466   3.563   4.890   5.751 -0.1962  0.5822  1.3178
12604SOL    HW249467   3.443   4.882   5.861 -2.0441  3.5201 -0.4282
12605SOL     OW49468   7.894   2.325   1.860  0.0637 -0.4390  0.4239
12605SOL    HW149469   7.799   2.302   1.884 -0.1835  0.7634  0.6428
12605SOL    HW249470   7.924   2.267   1.785 -1.7958  1.0019 -1.4832
12606SOL     OW49471   0.838   4.370   2.103 -0.1003  0.7280 -0.6176
12606SOL    HW149472   0.774   4.294   2.106 -1.4387  1.8162 -0.8800
12606SOL    HW249473   0.891   4.373   2.188  0.9254 -1.2687 -1.1443
12607SOL     OW49474   1.695   7.754   1.421  0.2229  0.9305 -0.1724
12607SOL    HW149475   1.607   7.802   1.423 -0.4383 -0.2358 -1.0261
12607SOL    HW249476   1.761   7.804   1.477 -0.9833  1.8158  0.4817
12608SOL     OW49477   0.882   8.699   5.652  0.1051  0.1304 -0.0295
12608SOL    HW149478   0.831   8.753   5.719 -0.2485 -0.2434  0.0039
12608SOL    HW249479   0.975   8.683   5.686 -0.0326  0.0491  0.3107
12609SOL     OW49480   4.601   7.734   3.282  0.0989  0.1366  0.0550
12609SOL    HW149481   4.672   7.663   3.280  1.6430  1.6151  0.7514
12609SOL    HW249482   4.530   7.712   3.215  0.7411 -1.8560 -0.0122
12610SOL     OW49483   4.412   2.160   7.757 -0.1416 -0.0176 -0.2652
12610SOL    HW149484   4.415   2.060   7.766 -0.7628 -0.1299 -1.2603
12610SOL    HW249485   4.394   2.184   7.662 -4.4062  0.9642  0.6865
12611SOL     OW49486   1.719   3.909   0.858  0.4329 -0.0229  0.0454
12611SOL    HW149487   1.660   3.900   0.777  1.5438 -1.5765 -0.6270
12611SOL    HW249488   1.814   3.893   0.831  0.7658 -0.9562  1.7248
12612SOL     OW49489   1.834   3.057   5.761  0.3085 -0.3264  0.3566
12612SOL    HW149490   1.902   3.052   5.688  0.4861  0.4158  0.4675
12612SOL    HW249491   1.756   2.998   5.738  0.7194 -0.7185 -0.0494
12613SOL     OW49492   2.220   5.108   2.846 -0.3717  0.1682  0.5059
12613SOL    HW149493   2.304   5.160   2.861 -0.7953  1.2674 -0.8073
12613SOL    HW249494   2.240   5.010   2.851  1.4285  0.3624 -1.8768
12614SOL     OW49495   5.620   1.274   8.075  0.6691  0.2729  0.5112
12614SOL    HW149496   5.586   1.326   8.154  1.5661  2.3687 -0.4232
12614SOL    HW249497   5.711   1.239   8.095  0.8289  0.6614  0.4684
12615SOL     OW49498   8.684   2.760   0.925 -0.6926 -0.1325 -0.1423
12615SOL    HW149499   8.744   2.755   1.005  0.7715 -0.0744 -1.2109
12615SOL    HW249500   8.715   2.695   0.856 -3.1320 -1.6101  0.0909
12616SOL     OW49501   8.769   2.524   7.538 -0.0698  0.1364  0.2764
12616SOL    HW149502   8.774   2.565   7.629 -1.2736  1.5737 -0.2930
12616SOL    HW249503   8.833   2.571   7.477  0.6988 -0.7929  0.3434
12617SOL     OW49504   3.170   7.868   2.183  0.0135 -0.2509 -0.1446
12617SOL    HW149505   3.086   7.830   2.222 -0.2333  0.2429 -0.1809
12617SOL    HW249506   3.242   7.867   2.252 -0.2128 -0.0667  0.0988
12618SOL     OW49507   3.413   0.436   6.715 -0.0099  0.5194 -0.6384
12618SOL    HW149508   3.369   0.488   6.788  1.8452  2.2253 -0.6726
12618SOL    HW249509   3.364   0.350   6.701 -0.9944  0.6086  1.9132
12619SOL     OW49510   9.875   4.137   7.459 -0.3047 -0.2883 -0.3136
12619SOL    HW149511   9.847   4.111   7.551  0.8031  0.1643  0.1644
12619SOL    HW249512   9.955   4.084   7.432 -0.0302  0.2815 -0.6261
12620SOL     OW49513   3.072   6.942   4.220  0.3334  0.3785 -0.2505
12620SOL    HW149514   3.125   6.950   4.304 -1.0222  1.3454  0.5270
12620SOL    HW249515   3.068   6.846   4.192 -1.6367 -0.3507  2.3947
12621SOL     OW49516   2.008   3.369   6.001 -0.0686  0.2926  0.1191
12621SOL    HW149517   2.024   3.423   5.918 -0.3334  1.0137  0.5267
12621SOL    HW249518   2.088   3.313   6.021  0.0990  0.3138 -0.4732
12622SOL     OW49519   8.421   9.084   5.138  0.7847 -0.1500  0.0535
12622SOL    HW149520   8.424   9.022   5.059  1.3943 -1.1998  0.8863
12622SOL    HW249521   8.422   9.178   5.106 -0.7464 -0.5533 -1.2657
12623SOL     OW49522   9.967   7.845   5.066 -0.5675  0.1215  0.1820
12623SOL    HW149523   9.933   7.930   5.106  2.1513  1.0618  0.6378
12623SOL    HW249524   9.898   7.773   5.074 -2.4094  1.9549  0.9515
12624SOL     OW49525   2.524   1.908   2.426 -0.1228 -0.0614  0.3784
12624SOL    HW149526   2.616   1.873   2.439 -1.1950 -2.9942  0.5053
12624SOL    HW249527   2.462   1.865   2.492 -2.3722 -1.5384 -2.5575
12625SOL     OW49528   2.289   4.961   1.399 -0.2734  0.6094  0.2223
12625SOL    HW149529   2.278   4.887   1.467 -3.2491 -1.4549 -2.3633
12625SOL    HW249530   2.263   5.048   1.441  1.9185  0.0623  2.9139
12626SOL     OW49531   4.036   6.538   1.808  0.2252  0.1026 -0.2501
12626SOL    HW149532   4.001   6.627   1.778 -0.4766  0.1799  0.7879
12626SOL    HW249533   3.962   6.471   1.810  0.1105  0.2755  1.9813
12627SOL     OW49534   2.524   7.821   2.907  0.2065 -0.5806 -0.4084
12627SOL    HW149535   2.577   7.745   2.945  1.5374  0.1777 -0.7140
12627SOL    HW249536   2.487   7.876   2.982  1.4333 -0.0355 -0.1953
12628SOL     OW49537   0.151   4.626   3.455  0.0219 -0.4468 -0.4973
12628SOL    HW149538   0.129   4.586   3.544 -1.8115 -2.0495 -1.6222
12628SOL    HW249539   0.243   4.599   3.428  0.2697 -0.6422  0.5114
12629SOL     OW49540   7.562   6.390   3.404  0.1796  0.4195 -0.8194
12629SOL    HW149541   7.662   6.393   3.404  0.2674 -1.5762  0.0177
12629SOL    HW249542   7.529   6.362   3.494 -1.0353 -0.8785 -1.6459
12630SOL     OW49543   2.660   0.392   5.778 -0.1521 -0.6961 -0.0876
12630SOL    HW149544   2.709   0.374   5.863  0.5847 -0.0552 -0.3689
12630SOL    HW249545   2.697   0.475   5.736 -1.8417  0.1011 -0.0324
12631SOL     OW49546   3.068   0.004   6.661 -0.4833 -0.0107 -0.7339
12631SOL    HW149547   2.988  -0.016   6.604 -1.5119  2.9202 -0.3617
12631SOL    HW249548   3.039   0.019   6.755  0.7725 -0.8725 -0.1875
12632SOL     OW49549   2.086   2.259   3.299 -0.7449 -0.5222  0.0855
12632SOL    HW149550   2.092   2.185   3.367 -2.8736 -1.2539 -0.5016
12632SOL    HW249551   2.152   2.242   3.226  0.9460 -0.1914  1.4794
12633SOL     OW49552   5.302   8.445   2.759 -0.1977  0.2063 -0.8050
12633SOL    HW149553   5.353   8.531   2.768 -0.4994  0.3101 -0.0193
12633SOL    HW249554   5.363   8.374   2.725  0.0512  0.7369 -1.4726
12634SOL     OW49555   8.105   3.199   5.476 -0.0938 -0.7847  0.0834
12634SOL    HW149556   8.038   3.253   5.526 -0.5489  0.1087 -1.4936
12634SOL    HW249557   8.190   3.195   5.529  0.8106  3.5536 -0.8809
12635SOL     OW49558   7.952   7.754   3.582  0.2123  0.2169  0.9502
12635SOL    HW149559   8.045   7.745   3.618  0.8050 -2.6371 -1.1251
12635SOL    HW249560   7.954   7.815   3.503 -0.1387  2.1031  2.3672
12636SOL     OW49561   3.773   3.364   3.065  0.1293 -0.4893 -0.2694
12636SOL    HW149562   3.765   3.454   3.107 -0.0146 -0.8362  0.4456
12636SOL    HW249563   3.869   3.349   3.038 -0.1337  0.5111 -1.8296
12637SOL     OW49564   8.126   9.446   5.353  0.1356 -0.0946  0.1269
12637SOL    HW149565   8.108   9.487   5.442 -0.4922  0.6741 -0.3418
12637SOL    HW249566   8.164   9.515   5.292 -0.8811 -0.2051 -0.6539
12638SOL     OW49567   8.226   4.135   6.988  0.0211  0.1837  0.0048
12638SOL    HW149568   8.182   4.046   6.982 -0.6930  0.5377 -0.1137
12638SOL    HW249569   8.315   4.126   7.031  0.3817 -0.7357 -0.9260
12639SOL     OW49570   2.094   6.291   5.015 -0.0715  0.5384 -0.3099
12639SOL    HW149571   2.129   6.310   5.107 -0.9948 -0.9796  0.3656
12639SOL    HW249572   2.159   6.234   4.965  0.7188  1.8734 -0.8386
12640SOL     OW49573   3.885   9.611   7.798 -0.2949 -0.5966  0.5308
12640SOL    HW149574   3.848   9.532   7.749 -0.9756 -0.3369  0.6206
12640SOL    HW249575   3.846   9.695   7.761 -0.5175 -0.3776  1.2496
12641SOL     OW49576   5.368   1.210   2.155  0.3139 -0.0609  0.7336
12641SOL    HW149577   5.280   1.241   2.120  0.6002 -1.1776 -1.0260
12641SOL    HW249578   5.442   1.247   2.098  0.8929 -0.3427  1.2920
12642SOL     OW49579   7.285   8.716   5.099  0.1073  0.3724 -0.4254
12642SOL    HW149580   7.317   8.805   5.068 -3.3320  1.8207 -0.0373
12642SOL    HW249581   7.270   8.656   5.020  1.7811  0.3179 -0.7272
12643SOL     OW49582   9.103   3.330   4.996  0.7303  0.2499 -0.2972
12643SOL    HW149583   9.165   3.388   4.943  0.1901 -0.7101 -1.9807
12643SOL    HW249584   9.012   3.370   4.997  0.5296 -0.1974 -0.8419
12644SOL     OW49585   9.871   1.613   8.025  0.1297  0.1086  0.1868
12644SOL    HW149586   9.788   1.567   8.055  0.5721 -1.1801 -0.4944
12644SOL    HW249587   9.947   1.587   8.085  0.7505 -1.4739 -1.2297
12645SOL     OW49588   0.599   4.935   4.708 -0.1489  0.1221 -0.2667
12645SOL    HW149589   0.641   4.844   4.704 -1.5070 -0.5526  0.5380
12645SOL    HW249590   0.584   4.961   4.803 -0.8907  0.6783 -0.5329
12646SOL     OW49591   8.578   1.390   7.298 -0.4399  0.4545  0.4102
12646SOL    HW149592   8.615   1.479   7.272 -1.6194  0.9086  0.2312
12646SOL    HW249593   8.483   1.402   7.328 -0.0479 -0.4871  2.0944
12647SOL     OW49594   3.580   2.591   2.382 -0.0951  0.1960  0.3052
12647SOL    HW149595   3.557   2.539   2.464 -1.1075 -0.5158 -0.4232
12647SOL    HW249596   3.612   2.528   2.311  0.9820  0.8332  0.2134
12648SOL     OW49597   3.332   1.980   7.131  0.1428 -0.2581 -0.0846
12648SOL    HW149598   3.350   2.068   7.086  0.3543  1.0658  2.5035
12648SOL    HW249599   3.237   1.955   7.117 -0.1289  0.7884 -0.1801
12649SOL     OW49600   8.207   2.089   1.944 -0.1020  0.5580  0.4815
12649SOL    HW149601   8.238   2.166   1.887  1.1210 -0.5761 -0.4353
12649SOL    HW249602   8.279   2.019   1.946 -1.1279 -0.4777  1.4639
12650SOL     OW49603   6.612   2.638   0.320 -0.3852 -0.6006  0.6369
12650SOL    HW149604   6.690   2.688   0.359 -0.1252 -0.8102  0.3864
12650SOL    HW249605   6.644   2.582   0.244 -0.9809  0.1907 -0.2104
12651SOL     OW49606   0.992   2.794   5.903 -0.1629  0.3117  0.4782
12651SOL    HW149607   0.969   2.763   5.811 -2.3502  2.0937  0.3783
12651SOL    HW249608   0.923   2.760   5.968 -1.5081  3.1920  0.6462
12652SOL     OW49609   7.398   6.619   3.339 -0.1346  0.4782  0.3562
12652SOL    HW149610   7.358   6.632   3.248 -1.3449  0.8408  0.9234
12652SOL    HW249611   7.447   6.532   3.341 -0.9731 -0.0334 -0.3515
12653SOL     OW49612   4.031   4.692   3.807 -0.8683  0.0477  0.5252
12653SOL    HW149613   4.066   4.736   3.889 -0.4557  0.8793 -0.0847
12653SOL    HW249614   4.024   4.760   3.733 -1.4156 -0.6427 -0.0693
12654SOL     OW49615   4.475   2.462   4.274 -0.3830  0.0836  0.0488
12654SOL    HW149616   4.499   2.503   4.186 -1.4092  0.2568 -0.1607
12654SOL    HW249617   4.459   2.534   4.341  0.1083 -0.0413  0.3025
12655SOL     OW49618   2.014   6.452   5.668 -0.4315 -0.3323 -0.0120
12655SOL    HW149619   1.923   6.428   5.703 -0.0819  2.3512  2.8924
12655SOL    HW249620   2.011   6.542   5.625  0.8107 -0.3681 -0.1954
12656SOL     OW49621   6.191   7.593   6.573 -0.0932  0.3131 -0.0377
12656SOL    HW149622   6.128   7.583   6.497  0.9204  1.8758 -1.1134
12656SOL    HW249623   6.177   7.681   6.617 -0.5681 -0.5146  1.5056
12657SOL     OW49624   0.108   9.753   4.247 -0.2669 -0.6834 -0.1594
12657SOL    HW149625   0.075   9.828   4.189 -0.9480  0.7048  1.9603
12657SOL    HW249626   0.088   9.666   4.203  0.1282  0.3551 -2.4621
12658SOL     OW49627   9.927   3.434   7.734 -0.3022  0.7592 -0.1277
12658SOL    HW149628   9.957   3.339   7.745  1.1911  1.2598  0.2583
12658SOL    HW249629   9.951   3.467   7.643 -1.0295  0.6939 -0.3445
12659SOL     OW49630   3.700   4.761   3.552  0.1301 -0.1684 -0.1887
12659SOL    HW149631   3.783   4.719   3.517  0.7602 -0.1831  1.3041
12659SOL    HW249632   3.629   4.691   3.564 -0.7265  0.1093 -3.1675
12660SOL     OW49633   3.290   1.915   5.025 -0.3324 -0.1107 -0.3747
12660SOL    HW149634   3.262   1.840   5.085  1.7089 -0.2762  0.3918
12660SOL    HW249635   3.228   1.918   4.946 -0.4205 -2.6645 -0.4654
12661SOL     OW49636   0.113   6.327   1.453 -1.0579  0.3257  0.1771
12661SOL    HW149637   0.079   6.399   1.515  0.4506 -0.9465  2.5655
12661SOL    HW249638   0.167   6.368   1.380  0.1368  1.6181  1.7544
12662SOL     OW49639   6.174   8.083   6.892 -0.6573  0.2192 -0.0148
12662SOL    HW149640   6.094   8.055   6.839 -1.2971  0.9094  0.5772
12662SOL    HW249641   6.230   8.003   6.912 -0.0672  0.0402 -2.2812
12663SOL     OW49642   1.848   6.887   3.674 -0.1465 -0.0214 -0.1832
12663SOL    HW149643   1.840   6.969   3.731 -0.0074 -0.0735 -0.0891
12663SOL    HW249644   1.781   6.819   3.703  0.7647 -0.5410  0.7444
12664SOL     OW49645   8.868   3.131   2.190 -0.5755 -0.8760 -0.6580
12664SOL    HW149646   8.958   3.174   2.200 -0.2193 -0.7559 -3.6772
12664SOL    HW249647   8.804   3.172   2.255  0.6594  1.7002 -0.9726
12665SOL     OW49648   1.000   6.889   4.120  0.4877 -0.1425  0.1098
12665SOL    HW149649   1.050   6.888   4.033  0.3900 -0.3099  0.0557
12665SOL    HW249650   1.045   6.952   4.183  0.5601 -0.0197 -0.0623
12666SOL     OW49651   9.772   9.097   6.265 -0.1584 -0.1566 -0.3612
12666SOL    HW149652   9.693   9.134   6.314 -0.9800 -0.9612 -1.0440
12666SOL    HW249653   9.845   9.076   6.330 -0.1139  1.5443  0.1620
12667SOL     OW49654   0.803   7.520   2.612  0.0220 -0.6731  0.0403
12667SOL    HW149655   0.777   7.603   2.661  0.3046 -0.7643  0.3406
12667SOL    HW249656   0.729   7.494   2.550 -0.2450 -0.4420  0.2625
12668SOL     OW49657   4.163   1.305   0.089  0.6638  0.0926  0.1842
12668SOL    HW149658   4.123   1.377   0.033  1.6411  0.1700 -0.4250
12668SOL    HW249659   4.237   1.343   0.145 -0.6043  0.1157  1.8844
12669SOL     OW49660   3.082   6.975   0.597 -0.1053  0.3421 -0.4111
12669SOL    HW149661   3.096   6.933   0.507  1.3718 -1.6776  0.7194
12669SOL    HW249662   3.003   6.933   0.641  1.6888 -1.7102  0.9381
12670SOL     OW49663   8.226   3.833   7.206 -0.0549  0.3920  0.0244
12670SOL    HW149664   8.141   3.797   7.244 -0.4570  1.0944 -0.2035
12670SOL    HW249665   8.214   3.852   7.108  1.0117 -1.5357 -0.5225
12671SOL     OW49666   2.931   0.476   1.655  0.3600  0.4943 -0.1720
12671SOL    HW149667   2.834   0.493   1.638  0.0281 -0.1515  1.0315
12671SOL    HW249668   2.956   0.386   1.619 -0.2185 -0.6465  2.1990
12672SOL     OW49669   1.204   2.547   5.924 -0.2119  0.0069 -0.8287
12672SOL    HW149670   1.252   2.625   5.964 -0.6534  0.5317 -1.2955
12672SOL    HW249671   1.162   2.575   5.838  0.1582 -0.9258 -1.3184
12673SOL     OW49672   4.434   8.959   2.078  0.1632  0.4456  0.2386
12673SOL    HW149673   4.510   8.895   2.092  0.1697  0.4426  0.1893
12673SOL    HW249674   4.392   8.943   1.989  0.2112  0.5583  0.1952
12674SOL     OW49675   2.835   4.030   6.124  0.1006  0.5100 -0.2983
12674SOL    HW149676   2.865   3.968   6.197 -0.2380 -0.4552 -0.9686
12674SOL    HW249677   2.898   4.108   6.119  0.9252 -0.1177  0.1112
12675SOL     OW49678   9.083   9.504   4.307  0.2021 -0.1169 -0.4907
12675SOL    HW149679   9.039   9.555   4.234 -2.5367 -2.5859 -0.6559
12675SOL    HW249680   9.120   9.419   4.270 -2.1381 -1.8882  1.1033
12676SOL     OW49681   1.296   7.990   1.155  0.2901  0.4221 -0.6906
12676SOL    HW149682   1.214   7.945   1.120 -0.2122  0.5461  0.3365
12676SOL    HW249683   1.342   7.931   1.221  1.3846  0.0847 -1.7161
12677SOL     OW49684   8.919   5.949   3.840 -0.3899  0.3186  0.1939
12677SOL    HW149685   8.959   5.980   3.754  0.3913 -0.7902  0.1418
12677SOL    HW249686   8.989   5.946   3.910 -1.4478  3.2008  1.4375
12678SOL     OW49687   0.121   0.055   6.292  0.1521  0.3591  0.0850
12678SOL    HW149688   0.091   0.080   6.384  1.3046  0.7014  0.3719
12678SOL    HW249689   0.209   0.097   6.273  1.4484 -2.2815  0.0467
12679SOL     OW49690   4.376   4.768   1.372  1.0364 -0.0534  0.3296
12679SOL    HW149691   4.355   4.846   1.431  1.3042  0.9101 -0.8455
12679SOL    HW249692   4.413   4.694   1.428  0.1965  0.4256  1.5400
12680SOL     OW49693   6.519   8.181   4.952  0.3688  0.2122 -0.0755
12680SOL    HW149694   6.467   8.103   4.987  2.3141 -1.0224  0.1457
12680SOL    HW249695   6.602   8.193   5.006  0.3658  2.1137 -0.4560
12681SOL     OW49696   1.597   5.370   2.631 -0.0652 -0.2724  0.2755
12681SOL    HW149697   1.507   5.405   2.658 -0.0638  0.1029 -0.2188
12681SOL    HW249698   1.602   5.363   2.532  1.3279  2.0791  0.1480
12682SOL     OW49699   0.481   8.075   8.105  0.0366  1.0770  0.1957
12682SOL    HW149700   0.391   8.114   8.090 -0.1986 -0.2093 -1.9899
12682SOL    HW249701   0.473   7.986   8.150  0.1718  0.7377 -0.4409
12683SOL     OW49702   6.890   1.239   4.135 -0.1118 -0.1257  0.2595
12683SOL    HW149703   6.936   1.151   4.147 -0.1768 -0.3342 -0.9805
12683SOL    HW249704   6.814   1.229   4.071  0.5623  1.0633 -0.7491
12684SOL     OW49705   3.044   5.870   3.403 -0.3390  0.8074 -0.1422
12684SOL    HW149706   2.984   5.859   3.482 -1.8774  0.2381 -1.3715
12684SOL    HW249707   3.080   5.963   3.401  2.3158 -0.0329  3.0184
12685SOL     OW49708   4.912   0.595   5.185 -0.6747  0.2266  0.1400
12685SOL    HW149709   4.944   0.598   5.090 -0.2609  0.1307  0.2733
12685SOL    HW249710   4.968   0.530   5.236 -1.2826 -0.1614  0.3088
12686SOL     OW49711   3.780   5.817   3.855  0.3463 -0.5714 -0.0810
12686SOL    HW149712   3.794   5.911   3.885  2.5328 -0.4981 -1.1587
12686SOL    HW249713   3.701   5.813   3.794 -0.5876  0.3051  1.0501
12687SOL     OW49714   1.726   6.200   5.550 -0.2920 -0.1992  0.2769
12687SOL    HW149715   1.824   6.190   5.531 -0.1397  0.7926  0.5308
12687SOL    HW249716   1.690   6.278   5.498 -0.6283  0.3424  1.3124
12688SOL     OW49717   9.918   5.534   3.427 -0.2341  0.0395  0.5232
12688SOL    HW149718   9.988   5.600   3.455 -0.6794  1.6833 -2.1227
12688SOL    HW249719   9.959   5.465   3.368 -1.0549  1.7288 -2.0693
12689SOL     OW49720   8.882   6.096   6.155 -0.3540 -0.0229  0.2770
12689SOL    HW149721   8.846   6.145   6.076 -2.6118 -0.7429  0.8157
12689SOL    HW249722   8.819   6.106   6.232 -0.7510 -3.4921  0.5022
12690SOL     OW49723   0.036   3.774   3.134  0.4977  0.5328 -0.3850
12690SOL    HW149724   0.088   3.843   3.184  0.8173 -0.2315  0.3313
12690SOL    HW249725   0.090   3.690   3.126 -0.2357  0.0627 -0.4889
12691SOL     OW49726   2.820   4.626   7.977 -0.1464  0.0094 -0.0242
12691SOL    HW149727   2.907   4.584   7.951 -0.0449 -0.2868  0.7925
12691SOL    HW249728   2.830   4.673   8.065 -0.6389  0.5406 -0.2444
12692SOL     OW49729   3.376   2.454   3.252  0.2369 -0.5883  0.9353
12692SOL    HW149730   3.454   2.508   3.283  0.1404 -0.5010  1.0268
12692SOL    HW249731   3.400   2.405   3.169 -0.3824  1.3702 -0.4559
12693SOL     OW49732   9.632   9.881   7.223 -0.2144  0.2944  0.3930
12693SOL    HW149733   9.595   9.960   7.174 -1.4500  0.8859  2.2322
12693SOL    HW249734   9.726   9.900   7.249 -0.5122  1.1946  0.8509
12694SOL     OW49735   0.071   3.088   7.526  0.1051  0.2655  0.2703
12694SOL    HW149736   0.148   3.040   7.570  1.0062  2.4097  1.0962
12694SOL    HW249737   0.090   3.186   7.525 -1.8116  0.6337 -1.2044
12695SOL     OW49738   4.627   9.034   7.446 -0.1722  0.8251 -0.5930
12695SOL    HW149739   4.614   9.131   7.466 -0.2072  0.8063 -0.5207
12695SOL    HW249740   4.718   9.006   7.479 -0.4658  0.6543  0.0713
12696SOL     OW49741   1.248   1.980   0.126 -0.1424  0.6032  0.0792
12696SOL    HW149742   1.250   2.068   0.174  1.8751 -0.9248  2.9832
12696SOL    HW249743   1.333   1.968   0.076 -0.0381 -0.0722  0.4174
12697SOL     OW49744   2.581   2.851   6.034 -0.0059  0.3661 -0.4812
12697SOL    HW149745   2.613   2.943   6.010 -0.4017  0.7285  0.3512
12697SOL    HW249746   2.627   2.784   5.976  3.1401  0.7673  1.4317
12698SOL     OW49747   9.114   1.455   6.357 -0.0584  0.1998  0.0700
12698SOL    HW149748   9.016   1.446   6.376  0.2656 -2.0350  0.7273
12698SOL    HW249749   9.133   1.426   6.263 -0.0713  1.1242 -0.2326
12699SOL     OW49750   2.085   7.759   3.695  0.5808  0.1037 -0.0351
12699SOL    HW149751   2.001   7.791   3.651  1.7809  1.7081 -1.2450
12699SOL    HW249752   2.068   7.672   3.741 -1.8000  0.5444 -0.0180
12700SOL     OW49753   2.906   7.329   7.798  0.5845  0.1792  0.2851
12700SOL    HW149754   2.907   7.244   7.746  0.8856 -0.1806  0.8794
12700SOL    HW249755   2.964   7.319   7.879 -0.8796  0.3362  1.3549
12701SOL     OW49756   2.562   6.352   2.704  0.1274 -0.1271 -0.1357
12701SOL    HW149757   2.507   6.366   2.786  0.4840 -0.5086  0.1701
12701SOL    HW249758   2.657   6.379   2.722  0.2603 -0.4469 -0.3396
12702SOL     OW49759   6.015   8.874   4.659  0.7283  0.3753  0.0730
12702SOL    HW149760   6.027   8.786   4.614  2.0012  0.9489 -0.7432
12702SOL    HW249761   5.992   8.943   4.591  2.4985  1.2105  0.2798
12703SOL     OW49762   1.868   0.472   7.954  0.4355 -0.3406 -0.6415
12703SOL    HW149763   1.839   0.454   8.048  0.0398 -0.0994 -0.7154
12703SOL    HW249764   1.810   0.543   7.914  0.8273 -0.1936 -0.9533
12704SOL     OW49765   8.037   2.162   2.255  0.5973 -0.1199  0.1171
12704SOL    HW149766   7.966   2.141   2.322 -0.5159 -1.2737 -1.3942
12704SOL    HW249767   8.020   2.252   2.215 -0.2889 -0.5928 -0.5788
12705SOL     OW49768   4.095   8.890   6.116  0.2842  0.0997  0.5714
12705SOL    HW149769   4.182   8.929   6.087 -0.2858  2.5662  2.0074
12705SOL    HW249770   4.078   8.913   6.212 -3.7458  3.0909 -0.7219
12706SOL     OW49771   0.877   0.328   4.091 -0.4314 -0.7912  0.3045
12706SOL    HW149772   0.816   0.396   4.131  0.3128  0.8588 -1.2859
12706SOL    HW249773   0.824   0.267   4.031 -0.9181 -0.9654  0.9022
12707SOL     OW49774   8.491   1.967   5.932 -0.2202 -0.3317 -0.6152
12707SOL    HW149775   8.498   1.868   5.917 -0.1851 -0.7132  1.7432
12707SOL    HW249776   8.396   1.996   5.924 -0.1049 -0.3855 -2.2540
12708SOL     OW49777   2.289   1.506   1.310 -0.6016  0.1194 -0.4298
12708SOL    HW149778   2.324   1.596   1.336 -0.4587 -0.2644  0.7166
12708SOL    HW249779   2.366   1.444   1.293 -0.6400 -0.9214  2.7663
12709SOL     OW49780   2.013   4.638   8.030 -0.3229 -0.3265  0.0071
12709SOL    HW149781   1.928   4.586   8.038 -0.3578 -0.2752 -0.0275
12709SOL    HW249782   2.082   4.599   8.091 -0.6790  0.2433  0.7874
12710SOL     OW49783   4.107   2.456   5.785  0.2988 -0.5321 -0.6497
12710SOL    HW149784   4.019   2.409   5.792  0.8712 -1.8068 -1.8354
12710SOL    HW249785   4.111   2.530   5.852 -2.4756  0.8725 -1.9654
12711SOL     OW49786   4.950   9.834   5.724  0.4120  0.2761  0.1737
12711SOL    HW149787   5.020   9.904   5.711 -0.3776  1.0600  0.1211
12711SOL    HW249788   4.860   9.872   5.703 -0.1965 -0.2943  1.7247
12712SOL     OW49789   8.472   5.420   4.875 -0.1402  0.0339 -0.1196
12712SOL    HW149790   8.436   5.389   4.962 -0.4267 -0.3148 -0.3627
12712SOL    HW249791   8.534   5.497   4.890 -2.6002  2.0269  0.1384
12713SOL     OW49792   9.509   1.477   0.469  0.2559  0.4064  0.7793
12713SOL    HW149793   9.467   1.566   0.452 -0.2074  0.4556  2.0741
12713SOL    HW249794   9.607   1.481   0.449 -0.1323  0.6292 -1.1092
12714SOL     OW49795   5.248   0.132   1.410  0.3064  0.2304  0.2636
12714SOL    HW149796   5.268   0.037   1.387 -0.3988 -0.6319  2.9387
12714SOL    HW249797   5.334   0.182   1.424  0.6694 -0.4804  0.5787
12715SOL     OW49798   8.533   4.200   1.818  0.5437  0.3245 -0.2213
12715SOL    HW149799   8.441   4.185   1.854  0.8062 -0.3169  0.1815
12715SOL    HW249800   8.596   4.135   1.859  1.7876  2.7270  1.8090
12716SOL     OW49801   1.867   3.693   5.459 -0.5831  0.5713  0.1058
12716SOL    HW149802   1.863   3.704   5.360 -2.0367  1.1151  0.2159
12716SOL    HW249803   1.896   3.779   5.501  0.2292  0.2838  0.1517
12717SOL     OW49804   5.841   4.433   1.083 -0.1592 -0.0829 -0.0316
12717SOL    HW149805   5.783   4.508   1.114  1.4393 -0.3716  3.8948
12717SOL    HW249806   5.792   4.346   1.096 -0.1840 -0.0709 -0.0460
12718SOL     OW49807   6.864   3.394   0.618  0.5073 -0.6317 -0.4021
12718SOL    HW149808   6.963   3.381   0.625  0.5100 -1.3735 -1.7690
12718SOL    HW249809   6.845   3.488   0.593  0.7820 -0.0012  1.6262
12719SOL     OW49810   1.506   2.541   0.241 -0.0970 -0.5002  0.1122
12719SOL    HW149811   1.571   2.491   0.299 -2.6227 -2.0499  1.7556
12719SOL    HW249812   1.421   2.557   0.293 -2.2595 -1.4516 -2.9768
12720SOL     OW49813   0.393   8.122   1.205 -0.0305  0.4863 -1.0439
12720SOL    HW149814   0.318   8.069   1.164 -0.1702 -0.6040  0.5701
12720SOL    HW249815   0.481   8.082   1.177 -0.1524 -1.9566  1.8071
12721SOL     OW49816   8.689   1.211   5.450 -0.0871  0.3419 -0.8490
12721SOL    HW149817   8.684   1.129   5.507  0.7571  1.4128  0.8277
12721SOL    HW249818   8.741   1.192   5.367  1.5707 -0.3991  0.3258
12722SOL     OW49819   4.486   1.209   1.914 -0.3237 -0.8508 -0.7223
12722SOL    HW149820   4.503   1.131   1.974  0.5226 -0.7326 -0.8021
12722SOL    HW249821   4.540   1.200   1.830  0.1974  0.0876 -0.4940
12723SOL     OW49822   5.071   3.010   5.144  0.0733  0.8886 -0.3159
12723SOL    HW149823   4.987   3.039   5.190  0.8288  1.0963  0.9380
12723SOL    HW249824   5.049   2.942   5.074 -0.8885 -0.5586  1.3729
12724SOL     OW49825   1.653   4.550   0.084 -0.0841 -0.5873  0.0386
12724SOL    HW149826   1.696   4.625   0.136 -2.4511  0.1669  0.9718
12724SOL    HW249827   1.665   4.464   0.134 -0.5495 -0.2155  0.7839
12725SOL     OW49828   0.792   4.112   5.916  0.3168  0.1364  0.1378
12725SOL    HW149829   0.762   4.111   6.012 -4.0654 -3.2551 -1.0571
12725SOL    HW249830   0.872   4.053   5.906 -0.1612 -0.7898  1.4945
12726SOL     OW49831   0.871   9.619   8.123 -0.1973 -0.2162  0.0719
12726SOL    HW149832   0.899   9.569   8.041 -0.2201  0.7780 -0.5506
12726SOL    HW249833   0.950   9.632   8.183 -0.4907 -2.3091  0.9625
12727SOL     OW49834   9.573   4.565   8.056 -0.3684  0.1840 -0.1174
12727SOL    HW149835   9.507   4.491   8.044  0.1413 -0.3933  0.5931
12727SOL    HW249836   9.562   4.606   8.146 -0.7784  1.1181 -0.5818
12728SOL     OW49837   4.994   1.798   5.848 -0.0126 -0.1846  0.2526
12728SOL    HW149838   4.896   1.808   5.834 -0.2155 -1.1473  0.9080
12728SOL    HW249839   5.011   1.726   5.915  1.2238 -2.2486 -2.1745
12729SOL     OW49840   9.903   6.013   3.629  0.0112  0.6535  0.0447
12729SOL    HW149841   9.912   5.938   3.695 -0.1303  0.7635  0.1895
12729SOL    HW249842   9.811   6.010   3.589  0.5488 -0.2675 -1.1832
12730SOL     OW49843   3.439   4.099   0.363 -0.0496  0.4138  0.0622
12730SOL    HW149844   3.507   4.119   0.292  1.2658 -0.7564  0.9433
12730SOL    HW249845   3.450   4.163   0.439 -0.6730  0.9223 -0.2736
12731SOL     OW49846   2.353   7.110   1.428 -0.3488  0.1313 -0.0679
12731SOL    HW149847   2.414   7.189   1.424 -0.1050 -0.1144 -1.2653
12731SOL    HW249848   2.265   7.133   1.386 -0.2757 -0.2372 -0.4190
12732SOL     OW49849   7.766   2.412   5.597 -0.0398 -0.0195 -0.3123
12732SOL    HW149850   7.840   2.477   5.587  0.4006 -0.4691 -0.0068
12732SOL    HW249851   7.790   2.344   5.667 -1.3776  0.7476  0.9298
12733SOL     OW49852   6.213   9.529   5.201 -0.1775  0.2284 -0.5867
12733SOL    HW149853   6.306   9.495   5.190 -0.2363  0.5475 -2.0849
12733SOL    HW249854   6.193   9.538   5.299  1.6010  0.8457 -0.2581
12734SOL     OW49855   9.182   7.651   6.758 -0.6248 -0.3685 -0.3339
12734SOL    HW149856   9.196   7.572   6.699  0.5156  0.7297 -1.5521
12734SOL    HW249857   9.124   7.718   6.711 -3.2294 -1.2590  1.4265
12735SOL     OW49858   2.424   9.453   3.358  0.0387 -0.7861 -0.0010
12735SOL    HW149859   2.486   9.379   3.330  0.6545  0.1349 -1.0959
12735SOL    HW249860   2.454   9.539   3.317 -0.9295  0.0017  0.9216
12736SOL     OW49861   2.631   3.010   3.048 -0.6508  0.3673 -0.7499
12736SOL    HW149862   2.696   3.085   3.036 -0.0114  0.2469  1.7246
12736SOL    HW249863   2.655   2.958   3.130 -3.1390 -0.4649 -0.5143
12737SOL     OW49864   3.212   2.962   7.831 -0.0473 -0.2059  0.6645
12737SOL    HW149865   3.195   2.917   7.743 -0.8675  3.2953 -1.0427
12737SOL    HW249866   3.166   2.911   7.904 -2.6172 -1.0427 -1.4580
12738SOL     OW49867   2.444   6.241   6.706  0.1679 -0.0501  0.0687
12738SOL    HW149868   2.469   6.286   6.792 -0.4299  0.9627 -0.2872
12738SOL    HW249869   2.521   6.186   6.674  1.9923  2.9752 -0.9860
12739SOL     OW49870   3.515   4.888   2.642 -0.7412  0.3830 -0.1791
12739SOL    HW149871   3.542   4.836   2.561 -1.3202 -0.4351  0.1432
12739SOL    HW249872   3.420   4.920   2.631 -1.2693 -0.8370  0.7162
12740SOL     OW49873   1.482   3.164   7.308 -0.5720 -0.2269 -0.2741
12740SOL    HW149874   1.476   3.080   7.254 -1.2446  0.9828 -2.1440
12740SOL    HW249875   1.390   3.200   7.323 -0.2100  1.0138 -0.8915
12741SOL     OW49876   1.421   0.468   6.908  0.2403 -0.2641 -0.1611
12741SOL    HW149877   1.496   0.521   6.948 -1.1177  0.8003  1.0233
12741SOL    HW249878   1.383   0.407   6.978 -0.7604  0.0488 -0.4312
12742SOL     OW49879   4.833   2.370   5.613  0.1740 -0.3414  0.1751
12742SOL    HW149880   4.919   2.392   5.658 -0.4175  0.0708  1.1177
12742SOL    HW249881   4.778   2.311   5.673  0.1225 -1.2309 -0.7374
12743SOL     OW49882   6.660   0.765   5.253  0.1511 -0.2015 -0.2287
12743SOL    HW149883   6.636   0.719   5.339 -0.0657  0.1849 -0.0823
12743SOL    HW249884   6.679   0.861   5.270  0.8580 -0.2891 -0.5024
12744SOL     OW49885   3.783   0.971   3.214  0.3358 -0.0391 -0.3036
12744SOL    HW149886   3.846   0.950   3.139  0.7726  0.4399 -0.0760
12744SOL    HW249887   3.822   0.940   3.301 -0.4804 -1.2133 -0.3553
12745SOL     OW49888   5.332   7.579   3.045  0.2062 -0.1097 -0.3830
12745SOL    HW149889   5.392   7.517   3.098  0.1390 -0.6384 -0.9183
12745SOL    HW249890   5.312   7.660   3.099  1.0300 -0.1477 -0.0109
12746SOL     OW49891   3.085   0.565   5.361 -0.0606  0.3978 -0.2689
12746SOL    HW149892   2.989   0.591   5.371 -0.2755 -1.1680  2.2572
12746SOL    HW249893   3.097   0.470   5.392  1.8830 -0.2428 -2.7907
12747SOL     OW49894   2.465   4.950   0.195  0.0179  0.2252 -0.3331
12747SOL    HW149895   2.452   4.852   0.179  1.7803  0.0290 -0.6836
12747SOL    HW249896   2.547   4.963   0.251 -0.4742  1.4824  0.1000
12748SOL     OW49897   8.047   8.707   3.930 -0.1958  0.3190  0.6021
12748SOL    HW149898   8.018   8.639   3.997 -0.2826  0.3558  0.6014
12748SOL    HW249899   8.132   8.750   3.960 -1.2728  1.7498  1.6687
12749SOL     OW49900   6.025   8.026   3.597  0.2390  0.4352  0.3696
12749SOL    HW149901   5.969   8.046   3.677 -0.4556 -0.8726  0.2210
12749SOL    HW249902   5.985   8.072   3.517 -0.4510 -0.2349  0.3222
12750SOL     OW49903   7.804   9.828   7.021  0.6707  0.7084 -0.6160
12750SOL    HW149904   7.710   9.804   6.999  0.2228  0.5079  1.4084
12750SOL    HW249905   7.823   9.921   6.991 -0.5641  1.1742  0.0209
12751SOL     OW49906   9.537   0.143   7.285 -0.0116 -0.0557 -0.1201
12751SOL    HW149907   9.489   0.230   7.274  0.4941  0.2833  0.3183
12751SOL    HW249908   9.610   0.153   7.352 -0.5415 -1.0550  0.6309
12752SOL     OW49909   5.475   1.172   3.868  0.2902  0.3967 -0.1279
12752SOL    HW149910   5.487   1.147   3.772  0.7699  0.9436 -0.2211
12752SOL    HW249911   5.505   1.267   3.881  0.2557  0.3167  0.5644
12753SOL     OW49912   1.724   9.141   0.138 -0.2700 -0.5496 -0.0443
12753SOL    HW149913   1.643   9.083   0.133 -0.8157  0.1799  0.2788
12753SOL    HW249914   1.798   9.092   0.185 -0.4793 -1.2620 -0.4569
12754SOL     OW49915   8.966   0.862   4.765  0.0484  0.4727  0.8314
12754SOL    HW149916   8.934   0.812   4.845 -0.6554  0.0844  0.3112
12754SOL    HW249917   9.019   0.801   4.705  1.3767  0.9909  1.4486
12755SOL     OW49918   2.834   0.371   2.677 -0.3992  0.1225  0.4020
12755SOL    HW149919   2.817   0.448   2.616  1.2395 -1.3608 -1.9677
12755SOL    HW249920   2.922   0.384   2.723 -0.9616  0.5318  1.3764
12756SOL     OW49921   2.822   0.507   6.127 -0.4397 -0.0118  0.6463
12756SOL    HW149922   2.759   0.554   6.064  1.3262  0.3319 -0.9093
12756SOL    HW249923   2.833   0.412   6.099 -1.6774 -0.5818  2.0222
12757SOL     OW49924   7.081   9.477   2.556  0.2018  0.2962  0.2280
12757SOL    HW149925   7.081   9.566   2.601 -1.1410  0.4539 -0.0549
12757SOL    HW249926   7.013   9.418   2.599  0.4662 -0.2874 -0.1555
12758SOL     OW49927   7.960   2.595   5.502  0.3920 -0.0497  0.0237
12758SOL    HW149928   8.013   2.551   5.429  0.4295  0.1363 -0.0607
12758SOL    HW249929   8.013   2.593   5.587  1.0313  1.1747 -0.3272
12759SOL     OW49930   3.548   7.727   7.386  0.3087  0.4446 -0.2515
12759SOL    HW149931   3.591   7.721   7.476  2.3004  0.8081 -1.1500
12759SOL    HW249932   3.603   7.786   7.326 -0.7932 -0.0714 -1.8098
12760SOL     OW49933   9.272   2.483   4.864  0.1565 -0.1418  0.9479
12760SOL    HW149934   9.239   2.424   4.937 -0.0669  0.6252  1.4745
12760SOL    HW249935   9.195   2.517   4.811  0.3924 -1.5903 -0.3539
12761SOL     OW49936   9.883   6.809   6.688  0.3298  0.0942 -0.1971
12761SOL    HW149937   9.936   6.810   6.773 -0.4237  1.6828  0.2772
12761SOL    HW249938   9.823   6.728   6.688 -0.4460  0.6342  1.3008
12762SOL     OW49939   1.610   2.993   5.228 -0.5474  0.1391  0.2021
12762SOL    HW149940   1.526   3.008   5.280 -0.5447  0.6441  0.0626
12762SOL    HW249941   1.651   2.906   5.256 -0.1843  0.7337  1.5159
12763SOL     OW49942   2.529   8.373   2.075 -0.2068  0.1483  0.0304
12763SOL    HW149943   2.513   8.332   2.165  0.1396 -0.7036 -0.2823
12763SOL    HW249944   2.446   8.365   2.020 -0.6035  1.1932  0.4683
12764SOL     OW49945   8.560   1.585   7.648  0.5881  0.6766 -0.3433
12764SOL    HW149946   8.622   1.535   7.588 -0.5194 -0.1153 -0.8622
12764SOL    HW249947   8.602   1.597   7.737  0.8761 -1.2352 -0.1870
12765SOL     OW49948   2.270   8.359   8.085  0.4960 -0.0580 -0.6000
12765SOL    HW149949   2.224   8.414   8.015 -0.4048  0.2720  0.2301
12765SOL    HW249950   2.319   8.420   8.148  2.3964 -0.4260 -1.6832
12766SOL     OW49951   9.678   9.696   2.355  0.0772  0.6315  0.6645
12766SOL    HW149952   9.628   9.774   2.394 -1.0360  0.2027  0.1181
12766SOL    HW249953   9.625   9.612   2.367 -0.3031  0.4809 -1.7121
12767SOL     OW49954   1.820   4.714   5.372 -0.4412  0.2789 -0.8551
12767SOL    HW149955   1.727   4.704   5.336 -0.0404  0.5669 -1.9668
12767SOL    HW249956   1.830   4.805   5.413 -1.2987 -0.5115  1.2015
12768SOL     OW49957   5.586   9.388   2.052  0.4222  0.0128 -0.4197
12768SOL    HW149958   5.639   9.443   2.117 -0.7610  0.0550  0.5376
12768SOL    HW249959   5.591   9.429   1.961  1.9618  0.0537 -0.3335
12769SOL     OW49960   1.272   5.766   5.194 -0.1246 -0.0867  0.0028
12769SOL    HW149961   1.312   5.710   5.122 -0.4568 -0.2615 -0.0465
12769SOL    HW249962   1.178   5.737   5.210 -0.1084  0.0737  0.3805
12770SOL     OW49963   1.883   1.593   4.912  0.1355  0.0929  0.1991
12770SOL    HW149964   1.797   1.629   4.947  0.0698 -0.5845  0.7543
12770SOL    HW249965   1.956   1.658   4.931 -0.4476  1.2153 -1.3590
12771SOL     OW49966   8.105   4.637   4.943  0.4200  0.2760  0.3911
12771SOL    HW149967   8.010   4.650   4.970  0.4257  1.1789 -0.0053
12771SOL    HW249968   8.165   4.651   5.023  0.1050 -2.6820  1.2420
12772SOL     OW49969   1.845   7.026   4.481 -0.1250  0.1387  0.6528
12772SOL    HW149970   1.920   6.960   4.481 -0.4574 -0.2470  1.7867
12772SOL    HW249971   1.824   7.054   4.574 -1.0839  0.5941  0.3138
12773SOL     OW49972   1.207   6.892   1.033  0.2752 -0.1216 -0.4459
12773SOL    HW149973   1.147   6.885   1.112  2.2109  0.6015  1.1290
12773SOL    HW249974   1.296   6.851   1.054  1.7250  2.4247 -1.2886
12774SOL     OW49975   9.483   2.858   5.023 -0.2174 -0.4348 -0.6659
12774SOL    HW149976   9.558   2.855   4.957 -0.9659 -0.1083 -1.5313
12774SOL    HW249977   9.482   2.772   5.075  0.9185 -0.3311 -0.4541
12775SOL     OW49978   4.978   5.249   2.504  0.5191 -0.0492  0.5352
12775SOL    HW149979   4.955   5.338   2.544 -0.7410  0.6558 -1.6564
12775SOL    HW249980   4.925   5.236   2.420  0.5232 -2.9834  0.9388
12776SOL     OW49981   8.366   0.632   2.131 -0.0968 -0.6042 -0.1620
12776SOL    HW149982   8.273   0.594   2.124 -0.5732  0.5491 -0.1194
12776SOL    HW249983   8.422   0.571   2.187 -1.1821 -0.6625  0.8824
12777SOL     OW49984   2.377   3.285   2.756  0.6625 -0.0577  0.2483
12777SOL    HW149985   2.470   3.270   2.789  1.1807  1.4582 -0.5108
12777SOL    HW249986   2.354   3.216   2.688  1.7865  0.4981 -0.6900
12778SOL     OW49987   3.543   0.596   6.918 -0.1792  0.3817 -0.4143
12778SOL    HW149988   3.457   0.626   6.877  0.0998  0.9328 -0.6068
12778SOL    HW249989   3.620   0.632   6.865  0.1727 -1.1413 -0.9608
12779SOL     OW49990   2.374   9.073   1.299 -0.3105 -0.1905 -0.0433
12779SOL    HW149991   2.436   9.139   1.256 -1.5490  1.6679  0.9872
12779SOL    HW249992   2.428   9.005   1.348  0.9534  2.4668  2.4097
12780SOL     OW49993   7.688   8.779   2.149  0.3254 -0.1723 -0.2407
12780SOL    HW149994   7.651   8.741   2.064  1.0837 -1.1371 -0.1562
12780SOL    HW249995   7.662   8.721   2.226  0.8718 -0.1167 -0.0115
12781SOL     OW49996   9.482   4.202   5.486  0.2759  0.2656 -0.3595
12781SOL    HW149997   9.495   4.204   5.387  0.2765 -0.8814 -0.3905
12781SOL    HW249998   9.441   4.115   5.512  1.2642  0.1196  0.7591
12782SOL     OW49999   4.125   8.198   5.394 -0.3721 -0.8365 -0.4133
12782SOL    HW150000   4.066   8.146   5.455 -0.4425 -3.0507 -2.3064
12782SOL    HW250001   4.215   8.208   5.436 -0.7395 -1.3857  0.5251
12783SOL     OW50002   0.834   5.554   4.290  0.0498  0.8317 -0.3018
12783SOL    HW150003   0.736   5.545   4.270 -0.2137  1.5939  0.6053
12783SOL    HW250004   0.863   5.648   4.270  0.0915  1.2258  1.5539
12784SOL     OW50005   9.535   2.955   7.962  0.4985 -0.2931  0.7953
12784SOL    HW150006   9.484   3.014   8.024 -0.5168 -0.8882  0.5423
12784SOL    HW250007   9.471   2.898   7.910  1.3952 -0.6866  0.1012
12785SOL     OW50008   2.378   7.407   7.524 -0.0896 -0.0235  0.3534
12785SOL    HW150009   2.440   7.375   7.451 -0.5168  0.3015 -0.1513
12785SOL    HW250010   2.426   7.474   7.580  0.1265 -0.0121  0.1592
12786SOL     OW50011   3.110   8.249   0.770  0.0674 -0.9172  0.2288
12786SOL    HW150012   3.132   8.311   0.845 -0.7855 -1.6222  1.0667
12786SOL    HW250013   3.039   8.184   0.799 -0.6338 -0.8807 -1.3307
12787SOL     OW50014   9.851   0.488   1.102  0.6375 -0.6393  0.0686
12787SOL    HW150015   9.910   0.453   1.176 -0.9919 -0.5208  1.4504
12787SOL    HW250016   9.858   0.427   1.023  0.7998 -1.9566  1.0696
12788SOL     OW50017   7.852   7.831   5.583  0.0769  0.4471  0.2033
12788SOL    HW150018   7.778   7.814   5.649 -0.3166  0.3003 -0.2682
12788SOL    HW250019   7.885   7.743   5.547 -0.4536  0.5761 -0.5996
12789SOL     OW50020   6.094   9.731   4.547  0.2876 -0.1071 -0.3505
12789SOL    HW150021   6.135   9.696   4.631  1.1580  2.5690  0.4106
12789SOL    HW250022   6.159   9.724   4.473  0.8943  0.9649  0.0717
12790SOL     OW50023   8.580   7.913   7.521 -0.2018  0.2953  0.0439
12790SOL    HW150024   8.517   7.924   7.598  0.5265 -0.4866  0.7617
12790SOL    HW250025   8.664   7.869   7.553  0.0540 -0.1489 -1.2252
12791SOL     OW50026   3.792   2.602   0.257  0.3036  0.3165 -0.0319
12791SOL    HW150027   3.747   2.626   0.343  0.2845  0.0827  0.0218
12791SOL    HW250028   3.856   2.675   0.232  0.3092  0.3835  0.1793
12792SOL     OW50029   6.298   7.779   4.790 -0.1647 -0.2751 -0.0268
12792SOL    HW150030   6.346   7.693   4.803 -1.4722 -1.0059 -0.0235
12792SOL    HW250031   6.200   7.763   4.782 -0.4253  1.2047 -0.0734
12793SOL     OW50032   1.842   0.942   7.011  0.0842 -0.3589  0.1241
12793SOL    HW150033   1.915   0.944   7.079 -1.2145 -1.2151  1.5694
12793SOL    HW250034   1.760   0.984   7.049  0.0548  1.3664 -1.7893
12794SOL     OW50035   8.876   3.385   4.342  0.6570 -0.2930 -0.1402
12794SOL    HW150036   8.932   3.408   4.262  0.5341 -1.5721 -0.5992
12794SOL    HW250037   8.932   3.334   4.408 -0.1853 -2.3915 -1.0106
12795SOL     OW50038   9.388   7.795   6.883  0.1190 -0.7502  0.0950
12795SOL    HW150039   9.471   7.740   6.882 -0.1841 -1.2129  0.3756
12795SOL    HW250040   9.314   7.746   6.836 -0.0731 -0.4619  0.0929
12796SOL     OW50041   7.088   3.988   1.757  0.0373  0.1459 -0.2890
12796SOL    HW150042   7.178   3.975   1.799 -0.2081  1.4027  0.6453
12796SOL    HW250043   7.027   3.914   1.787  0.1359  0.5095  0.8146
12797SOL     OW50044   4.809   1.279   0.947 -0.2647  0.1423  0.2536
12797SOL    HW150045   4.884   1.214   0.946 -0.3676  0.0258 -1.5344
12797SOL    HW250046   4.836   1.363   0.898 -1.1044  0.2985  0.0399
12798SOL     OW50047   4.315   2.440   1.905 -0.6391  0.2250  0.0216
12798SOL    HW150048   4.301   2.438   2.004  0.2958  1.5369  0.2016
12798SOL    HW250049   4.374   2.517   1.882 -0.1891 -0.5541 -1.4834
12799SOL     OW50050   0.144   5.898   7.271  0.2427 -0.1313 -0.3503
12799SOL    HW150051   0.172   5.958   7.345  1.0600 -1.1028  0.1297
12799SOL    HW250052   0.216   5.893   7.202 -0.2707  0.2989 -0.9265
12800SOL     OW50053   6.548   0.738   2.985 -0.0763  0.2066  0.3904
12800SOL    HW150054   6.473   0.678   3.013 -0.3957  0.2521 -0.3603
12800SOL    HW250055   6.623   0.730   3.051  0.2333 -1.6850 -0.1385
12801SOL     OW50056   3.841   1.576   5.262  0.0181 -0.2887  0.2398
12801SOL    HW150057   3.930   1.621   5.258  0.3908 -1.0886 -0.7799
12801SOL    HW250058   3.781   1.615   5.193  0.0854 -0.8047 -0.1136
12802SOL     OW50059   7.527   3.795   7.387 -0.2212 -0.0820 -0.0280
12802SOL    HW150060   7.435   3.763   7.411  0.7427 -2.4342  0.6138
12802SOL    HW250061   7.555   3.753   7.300  1.2074 -1.2978  1.0080
12803SOL     OW50062   9.473   8.432   4.466  0.5416 -0.4687  0.4739
12803SOL    HW150063   9.479   8.482   4.379 -0.6012  2.6247  2.1034
12803SOL    HW250064   9.377   8.417   4.489  0.7779  0.4854  2.1529
12804SOL     OW50065   3.883   2.564   5.335 -0.4075 -1.0035  0.7500
12804SOL    HW150066   3.814   2.528   5.272  0.0525 -0.2395 -0.2003
12804SOL    HW250067   3.938   2.488   5.370 -1.3069 -1.5443  1.0177
12805SOL     OW50068   2.782   8.999   1.582 -0.0455  0.3495  0.1924
12805SOL    HW150069   2.815   8.906   1.599  1.4710  1.0698  1.2838
12805SOL    HW250070   2.855   9.064   1.598 -1.6805  1.9087  1.5251
12806SOL     OW50071   2.078   0.306   5.981  0.0967  0.4355  0.0257
12806SOL    HW150072   2.046   0.296   5.887 -1.4744  2.3486  0.3266
12806SOL    HW250073   2.004   0.344   6.037  1.6192  1.0672  1.6266
12807SOL     OW50074   8.707   9.195   1.996 -0.4853  0.4809  0.7831
12807SOL    HW150075   8.711   9.105   2.040 -0.8597 -0.1092 -0.3617
12807SOL    HW250076   8.779   9.254   2.034  1.5062 -1.1559 -0.3443
12808SOL     OW50077   5.335   4.533   1.511 -0.4372 -0.0438  0.2699
12808SOL    HW150078   5.303   4.627   1.510 -0.1331  0.0674 -0.7990
12808SOL    HW250079   5.432   4.531   1.536  0.5631  0.3266 -3.1886
12809SOL     OW50080   3.721   5.599   7.030  0.1744 -0.1359  0.5729
12809SOL    HW150081   3.769   5.631   7.112  0.2852 -1.9122  1.2417
12809SOL    HW250082   3.633   5.646   7.022  1.3798  2.1101  0.1261
12810SOL     OW50083   6.643   8.640   4.881  0.0412  0.6668  0.5744
12810SOL    HW150084   6.586   8.640   4.963  1.5810  3.3602  1.7404
12810SOL    HW250085   6.738   8.661   4.906  1.4522 -2.9065 -1.3965
12811SOL     OW50086   7.380   5.168   8.092 -0.2274  0.0455  0.4664
12811SOL    HW150087   7.430   5.180   8.006 -1.7036  1.3538 -0.2522
12811SOL    HW250088   7.320   5.247   8.106 -1.2612 -0.9696  1.8469
12812SOL     OW50089   3.036   2.876   5.838 -0.3648  0.2698  0.0494
12812SOL    HW150090   3.082   2.947   5.785 -1.0182  0.4474 -0.2972
12812SOL    HW250091   3.097   2.798   5.851  0.2467  0.7696  0.1556
12813SOL     OW50092   0.541   5.415   7.000 -0.9719 -0.3657 -0.3828
12813SOL    HW150093   0.621   5.362   7.028 -1.5617 -1.9982 -1.6572
12813SOL    HW250094   0.467   5.401   7.066 -0.0407  1.6519  1.1416
12814SOL     OW50095   3.218   6.129   4.513  0.1087  0.0084 -0.0950
12814SOL    HW150096   3.253   6.199   4.451  0.8842 -0.5435 -0.2928
12814SOL    HW250097   3.184   6.052   4.459  0.5088 -0.3446  0.1530
12815SOL     OW50098   3.976   6.601   3.056 -0.1040 -0.1113 -0.1626
12815SOL    HW150099   3.965   6.637   2.963 -0.2494 -1.7061 -0.7780
12815SOL    HW250100   4.004   6.506   3.052  0.8385  0.0757  1.4521
12816SOL     OW50101   0.872   2.004   1.791 -0.1411  0.0497  0.2416
12816SOL    HW150102   0.882   2.087   1.846 -1.4136 -0.3247  1.0703
12816SOL    HW250103   0.804   1.944   1.834 -1.7699  0.1130 -2.1672
12817SOL     OW50104   4.242   2.985   2.247  0.1843  0.5996 -0.5064
12817SOL    HW150105   4.181   2.920   2.203 -0.5623 -0.2696  1.7495
12817SOL    HW250106   4.219   3.078   2.217 -1.7483  0.2150 -0.2758
12818SOL     OW50107   9.280   4.943   7.451  0.4288  0.1073 -0.4892
12818SOL    HW150108   9.205   4.983   7.398 -1.6190 -0.3565  1.9677
12818SOL    HW250109   9.275   4.975   7.546  2.8948 -0.5524 -0.0930
12819SOL     OW50110   0.164   8.560   3.792  0.0285  0.7036 -0.5234
12819SOL    HW150111   0.144   8.545   3.889  1.2808 -1.0728 -0.5058
12819SOL    HW250112   0.261   8.540   3.775  0.2202  2.6615 -1.8267
12820SOL     OW50113   4.345   8.848   6.320 -0.3866  0.5209  0.1961
12820SOL    HW150114   4.268   8.868   6.381  1.1613 -0.5638  2.5912
12820SOL    HW250115   4.427   8.897   6.352  0.2851  0.4609 -1.4115
12821SOL     OW50116   0.806   1.543   4.918  0.4343  0.4448 -0.1255
12821SOL    HW150117   0.740   1.604   4.962  0.6630 -0.0076  0.8609
12821SOL    HW250118   0.824   1.464   4.977  0.9568 -0.0445 -0.9120
12822SOL     OW50119   0.385   3.996   3.063 -0.1747  0.5204 -0.1720
12822SOL    HW150120   0.464   4.014   3.004 -0.6613 -1.8163 -1.5871
12822SOL    HW250121   0.404   3.918   3.122  0.4020  2.9719  3.0823
12823SOL     OW50122   3.233   7.637   4.453  0.1025 -0.3203 -0.2253
12823SOL    HW150123   3.146   7.628   4.501 -0.9149  1.7037 -1.6127
12823SOL    HW250124   3.282   7.717   4.487  0.1145  0.1737 -1.3805
12824SOL     OW50125   0.847   6.994   1.377 -0.6350 -0.1551  0.5778
12824SOL    HW150126   0.808   6.902   1.385 -0.7955 -0.3115 -1.7414
12824SOL    HW250127   0.778   7.061   1.403 -0.2059 -0.7018  3.2475
12825SOL     OW50128   8.322   6.710   4.815 -0.1127  0.3485 -0.3295
12825SOL    HW150129   8.351   6.726   4.721  2.3482  1.1191  0.5095
12825SOL    HW250130   8.402   6.713   4.875 -1.1228 -3.4428  1.3922
12826SOL     OW50131   4.185   1.918   7.226  0.5845 -0.2012 -0.0646
12826SOL    HW150132   4.132   1.880   7.151  1.0791 -0.7704 -0.1278
12826SOL    HW250133   4.262   1.858   7.247  1.7621  1.0824 -0.6128
12827SOL     OW50134   6.777   2.110   3.271  0.3191  0.0623 -0.6153
12827SOL    HW150135   6.864   2.062   3.273  0.4348  0.1446 -2.8792
12827SOL    HW250136   6.733   2.104   3.361  1.3755 -2.3134 -0.2390
12828SOL     OW50137   8.835   3.831   8.188  0.1170  0.0111 -0.4581
12828SOL    HW150138   8.771   3.868   8.255  0.9252  1.1643 -0.3143
12828SOL    HW250139   8.784   3.800   8.107 -0.7779 -0.6415  0.3389
12829SOL     OW50140   1.287   5.601   1.761 -0.4540  0.2359  0.0439
12829SOL    HW150141   1.339   5.516   1.767 -1.4445 -0.4430 -0.8355
12829SOL    HW250142   1.192   5.584   1.789 -0.4976  1.1937  0.4936
12830SOL     OW50143   3.261   9.896   2.126  0.4234 -0.6130 -0.1520
12830SOL    HW150144   3.296   9.990   2.129  0.9796 -0.8183 -0.1530
12830SOL    HW250145   3.245   9.870   2.031 -1.1759  0.0092 -0.0722
12831SOL     OW50146   3.513   6.609   2.307  0.1695  0.3549 -0.4060
12831SOL    HW150147   3.601   6.566   2.327  0.9763  2.5716  0.9463
12831SOL    HW250148   3.441   6.540   2.306  1.6575 -1.2251  0.1985
12832SOL     OW50149   1.991   0.366   2.884  0.1144 -0.3328  0.3502
12832SOL    HW150150   2.059   0.369   2.810 -0.0688  0.5510  0.2150
12832SOL    HW250151   1.901   0.390   2.847 -0.0103 -0.0763  0.8259
12833SOL     OW50152   3.615   7.913   6.717 -0.1260 -0.7170 -0.1366
12833SOL    HW150153   3.552   7.849   6.760 -2.0626  0.9821 -0.4020
12833SOL    HW250154   3.564   7.989   6.676  2.1463  1.2873  0.6276
12834SOL     OW50155   4.624   7.776   2.560  0.1946  0.5375  0.0864
12834SOL    HW150156   4.655   7.830   2.638  1.9448  0.3674 -0.4559
12834SOL    HW250157   4.660   7.816   2.475 -0.2524 -0.2638 -0.4933
12835SOL     OW50158   3.907   8.557   2.972 -0.0880  0.8661  0.0018
12835SOL    HW150159   3.913   8.543   3.071 -0.0762 -1.1910 -0.2721
12835SOL    HW250160   3.978   8.622   2.944 -0.4103  1.8526  1.4054
12836SOL     OW50161   7.918   6.524   3.253 -0.2568 -0.1843  0.0790
12836SOL    HW150162   7.858   6.493   3.179 -0.2194 -0.7140  0.2636
12836SOL    HW250163   7.880   6.495   3.341 -0.4122  0.6343  0.2824
12837SOL     OW50164   7.415   7.245   6.157  0.0585  0.6973 -0.1429
12837SOL    HW150165   7.323   7.239   6.120  0.6707  1.7727 -1.8988
12837SOL    HW250166   7.453   7.154   6.168 -0.4080  0.3355 -1.4706
12838SOL     OW50167   1.824   1.260   0.922  0.0902  0.5204  0.5308
12838SOL    HW150168   1.731   1.282   0.891  0.5116 -0.7339 -1.7233
12838SOL    HW250169   1.888   1.326   0.883  0.4810 -0.3335 -0.2880
12839SOL     OW50170   9.767   9.163   4.888 -0.3643 -0.3196 -0.2386
12839SOL    HW150171   9.747   9.224   4.965  1.1421  1.5599 -1.2928
12839SOL    HW250172   9.755   9.213   4.802  1.8609 -1.1815 -1.0872
12840SOL     OW50173   8.041   3.615   4.133  0.2567  0.3375  0.4512
12840SOL    HW150174   7.949   3.654   4.127  0.1332  0.1953  1.3847
12840SOL    HW250175   8.037   3.525   4.176  0.8685  0.4795  0.8173
12841SOL     OW50176   7.723   2.448   7.235 -0.4065  0.6241 -0.3031
12841SOL    HW150177   7.708   2.353   7.262  0.4624  0.4570 -0.4124
12841SOL    HW250178   7.637   2.486   7.200 -0.8404 -0.0139  0.0515
12842SOL     OW50179   0.817   5.957   3.536  0.0497 -0.3171 -0.7036
12842SOL    HW150180   0.859   6.027   3.478  1.2822 -0.7166 -0.3119
12842SOL    HW250181   0.827   5.868   3.492 -0.2095 -0.4460 -0.5011
12843SOL     OW50182   7.273   2.674   2.919  0.2713 -0.2777  0.5081
12843SOL    HW150183   7.357   2.640   2.963  2.0753  1.8971 -1.1327
12843SOL    HW250184   7.251   2.617   2.841  1.2674  0.1866 -0.1224
12844SOL     OW50185   0.625   3.874   6.624  0.0827 -0.1135  0.0042
12844SOL    HW150186   0.662   3.963   6.598 -3.8668  1.7935  0.7111
12844SOL    HW250187   0.564   3.841   6.552 -2.3105  0.0729  1.9157
12845SOL     OW50188   8.766   0.720   6.863 -0.1220  0.2890  0.6769
12845SOL    HW150189   8.772   0.779   6.943  0.0452 -0.3285  1.1174
12845SOL    HW250190   8.803   0.630   6.884  3.4525  1.2136 -1.1503
12846SOL     OW50191   7.316   2.000   5.912  0.3789 -0.8118  0.1737
12846SOL    HW150192   7.400   2.037   5.872 -0.2093  0.7202  0.2960
12846SOL    HW250193   7.247   2.072   5.915 -0.1556 -1.3637  2.3068
12847SOL     OW50194   2.054   9.993   4.736  0.2691 -0.1732  0.0406
12847SOL    HW150195   2.122   9.940   4.686  1.3720  0.5175  0.7847
12847SOL    HW250196   1.965   9.946   4.733  1.0581 -1.6980  0.1046
12848SOL     OW50197   8.888   7.566   5.630 -0.2218 -0.0014 -0.0535
12848SOL    HW150198   8.903   7.646   5.689  2.1110 -1.6334  1.6686
12848SOL    HW250199   8.960   7.562   5.561 -0.3421 -0.6280 -0.1399
12849SOL     OW50200   2.232   4.437   6.809 -0.4379  0.4865  0.1109
12849SOL    HW150201   2.305   4.369   6.802 -0.3184  0.2204  3.1303
12849SOL    HW250202   2.267   4.527   6.783 -0.1497 -0.2819 -2.2785
12850SOL     OW50203   8.020   6.654   0.043  0.0979  0.1436 -0.2621
12850SOL    HW150204   8.009   6.568  -0.008  0.4599  0.4963 -0.9345
12850SOL    HW250205   8.095   6.645   0.108  0.5033  0.1446 -0.7335
12851SOL     OW50206   8.310   1.302   5.494 -0.1962 -0.0456 -0.5952
12851SOL    HW150207   8.236   1.278   5.557 -1.1185 -2.4083 -2.5073
12851SOL    HW250208   8.393   1.321   5.547 -1.0142 -1.6802  1.3713
12852SOL     OW50209   2.692   6.250   3.702  0.0334 -0.1819  0.1486
12852SOL    HW150210   2.747   6.262   3.785 -0.7502 -0.3388  0.6965
12852SOL    HW250211   2.668   6.153   3.692  1.0125 -0.3295 -0.8340
12853SOL     OW50212   3.586   9.739   4.228  0.2319  0.2463  0.1101
12853SOL    HW150213   3.535   9.690   4.158  1.7840 -0.2383 -0.7021
12853SOL    HW250214   3.550   9.715   4.318  0.9567 -2.3997 -0.2744
12854SOL     OW50215   8.595   4.684   1.655 -0.2592  0.3590  0.4626
12854SOL    HW150216   8.598   4.706   1.558 -2.3367  2.1185  0.7620
12854SOL    HW250217   8.689   4.675   1.690  0.5274  1.1859 -1.3532
12855SOL     OW50218   7.215   7.991   4.096  0.2512 -0.1202 -0.0048
12855SOL    HW150219   7.137   8.046   4.067  1.3961 -0.1587 -3.3136
12855SOL    HW250220   7.281   8.048   4.145 -0.3041  0.6302 -0.1301
12856SOL     OW50221   9.034   7.851   1.229 -0.0176  0.0749 -0.4040
12856SOL    HW150222   9.048   7.824   1.324  0.1859 -1.7033 -0.9340
12856SOL    HW250223   8.949   7.902   1.222 -0.3225 -0.2659  0.6371
12857SOL     OW50224   4.729   0.943   3.858 -0.0367 -0.0690 -0.2769
12857SOL    HW150225   4.741   0.915   3.953 -2.5332  1.4052  0.5097
12857SOL    HW250226   4.814   0.983   3.824  0.2281  1.4118  2.0290
12858SOL     OW50227   2.707   1.805   1.139 -0.3910  0.1301  0.4449
12858SOL    HW150228   2.779   1.871   1.119  0.7394 -1.0949  0.3665
12858SOL    HW250229   2.688   1.750   1.057 -0.5689 -0.3434  0.8005
12859SOL     OW50230   2.440   0.098   0.644  0.3990  0.2088  0.3730
12859SOL    HW150231   2.440   0.187   0.691  2.6184  0.0502  0.7572
12859SOL    HW250232   2.349   0.078   0.610  0.0683  3.0957 -0.5801
12860SOL     OW50233   2.489   9.318   2.250  0.7171 -0.2212  0.0534
12860SOL    HW150234   2.574   9.302   2.301 -0.5198 -2.0905  1.5855
12860SOL    HW250235   2.466   9.237   2.197 -0.1975  0.2220 -0.2321
12861SOL     OW50236   0.687   3.964   2.491  0.6184 -0.0318 -0.0894
12861SOL    HW150237   0.672   3.866   2.496  0.3525 -0.2748 -3.9865
12861SOL    HW250238   0.737   3.986   2.406 -0.3525  3.3015  0.1181
12862SOL     OW50239   8.207   6.594   6.174  0.0215 -0.0493 -0.5649
12862SOL    HW150240   8.132   6.628   6.117 -1.7249 -1.5564  0.7960
12862SOL    HW250241   8.261   6.672   6.207 -2.1138  1.2094  0.0256
12863SOL     OW50242   9.376   4.023   5.040 -0.3178 -0.1246 -0.1585
12863SOL    HW150243   9.370   3.938   5.092 -1.1610  0.1658  0.2294
12863SOL    HW250244   9.347   4.005   4.945  4.9649 -1.5517 -1.6757
12864SOL     OW50245   8.820   2.739   2.177  0.0505 -0.6481 -0.2080
12864SOL    HW150246   8.816   2.687   2.091 -0.5084 -0.3658 -0.3536
12864SOL    HW250247   8.769   2.690   2.247 -1.7970  0.4698 -0.7536
12865SOL     OW50248   2.716   6.076   4.560  0.5207 -0.8439 -0.4513
12865SOL    HW150249   2.791   6.132   4.524 -0.8701  1.3014 -0.1252
12865SOL    HW250250   2.657   6.133   4.617 -0.5946 -2.8308  0.4111
12866SOL     OW50251   7.394   9.336   2.638  0.2334 -0.1764  0.0953
12866SOL    HW150252   7.355   9.386   2.561  1.4370 -1.1964 -1.2035
12866SOL    HW250253   7.486   9.304   2.614 -0.9516 -4.1222  0.3432
12867SOL     OW50254   8.650   1.686   4.116  0.2813  0.7484 -0.6742
12867SOL    HW150255   8.697   1.729   4.039 -0.6490 -1.2746 -2.4475
12867SOL    HW250256   8.565   1.644   4.084  0.3268 -0.9417  1.2623
12868SOL     OW50257   9.202   7.517   5.898  0.0232  0.6650 -0.6560
12868SOL    HW150258   9.204   7.488   5.994 -0.7172 -0.0479 -0.8519
12868SOL    HW250259   9.199   7.617   5.893 -1.6416  0.6690  0.1010
12869SOL     OW50260   3.160   3.833   1.582 -0.4004 -0.0330  0.2844
12869SOL    HW150261   3.132   3.770   1.509  2.6771  0.6834 -1.5749
12869SOL    HW250262   3.221   3.903   1.545 -0.5654  1.6917  3.1284
12870SOL     OW50263   9.407   0.072   6.417 -0.1149 -0.5856 -0.1807
12870SOL    HW150264   9.470   0.065   6.495 -2.3587 -0.3519  1.7327
12870SOL    HW250265   9.323   0.022   6.439 -0.3570 -1.4387 -2.9434
12871SOL     OW50266   9.204   0.847   4.968 -0.4419  0.3623  0.2387
12871SOL    HW150267   9.150   0.926   4.939 -1.5932 -0.5274 -0.0498
12871SOL    HW250268   9.301   0.865   4.951 -0.7914  1.2864 -0.8247
12872SOL     OW50269   9.098   0.016   5.838 -0.6481  0.3201 -0.3439
12872SOL    HW150270   9.125   0.063   5.922  0.0251  1.6039 -1.2596
12872SOL    HW250271   9.091  -0.082   5.855  0.3787  0.4671  0.9907
12873SOL     OW50272   8.200   6.991   6.053 -0.0602  0.4379 -1.0837
12873SOL    HW150273   8.181   6.918   5.987  0.0226  0.2594 -0.9082
12873SOL    HW250274   8.286   7.036   6.030 -0.9853  1.6624 -2.2569
12874SOL     OW50275   3.822   8.686   4.137 -0.3659 -0.2544 -0.4387
12874SOL    HW150276   3.889   8.670   4.065  0.8136 -0.2578  0.6313
12874SOL    HW250277   3.797   8.783   4.138  2.0865  0.4062  1.2120
12875SOL     OW50278   4.852   7.424   3.945  0.2249  0.5674 -0.1421
12875SOL    HW150279   4.808   7.431   3.856  2.3314  0.3724 -1.2266
12875SOL    HW250280   4.786   7.447   4.017 -1.2432  1.6013 -1.7910
12876SOL     OW50281   4.357   2.845   5.244 -0.0310 -0.0610 -0.1921
12876SOL    HW150282   4.453   2.861   5.221 -0.2477  1.5020 -0.1000
12876SOL    HW250283   4.301   2.856   5.162 -0.2854  0.5147  0.0571
12877SOL     OW50284   1.823   7.369   5.367 -0.3329  0.0170  0.4736
12877SOL    HW150285   1.785   7.437   5.304 -0.9701  0.1895  1.0240
12877SOL    HW250286   1.755   7.298   5.383  0.0650 -0.3638  0.4595
12878SOL     OW50287   1.309   1.328   5.736  0.2423 -0.2430 -0.3431
12878SOL    HW150288   1.370   1.343   5.814 -0.5865 -2.0483  0.6828
12878SOL    HW250289   1.363   1.324   5.652  1.2024  1.1516  0.1831
12879SOL     OW50290   3.114   2.467   5.269 -0.6416  0.4476 -0.1431
12879SOL    HW150291   3.014   2.469   5.265 -0.6486 -0.0657 -0.2017
12879SOL    HW250292   3.144   2.465   5.365 -0.7454 -2.2890 -0.1383
12880SOL     OW50293   9.559   8.905   2.129  0.6721  0.2219  0.0637
12880SOL    HW150294   9.543   8.994   2.172 -0.2007  0.9834 -1.7652
12880SOL    HW250295   9.618   8.917   2.049  1.3710 -1.0053  0.3812
12881SOL     OW50296   0.916   6.408   1.702  0.5935  0.0932  0.1519
12881SOL    HW150297   0.876   6.500   1.698  1.6909  0.6365  1.2845
12881SOL    HW250298   1.014   6.415   1.720  0.7470 -1.2980 -0.0938
12882SOL     OW50299   2.332   8.976   4.211  0.6761 -0.0047 -0.2567
12882SOL    HW150300   2.345   8.877   4.206  0.8648  0.0875 -2.4133
12882SOL    HW250301   2.412   9.021   4.170  0.8765  1.0686  1.2755
12883SOL     OW50302   8.577   4.378   5.451  0.0855 -0.7319  0.2151
12883SOL    HW150303   8.642   4.307   5.424  0.4349 -0.2533 -0.2168
12883SOL    HW250304   8.486   4.353   5.420  0.1148 -1.2475  0.5325
12884SOL     OW50305   5.230   7.825   3.694  0.8092  0.5385 -0.1979
12884SOL    HW150306   5.314   7.851   3.646  1.5578  0.9856  1.3133
12884SOL    HW250307   5.207   7.730   3.671  2.1616  0.1584 -0.0359
12885SOL     OW50308   3.129   8.811   6.008 -0.0739  0.1516 -0.0675
12885SOL    HW150309   3.042   8.829   6.054 -1.0092 -1.3319 -1.2018
12885SOL    HW250310   3.183   8.748   6.063  0.2180  0.9158  0.5402
12886SOL     OW50311   0.926   8.165   6.865 -0.3231 -0.0696  0.1649
12886SOL    HW150312   0.846   8.196   6.915 -0.8060 -1.1429  0.0655
12886SOL    HW250313   0.988   8.242   6.849 -1.3281  0.7550  0.2540
12887SOL     OW50314   5.132   7.300   4.952 -0.3020  0.1685  1.1167
12887SOL    HW150315   5.176   7.339   5.032 -1.4164  0.0690  1.7902
12887SOL    HW250316   5.170   7.210   4.933 -0.2695  0.0474  1.7444
12888SOL     OW50317   3.433   8.133   3.271  0.3313  0.1982 -0.2690
12888SOL    HW150318   3.495   8.184   3.330  0.8797 -0.4907 -0.2481
12888SOL    HW250319   3.475   8.120   3.181 -0.1724  0.5504 -0.5579
12889SOL     OW50320   0.490   2.968   6.356 -0.3176  0.5642 -0.5123
12889SOL    HW150321   0.483   3.039   6.286  2.9795  1.2350 -0.2833
12889SOL    HW250322   0.495   3.011   6.446  0.7322  0.0182 -0.3008
12890SOL     OW50323   1.083   8.010   6.711  0.3099 -0.2371 -0.3718
12890SOL    HW150324   1.083   7.915   6.742 -1.3565 -0.2825 -0.4614
12890SOL    HW250325   1.024   8.064   6.771  0.9021  0.6630 -0.5886
12891SOL     OW50326   7.798   6.870   7.001 -0.0957  0.0900 -0.1262
12891SOL    HW150327   7.819   6.773   7.011 -1.9952 -0.2609  0.6980
12891SOL    HW250328   7.712   6.881   6.951 -0.8514  1.2763  1.3952
12892SOL     OW50329   6.762   7.719   7.355  0.1019 -0.1570  0.1711
12892SOL    HW150330   6.797   7.626   7.368  0.6394  0.0347  0.0792
12892SOL    HW250331   6.835   7.779   7.324  0.3323  0.8229  2.4938
12893SOL     OW50332   3.395   8.702   8.137 -0.1908 -0.0376 -0.3013
12893SOL    HW150333   3.385   8.704   8.038  0.6773  1.0897 -0.3699
12893SOL    HW250334   3.383   8.794   8.174 -1.3722 -0.5942  0.7352
12894SOL     OW50335   4.014   7.968   7.117 -0.4262  0.0151 -0.2231
12894SOL    HW150336   4.022   8.009   7.208 -0.6075  0.8282 -0.5723
12894SOL    HW250337   3.930   8.001   7.073 -0.2923 -0.3097 -0.7216
12895SOL     OW50338   1.871   2.552   6.686  0.0045 -0.1284 -0.4113
12895SOL    HW150339   1.779   2.543   6.649  0.6798 -0.9587 -1.9279
12895SOL    HW250340   1.938   2.528   6.616  1.3880  0.5954  0.6305
12896SOL     OW50341   0.909   7.153   5.368  0.0838 -0.2311  0.0580
12896SOL    HW150342   0.948   7.129   5.456  0.8130 -3.0437 -0.9583
12896SOL    HW250343   0.897   7.070   5.313 -0.0284  1.4704 -2.6174
12897SOL     OW50344   6.200   0.699   3.760  0.1305 -0.1647  0.0034
12897SOL    HW150345   6.234   0.793   3.755 -0.1429 -0.0021  1.1648
12897SOL    HW250346   6.186   0.674   3.855  2.0715 -2.0461 -0.1712
12898SOL     OW50347   6.502   0.207   4.165  0.2770 -0.3448  0.2143
12898SOL    HW150348   6.566   0.257   4.107 -0.2686  0.2746  0.1271
12898SOL    HW250349   6.419   0.262   4.176  0.3671 -0.4695  1.5564
12899SOL     OW50350   4.207   1.389   3.898  0.0641  0.2132 -0.6119
12899SOL    HW150351   4.116   1.392   3.937 -0.5091  0.9173 -1.9739
12899SOL    HW250352   4.275   1.400   3.971 -0.8307 -2.7578  0.7593
12900SOL     OW50353   0.838   2.519   7.079  0.4786 -0.1135  0.3663
12900SOL    HW150354   0.842   2.617   7.101 -1.3728 -0.3634  1.8922
12900SOL    HW250355   0.904   2.470   7.136  2.5770  0.4091 -1.5432
12901SOL     OW50356   7.980   9.108   2.434  0.1759 -0.0763 -1.1867
12901SOL    HW150357   8.044   9.184   2.430  1.3846 -0.9986 -0.0837
12901SOL    HW250358   8.000   9.043   2.361  0.6853 -0.5053 -0.6670
12902SOL     OW50359   1.567   4.422   4.415 -0.0300  0.2353  0.5505
12902SOL    HW150360   1.601   4.501   4.466  0.7852  0.1743  0.1096
12902SOL    HW250361   1.489   4.449   4.360  0.0372  0.6564  0.6579
12903SOL     OW50362   4.284   8.770   3.655 -0.3405 -0.9964  0.2512
12903SOL    HW150363   4.201   8.730   3.694 -0.5853 -1.0663 -0.3334
12903SOL    HW250364   4.362   8.713   3.678 -0.4044 -0.7594  1.0785
12904SOL     OW50365   1.363   6.097   5.794  0.3660  0.3327  0.3065
12904SOL    HW150366   1.461   6.093   5.816 -0.0526  1.3001  2.4175
12904SOL    HW250367   1.311   6.120   5.876 -1.5104  1.3340 -1.1206
12905SOL     OW50368   7.908   1.040   3.874  0.3048  0.2582  0.4818
12905SOL    HW150369   7.982   1.107   3.868  2.1234 -1.5850  1.6425
12905SOL    HW250370   7.900   0.991   3.787  1.2415 -0.3226  0.7119
12906SOL     OW50371   4.717   1.860   4.389  0.2979 -0.4827 -0.1396
12906SOL    HW150372   4.740   1.796   4.316  3.3508  0.5957 -0.2062
12906SOL    HW250373   4.704   1.811   4.475  0.6325 -1.3913 -0.6078
12907SOL     OW50374   0.424   6.987   0.601 -0.0067  0.4562  0.4109
12907SOL    HW150375   0.442   6.993   0.699 -0.7341  1.5530  0.4812
12907SOL    HW250376   0.510   6.997   0.551  0.4587 -0.7025  0.9398
12908SOL     OW50377   7.590   0.317   5.348 -0.4815  0.2913  0.4943
12908SOL    HW150378   7.494   0.297   5.328 -0.5879 -0.5780  1.8103
12908SOL    HW250379   7.602   0.328   5.446  0.5188  1.8145  0.2194
12909SOL     OW50380   4.046   5.158   7.388  0.2898  0.1795 -0.2667
12909SOL    HW150381   4.113   5.190   7.322 -1.2259  1.6266 -1.1578
12909SOL    HW250382   3.989   5.087   7.346  0.3820 -0.0757  0.0387
12910SOL     OW50383   7.266   6.453   6.355 -0.2352 -0.0779 -0.7416
12910SOL    HW150384   7.223   6.533   6.397  0.9074 -0.0420  0.3628
12910SOL    HW250385   7.307   6.480   6.267 -2.6018 -0.1517 -1.9178
12911SOL     OW50386   1.461   6.735   6.189  0.8043  0.3044 -0.0825
12911SOL    HW150387   1.554   6.770   6.188  0.8322  0.2928  1.0705
12911SOL    HW250388   1.411   6.776   6.266 -0.2627  0.6244 -0.9293
12912SOL     OW50389   4.190   4.128   6.153 -0.1950 -0.1482 -0.0911
12912SOL    HW150390   4.203   4.151   6.056 -2.5985  0.1308 -0.3815
12912SOL    HW250391   4.145   4.205   6.199  0.6181 -0.4282  1.1792
12913SOL     OW50392   8.808   0.915   7.058 -0.5986  0.4734 -0.5386
12913SOL    HW150393   8.711   0.941   7.068 -0.4087  0.3999  1.9283
12913SOL    HW250394   8.849   0.909   7.149  0.7433 -3.2468 -1.3367
12914SOL     OW50395   1.557   8.484   5.188  0.7789  0.0134  0.3470
12914SOL    HW150396   1.615   8.549   5.238  0.6666 -0.0099  0.5101
12914SOL    HW250397   1.589   8.391   5.207  0.8276  0.0118  0.2578
12915SOL     OW50398   6.947   4.872   2.014 -0.5208  0.3988 -0.4188
12915SOL    HW150399   6.939   4.950   2.076  2.1569  0.7340 -0.4675
12915SOL    HW250400   7.011   4.894   1.941 -0.4628 -1.5276 -0.9764
12916SOL     OW50401   7.106   0.058   4.156 -0.4138  0.1633 -0.1928
12916SOL    HW150402   7.075  -0.037   4.149  1.1549 -0.6487  3.0878
12916SOL    HW250403   7.185   0.071   4.097  0.0244 -0.8806  0.1539
12917SOL     OW50404   7.841   5.807   6.221  0.2128  0.0104 -0.5787
12917SOL    HW150405   7.756   5.827   6.171 -0.6875  0.0267  0.9331
12917SOL    HW250406   7.832   5.838   6.316  1.7621 -0.3830 -0.2897
12918SOL     OW50407   3.680   5.066   0.298 -0.4395  0.5116  0.2914
12918SOL    HW150408   3.645   5.022   0.381 -0.2011  1.2380  0.7838
12918SOL    HW250409   3.636   5.026   0.218 -1.8767  0.9140  0.8582
12919SOL     OW50410   7.648   2.815   3.070 -0.5276  0.6099  0.0638
12919SOL    HW150411   7.630   2.722   3.041 -1.3971  0.7224  0.2421
12919SOL    HW250412   7.615   2.828   3.164  0.7952  0.7123  0.5291
12920SOL     OW50413   6.283   8.542   3.160  0.7319 -0.2266  0.1526
12920SOL    HW150414   6.275   8.600   3.079  0.5837 -0.5887 -0.0891
12920SOL    HW250415   6.192   8.517   3.193  0.7583  0.9179  1.1447
12921SOL     OW50416   3.355   9.103   7.020 -0.3924  0.3519  0.9623
12921SOL    HW150417   3.434   9.080   7.076  0.1162 -2.0539 -0.6480
12921SOL    HW250418   3.283   9.142   7.077  1.9585  2.6966  2.4474
12922SOL     OW50419   0.781   1.717   4.698 -0.6859 -0.7611  0.1026
12922SOL    HW150420   0.809   1.636   4.749  0.2711 -0.7731 -0.4281
12922SOL    HW250421   0.823   1.799   4.738  1.4979 -0.9533 -1.6764
12923SOL     OW50422   9.103   7.051   4.170  0.3329 -0.1952  0.0798
12923SOL    HW150423   9.198   7.020   4.161  0.7450  1.0685 -0.0983
12923SOL    HW250424   9.041   6.978   4.142  1.2896 -0.6825 -0.8124
12924SOL     OW50425   4.304   2.860   5.968  0.0133  0.3144 -0.3809
12924SOL    HW150426   4.247   2.778   5.976  0.9874 -0.3169  0.1762
12924SOL    HW250427   4.291   2.901   5.878 -4.1358  2.3152  1.0042
12925SOL     OW50428   8.520   9.431   5.899  0.6579 -0.2205 -0.1610
12925SOL    HW150429   8.482   9.471   5.815 -1.4068 -1.6407  0.0701
12925SOL    HW250430   8.490   9.484   5.978 -0.5075 -1.0850 -0.0156
12926SOL     OW50431   8.727   9.721   6.102  0.4649  0.0169 -0.4420
12926SOL    HW150432   8.701   9.685   6.191  2.0740 -1.1811 -0.4171
12926SOL    HW250433   8.806   9.782   6.112  0.8866 -0.4145 -1.0595
12927SOL     OW50434   7.325   2.146   8.036  0.0796  0.6031  0.4876
12927SOL    HW150435   7.264   2.226   8.040  0.6437  1.1117 -0.6807
12927SOL    HW250436   7.420   2.176   8.043  0.3879  0.2413 -1.7187
12928SOL     OW50437   9.142   4.580   2.744 -0.1539  0.3038 -0.4178
12928SOL    HW150438   9.097   4.663   2.776  0.9618  0.2675  1.3005
12928SOL    HW250439   9.123   4.505   2.807  0.6642 -0.2020 -0.7651
12929SOL     OW50440   2.054   0.855   7.209 -0.0148  0.3444  0.2538
12929SOL    HW150441   2.086   0.839   7.302 -0.3372  0.4709  0.3878
12929SOL    HW250442   2.033   0.952   7.197  0.5957  0.4362 -0.1310
12930SOL     OW50443   3.045   9.637   8.136 -0.5141  0.6072  0.1818
12930SOL    HW150444   2.976   9.601   8.200  0.2400  1.0629  1.2657
12930SOL    HW250445   3.019   9.613   8.043 -0.7068 -1.6475  0.7727
12931SOL     OW50446   8.675   0.776   1.420 -0.0696 -0.2835  0.0867
12931SOL    HW150447   8.588   0.726   1.422  0.2065 -0.7759 -0.4801
12931SOL    HW250448   8.656   0.874   1.406 -0.4759 -0.5405 -1.2109
12932SOL     OW50449   1.651   5.426   2.130 -0.3621 -0.4015 -0.1162
12932SOL    HW150450   1.705   5.479   2.195 -0.5734  0.9947 -1.0670
12932SOL    HW250451   1.687   5.439   2.038  0.4045 -2.9560 -0.2341
12933SOL     OW50452   6.556   9.324   4.792  0.4046  0.3334  0.0478
12933SOL    HW150453   6.543   9.288   4.700  0.8961 -0.3825  0.2552
12933SOL    HW250454   6.646   9.297   4.826 -0.0384  0.0384  0.9925
12934SOL     OW50455   9.167   7.416   6.629 -0.6239 -0.1934  0.1660
12934SOL    HW150456   9.221   7.354   6.572 -0.0795  0.5566 -0.1508
12934SOL    HW250457   9.129   7.366   6.707 -0.8593 -1.0945 -0.5185
12935SOL     OW50458   4.253   2.503   0.223 -0.0625 -0.1385  1.2460
12935SOL    HW150459   4.279   2.599   0.231  2.4067 -0.6121 -0.5851
12935SOL    HW250460   4.296   2.451   0.297  0.2838 -0.1519  1.0367
12936SOL     OW50461   8.289   4.683   4.748  0.4119  0.2507  0.2434
12936SOL    HW150462   8.218   4.657   4.813  0.2334 -0.7474 -0.3409
12936SOL    HW250463   8.379   4.666   4.789  0.3171  1.3253  0.9068
12937SOL     OW50464   5.599   9.508   1.802  0.5742  0.1381  0.4024
12937SOL    HW150465   5.551   9.560   1.731 -1.7231 -2.2921  0.1043
12937SOL    HW250466   5.677   9.461   1.761 -1.2437 -1.9437 -0.7609
12938SOL     OW50467   0.522   5.551   1.858 -0.3430  0.0984 -0.4919
12938SOL    HW150468   0.503   5.599   1.772 -3.2880 -1.6435 -0.9037
12938SOL    HW250469   0.513   5.452   1.843  0.6877 -0.3156  1.4614
12939SOL     OW50470   8.688   4.462   7.832  0.5577  0.5791  0.3784
12939SOL    HW150471   8.651   4.522   7.762  0.6944 -0.0394 -0.2239
12939SOL    HW250472   8.627   4.461   7.911 -0.4745 -0.0815 -0.4232
12940SOL     OW50473   9.385   5.842   2.059 -0.7368 -0.3447 -0.2654
12940SOL    HW150474   9.456   5.779   2.028 -0.6012 -0.1100 -0.4392
12940SOL    HW250475   9.416   5.936   2.045 -0.6518 -0.2342  0.6349
12941SOL     OW50476   2.030   1.426   0.828 -0.1450 -0.0405  0.5983
12941SOL    HW150477   2.082   1.380   0.900  0.1465  1.1388  1.1676
12941SOL    HW250478   2.093   1.469   0.763 -0.3217  2.7718  2.1758
12942SOL     OW50479   6.262   0.907   1.616  0.0629 -0.1073  0.2818
12942SOL    HW150480   6.315   0.827   1.644  2.5858  0.9608 -1.2498
12942SOL    HW250481   6.246   0.967   1.695  1.5527 -0.2287  0.6892
12943SOL     OW50482   8.212   2.085   0.514  0.0829 -0.6805  0.3621
12943SOL    HW150483   8.136   2.108   0.454 -0.6134 -1.7183  0.8318
12943SOL    HW250484   8.284   2.154   0.505 -1.2749  0.7848  0.5507
12944SOL     OW50485   0.765   5.523   5.583  0.2877  0.5659  0.0237
12944SOL    HW150486   0.774   5.522   5.683  1.7338 -0.0492 -0.0923
12944SOL    HW250487   0.825   5.593   5.545 -0.8093  1.2985 -0.3801
12945SOL     OW50488   7.787   9.494   6.942 -0.1138 -0.6737  0.4465
12945SOL    HW150489   7.866   9.535   6.896  1.0598 -1.4462  1.7379
12945SOL    HW250490   7.756   9.555   7.015  1.0072 -1.5771  1.7116
12946SOL     OW50491   2.236   8.823   0.168 -0.5666  0.2352  0.0002
12946SOL    HW150492   2.148   8.790   0.134  0.3550  0.2394 -2.4826
12946SOL    HW250493   2.292   8.745   0.198 -1.2421  0.1986  1.1810
12947SOL     OW50494   9.063   6.324   5.855  0.1963 -0.9305  0.0940
12947SOL    HW150495   9.069   6.230   5.889 -0.2442 -0.2306  2.1771
12947SOL    HW250496   9.156   6.360   5.839  0.4854 -0.7469  2.0886
12948SOL     OW50497   1.324   3.331   1.506 -0.4365 -0.1446  0.2095
12948SOL    HW150498   1.409   3.279   1.501 -0.7948 -0.7342  0.2572
12948SOL    HW250499   1.290   3.332   1.600 -0.3807  0.2596  0.2280
12949SOL     OW50500   1.855   6.968   5.171 -0.5021  0.0660  0.0742
12949SOL    HW150501   1.896   7.056   5.147  1.7224 -0.5296  1.4298
12949SOL    HW250502   1.847   6.911   5.090  3.1159 -0.4388 -0.0079
12950SOL     OW50503   2.224   0.078   7.427  0.0022 -0.3009  0.1636
12950SOL    HW150504   2.152   0.142   7.452  0.1149 -1.4975  3.7349
12950SOL    HW250505   2.229   0.004   7.493  1.0086 -3.1611 -2.9514
12951SOL     OW50506   1.499   4.631   3.610  0.0641  0.6499 -0.7072
12951SOL    HW150507   1.524   4.547   3.563 -0.8171  0.4614 -0.8496
12951SOL    HW250508   1.558   4.643   3.691 -1.7058 -1.6318  0.9866
12952SOL     OW50509   8.640   1.857   1.198 -0.0898 -0.1328 -0.2243
12952SOL    HW150510   8.692   1.934   1.235  1.6442 -0.6453 -1.5349
12952SOL    HW250511   8.658   1.775   1.252 -0.3909 -0.0621 -0.0176
12953SOL     OW50512   5.015   2.085   2.688 -0.2350 -0.2476 -0.2610
12953SOL    HW150513   4.952   2.126   2.622 -1.9568  0.5440  1.8321
12953SOL    HW250514   4.971   2.007   2.732  0.5888 -0.2226  0.6199
12954SOL     OW50515   4.461   5.234   2.170  0.2134  0.1834 -0.1444
12954SOL    HW150516   4.486   5.158   2.230  2.0689 -0.3450 -1.5350
12954SOL    HW250517   4.368   5.264   2.191  0.0167 -1.4514  1.4616
12955SOL     OW50518   4.457   6.701   0.433  0.3125  0.1100 -0.7146
12955SOL    HW150519   4.397   6.781   0.427  1.5099  0.9844 -1.3559
12955SOL    HW250520   4.420   6.629   0.374  0.3775  0.9750 -1.8550
12956SOL     OW50521   2.520   0.968   6.376  0.0797 -0.1759 -0.3097
12956SOL    HW150522   2.422   0.974   6.360  0.3229  0.0292 -1.7654
12956SOL    HW250523   2.551   0.874   6.359  0.3400  0.0474 -1.1066
12957SOL     OW50524   7.117   7.565   7.307 -0.9395 -0.1161 -0.1120
12957SOL    HW150525   7.044   7.506   7.341 -0.6539  0.6232  1.8468
12957SOL    HW250526   7.191   7.508   7.271 -2.1109 -0.8788 -1.3837
12958SOL     OW50527   8.645   9.253   3.992  0.5133  0.2228  0.3700
12958SOL    HW150528   8.629   9.266   3.895  1.5007  1.7518  0.3875
12958SOL    HW250529   8.577   9.305   4.044 -1.1558 -2.0570  0.5360
12959SOL     OW50530   6.471   8.406   5.605  0.5307  0.3458  0.0521
12959SOL    HW150531   6.467   8.384   5.703  1.3315 -0.7623 -0.1609
12959SOL    HW250532   6.473   8.322   5.552 -1.9731  0.9386 -1.0283
12960SOL     OW50533   9.098   0.259   1.481  0.4190 -0.1124 -0.2155
12960SOL    HW150534   9.102   0.169   1.523 -0.0959  0.4459  1.0697
12960SOL    HW250535   9.148   0.325   1.538 -0.3320  0.6641 -0.4390
12961SOL     OW50536   1.791   3.109   2.604  0.3634 -0.0092  0.1123
12961SOL    HW150537   1.784   3.019   2.648 -1.1064 -0.0283 -0.1372
12961SOL    HW250538   1.699   3.146   2.591  0.9952  1.9037  0.9612
12962SOL     OW50539   2.234   5.391   5.028  0.2483  0.0420  0.0445
12962SOL    HW150540   2.196   5.426   4.942 -0.5999  0.0711  0.4268
12962SOL    HW250541   2.169   5.328   5.070  2.4004 -3.2363 -1.4044
12963SOL     OW50542   5.449   8.726   5.459 -0.7143 -0.1794  0.2197
12963SOL    HW150543   5.491   8.776   5.535  0.2207 -0.0963 -0.3474
12963SOL    HW250544   5.520   8.694   5.397 -1.3930 -1.2770  0.0045
12964SOL     OW50545   8.221   8.127   5.918 -0.3314 -0.1083 -0.1762
12964SOL    HW150546   8.262   8.173   5.839 -0.2078  0.6869  0.3436
12964SOL    HW250547   8.176   8.195   5.976 -0.1994 -0.6569  0.5716
12965SOL     OW50548   0.121   6.662   4.830 -0.2031 -0.4225  0.2887
12965SOL    HW150549   0.183   6.606   4.775  0.7965 -1.3624  2.3264
12965SOL    HW250550   0.059   6.603   4.881  0.0236  0.3559  1.4917
12966SOL     OW50551   5.753   4.878   0.687  0.2753 -0.2063 -0.4238
12966SOL    HW150552   5.684   4.832   0.741 -1.4670  1.1793 -1.4313
12966SOL    HW250553   5.830   4.903   0.745 -0.5760 -0.7214  0.9371
12967SOL     OW50554   3.643   5.641   7.461  0.4201 -0.1951 -0.3977
12967SOL    HW150555   3.661   5.544   7.478 -1.2184 -0.2891  0.8618
12967SOL    HW250556   3.726   5.693   7.482  0.7155 -1.1222  0.8670
12968SOL     OW50557   2.329   7.122   0.560 -0.2653 -0.2568  0.2995
12968SOL    HW150558   2.229   7.119   0.568 -0.1735  0.3265  1.8323
12968SOL    HW250559   2.365   7.193   0.621  1.0227  0.1455 -0.9124
12969SOL     OW50560   2.368   3.220   4.063  0.2280 -0.4104  0.2549
12969SOL    HW150561   2.305   3.237   4.138  0.4717  0.8324  0.1918
12969SOL    HW250562   2.347   3.132   4.021 -1.5956  0.0814  0.0943
12970SOL     OW50563   3.134   2.418   5.960 -0.0986  0.2815  0.2287
12970SOL    HW150564   3.147   2.334   6.012  1.7251 -0.1292 -0.8432
12970SOL    HW250565   3.190   2.491   5.999 -0.1928  0.4779 -0.0010
12971SOL     OW50566   8.516   6.152   3.747  0.7511  0.3419 -0.3974
12971SOL    HW150567   8.421   6.176   3.762  0.3021 -1.6578  0.1536
12971SOL    HW250568   8.543   6.080   3.811  2.6921  1.0221 -0.4104
12972SOL     OW50569   9.032   9.510   6.190 -0.5187  0.3519 -0.0569
12972SOL    HW150570   8.960   9.514   6.121 -1.4020  1.4282  0.9045
12972SOL    HW250571   9.066   9.602   6.209  0.9798 -0.1239 -0.3505
12973SOL     OW50572   2.018   4.540   5.239  0.0620  0.0968  0.2025
12973SOL    HW150573   2.088   4.521   5.307 -0.6178 -1.7533  0.4083
12973SOL    HW250574   1.969   4.624   5.264  0.6784  0.1363  1.2867
12974SOL     OW50575   9.254   9.373   6.126  0.0202 -0.2210  0.3779
12974SOL    HW150576   9.176   9.430   6.103  1.5095  1.3686 -0.8759
12974SOL    HW250577   9.245   9.340   6.220 -2.4317 -0.5876  0.0436
12975SOL     OW50578   4.880   3.846   2.112 -0.4443  0.1958 -0.1038
12975SOL    HW150579   4.830   3.897   2.043 -0.9918  0.8374  0.7584
12975SOL    HW250580   4.821   3.830   2.191  1.6167  3.7866  2.3214
12976SOL     OW50581   1.250   8.626   0.698  0.0694 -0.5652 -0.6427
12976SOL    HW150582   1.246   8.705   0.637 -1.1048 -1.1754 -1.3959
12976SOL    HW250583   1.222   8.653   0.790  1.5748  0.3044 -0.4391
12977SOL     OW50584   2.385   3.147   5.564 -0.0388  0.1384 -0.1510
12977SOL    HW150585   2.315   3.216   5.547 -0.9844 -0.8911 -0.5350
12977SOL    HW250586   2.474   3.182   5.536 -0.6945  0.7293 -1.5636
12978SOL     OW50587   0.515   1.312   4.045  0.1366 -0.1030 -0.1427
12978SOL    HW150588   0.470   1.248   3.982 -0.4581  0.5679 -0.4060
12978SOL    HW250589   0.470   1.401   4.040  1.3777  0.5299 -0.2713
12979SOL     OW50590   4.286   8.503   6.504  0.6396 -0.7087  0.3229
12979SOL    HW150591   4.312   8.411   6.535 -1.5026 -0.7795  1.9787
12979SOL    HW250592   4.190   8.519   6.524  0.4958  1.1842 -1.7574
12980SOL     OW50593   4.006   0.642   3.075  0.1156 -0.4770  0.3060
12980SOL    HW150594   3.957   0.625   2.989 -0.0572  0.0678  0.2910
12980SOL    HW250595   4.016   0.741   3.088 -1.4263 -0.4849  1.7716
12981SOL     OW50596   1.258   8.160   0.876  0.3659 -0.2469  0.3226
12981SOL    HW150597   1.162   8.171   0.902  0.4273 -0.5280  0.6704
12981SOL    HW250598   1.315   8.157   0.959  0.4667 -2.0699  0.2025
12982SOL     OW50599   1.792   5.218   4.506  0.3511  0.0831 -0.3128
12982SOL    HW150600   1.837   5.217   4.417 -0.1202  0.2980 -0.5529
12982SOL    HW250601   1.695   5.193   4.495  0.7612 -1.8993  0.3874
12983SOL     OW50602   4.115   0.521   6.057  0.6980  0.6313 -0.2846
12983SOL    HW150603   4.039   0.505   5.994  0.6472 -2.7859  0.5396
12983SOL    HW250604   4.200   0.494   6.014  1.0212  1.0768  0.0693
12984SOL     OW50605   9.413   1.162   0.383 -0.1608 -0.1282 -0.1641
12984SOL    HW150606   9.335   1.185   0.442 -1.0117 -0.2535 -1.2162
12984SOL    HW250607   9.383   1.099   0.312  1.1835 -1.0936  0.1113
12985SOL     OW50608   1.220   7.504   6.776  0.2494 -0.3620  0.3447
12985SOL    HW150609   1.221   7.444   6.855 -0.4979  1.2648  1.6051
12985SOL    HW250610   1.224   7.599   6.806  1.9035  0.2414 -1.6332
12986SOL     OW50611   0.199   6.265   1.854  0.0737 -0.1564 -0.1835
12986SOL    HW150612   0.243   6.264   1.944  0.6224 -3.0262 -0.4253
12986SOL    HW250613   0.100   6.264   1.865  0.0984  2.1107  0.3740
12987SOL     OW50614   3.700   6.161   0.842 -0.0400 -0.1404 -0.2482
12987SOL    HW150615   3.784   6.107   0.837 -0.3098 -0.4380 -1.7793
12987SOL    HW250616   3.721   6.258   0.830 -0.1801 -0.4510 -3.7309
12988SOL     OW50617   0.248   2.581   7.305  0.0268  0.3348  0.1381
12988SOL    HW150618   0.273   2.512   7.237  0.4671  2.0077 -1.4534
12988SOL    HW250619   0.150   2.603   7.295 -0.3064 -0.6307  1.1913
12989SOL     OW50620   8.410   2.549   5.018  0.6360 -0.1302  0.4087
12989SOL    HW150621   8.452   2.616   5.079  2.1843  0.6203 -1.4494
12989SOL    HW250622   8.372   2.595   4.939  0.5722 -1.3117 -0.2567
12990SOL     OW50623   4.249   4.998   3.560  0.1661 -0.4610  0.0532
12990SOL    HW150624   4.169   5.036   3.512  1.0887 -0.2530 -1.3664
12990SOL    HW250625   4.254   5.036   3.652 -0.7012  0.4451 -0.2616
12991SOL     OW50626   1.808   0.927   4.915 -0.0947  0.5420  0.2755
12991SOL    HW150627   1.886   0.976   4.955  0.3831  0.7347 -0.8636
12991SOL    HW250628   1.723   0.973   4.941  0.2675  1.2272  0.2762
12992SOL     OW50629   6.650   5.697   0.219  0.4100 -0.4637 -0.0477
12992SOL    HW150630   6.677   5.761   0.292  0.9084 -0.0022 -0.6334
12992SOL    HW250631   6.551   5.682   0.222  0.1984  0.8348 -0.3100
12993SOL     OW50632   1.235   2.070   7.862 -0.3117  0.3684 -0.2475
12993SOL    HW150633   1.305   2.139   7.845 -2.4028  2.0035 -2.5740
12993SOL    HW250634   1.201   2.079   7.955  1.9351  0.1450  0.6027
12994SOL     OW50635   8.754   7.178   1.236  0.7578 -0.3647  0.4442
12994SOL    HW150636   8.730   7.086   1.265 -0.8102 -0.2254 -0.3540
12994SOL    HW250637   8.722   7.245   1.303 -0.9806 -0.1934 -0.5223
12995SOL     OW50638   9.751   5.365   2.908  0.4322 -0.5240 -0.5365
12995SOL    HW150639   9.659   5.339   2.938 -0.2700  0.4004 -1.8295
12995SOL    HW250640   9.818   5.300   2.945 -0.7980 -1.5593 -0.0918
12996SOL     OW50641   7.584   5.969   5.631  0.1390  0.3568  0.0404
12996SOL    HW150642   7.663   5.985   5.690 -0.7317  1.7238  0.8576
12996SOL    HW250643   7.500   5.967   5.686 -0.5784  0.6346 -1.0158
12997SOL     OW50644   8.207   9.282   2.465  0.5044 -0.3532 -0.2918
12997SOL    HW150645   8.229   9.276   2.563 -1.2716  1.1276  0.2212
12997SOL    HW250646   8.219   9.376   2.434 -0.6053 -0.4690 -1.0884
12998SOL     OW50647   9.495   2.363   1.757  0.1841 -0.3451  0.1180
12998SOL    HW150648   9.548   2.302   1.698  0.7127 -1.2178  1.4653
12998SOL    HW250649   9.423   2.311   1.803 -0.3621  0.3740  0.0916
12999SOL     OW50650   0.663   5.360   3.655 -0.1153  0.0076 -0.0490
12999SOL    HW150651   0.757   5.386   3.634  0.2807 -1.4675 -0.1523
12999SOL    HW250652   0.600   5.421   3.607  0.7856  0.5521 -0.5519
13000SOL     OW50653   1.358   5.840   3.458 -0.3945 -0.1126  0.2866
13000SOL    HW150654   1.437   5.889   3.494  0.5028 -2.2617  1.3322
13000SOL    HW250655   1.282   5.847   3.522 -0.8411  1.3491 -0.3830
13001SOL     OW50656   7.312   9.505   2.924 -0.0503  0.0814  0.3399
13001SOL    HW150657   7.253   9.435   2.884  0.7510  0.9153 -2.4658
13001SOL    HW250658   7.406   9.491   2.891 -0.1083  3.1835 -1.2882
13002SOL     OW50659   7.796   6.285   8.013 -0.3121 -0.2759 -0.3287
13002SOL    HW150660   7.781   6.300   7.915 -0.9587 -0.7233 -0.2989
13002SOL    HW250661   7.829   6.191   8.027  0.8024  0.1241 -0.2174
13003SOL     OW50662   9.346   6.920   5.852 -0.3277 -0.0127 -0.1516
13003SOL    HW150663   9.401   6.837   5.866 -0.0695  0.3741  1.2009
13003SOL    HW250664   9.267   6.899   5.796  0.3991 -0.9145 -0.8495
13004SOL     OW50665   8.793   3.469   4.068 -0.3084  0.0796  0.4948
13004SOL    HW150666   8.773   3.371   4.069 -0.9238  0.1425 -1.9707
13004SOL    HW250667   8.707   3.520   4.060  0.1571  0.6957 -0.7912
13005SOL     OW50668   0.471   7.809   8.151 -1.2727  0.2336  0.2501
13005SOL    HW150669   0.452   7.752   8.072 -1.5359 -0.4782  0.8202
13005SOL    HW250670   0.405   7.789   8.224  0.3439 -0.7413  1.4739
13006SOL     OW50671   0.301   7.535   3.381  0.3558 -0.3964 -0.4872
13006SOL    HW150672   0.351   7.516   3.465  1.1864  2.0752 -0.3827
13006SOL    HW250673   0.363   7.526   3.302  0.2255 -0.1827 -0.6142
13007SOL     OW50674   0.655   2.292   8.136 -0.8453 -0.3408  0.1252
13007SOL    HW150675   0.671   2.234   8.216 -2.4693  0.5190  1.1074
13007SOL    HW250676   0.742   2.329   8.103  0.1431 -2.8867 -0.1910
13008SOL     OW50677   7.082   2.813   1.785 -0.2863 -0.3972  0.4630
13008SOL    HW150678   7.166   2.760   1.786 -0.0250  0.0167  0.8038
13008SOL    HW250679   7.007   2.757   1.751  0.4275 -0.3120 -1.2717
13009SOL     OW50680   6.061   0.383   2.693  0.2151  0.2470 -0.2935
13009SOL    HW150681   6.137   0.333   2.735 -0.4404 -0.5509 -0.0258
13009SOL    HW250682   5.982   0.381   2.755 -0.1193  0.8094 -0.6945
13010SOL     OW50683   9.072   9.871   3.032 -0.0920  0.7125 -0.0667
13010SOL    HW150684   9.070   9.789   3.089  0.2065  0.2955 -0.6554
13010SOL    HW250685   9.103   9.949   3.087  2.9644 -0.2468 -0.3747
13011SOL     OW50686   1.567   4.499   2.068 -0.0223 -0.0568  0.5973
13011SOL    HW150687   1.602   4.413   2.106  1.0156  0.4230  0.7488
13011SOL    HW250688   1.479   4.521   2.111 -0.0282 -0.7535  0.9590
13012SOL     OW50689   0.507   7.109   5.649  0.6111 -0.0248 -0.2016
13012SOL    HW150690   0.431   7.056   5.612  1.6402 -0.5142 -1.6236
13012SOL    HW250691   0.516   7.195   5.598  2.4974 -1.0304 -1.6313
13013SOL     OW50692   4.411   7.069   2.006  0.0625  0.1717 -0.0285
13013SOL    HW150693   4.490   7.084   2.066 -0.1568  1.3701 -0.0253
13013SOL    HW250694   4.387   6.972   2.006 -0.3554  0.2608  2.3362
13014SOL     OW50695   2.909   7.938   5.471  0.1373  0.2454 -0.1589
13014SOL    HW150696   2.835   7.882   5.435  1.7199 -0.5458 -2.2790
13014SOL    HW250697   2.899   7.947   5.570 -2.9477  0.4322 -0.4549
13015SOL     OW50698   6.156   8.103   6.441  0.0837 -0.4723 -0.2897
13015SOL    HW150699   6.195   8.150   6.362  0.8450  1.8708  1.4271
13015SOL    HW250700   6.096   8.165   6.491  3.2188 -0.2637  3.5790
13016SOL     OW50701   8.396   5.195   3.149 -0.1046  0.3084  0.1867
13016SOL    HW150702   8.421   5.265   3.082  3.0297  1.0287  1.9971
13016SOL    HW250703   8.349   5.238   3.226 -1.3065 -0.1283 -0.2894
13017SOL     OW50704   8.035   1.384   0.442  0.2448 -0.0898  0.0572
13017SOL    HW150705   8.128   1.420   0.447  0.2563 -0.0464 -0.5304
13017SOL    HW250706   8.033   1.306   0.379  0.2445 -1.1917  1.3883
13018SOL     OW50707   0.244   3.646   5.053  0.4996 -0.5969  0.4620
13018SOL    HW150708   0.330   3.695   5.068 -0.4083  1.0689  0.3008
13018SOL    HW250709   0.236   3.573   5.122  2.3571 -1.2491  0.0350
13019SOL     OW50710   4.665   7.581   4.144 -0.1144 -0.2445  0.2201
13019SOL    HW150711   4.608   7.508   4.106 -0.5575  0.7592 -1.0666
13019SOL    HW250712   4.632   7.604   4.236 -2.1282  0.6793 -0.7081
13020SOL     OW50713   6.841   2.406   3.781  0.5117 -0.5561 -0.1253
13020SOL    HW150714   6.860   2.335   3.712 -2.8670 -1.2045 -0.4436
13020SOL    HW250715   6.771   2.468   3.746  0.7879  0.7790  1.6437
13021SOL     OW50716   1.229   8.067   1.545 -0.2934 -0.0097  0.3990
13021SOL    HW150717   1.327   8.088   1.546 -0.1837 -0.3525 -1.7385
13021SOL    HW250718   1.216   7.968   1.543 -0.7109  0.0227  1.1565
13022SOL     OW50719   9.833   2.968   7.174 -0.4346 -0.0668 -0.1062
13022SOL    HW150720   9.753   2.963   7.233 -1.0140 -2.5926 -1.0464
13022SOL    HW250721   9.845   2.881   7.126  2.0079  0.7776 -1.1205
13023SOL     OW50722   9.086   2.529   1.893 -0.0539  0.4759 -0.2810
13023SOL    HW150723   9.116   2.475   1.971 -1.0589 -1.1975 -1.0057
13023SOL    HW250724   9.116   2.485   1.808 -0.1555  1.5242 -0.8738
13024SOL     OW50725   1.404   0.493   3.204  0.5007 -0.3780 -0.1104
13024SOL    HW150726   1.385   0.395   3.196  1.7520 -0.6278 -0.2144
13024SOL    HW250727   1.414   0.533   3.113  0.0328 -0.1610 -0.0671
13025SOL     OW50728   6.720   8.779   3.166 -0.3932 -0.8168 -0.9247
13025SOL    HW150729   6.688   8.866   3.205  1.4649 -0.5774  0.1592
13025SOL    HW250730   6.678   8.703   3.216 -0.7115 -0.5310 -0.7499
13026SOL     OW50731   9.315   8.009   3.144  0.7822  0.6011  0.4341
13026SOL    HW150732   9.216   8.025   3.141  0.8011  0.6228 -0.0308
13026SOL    HW250733   9.347   8.019   3.238  0.3021  0.3475  0.6271
13027SOL     OW50734   3.120   6.985   7.090  0.0904 -1.0473 -0.2125
13027SOL    HW150735   3.209   7.021   7.064 -0.1539 -0.7201 -0.6050
13027SOL    HW250736   3.079   6.938   7.012 -0.8522  0.3468 -0.5660
13028SOL     OW50737   1.698   6.814   5.394  0.2767  0.1593 -0.0916
13028SOL    HW150738   1.736   6.880   5.329 -0.3537  0.8468  0.2235
13028SOL    HW250739   1.641   6.748   5.345 -2.8790  2.5969  0.0536
13029SOL     OW50740   9.149   3.119   1.165 -0.4668 -0.2677  0.8802
13029SOL    HW150741   9.135   3.059   1.244  0.3186  0.4606  1.5812
13029SOL    HW250742   9.238   3.099   1.125 -0.7893 -0.5093  0.2840
13030SOL     OW50743   9.110   9.404   5.503 -0.1144 -0.1886  0.2980
13030SOL    HW150744   9.141   9.485   5.453 -0.5669  0.2602  0.7380
13030SOL    HW250745   9.045   9.353   5.446 -0.7714  0.4227  0.4942
13031SOL     OW50746   6.885   6.669   5.498 -0.0331 -0.1008  0.3674
13031SOL    HW150747   6.930   6.688   5.585  2.2815  2.7888 -1.3629
13031SOL    HW250748   6.952   6.638   5.432 -1.4687 -0.5236 -0.9256
13032SOL     OW50749   6.523   0.852   6.382  0.2349  0.9024  0.2080
13032SOL    HW150750   6.499   0.776   6.321  0.2185  0.9050  0.2115
13032SOL    HW250751   6.518   0.938   6.331 -0.5727  0.9866  0.4244
13033SOL     OW50752   1.294   7.362   0.021  0.4188  0.4214  0.4603
13033SOL    HW150753   1.377   7.307   0.033  0.5677  0.2648 -1.2134
13033SOL    HW250754   1.217   7.302   0.001  0.2654  0.7124  0.1833
13034SOL     OW50755   3.399   1.194   0.064 -0.0259 -0.4814  0.4234
13034SOL    HW150756   3.382   1.292   0.077 -0.8525 -0.5234 -0.3153
13034SOL    HW250757   3.497   1.177   0.073  0.0552  0.3193  1.1532
13035SOL     OW50758   2.059   8.273   2.823  0.4824 -0.5657 -0.6380
13035SOL    HW150759   2.145   8.250   2.778  0.8429  1.3025 -0.9258
13035SOL    HW250760   2.062   8.367   2.856 -0.8356 -1.0013  0.8194
13036SOL     OW50761   9.309   8.037   4.836  0.8466 -0.0471  0.2817
13036SOL    HW150762   9.320   7.938   4.825 -4.8586 -1.0070  1.1868
13036SOL    HW250763   9.378   8.085   4.783  2.1519 -4.5376 -2.3418
13037SOL     OW50764   3.121   6.326   7.527  0.3226 -0.3287 -0.0771
13037SOL    HW150765   3.070   6.376   7.456  0.8032  0.0463 -0.1579
13037SOL    HW250766   3.154   6.390   7.596  0.7018 -0.5688 -0.0354
13038SOL     OW50767   9.694   7.024   4.494  0.5243  0.4306 -0.8544
13038SOL    HW150768   9.745   6.946   4.457 -0.5735 -0.2755 -0.9031
13038SOL    HW250769   9.609   7.035   4.442 -0.6577 -0.0689  0.9284
13039SOL     OW50770   9.276   0.861   7.072  0.0020  0.4149  0.3335
13039SOL    HW150771   9.367   0.892   7.046  0.2176 -1.0879 -0.8083
13039SOL    HW250772   9.212   0.878   6.997  0.1005 -1.6883 -0.2745
13040SOL     OW50773   3.128   3.198   2.192 -0.0670 -0.1175  0.1357
13040SOL    HW150774   3.100   3.293   2.181  0.2282  0.0108  0.4485
13040SOL    HW250775   3.180   3.189   2.277  1.9360 -0.0841 -1.0517
13041SOL     OW50776   0.280   4.370   1.690  0.1131  0.3079  0.8199
13041SOL    HW150777   0.260   4.463   1.661  1.5002  0.6234  0.8569
13041SOL    HW250778   0.322   4.320   1.614  0.4787  0.0798  1.1722
13042SOL     OW50779   5.036   9.455   5.956 -0.0708  0.3134  0.2174
13042SOL    HW150780   5.063   9.359   5.947  0.2704  0.1771  2.4853
13042SOL    HW250781   5.107   9.506   6.004 -1.1975  1.2437  0.9239
13043SOL     OW50782   1.753   7.693   0.095  0.1440 -0.0144  0.1912
13043SOL    HW150783   1.661   7.694   0.134 -0.0104  1.7736 -0.1665
13043SOL    HW250784   1.746   7.690  -0.005  0.5029 -1.6551  0.2064
13044SOL     OW50785   0.546   7.982   7.201 -0.0000  0.0260  0.0910
13044SOL    HW150786   0.621   7.927   7.165  0.5754  0.9975 -0.2157
13044SOL    HW250787   0.507   8.037   7.127 -0.0075  0.6670  0.5678
13045SOL     OW50788   5.616   0.888   4.940 -0.9110 -0.0148  0.3366
13045SOL    HW150789   5.552   0.965   4.945  0.7424  1.4722 -1.0728
13045SOL    HW250790   5.565   0.805   4.913 -2.3191  1.0620 -0.4227
13046SOL     OW50791   1.965   5.524   1.197 -0.1649  0.9046  0.1593
13046SOL    HW150792   1.939   5.430   1.176  0.6166  0.2529  2.0056
13046SOL    HW250793   1.943   5.583   1.119 -2.2400 -0.5016 -0.3594
13047SOL     OW50794   8.620   6.291   2.824 -0.0741  0.2113 -0.0327
13047SOL    HW150795   8.559   6.258   2.752  0.0912 -0.4769  0.1426
13047SOL    HW250796   8.715   6.267   2.800 -0.2463 -2.4558  1.7240
13048SOL     OW50797   4.158   2.452   4.779 -0.3637 -0.7332  0.3828
13048SOL    HW150798   4.149   2.542   4.737 -0.6050 -1.2910 -0.7602
13048SOL    HW250799   4.177   2.463   4.877 -1.3415  0.5506  0.4402
13049SOL     OW50800   3.683   8.969   4.327 -0.3846 -0.4077 -0.4489
13049SOL    HW150801   3.738   8.968   4.410  0.0946 -1.0764 -0.7703
13049SOL    HW250802   3.591   8.934   4.348 -0.8355  1.1335  0.1770
13050SOL     OW50803   8.422   6.378   7.419 -0.5613  0.1448 -0.5860
13050SOL    HW150804   8.400   6.438   7.343 -0.4638 -0.1054 -0.8113
13050SOL    HW250805   8.337   6.346   7.462 -0.6372 -0.4847 -1.1955
13051SOL     OW50806   0.124   1.392   1.381 -0.1139 -0.0796  0.0711
13051SOL    HW150807   0.035   1.437   1.374 -0.4387 -0.6919  0.2209
13051SOL    HW250808   0.113   1.303   1.426  0.7066  0.2288  0.8988
13052SOL     OW50809   0.443   7.732   6.928 -0.0864 -0.2068  0.3599
13052SOL    HW150810   0.542   7.740   6.939 -0.1673  0.0754  0.9286
13052SOL    HW250811   0.405   7.687   7.009 -0.3202 -1.1401 -0.2626
13053SOL     OW50812   4.591   5.111   1.237  0.8719  0.5691 -0.1029
13053SOL    HW150813   4.631   5.044   1.173  1.0514 -1.4268  2.0618
13053SOL    HW250814   4.500   5.136   1.205  0.2191 -1.7844 -0.2298
13054SOL     OW50815   1.744   2.669   7.477  0.8028 -0.0017 -0.1296
13054SOL    HW150816   1.825   2.614   7.499  0.2747 -1.2558 -1.2173
13054SOL    HW250817   1.709   2.642   7.387 -1.4228 -0.2260  0.7597
13055SOL     OW50818   9.101   3.435   5.855  0.3754 -0.0177 -0.4680
13055SOL    HW150819   9.189   3.459   5.895  0.2707 -1.7575  0.8601
13055SOL    HW250820   9.031   3.435   5.926 -0.7085  1.3901 -1.5290
13056SOL     OW50821   2.519   3.998   4.391  0.1472 -0.1587 -0.1675
13056SOL    HW150822   2.583   3.928   4.425  0.6868 -0.1223 -1.0923
13056SOL    HW250823   2.446   3.954   4.339  0.2579 -0.0782 -0.3945
13057SOL     OW50824   7.059   2.126   4.848  0.3510 -0.0478 -0.0461
13057SOL    HW150825   7.006   2.181   4.783  0.6049 -0.9425 -1.0214
13057SOL    HW250826   7.150   2.165   4.859  0.4200 -0.0853 -0.4852
13058SOL     OW50827   1.708   9.953   5.099  0.3769  0.2315  0.0331
13058SOL    HW150828   1.634  10.002   5.145  0.1095  0.5247 -0.6899
13058SOL    HW250829   1.793  10.006   5.106  0.4021  0.1386  0.4271
13059SOL     OW50830   7.322   7.629   3.635  0.7469 -0.6342  0.4047
13059SOL    HW150831   7.233   7.634   3.680  0.3209  0.7123 -0.5658
13059SOL    HW250832   7.392   7.668   3.694  0.3148  0.4138  0.2250
13060SOL     OW50833   0.638   8.129   4.705 -0.7596  0.3644  0.3869
13060SOL    HW150834   0.628   8.041   4.660 -0.0313  0.9407 -0.9415
13060SOL    HW250835   0.585   8.130   4.790 -0.7870 -1.3273  0.3964
13061SOL     OW50836   3.126   6.678   4.219  0.0622 -0.3175  0.1312
13061SOL    HW150837   3.175   6.651   4.301  1.7509 -0.4481 -0.8830
13061SOL    HW250838   3.033   6.643   4.222 -1.0943  2.8155  3.6568
13062SOL     OW50839   8.072   5.525   0.803 -0.3332  0.4217 -0.3022
13062SOL    HW150840   8.026   5.437   0.807  0.1665  0.1048 -1.2543
13062SOL    HW250841   8.095   5.555   0.895  0.8206 -1.1599 -0.0454
13063SOL     OW50842   9.597   1.690   5.053  0.2514  0.1857  0.0658
13063SOL    HW150843   9.676   1.675   4.994  0.4833  1.4768  0.0332
13063SOL    HW250844   9.627   1.689   5.149 -0.2334 -2.6008  0.2219
13064SOL     OW50845   7.943   6.569   1.337  0.2281  0.4804  0.0561
13064SOL    HW150846   7.988   6.488   1.298 -0.4804  1.2505 -2.4758
13064SOL    HW250847   7.904   6.624   1.263 -1.9431  1.5828  1.9731
13065SOL     OW50848   1.352   6.400   7.970  0.0956 -0.1177  0.1931
13065SOL    HW150849   1.413   6.330   8.008  0.0659  0.1794  0.7963
13065SOL    HW250850   1.405   6.481   7.947  0.0647 -0.1872 -0.1287
13066SOL     OW50851   6.687   7.651   5.758 -0.5915  0.1633  0.5417
13066SOL    HW150852   6.678   7.554   5.734  0.0576  0.6832 -1.9457
13066SOL    HW250853   6.597   7.690   5.774 -1.1598  0.0710 -2.3104
13067SOL     OW50854   3.770   6.115   3.048  0.4181 -0.5299  0.3426
13067SOL    HW150855   3.770   6.211   3.076  1.7059  0.0430 -1.4779
13067SOL    HW250856   3.729   6.108   2.956 -0.0271 -1.7731  0.6299
13068SOL     OW50857   7.284   8.703   6.849  0.1339 -0.1177 -0.0319
13068SOL    HW150858   7.339   8.619   6.847 -0.5078 -0.5478  0.1229
13068SOL    HW250859   7.220   8.702   6.773  1.9204  1.4770 -1.5963
13069SOL     OW50860   2.488   3.245   4.437 -0.4860 -0.0198 -0.3739
13069SOL    HW150861   2.460   3.295   4.519  0.6127 -0.4841  0.2905
13069SOL    HW250862   2.517   3.309   4.367  2.2409  0.2660  0.9540
13070SOL     OW50863   9.915   0.166   7.082 -0.0729  0.5265  0.5272
13070SOL    HW150864   9.956   0.226   7.151  0.3888 -0.2907  0.9762
13070SOL    HW250865   9.820   0.148   7.107 -0.3620  1.4819  0.1163
13071SOL     OW50866   0.408   0.409   8.018  0.4774  0.2257  0.3675
13071SOL    HW150867   0.440   0.504   8.022 -1.0023  0.6879  1.8652
13071SOL    HW250868   0.487   0.348   8.013  1.5699  1.4133  2.1294
13072SOL     OW50869   9.687   6.501   4.939 -0.5371  0.0841  0.0842
13072SOL    HW150870   9.686   6.596   4.972  0.4959 -0.4969  1.8499
13072SOL    HW250871   9.614   6.449   4.985  2.2277 -1.2464  3.1169
13073SOL     OW50872   7.970   8.354   1.864  0.0939  0.2337 -0.2490
13073SOL    HW150873   8.029   8.361   1.944  0.4017 -0.9344 -0.3518
13073SOL    HW250874   7.938   8.444   1.836  1.3609  0.8064  0.1662
13074SOL     OW50875   4.695   3.819   3.747 -0.2616 -0.1916 -0.7707
13074SOL    HW150876   4.695   3.914   3.778 -4.2053 -0.7979  1.4029
13074SOL    HW250877   4.617   3.803   3.686 -0.1973 -2.2547 -0.3521
13075SOL     OW50878   6.040   2.115   4.788 -0.2233  0.0099 -0.0319
13075SOL    HW150879   6.124   2.102   4.735  0.5290  0.5971  1.0235
13075SOL    HW250880   6.038   2.050   4.864 -0.4377  0.4206  0.3101
13076SOL     OW50881   9.509   7.948   0.072  0.0010  0.2127 -0.4749
13076SOL    HW150882   9.473   8.025   0.020 -2.3587 -0.3709  0.2682
13076SOL    HW250883   9.475   7.862   0.033 -0.4949 -0.2961  1.0578
13077SOL     OW50884   4.586   3.425   6.564 -0.4049  0.6941 -0.0989
13077SOL    HW150885   4.497   3.390   6.535 -0.8969  0.3738  1.7610
13077SOL    HW250886   4.584   3.445   6.662  1.6538  0.4657  0.0066
13078SOL     OW50887   2.137   1.442   6.725 -0.1395 -0.4946  0.0608
13078SOL    HW150888   2.221   1.393   6.749 -0.8944 -1.5577  0.5630
13078SOL    HW250889   2.081   1.455   6.808 -0.3501  0.4439 -0.2222
13079SOL     OW50890   2.921   5.541   5.401 -0.2440  0.1873 -0.0943
13079SOL    HW150891   2.899   5.615   5.464 -0.8808 -0.4736  0.4754
13079SOL    HW250892   2.986   5.573   5.332  0.6044  0.8726  1.0115
13080SOL     OW50893   5.890   1.580   5.098 -0.4134 -0.0315  0.1376
13080SOL    HW150894   5.838   1.623   5.172 -0.6655  1.1939 -0.7347
13080SOL    HW250895   5.976   1.544   5.134 -0.9927 -0.3563  1.2165
13081SOL     OW50896   9.047   8.033   3.156 -0.2238 -0.5520  0.1105
13081SOL    HW150897   9.064   8.011   3.252  1.4265 -1.7912 -0.4476
13081SOL    HW250898   8.962   8.086   3.148 -0.9024 -1.3028  2.1392
13082SOL     OW50899   6.591   4.685   0.935 -0.0700 -0.4093  0.5956
13082SOL    HW150900   6.619   4.774   0.969 -0.4438  0.4781 -1.3780
13082SOL    HW250901   6.506   4.658   0.981 -0.0865  0.3490  1.0255
13083SOL     OW50902   3.793   1.323   7.134 -0.5922  0.1394 -0.0403
13083SOL    HW150903   3.818   1.274   7.217 -2.1001 -0.3557  0.1425
13083SOL    HW250904   3.840   1.283   7.055  0.9673  0.7111  0.5773
13084SOL     OW50905   5.782   5.323   1.486 -0.9724  0.6770 -0.5558
13084SOL    HW150906   5.716   5.252   1.460 -0.9340  0.6252 -0.5098
13084SOL    HW250907   5.742   5.413   1.468 -0.2967  0.6391 -2.4338
13085SOL     OW50908   0.205   1.999   7.311 -0.1208  0.3911 -0.0741
13085SOL    HW150909   0.111   2.005   7.276 -0.5368 -1.6560  0.5959
13085SOL    HW250910   0.204   2.011   7.410  0.1900 -0.5393  0.0523
13086SOL     OW50911   7.513   4.186   6.999  0.4675  0.1153  0.3582
13086SOL    HW150912   7.503   4.260   7.066  0.5518 -1.2870  1.9435
13086SOL    HW250913   7.610   4.173   6.979  0.3133  2.0839 -1.8269
13087SOL     OW50914   4.325   8.542   0.472 -0.5340 -0.0801 -0.0088
13087SOL    HW150915   4.285   8.504   0.388  1.9958  0.1716 -1.3926
13087SOL    HW250916   4.417   8.576   0.452 -0.2231  0.7731  2.7045
13088SOL     OW50917   0.393   0.903   7.513  0.3306 -0.0497  0.1840
13088SOL    HW150918   0.462   0.960   7.469  0.2866  0.2551  0.5122
13088SOL    HW250919   0.360   0.948   7.596 -0.7968  0.1302 -0.3593
13089SOL     OW50920   7.183   8.519   4.908  0.3332  0.9254 -0.1033
13089SOL    HW150921   7.098   8.486   4.867  1.5017 -1.7112 -0.4995
13089SOL    HW250922   7.237   8.441   4.939  2.1290  2.6259  1.1279
13090SOL     OW50923   3.895   9.393   1.081 -0.1221  0.0589  0.4208
13090SOL    HW150924   3.801   9.361   1.064  0.1280  0.2162 -1.4598
13090SOL    HW250925   3.894   9.468   1.146 -1.3476  0.2423  0.2040
13091SOL     OW50926   1.013   5.755   1.141  0.6052  0.8791 -0.2942
13091SOL    HW150927   0.950   5.824   1.177  0.4449  1.6801 -2.0440
13091SOL    HW250928   1.090   5.801   1.097  1.3815 -0.0937  0.0150
13092SOL     OW50929   7.702   6.269   3.755 -0.7492 -0.1531  0.3140
13092SOL    HW150930   7.622   6.251   3.698 -1.2193  2.1857  0.1803
13092SOL    HW250931   7.782   6.284   3.696 -0.7370 -0.0090  0.3686
13093SOL     OW50932   2.803   1.185   7.201 -0.1939  0.0246 -0.1403
13093SOL    HW150933   2.869   1.170   7.275  1.1905 -0.1459 -1.3862
13093SOL    HW250934   2.852   1.206   7.117 -1.8033  2.1737 -0.5869
13094SOL     OW50935   8.024   2.620   3.819  0.8325 -0.2660  0.0543
13094SOL    HW150936   7.990   2.652   3.908 -0.4906 -3.4383  0.7238
13094SOL    HW250937   8.117   2.584   3.830  0.7949 -0.3548  0.0819
13095SOL     OW50938   1.944   8.345   0.848 -0.0666 -0.5607  0.3831
13095SOL    HW150939   1.857   8.333   0.800  0.8696 -1.3618 -1.1649
13095SOL    HW250940   2.019   8.312   0.790  1.2730  0.1128  1.6905
13096SOL     OW50941   7.248   7.752   7.522  0.3839  0.5933  0.2066
13096SOL    HW150942   7.239   7.715   7.430  2.7013 -0.3364  0.3184
13096SOL    HW250943   7.163   7.796   7.549 -0.1581  1.2913 -2.5531
13097SOL     OW50944   9.945   6.348   6.650 -0.0043 -0.1239  0.2447
13097SOL    HW150945   9.992   6.413   6.709  0.2150  1.6470 -1.8580
13097SOL    HW250946   9.856   6.325   6.691  1.0055 -0.5518  2.2854
13098SOL     OW50947   5.473   3.613   0.913 -0.1470  0.1598  0.2613
13098SOL    HW150948   5.438   3.668   0.989  0.8729  0.1378  0.7466
13098SOL    HW250949   5.535   3.668   0.858 -2.8060  0.9565 -2.0317
13099SOL     OW50950   1.089   7.565   7.142 -0.5294 -0.1052 -0.4830
13099SOL    HW150951   1.057   7.472   7.163 -0.8201 -0.3444 -1.9665
13099SOL    HW250952   1.184   7.562   7.114 -0.3141  0.1425  0.2133
13100SOL     OW50953   3.964   8.097   7.915  0.2354 -0.9306  0.4442
13100SOL    HW150954   3.908   8.180   7.922 -0.1408 -1.2558  1.3499
13100SOL    HW250955   4.044   8.116   7.858 -1.2838 -0.7210 -1.6787
13101SOL     OW50956   5.076   0.467   7.513  0.3855 -0.0109 -0.1669
13101SOL    HW150957   5.046   0.552   7.468  1.5324 -0.2647 -1.4324
13101SOL    HW250958   5.134   0.490   7.591 -2.6041  0.4668  1.9832
13102SOL     OW50959   4.338   8.265   5.550  0.2243 -0.1470  0.4097
13102SOL    HW150960   4.308   8.257   5.645 -0.9567 -0.2434  0.0358
13102SOL    HW250961   4.437   8.277   5.547  0.6969 -3.2216  1.5354
13103SOL     OW50962   9.253   1.970   3.626  0.1952 -0.1214  0.4916
13103SOL    HW150963   9.167   2.020   3.639 -1.4158 -1.9551 -2.5014
13103SOL    HW250964   9.329   2.034   3.629 -1.4376  1.8759  1.0032
13104SOL     OW50965   4.304   7.769   6.053  0.1345 -0.3231  0.0933
13104SOL    HW150966   4.302   7.790   6.151  0.1558  0.4832 -0.0820
13104SOL    HW250967   4.376   7.701   6.036 -0.9371 -1.6979  0.8742
13105SOL     OW50968   3.751   6.650   2.016 -0.0797  0.3051  0.0314
13105SOL    HW150969   3.793   6.613   1.933 -1.3501  1.5057 -1.1697
13105SOL    HW250970   3.823   6.675   2.081  0.8200 -3.5928  0.6308
13106SOL     OW50971   8.884   4.260   4.881 -0.2410  0.1725 -0.3272
13106SOL    HW150972   8.827   4.213   4.814 -0.1728 -1.9698  1.0497
13106SOL    HW250973   8.942   4.193   4.928  1.6163  1.9934  0.0188
13107SOL     OW50974   3.388   4.477   6.337  0.5423  0.0208 -0.7887
13107SOL    HW150975   3.425   4.400   6.389 -0.0159 -0.9219 -1.7707
13107SOL    HW250976   3.462   4.522   6.286  0.9400  0.4101  0.1081
13108SOL     OW50977   2.799   0.651   5.437 -0.1004 -0.0830 -0.0779
13108SOL    HW150978   2.752   0.569   5.405 -2.3473  0.6443  1.2263
13108SOL    HW250979   2.801   0.652   5.537  2.8677 -0.1474 -0.1035
13109SOL     OW50980   8.877   2.822   3.377 -0.9914 -0.2557  0.4930
13109SOL    HW150981   8.853   2.730   3.346  0.5431 -0.3651 -0.4160
13109SOL    HW250982   8.794   2.870   3.407 -1.8593 -1.7688  0.5455
13110SOL     OW50983   9.147   3.394   1.190  0.2812  0.3873 -0.1581
13110SOL    HW150984   9.185   3.304   1.167 -0.6441  0.3939 -1.8250
13110SOL    HW250985   9.112   3.392   1.283  1.7585 -0.4789  0.3958
13111SOL     OW50986   2.622   1.123   7.504 -0.8857  0.4597 -0.4796
13111SOL    HW150987   2.665   1.207   7.538 -0.7621  0.7691 -1.3850
13111SOL    HW250988   2.687   1.071   7.449 -0.9747 -0.2173  0.0486
13112SOL     OW50989   8.895   4.026   4.256 -0.3199 -0.0181  0.6015
13112SOL    HW150990   8.903   4.009   4.354  0.3279  0.5514  0.6503
13112SOL    HW250991   8.854   4.115   4.241 -0.0579  0.0589  0.3522
13113SOL     OW50992   3.137   9.450   5.735 -0.1455  0.0463  0.0914
13113SOL    HW150993   3.150   9.507   5.817 -0.3225  1.5569 -0.9015
13113SOL    HW250994   3.069   9.380   5.754 -0.7048  0.8264  1.0416
13114SOL     OW50995   2.400   2.033   6.358 -0.0137  0.6689  0.4028
13114SOL    HW150996   2.421   1.950   6.408  1.5352 -0.9887 -2.8203
13114SOL    HW250997   2.388   2.011   6.261  0.5002  4.2345 -0.5385
13115SOL     OW50998   7.222   0.139   0.109 -0.2559 -0.4479 -0.0827
13115SOL    HW150999   7.285   0.217   0.117 -1.1965  0.1249  1.8768
13115SOL    HW251000   7.185   0.136   0.016  0.7116  0.7114 -0.5226
13116SOL     OW51001   5.746   8.708   3.466  0.1484  0.4712 -0.0061
13116SOL    HW151002   5.649   8.702   3.491  0.5402 -0.4638  1.2774
13116SOL    HW251003   5.803   8.691   3.546  1.3935 -0.0085 -0.9804
13117SOL     OW51004   8.935   8.428   5.518 -0.4718  0.6371 -0.3885
13117SOL    HW151005   8.902   8.373   5.442  0.6952  0.3867 -0.7190
13117SOL    HW251006   8.863   8.436   5.587 -0.8398 -0.8107 -0.5937
13118SOL     OW51007   2.136   6.332   0.645  0.4905  0.3404  0.3061
13118SOL    HW151008   2.199   6.311   0.571  1.4042  0.7774  0.9540
13118SOL    HW251009   2.104   6.247   0.687 -1.4679  0.0111 -1.7578
13119SOL     OW51010   9.480   9.065   4.136  0.7477  0.2197 -0.5090
13119SOL    HW151011   9.457   9.026   4.047  1.2430  0.1990 -0.6294
13119SOL    HW251012   9.577   9.092   4.137  0.2583  2.0094 -0.6248
13120SOL     OW51013   1.029   0.516   1.451  0.4006 -0.2021 -0.0051
13120SOL    HW151014   1.005   0.566   1.368  0.0517  0.7965  0.6986
13120SOL    HW251015   1.048   0.580   1.525  0.2790 -1.0981  0.8122
13121SOL     OW51016   3.139   9.031   3.053 -0.5079  0.2494  0.0216
13121SOL    HW151017   3.076   9.081   3.112  0.2954  0.5777  0.6072
13121SOL    HW251018   3.197   9.095   3.002  0.3376 -0.0646  0.5705
13122SOL     OW51019   8.841   8.911   7.005 -0.6867  0.0263  0.1350
13122SOL    HW151020   8.761   8.925   7.063 -2.6600 -0.8394 -2.2702
13122SOL    HW251021   8.844   8.816   6.974 -0.6253  0.8476 -2.5030
13123SOL     OW51022   0.076   9.846   1.404 -0.2534 -0.0651 -0.1680
13123SOL    HW151023   0.057   9.886   1.314 -3.3695 -0.3189  0.3032
13123SOL    HW251024   0.042   9.908   1.475  1.9726  0.0182  0.8532
13124SOL     OW51025   3.074   1.042   7.831 -0.3582 -0.0712 -0.0625
13124SOL    HW151026   3.096   1.102   7.908 -0.8335  0.7054 -0.5320
13124SOL    HW251027   3.028   1.094   7.760 -1.5823 -1.1947 -0.0996
13125SOL     OW51028   8.233   2.501   0.459  0.0612 -0.0849 -0.1199
13125SOL    HW151029   8.231   2.531   0.363 -1.4423 -1.7959 -0.6356
13125SOL    HW251030   8.146   2.523   0.503  0.2517 -0.5129  0.4773
13126SOL     OW51031   1.454   0.374   0.811 -0.0326  0.1177  0.4140
13126SOL    HW151032   1.360   0.396   0.784  0.0396 -1.7028 -1.3875
13126SOL    HW251033   1.495   0.454   0.855 -2.0679  1.2798  0.2556
13127SOL     OW51034   3.595   6.185   1.103  0.2773 -0.1724 -0.2984
13127SOL    HW151035   3.650   6.152   1.026  1.6339  0.4074  0.4078
13127SOL    HW251036   3.530   6.254   1.069  0.0773 -0.7501 -1.1158
13128SOL     OW51037   2.333   3.603   0.075 -0.6227 -0.0347 -0.0980
13128SOL    HW151038   2.333   3.503   0.074  2.4638 -0.0617 -0.1150
13128SOL    HW251039   2.412   3.637   0.025 -0.1864  2.3627  2.1088
13129SOL     OW51040   1.083   6.882   0.089  0.4552  0.3880 -0.5408
13129SOL    HW151041   1.051   6.881  -0.006  0.1216 -2.1182 -0.4194
13129SOL    HW251042   1.005   6.897   0.150  0.8380  3.2403 -0.6863
13130SOL     OW51043   2.896   3.407   3.930  0.1767  0.0865 -0.3754
13130SOL    HW151044   2.834   3.350   3.877  0.3648 -0.5505  0.0942
13130SOL    HW251045   2.865   3.502   3.926  0.6895  0.2012 -2.3784
13131SOL     OW51046   7.934   2.618   6.372  0.2719 -0.4544  0.0067
13131SOL    HW151047   7.841   2.582   6.363  0.1953 -0.1405 -0.5062
13131SOL    HW251048   7.996   2.564   6.314  0.0462  0.6258 -1.2619
13132SOL     OW51049   3.429   1.709   5.385 -0.5218  0.4780 -0.2064
13132SOL    HW151050   3.510   1.663   5.420 -1.1818 -0.1825  0.4632
13132SOL    HW251051   3.429   1.804   5.415 -0.2567  0.3449  0.2102
13133SOL     OW51052   2.923   6.641   7.517  0.1714  0.0705 -0.7132
13133SOL    HW151053   2.904   6.574   7.446  0.9053  0.1020 -0.9524
13133SOL    HW251054   2.873   6.725   7.498  1.0363  0.3850 -1.6925
13134SOL     OW51055   1.656   4.002   2.431  0.7856 -0.5482  0.0848
13134SOL    HW151056   1.618   3.913   2.407  1.0125 -0.7888  0.5913
13134SOL    HW251057   1.598   4.075   2.395 -0.0098 -0.9049  0.6229
13135SOL     OW51058   2.081   9.974   3.185 -0.0612 -0.0187 -0.3594
13135SOL    HW151059   2.019  10.037   3.138 -0.7737 -0.8709 -0.5692
13135SOL    HW251060   2.122   9.912   3.118 -0.4994 -0.7401  0.0351
13136SOL     OW51061   3.780   1.937   0.823 -0.1616  0.2961 -0.3191
13136SOL    HW151062   3.731   2.019   0.851 -1.1815 -1.2149  2.5692
13136SOL    HW251063   3.840   1.907   0.898 -2.9090 -3.8792  0.4029
13137SOL     OW51064   7.067   1.469   6.609 -0.0960 -0.3253 -0.0756
13137SOL    HW151065   6.995   1.534   6.584 -0.9759 -0.8329  1.0899
13137SOL    HW251066   7.117   1.441   6.527 -0.8756  0.4536 -0.8238
13138SOL     OW51067   6.313   1.747   5.135  0.3816 -0.0491 -0.2119
13138SOL    HW151068   6.244   1.705   5.076  0.9230  0.4090 -1.1848
13138SOL    HW251069   6.269   1.783   5.218 -0.5979  0.5415 -0.9799
13139SOL     OW51070   8.232   0.401   1.480  0.1186  1.0547 -0.1608
13139SOL    HW151071   8.288   0.483   1.470  1.0591  0.3988 -0.3774
13139SOL    HW251072   8.176   0.389   1.398  1.6250  0.2822 -1.1041
13140SOL     OW51073   9.314   2.878   7.801 -0.4818  0.0817  0.1090
13140SOL    HW151074   9.252   2.823   7.746  0.2846 -1.4580  0.7525
13140SOL    HW251075   9.347   2.956   7.747 -1.5879 -0.0724 -0.8042
13141SOL     OW51076   6.753   3.175   1.488 -0.2222  0.1684  0.2818
13141SOL    HW151077   6.790   3.247   1.429 -1.8972  1.3227  0.6129
13141SOL    HW251078   6.740   3.212   1.580  1.9607 -1.4847  1.3155
13142SOL     OW51079   2.706   4.552   6.476  0.0609 -0.2806 -0.3548
13142SOL    HW151080   2.692   4.552   6.575  1.3610 -1.2947 -0.1549
13142SOL    HW251081   2.643   4.488   6.433  0.0985 -0.4948 -0.0885
13143SOL     OW51082   6.403   9.415   3.539  0.5073 -0.7665  0.0876
13143SOL    HW151083   6.332   9.378   3.599 -1.5753  0.3200 -1.6138
13143SOL    HW251084   6.430   9.345   3.472 -0.5287 -0.5151 -0.6044
13144SOL     OW51085   1.483   8.431   6.337 -0.6023 -0.4030  0.3179
13144SOL    HW151086   1.466   8.527   6.359 -1.4771 -0.3588 -0.5149
13144SOL    HW251087   1.475   8.417   6.239  4.0886 -0.4494 -0.1440
13145SOL     OW51088   1.593   1.197   0.481  0.8111 -0.3701  0.0825
13145SOL    HW151089   1.518   1.153   0.531  0.9788  0.0357  0.6922
13145SOL    HW251090   1.585   1.175   0.384 -0.9858  0.8955 -0.0940
13146SOL     OW51091   6.788   2.177   5.148  0.1608 -0.5201  0.3256
13146SOL    HW151092   6.794   2.242   5.072 -0.8785  0.8055  1.3582
13146SOL    HW251093   6.785   2.084   5.111 -1.5997  0.1471 -1.3489
13147SOL     OW51094   1.265   5.698   2.889 -0.3692 -0.5043 -0.1501
13147SOL    HW151095   1.313   5.620   2.929 -0.3423 -1.1726 -1.4812
13147SOL    HW251096   1.319   5.737   2.815 -0.0088  1.3025  1.0167
13148SOL     OW51097   2.719   8.779   0.459 -0.0616  0.6695  0.1161
13148SOL    HW151098   2.693   8.855   0.399  1.8859  0.1203 -1.4709
13148SOL    HW251099   2.759   8.815   0.543 -0.1292  1.4122 -0.1690
13149SOL     OW51100   0.387   4.631   5.657  0.3619 -0.4951 -0.4620
13149SOL    HW151101   0.453   4.650   5.729 -0.2748 -2.8149  0.8000
13149SOL    HW251102   0.400   4.537   5.624 -1.9193 -0.8240 -0.5378
13150SOL     OW51103   1.122   1.502   5.974  0.3184 -0.1485 -0.4719
13150SOL    HW151104   1.095   1.471   5.883  0.8433  2.2270 -1.4723
13150SOL    HW251105   1.136   1.423   6.034 -2.1434 -1.6541 -1.8340
13151SOL     OW51106   2.176   0.313   1.750 -0.0908 -0.4983  0.4051
13151SOL    HW151107   2.228   0.296   1.834 -0.2057 -2.9629 -0.0042
13151SOL    HW251108   2.079   0.316   1.771  0.0092  1.1616  0.6991
13152SOL     OW51109   4.573   5.098   2.610  0.2149  0.3945  0.1500
13152SOL    HW151110   4.661   5.051   2.618  0.1164  0.5757  2.5515
13152SOL    HW251111   4.587   5.197   2.620 -0.2930  0.3961  0.9151
13153SOL     OW51112   2.303   8.404   7.257  0.1487 -0.3476 -0.0388
13153SOL    HW151113   2.256   8.317   7.273  3.5291 -2.2478  0.0006
13153SOL    HW251114   2.333   8.442   7.345  1.1353 -0.5669 -0.2804
13154SOL     OW51115   3.372   8.666   0.974  0.5344 -0.0828  0.0281
13154SOL    HW151116   3.379   8.686   0.877 -0.4713 -0.6352 -0.1587
13154SOL    HW251117   3.364   8.567   0.988  1.6099 -0.0874  0.7282
13155SOL     OW51118   5.227   2.214   4.129 -0.0692  0.6863 -0.9259
13155SOL    HW151119   5.220   2.198   4.030  0.9593 -0.2525 -0.8499
13155SOL    HW251120   5.308   2.269   4.149  0.7326 -0.6386 -0.4503
13156SOL     OW51121   3.587   5.343   3.604 -0.6858 -0.1911  0.6744
13156SOL    HW151122   3.543   5.303   3.524 -0.2692 -1.1043  0.8864
13156SOL    HW251123   3.556   5.295   3.686 -1.0703  0.7029  1.0603
13157SOL     OW51124   8.206   7.706   4.997  0.4544 -0.1183  0.0391
13157SOL    HW151125   8.261   7.790   5.002  2.4588 -1.1450 -3.0981
13157SOL    HW251126   8.266   7.627   5.004 -1.0205 -1.2784 -0.2916
13158SOL     OW51127   1.386   1.174   5.300 -0.3480  0.0455  0.2644
13158SOL    HW151128   1.303   1.223   5.274 -0.8251 -0.8332  0.1225
13158SOL    HW251129   1.457   1.191   5.231 -0.2342  1.1879  0.6364
13159SOL     OW51130   2.311   1.554   2.255 -0.2232  0.6893 -0.3985
13159SOL    HW151131   2.392   1.504   2.287  0.7525  2.0920 -0.6437
13159SOL    HW251132   2.288   1.525   2.162 -1.1713 -1.1010  0.3630
13160SOL     OW51133   4.015   7.290   4.920 -0.3171 -0.7047  0.4841
13160SOL    HW151134   3.956   7.239   4.983 -0.8539 -0.1743  0.4102
13160SOL    HW251135   4.053   7.369   4.967  1.0258 -1.5128  0.7877
13161SOL     OW51136   1.930   2.058   5.951 -0.5978 -0.0259 -0.0736
13161SOL    HW151137   1.984   2.093   6.027 -0.5394 -0.3353  0.0298
13161SOL    HW251138   1.880   1.976   5.981 -1.6652  0.6542  0.0340
13162SOL     OW51139   0.924   6.448   7.130  0.1578  0.6256  0.3535
13162SOL    HW151140   0.871   6.400   7.060  1.0148  1.0660 -0.6101
13162SOL    HW251141   0.958   6.535   7.093  3.5447 -0.7213  0.1425
13163SOL     OW51142   2.704   8.296   1.673 -0.1713 -0.4797  0.3717
13163SOL    HW151143   2.787   8.284   1.619 -0.6788  0.6558 -0.6810
13163SOL    HW251144   2.726   8.293   1.770  0.8654 -1.7633  0.0974
13164SOL     OW51145   8.037   1.138   7.816 -0.5654 -0.1618 -0.3030
13164SOL    HW151146   8.014   1.227   7.776 -0.3711  0.7716  1.6424
13164SOL    HW251147   7.954   1.083   7.825 -0.7915  0.0906 -0.8087
13165SOL     OW51148   2.280   1.383   6.997  0.3747  0.6242 -0.8295
13165SOL    HW151149   2.241   1.459   7.049 -0.5927  0.1382 -0.8391
13165SOL    HW251150   2.377   1.374   7.020 -0.4288 -0.7188  2.2518
13166SOL     OW51151   8.422   0.112   5.246  0.9770  0.6250  0.7503
13166SOL    HW151152   8.412   0.016   5.270 -0.1050  0.0494 -1.7739
13166SOL    HW251153   8.509   0.147   5.280  0.9347 -0.9670  2.5387
13167SOL     OW51154   9.630   1.645   1.183  0.2177  0.1435  0.1210
13167SOL    HW151155   9.550   1.634   1.242  1.9733  1.9969  2.9892
13167SOL    HW251156   9.618   1.725   1.124 -1.7490 -1.9918 -2.5059
13168SOL     OW51157   4.300   0.906   5.996 -0.5657 -0.0474 -0.0066
13168SOL    HW151158   4.233   0.884   5.925  0.3500  0.3715 -1.0308
13168SOL    HW251159   4.372   0.964   5.956  0.0978 -0.0285  1.2039
13169SOL     OW51160   7.957   2.843   4.308 -0.6012 -0.5867 -0.3231
13169SOL    HW151161   8.057   2.848   4.304 -0.7356  2.5150 -1.1449
13169SOL    HW251162   7.920   2.842   4.215 -1.3976  1.7489 -0.0820
13170SOL     OW51163   2.508   6.272   3.985 -0.3533 -0.7579  0.2365
13170SOL    HW151164   2.463   6.346   3.935  0.4575 -1.4315 -1.5249
13170SOL    HW251165   2.523   6.300   4.079  0.2010  1.4563 -0.4808
13171SOL     OW51166   0.504   7.467   0.186  0.6408 -0.2998  0.4924
13171SOL    HW151167   0.436   7.539   0.177  0.3296 -0.5134  1.1044
13171SOL    HW251168   0.463   7.387   0.229  1.5412 -0.0711  1.7899
13172SOL     OW51169   0.568   0.164   3.492  0.0804 -0.3889  0.0943
13172SOL    HW151170   0.616   0.246   3.524 -1.7566  0.6356  0.2865
13172SOL    HW251171   0.496   0.140   3.557  0.6548 -2.2271  0.0855
13173SOL     OW51172   7.401   0.882   7.360  0.5077 -0.0470  0.2685
13173SOL    HW151173   7.375   0.977   7.381  2.6547  1.1053 -2.1001
13173SOL    HW251174   7.430   0.837   7.444  2.6677  2.4279  0.9167
13174SOL     OW51175   1.015   2.075   0.669  0.2458  0.4378  0.3581
13174SOL    HW151176   0.917   2.079   0.651 -0.0268  0.7599  1.8343
13174SOL    HW251177   1.032   2.016   0.748  1.3159 -0.2885 -0.4109
13175SOL     OW51178   6.046   1.666   2.654  0.0363  0.0744  0.0110
13175SOL    HW151179   5.989   1.700   2.580 -0.8547 -0.1477  0.5826
13175SOL    HW251180   5.988   1.635   2.729  0.8696 -1.8972 -0.1466
13176SOL     OW51181   7.519   7.250   3.171 -0.3204 -0.0557  0.6813
13176SOL    HW151182   7.525   7.269   3.073 -1.1410  0.2550  0.6857
13176SOL    HW251183   7.452   7.313   3.213  0.3097  0.0794  1.5036
13177SOL     OW51184   4.831   4.248   3.994  0.1033  0.8074 -0.1924
13177SOL    HW151185   4.792   4.159   4.022  0.0708  0.5033 -1.1877
13177SOL    HW251186   4.917   4.263   4.043 -0.1729  0.4900  0.4090
13178SOL     OW51187   9.697   7.972   2.291 -0.4859 -0.3114  0.7224
13178SOL    HW151188   9.600   7.989   2.308 -0.3278 -0.1151  1.4103
13178SOL    HW251189   9.732   7.904   2.356  0.7190  2.2460  2.8145
13179SOL     OW51190   9.604   9.417   0.533 -0.1298 -0.3819  0.7793
13179SOL    HW151191   9.614   9.443   0.629  0.0625 -1.7339  1.1364
13179SOL    HW251192   9.557   9.329   0.527 -1.0344  0.1624 -0.4113
13180SOL     OW51193   5.157   9.959   1.778 -0.0777 -0.1037  0.3020
13180SOL    HW151194   5.114   9.869   1.777  0.2421 -0.2863  1.6949
13180SOL    HW251195   5.122  10.014   1.702 -2.3571 -0.4408  1.0730
13181SOL     OW51196   0.798   8.535   8.084 -0.4427  0.2577  0.3258
13181SOL    HW151197   0.785   8.438   8.065  2.6211 -0.2576  0.5833
13181SOL    HW251198   0.746   8.560   8.166 -2.0575 -0.8953 -0.3212
13182SOL     OW51199   7.288   7.504   2.216  0.1507 -0.8332 -0.1338
13182SOL    HW151200   7.372   7.472   2.258 -0.1331  1.0357  1.9463
13182SOL    HW251201   7.269   7.597   2.246 -2.4388 -1.0765 -0.8822
13183SOL     OW51202   8.094   6.439   3.901  0.4483 -0.1323 -0.1434
13183SOL    HW151203   8.143   6.525   3.915  0.2080 -0.0320  0.0864
13183SOL    HW251204   8.013   6.437   3.959  0.6601 -0.6800  0.1330
13184SOL     OW51205   3.650   1.908   5.418  0.8557  0.1657 -0.1605
13184SOL    HW151206   3.622   1.950   5.504  0.8254 -1.0251  0.4165
13184SOL    HW251207   3.587   1.937   5.345 -0.1553 -0.2114  0.5556
13185SOL     OW51208   8.737   2.692   5.508  0.5718 -0.5064  0.0183
13185SOL    HW151209   8.723   2.637   5.425  1.1709 -0.2486 -0.2517
13185SOL    HW251210   8.803   2.765   5.489  0.9937 -0.6766  0.8284
13186SOL     OW51211   8.512   5.112   4.428  0.1549  0.4094  0.0398
13186SOL    HW151212   8.467   5.173   4.493 -2.4924 -1.7622  0.3264
13186SOL    HW251213   8.447   5.044   4.395  2.4172 -0.8200 -2.0840
13187SOL     OW51214   0.528   8.027   2.971  0.2151 -0.1727  0.1344
13187SOL    HW151215   0.528   8.121   3.005  0.8997  0.3216 -1.2072
13187SOL    HW251216   0.549   8.027   2.873  0.0843 -1.7150  0.0976
13188SOL     OW51217   3.396   3.905   2.961  0.2714 -0.3126 -0.9734
13188SOL    HW151218   3.422   3.954   2.878  0.5091 -2.0023 -1.9164
13188SOL    HW251219   3.474   3.852   2.994 -0.1467 -0.5051 -0.2842
13189SOL     OW51220   1.611   7.214   7.769 -0.5026  0.1069  0.6365
13189SOL    HW151221   1.545   7.266   7.823 -2.8085 -1.2501 -0.7720
13189SOL    HW251222   1.641   7.134   7.821 -2.2027 -0.8285  0.2476
13190SOL     OW51223   2.339   3.764   5.163  0.6241  0.0164  0.1889
13190SOL    HW151224   2.417   3.765   5.100  0.1459  0.4709 -0.3961
13190SOL    HW251225   2.364   3.811   5.248  1.1977 -0.4044  0.2544
13191SOL     OW51226   5.766   1.756   5.274 -0.0136  0.1541 -0.2905
13191SOL    HW151227   5.816   1.765   5.360 -0.2674  1.5949 -0.2793
13191SOL    HW251228   5.749   1.847   5.236 -1.9189 -0.3467 -0.6960
13192SOL     OW51229   5.250   2.590   3.959  0.0829 -0.0639  0.3875
13192SOL    HW151230   5.241   2.614   3.863  0.2994  0.5382  0.5140
13192SOL    HW251231   5.160   2.587   4.002  0.0537  0.4527  0.3560
13193SOL     OW51232   0.425   7.862   3.406 -0.7104 -0.7743  0.2555
13193SOL    HW151233   0.485   7.783   3.406 -0.4994 -0.6170 -0.5073
13193SOL    HW251234   0.349   7.846   3.342 -0.6002 -0.3185  0.0063
13194SOL     OW51235   2.732   0.427   1.932 -0.3686  0.1335 -0.2653
13194SOL    HW151236   2.745   0.359   2.005 -1.5064  0.0212 -0.1510
13194SOL    HW251237   2.807   0.419   1.866  0.5023  0.0189  0.7178
13195SOL     OW51238   2.092   2.889   0.127  0.3906  0.6525 -0.0648
13195SOL    HW151239   2.062   2.979   0.097  0.0125 -0.0194 -1.7348
13195SOL    HW251240   2.093   2.826   0.050 -0.6096 -1.1330  1.3376
13196SOL     OW51241   5.643   8.791   5.681  0.9061 -0.6882  0.0380
13196SOL    HW151242   5.558   8.775   5.732  0.3002  2.3093  0.0478
13196SOL    HW251243   5.710   8.720   5.705 -0.8977 -1.9279  1.5473
13197SOL     OW51244   8.147   0.752   1.429  0.0512  0.5237  0.3597
13197SOL    HW151245   8.183   0.790   1.344 -2.8861 -1.4425 -1.8829
13197SOL    HW251246   8.218   0.697   1.474  1.8332  2.1153 -0.4241
13198SOL     OW51247   8.380   1.564   4.090 -0.1409 -1.0637  0.0161
13198SOL    HW151248   8.424   1.563   4.000 -0.1276 -0.7548  0.0168
13198SOL    HW251249   8.355   1.471   4.117 -1.3436 -1.0132 -0.8927
13199SOL     OW51250   2.220   4.211   4.624 -0.2539  0.0881 -0.2386
13199SOL    HW151251   2.282   4.275   4.578 -0.1695 -0.3502 -0.7511
13199SOL    HW251252   2.274   4.147   4.679 -0.3197  0.3117  0.0821
13200SOL     OW51253   4.116   0.093   2.000 -0.0996 -0.1201 -0.6560
13200SOL    HW151254   4.215   0.082   2.005 -0.2705 -1.4699  0.1678
13200SOL    HW251255   4.093   0.169   1.940  1.5068  1.4976  0.7143
13201SOL     OW51256   3.638   7.813   1.931 -0.0114 -0.1935 -0.0714
13201SOL    HW151257   3.685   7.744   1.877  1.0837 -0.6116  1.3867
13201SOL    HW251258   3.539   7.800   1.924  0.2006 -2.5257  0.9586
13202SOL     OW51259   6.980   0.147   5.608  0.5186 -0.2666  0.1656
13202SOL    HW151260   6.933   0.124   5.523  0.2662 -0.1760  0.2801
13202SOL    HW251261   7.029   0.066   5.641  1.1400 -0.1237 -0.3988
13203SOL     OW51262   2.976   2.399   2.868  0.0919 -0.5569 -0.1923
13203SOL    HW151263   2.934   2.490   2.865  0.9951 -0.0457  1.9095
13203SOL    HW251264   2.909   2.333   2.902 -0.8143 -0.8823 -2.4440
13204SOL     OW51265   8.249   7.596   1.044 -1.1143  0.1468  0.8795
13204SOL    HW151266   8.150   7.582   1.043 -1.1452  0.3135 -0.4248
13204SOL    HW251267   8.279   7.626   0.953  0.0775  0.5076  1.3756
13205SOL     OW51268   8.075   4.273   1.108 -0.5434  0.2906  0.1943
13205SOL    HW151269   8.028   4.224   1.182 -0.3312  1.0368  0.8298
13205SOL    HW251270   8.055   4.228   1.021  1.3702 -2.2802  0.9939
13206SOL     OW51271   7.219   0.246   3.149 -0.3526  0.7192 -0.6361
13206SOL    HW151272   7.189   0.303   3.225  0.9180  2.6230 -1.5326
13206SOL    HW251273   7.144   0.235   3.084 -0.4137  1.8685 -0.7576
13207SOL     OW51274   1.221   5.223   6.259 -0.6131  0.0754 -0.1755
13207SOL    HW151275   1.168   5.298   6.218 -0.3388  0.5417  0.3257
13207SOL    HW251276   1.278   5.258   6.333 -0.1619 -0.5598 -0.2167
13208SOL     OW51277   9.598   6.757   3.023  0.5296  0.2483  0.5258
13208SOL    HW151278   9.525   6.690   3.009 -0.8071  1.4510  1.5882
13208SOL    HW251279   9.675   6.713   3.070  0.7369 -1.1637 -1.0834
13209SOL     OW51280   6.177   0.415   6.759  0.4350 -0.3722  0.1892
13209SOL    HW151281   6.227   0.330   6.771 -0.3210 -0.5130  2.5526
13209SOL    HW251282   6.164   0.460   6.847 -0.9277  1.2029 -0.7620
13210SOL     OW51283   6.088   8.158   4.214 -0.3354  0.2927 -0.5883
13210SOL    HW151284   5.999   8.203   4.219 -0.1303  0.5820  0.3668
13210SOL    HW251285   6.153   8.203   4.275  0.1029 -0.7651 -0.2625
13211SOL     OW51286   3.281   5.312   8.106 -1.1412 -0.4442  0.2576
13211SOL    HW151287   3.284   5.381   8.179 -0.4353  0.9655 -1.0710
13211SOL    HW251288   3.228   5.233   8.137  0.0738 -0.3494  2.6771
13212SOL     OW51289   9.927   9.157   4.162  0.2676 -0.6368  0.4404
13212SOL    HW151290   9.925   9.096   4.083 -1.6611  0.3950 -0.3679
13212SOL    HW251291   9.836   9.159   4.204 -0.2795  3.0930 -0.7182
13213SOL     OW51292   7.701   3.873   0.970  0.2942 -0.0279 -0.2020
13213SOL    HW151293   7.632   3.800   0.970  0.5467 -0.2642 -0.1767
13213SOL    HW251294   7.792   3.834   0.955  0.6643  0.0782  1.7322
13214SOL     OW51295   9.695   6.209   7.214 -0.0813  0.8322  0.3085
13214SOL    HW151296   9.745   6.143   7.158  1.2183  0.9756  1.2769
13214SOL    HW251297   9.650   6.161   7.289 -2.0406  0.6041 -0.9586
13215SOL     OW51298   9.527   7.035   6.035 -0.4490 -0.0742  0.4643
13215SOL    HW151299   9.558   6.947   6.071  0.4779 -1.0071 -2.4586
13215SOL    HW251300   9.461   7.019   5.961  0.4118  1.6551 -0.7010
13216SOL     OW51301   6.883   2.851   0.873 -0.2908  0.4647 -0.3054
13216SOL    HW151302   6.857   2.762   0.911  1.1153  0.2184  0.1253
13216SOL    HW251303   6.882   2.920   0.945  0.7937  0.3335 -0.1604
13217SOL     OW51304   5.535   9.765   6.838  0.0531  0.2475 -0.0589
13217SOL    HW151305   5.443   9.765   6.798 -0.7994  1.9825  1.7675
13217SOL    HW251306   5.598   9.813   6.777 -0.0089 -1.8513 -1.8021
13218SOL     OW51307   4.903   0.384   6.770  0.3833  0.2246  0.3731
13218SOL    HW151308   4.995   0.421   6.786  1.0219 -0.9045 -0.6381
13218SOL    HW251309   4.899   0.290   6.801 -0.1523 -0.0293 -0.4549
13219SOL     OW51310   0.920   4.984   5.098  0.2468 -0.0889  0.5109
13219SOL    HW151311   0.916   4.898   5.148 -1.4392 -0.2717  0.1091
13219SOL    HW251312   0.914   5.061   5.162 -2.0150 -0.3233  0.6431
13220SOL     OW51313   5.373   1.037   4.917 -0.5271 -0.5517 -0.4611
13220SOL    HW151314   5.347   1.006   4.825 -0.0002 -2.3811 -0.0091
13220SOL    HW251315   5.301   1.014   4.982 -1.0579  1.0576 -0.4491
13221SOL     OW51316   3.460   5.096   4.119 -0.1216  0.4146 -0.1796
13221SOL    HW151317   3.458   5.000   4.089 -0.0794  0.3717 -0.0431
13221SOL    HW251318   3.556   5.126   4.126 -0.0994  0.0518  1.1195
13222SOL     OW51319   8.769   3.669   2.677 -0.2683  0.3965 -0.2150
13222SOL    HW151320   8.867   3.653   2.691 -0.4107  0.5055  1.0019
13222SOL    HW251321   8.743   3.639   2.585  0.7820 -0.2077 -0.3267
13223SOL     OW51322   7.630   4.570   6.383  0.1519 -0.3456  0.1713
13223SOL    HW151323   7.609   4.476   6.359 -0.3669 -0.0401 -0.5755
13223SOL    HW251324   7.547   4.617   6.413  0.0601  0.4109 -1.2518
13224SOL     OW51325   7.768   0.562   2.180  0.5463  0.0210 -0.4326
13224SOL    HW151326   7.681   0.598   2.215 -0.0452 -0.8436 -0.9895
13224SOL    HW251327   7.752   0.514   2.094  1.2967 -1.6342  0.3303
13225SOL     OW51328   0.718   5.907   5.724 -0.1727  0.1891 -0.2456
13225SOL    HW151329   0.723   5.853   5.808  0.8203 -0.5944 -0.7971
13225SOL    HW251330   0.795   5.971   5.721 -0.2824  0.3085 -0.5110
13226SOL     OW51331   3.891   9.117   5.166  0.3338  0.1871  0.4010
13226SOL    HW151332   3.891   9.213   5.139  0.4179 -0.0795 -0.5601
13226SOL    HW251333   3.804   9.075   5.140  1.0903 -0.5092 -1.0512
13227SOL     OW51334   6.285   1.356   2.669 -0.0884  0.1791  0.2164
13227SOL    HW151335   6.282   1.452   2.699 -0.1317 -0.1982  1.4555
13227SOL    HW251336   6.342   1.303   2.732 -1.2635 -0.8986  0.4029
13228SOL     OW51337   1.745   5.834   3.136  0.1656  0.0043 -0.0117
13228SOL    HW151338   1.697   5.843   3.049 -0.6454 -1.3482  0.2788
13228SOL    HW251339   1.840   5.864   3.125  0.4137 -1.3225 -1.6813
13229SOL     OW51340   4.253   9.915   4.066  0.6041  0.9350  0.1141
13229SOL    HW151341   4.352   9.912   4.074  0.4677  0.7737  1.9929
13229SOL    HW251342   4.216   9.975   4.138 -0.9728 -2.8674  2.6270
13230SOL     OW51343   0.905   7.288   6.630 -0.3807  0.3792 -0.1948
13230SOL    HW151344   0.890   7.234   6.548  0.3964 -1.2708  0.7314
13230SOL    HW251345   0.816   7.316   6.668 -0.8326 -1.2165 -0.0524
13231SOL     OW51346   9.020   0.192   1.235 -0.2120 -0.2456  0.5278
13231SOL    HW151347   9.061   0.232   1.318 -1.5966 -2.0348  2.1054
13231SOL    HW251348   9.090   0.138   1.187  0.8130  1.4414  0.0771
13232SOL     OW51349   7.920   2.782   3.390  0.0345 -0.1536  0.1362
13232SOL    HW151350   7.908   2.705   3.327 -0.9845 -0.1527  0.3142
13232SOL    HW251351   7.924   2.867   3.338  0.4382 -0.2630 -0.0124
13233SOL     OW51352   9.268   8.222   7.365 -0.0721 -0.2738  0.1708
13233SOL    HW151353   9.296   8.150   7.428 -1.9992 -0.9061  0.3524
13233SOL    HW251354   9.244   8.304   7.417  1.4677  0.2771  0.0144
13234SOL     OW51355   6.579   0.150   1.809  0.1395  0.1334  0.3858
13234SOL    HW151356   6.535   0.140   1.720  2.5429  0.0994 -0.8471
13234SOL    HW251357   6.582   0.061   1.855  0.0962 -0.1181 -0.0938
13235SOL     OW51358   0.556   6.558   4.657  0.1121  0.1784 -0.3003
13235SOL    HW151359   0.470   6.523   4.695  0.8162 -0.6849  0.5467
13235SOL    HW251360   0.565   6.655   4.680 -0.8479  0.3930 -0.7932
13236SOL     OW51361   0.596   3.906   4.045 -0.4128 -0.0875  0.0819
13236SOL    HW151362   0.595   3.993   4.094  0.0729 -0.4968  0.8224
13236SOL    HW251363   0.608   3.924   3.947 -0.5302  0.6858  0.2016
13237SOL     OW51364   4.429   4.125   7.180  0.2231 -1.2819 -0.1268
13237SOL    HW151365   4.396   4.174   7.099  0.4686  0.6057  0.8944
13237SOL    HW251366   4.355   4.072   7.220 -0.2946 -0.9879 -0.6949
13238SOL     OW51367   4.348   2.456   2.868  0.4115 -0.1016  0.1540
13238SOL    HW151368   4.292   2.379   2.896 -0.9389  0.3831 -1.1414
13238SOL    HW251369   4.402   2.488   2.946  0.4636 -1.8989  0.8739
13239SOL     OW51370   7.574   3.022   6.105 -0.3359 -0.1325  0.1294
13239SOL    HW151371   7.558   2.952   6.035  0.6668 -0.6772  0.4285
13239SOL    HW251372   7.515   3.101   6.088 -0.9986 -0.7820 -0.5975
13240SOL     OW51373   0.350   4.511   2.623  0.0546  0.3452 -0.0594
13240SOL    HW151374   0.434   4.473   2.661 -0.2101  2.0594  2.3928
13240SOL    HW251375   0.276   4.444   2.632  0.3529  0.1639  1.0597
13241SOL     OW51376   3.948   8.027   4.675 -0.7206  0.1021  0.2947
13241SOL    HW151377   3.987   7.998   4.762 -1.4411 -0.4687  0.4326
13241SOL    HW251378   4.008   8.095   4.632  0.1055 -0.3170  0.7842
13242SOL     OW51379   6.942   2.738   5.003  0.5148 -0.6040  0.3227
13242SOL    HW151380   7.004   2.690   4.941 -0.2052 -0.2473 -0.6811
13242SOL    HW251381   6.899   2.815   4.955 -0.8112 -0.9287  0.9620
13243SOL     OW51382   8.593   8.227   6.515  0.6551 -0.0075  0.3493
13243SOL    HW151383   8.515   8.165   6.504  0.1296  0.7578 -0.3296
13243SOL    HW251384   8.596   8.291   6.438  2.8294 -0.9555 -0.3877
13244SOL     OW51385   3.264   8.009   1.930 -0.7963 -0.3683 -0.7464
13244SOL    HW151386   3.222   7.960   2.007 -2.4427  1.2959 -0.5427
13244SOL    HW251387   3.310   8.091   1.963  2.3612 -1.9736 -1.0311
13245SOL     OW51388   0.232   7.791   1.299  0.4528 -0.4929  0.2036
13245SOL    HW151389   0.327   7.790   1.268 -0.3209 -0.5651 -2.2510
13245SOL    HW251390   0.214   7.708   1.353  1.6087 -0.7985  0.1407
13246SOL     OW51391   5.611   0.944   6.806 -0.2289 -0.2505 -0.0596
13246SOL    HW151392   5.689   0.895   6.766  0.5147  0.3610  0.6375
13246SOL    HW251393   5.605   1.035   6.765 -2.0489 -1.1337 -1.8962
13247SOL     OW51394   2.447   5.842   6.445 -0.4955 -0.0317  0.0458
13247SOL    HW151395   2.546   5.834   6.429 -0.3611 -1.1071  1.3182
13247SOL    HW251396   2.428   5.828   6.542 -2.2078 -2.6963 -0.6340
13248SOL     OW51397   1.235   9.840   2.885  0.2371  0.2955  0.3425
13248SOL    HW151398   1.182   9.899   2.946  0.8731  0.8049  0.4121
13248SOL    HW251399   1.245   9.750   2.926 -1.8815 -0.2913 -0.3616
13249SOL     OW51400   5.435   5.529   2.438  0.4691 -0.7217  0.0205
13249SOL    HW151401   5.483   5.442   2.453 -0.9674 -1.9046 -1.9476
13249SOL    HW251402   5.366   5.541   2.509 -0.3253 -1.9424 -0.5197
13250SOL     OW51403   9.118   9.220   4.000  0.6638 -0.1306  0.0695
13250SOL    HW151404   9.037   9.276   3.987  0.9400  0.8527  2.3737
13250SOL    HW251405   9.096   9.124   3.979 -1.4375 -0.0788  1.8312
13251SOL     OW51406   1.143   2.145   4.112 -0.4399 -0.2121 -0.4192
13251SOL    HW151407   1.153   2.110   4.019  0.3392 -0.9417 -0.0708
13251SOL    HW251408   1.046   2.144   4.138 -0.4525 -2.1631 -0.4221
13252SOL     OW51409   7.213   2.730   0.398 -0.7398  0.1454  0.6659
13252SOL    HW151410   7.213   2.661   0.471 -0.1345 -1.6024 -0.9470
13252SOL    HW251411   7.134   2.715   0.338  0.4640 -0.3880 -0.8131
13253SOL     OW51412   8.566   7.971   0.019 -0.3533 -0.2736 -0.2086
13253SOL    HW151413   8.575   7.911   0.099  0.6449  1.4527  1.0156
13253SOL    HW251414   8.469   7.985  -0.001 -0.6397 -0.1583  1.1702
13254SOL     OW51415   6.466   2.022   3.568  0.6946  0.5142 -0.0513
13254SOL    HW151416   6.369   2.025   3.593  1.0848 -1.0279  1.7608
13254SOL    HW251417   6.476   1.971   3.482 -0.1267  1.0679 -0.4918
13255SOL     OW51418   4.672   1.462   1.315  0.2712  0.3211  0.2446
13255SOL    HW151419   4.708   1.552   1.292 -0.2754  0.4216 -0.2082
13255SOL    HW251420   4.578   1.454   1.284  0.0784 -0.1448  0.9418
13256SOL     OW51421   0.520   8.043   1.941 -0.4009 -0.2454 -0.4350
13256SOL    HW151422   0.608   7.998   1.927 -0.6205 -0.8302  0.0390
13256SOL    HW251423   0.531   8.142   1.934  0.9191 -0.1021  2.7215
13257SOL     OW51424   4.489   9.566   2.870  0.2253  0.1466 -0.1172
13257SOL    HW151425   4.491   9.621   2.954 -1.6150 -1.3092  0.9049
13257SOL    HW251426   4.400   9.523   2.860  0.5972 -0.1108 -2.5882
13258SOL     OW51427   8.834   4.492   2.313 -0.1969 -0.3150 -0.3455
13258SOL    HW151428   8.770   4.565   2.337 -1.4857 -1.0265 -1.6191
13258SOL    HW251429   8.785   4.417   2.269  1.5882 -0.6191 -1.8733
13259SOL     OW51430   1.926   0.782   4.519 -0.2349  0.4572  0.0727
13259SOL    HW151431   1.871   0.855   4.477 -1.6885 -0.3675  0.5117
13259SOL    HW251432   1.898   0.770   4.614 -0.3556 -1.0398 -0.1531
13260SOL     OW51433   6.142   9.527   5.734  0.1618 -0.2200  0.2617
13260SOL    HW151434   6.215   9.508   5.800 -1.1984 -2.5795  1.1757
13260SOL    HW251435   6.112   9.622   5.743  1.2889  0.0167  1.7294
13261SOL     OW51436   5.234   9.844   2.713 -0.3486  0.4474 -0.1963
13261SOL    HW151437   5.209   9.888   2.800  0.1774 -2.0009  1.2465
13261SOL    HW251438   5.279   9.911   2.654 -0.8345  2.2046  1.3637
13262SOL     OW51439   2.638   8.966   2.145 -0.1828 -0.1750  0.1191
13262SOL    HW151440   2.700   8.964   2.067 -1.9157 -2.5579 -1.2508
13262SOL    HW251441   2.691   8.955   2.229  1.4775  0.0572 -0.8731
13263SOL     OW51442   0.848   3.676   5.414 -0.3433  0.2313  0.0085
13263SOL    HW151443   0.899   3.603   5.457 -0.8802 -0.7510 -0.9841
13263SOL    HW251444   0.904   3.759   5.409  0.3131 -0.1521  0.9979
13264SOL     OW51445   9.934   8.565   0.423 -0.0607 -0.0089  0.1025
13264SOL    HW151446   9.851   8.619   0.417  1.4572  2.6856  2.1319
13264SOL    HW251447   9.986   8.573   0.338  0.1896  1.8492  0.4106
13265SOL     OW51448   7.358   4.684   7.536 -0.1236 -0.1437  0.3162
13265SOL    HW151449   7.306   4.718   7.458 -1.2710 -0.7294  0.8096
13265SOL    HW251450   7.377   4.759   7.599  0.8376  0.3358 -0.5364
13266SOL     OW51451   9.809   7.549   7.793  0.7836 -0.1167  0.0444
13266SOL    HW151452   9.754   7.601   7.857  0.9041 -0.6282  0.5695
13266SOL    HW251453   9.823   7.602   7.709  0.1785  0.3359  0.2314
13267SOL     OW51454   4.373   8.956   2.603  0.3517 -0.6324  0.1640
13267SOL    HW151455   4.278   8.988   2.594  0.4514 -0.6251 -0.9053
13267SOL    HW251456   4.421   9.013   2.669 -0.2778 -0.3709  0.3996
13268SOL     OW51457   1.875   5.338   2.575 -0.1034  0.3154  0.6135
13268SOL    HW151458   1.931   5.257   2.595  0.9799  1.1107  0.8566
13268SOL    HW251459   1.785   5.328   2.616  0.9875  0.4908  3.1130
13269SOL     OW51460   6.128   0.719   5.443  0.1658  0.3147  0.6887
13269SOL    HW151461   6.045   0.739   5.495  0.0059 -0.9505  0.9340
13269SOL    HW251462   6.203   0.700   5.505  0.0956 -0.7002  0.4722
13270SOL     OW51463   4.534   2.999   1.195 -0.1457 -0.0341  0.2035
13270SOL    HW151464   4.460   2.939   1.225  0.3667 -0.4396  0.6656
13270SOL    HW251465   4.622   2.956   1.216  0.2207  0.5869 -0.0571
13271SOL     OW51466   0.675   0.805   2.476 -0.1508  0.3265 -0.3331
13271SOL    HW151467   0.739   0.869   2.519  1.4291 -0.6343 -1.2156
13271SOL    HW251468   0.624   0.757   2.547  0.7501  0.4485  0.4116
13272SOL     OW51469   6.882   0.011   7.370  1.1624 -0.2441 -0.7581
13272SOL    HW151470   6.786   0.035   7.386  1.6655  1.5209 -0.3012
13272SOL    HW251471   6.890  -0.088   7.360 -0.7867 -0.3562 -1.3983
13273SOL     OW51472   9.650   1.094   7.436 -0.4610 -0.2769  0.2559
13273SOL    HW151473   9.592   1.124   7.360 -0.3692 -0.2393  0.2005
13273SOL    HW251474   9.643   1.160   7.511 -1.0152 -0.6254  0.5086
13274SOL     OW51475   9.702   5.514   5.033 -0.1945  0.7998 -0.1198
13274SOL    HW151476   9.743   5.590   4.982 -0.2240  0.7891 -0.1606
13274SOL    HW251477   9.758   5.494   5.113  1.4140 -1.0337 -1.6659
13275SOL     OW51478   1.778   7.080   3.816  0.8023  0.3377 -0.5111
13275SOL    HW151479   1.686   7.097   3.780  0.4752 -1.1970 -0.4424
13275SOL    HW251480   1.812   7.163   3.861 -1.0508  0.5735  0.5313
13276SOL     OW51481   1.604   1.134   7.540  0.0929 -0.6096 -0.5385
13276SOL    HW151482   1.653   1.212   7.501  0.6294 -0.0560  1.2192
13276SOL    HW251483   1.606   1.058   7.476  2.7890 -0.4268 -0.6981
13277SOL     OW51484   0.530   1.343   2.642  0.2111  0.2267  0.1941
13277SOL    HW151485   0.482   1.268   2.595  0.4494  0.6333 -0.7195
13277SOL    HW251486   0.464   1.411   2.671  0.0547 -0.0460  0.4770
13278SOL     OW51487   1.069   4.377   3.454 -0.4663  0.3127  0.1464
13278SOL    HW151488   1.041   4.310   3.523  0.2941 -1.5822 -1.3533
13278SOL    HW251489   0.988   4.424   3.418 -1.1608 -0.8546  0.1602
13279SOL     OW51490   9.404   7.511   4.499  0.3608 -0.4075  0.3226
13279SOL    HW151491   9.488   7.461   4.477  1.0626  0.1015  1.7417
13279SOL    HW251492   9.421   7.610   4.491 -1.2167 -0.3411 -3.1696
13280SOL     OW51493   1.979   5.571   6.001 -0.1722  0.1014  0.5600
13280SOL    HW151494   2.013   5.500   5.940  0.7416  1.0863 -0.1051
13280SOL    HW251495   1.889   5.545   6.036  0.5885 -1.8409  1.1339
13281SOL     OW51496   1.281   6.717   2.035  0.1879 -0.0038  0.2356
13281SOL    HW151497   1.307   6.790   2.098  1.1255  1.3110 -1.6330
13281SOL    HW251498   1.185   6.692   2.050 -0.3445  2.0766  0.4756
13282SOL     OW51499   3.454   6.825   4.462  0.4225 -0.3207 -0.1912
13282SOL    HW151500   3.416   6.918   4.454 -0.4440 -0.7654 -1.4044
13282SOL    HW251501   3.508   6.819   4.545  1.3304  1.5783 -0.5933
13283SOL     OW51502   7.528   6.118   4.959 -0.5749 -0.0589 -0.4121
13283SOL    HW151503   7.564   6.147   4.871  3.5165  0.9809  1.4645
13283SOL    HW251504   7.578   6.037   4.990 -0.9352  0.4617  1.6002
13284SOL     OW51505   9.092   4.318   6.630  0.0905  0.3696  0.5173
13284SOL    HW151506   9.116   4.321   6.727  2.2689 -2.1124  0.1342
13284SOL    HW251507   9.000   4.282   6.619 -0.2976  0.9906  1.6833
13285SOL     OW51508   7.666   2.483   7.588 -0.3456 -0.0598  0.5741
13285SOL    HW151509   7.613   2.533   7.519 -1.2274  0.7825  1.8208
13285SOL    HW251510   7.742   2.540   7.620 -0.3913 -0.1431  0.8349
13286SOL     OW51511   0.924   3.849   1.603 -0.1907  0.0014  0.1732
13286SOL    HW151512   0.978   3.824   1.684 -0.3336 -2.3976 -0.4267
13286SOL    HW251513   0.943   3.944   1.579  0.8904  0.3479  2.2120
13287SOL     OW51514   3.482   8.911   0.482  0.1724  0.1637 -0.2841
13287SOL    HW151515   3.559   8.847   0.489 -0.1807 -0.2090  0.3031
13287SOL    HW251516   3.491   8.964   0.398  0.6038 -0.4932 -0.6676
13288SOL     OW51517   2.567   2.698   7.301  0.1637  0.3015  0.0056
13288SOL    HW151518   2.498   2.743   7.244 -0.1488  0.5856  0.6066
13288SOL    HW251519   2.558   2.599   7.291 -0.4801  0.3297  0.2466
13289SOL     OW51520   2.976   8.904   0.456  0.3863 -0.6568 -0.8142
13289SOL    HW151521   2.989   8.859   0.544 -0.5953  0.5222 -0.0506
13289SOL    HW251522   3.065   8.922   0.415  0.9014 -0.1838  0.4712
13290SOL     OW51523   7.393   1.660   5.673  0.2421  0.8028  0.2644
13290SOL    HW151524   7.350   1.596   5.609  2.1516  1.1039 -1.3553
13290SOL    HW251525   7.333   1.738   5.688 -1.2677 -0.4154  0.7470
13291SOL     OW51526   8.098   0.279   2.513 -0.3707  0.0483  0.2619
13291SOL    HW151527   8.113   0.180   2.518 -1.3470 -0.1397 -0.4107
13291SOL    HW251528   8.158   0.318   2.443  0.4356  0.0209  0.9378
13292SOL     OW51529   1.511   5.561   1.085 -0.0746 -0.5911 -0.1319
13292SOL    HW151530   1.429   5.543   1.140  0.1553  1.1599  0.8199
13292SOL    HW251531   1.591   5.522   1.131  0.1049  0.7936  0.7499
13293SOL     OW51532   0.743   7.106   6.137 -0.5338 -0.0377  0.1748
13293SOL    HW151533   0.751   7.023   6.082  1.5293  0.6440 -0.5856
13293SOL    HW251534   0.744   7.186   6.077  1.9591  0.7270  1.1716
13294SOL     OW51535   9.537   8.852   4.703 -0.0812  0.3703  0.2712
13294SOL    HW151536   9.449   8.806   4.692  0.1278  0.0504 -0.0398
13294SOL    HW251537   9.608   8.785   4.723 -0.1452  0.7589  1.9130
13295SOL     OW51538   9.163   9.468   5.794  0.2698  0.1176  0.0490
13295SOL    HW151539   9.259   9.448   5.812 -0.3627 -1.9705  1.2388
13295SOL    HW251540   9.144   9.458   5.696  1.3335  0.9443 -0.2499
13296SOL     OW51541   4.464   4.169   1.672 -0.1249  0.4037 -0.2484
13296SOL    HW151542   4.368   4.148   1.693  0.0752 -0.3065 -0.0149
13296SOL    HW251543   4.515   4.083   1.664  0.1858  0.7293 -1.8179
13297SOL     OW51544   4.223   3.814   3.560  0.0144 -0.2681  0.1927
13297SOL    HW151545   4.244   3.827   3.657 -0.4736 -0.6646  0.3590
13297SOL    HW251546   4.205   3.902   3.518 -0.5755 -0.1577  0.6613
13298SOL     OW51547   4.328   3.587   0.016 -0.1239 -0.0135 -0.1441
13298SOL    HW151548   4.236   3.601   0.050  0.1618  0.1574  0.5716
13298SOL    HW251549   4.325   3.570  -0.083 -0.8986  0.1487 -0.1523
13299SOL     OW51550   0.755   3.098   2.655 -0.2874  0.2706  0.1680
13299SOL    HW151551   0.836   3.151   2.633  0.3362 -1.4165 -1.7912
13299SOL    HW251552   0.781   3.003   2.672 -1.9109 -0.4811 -1.3283
13300SOL     OW51553   3.381   2.966   7.537 -0.0653 -0.2504  0.0033
13300SOL    HW151554   3.313   3.026   7.496  0.6259  0.6366  0.1502
13300SOL    HW251555   3.373   2.874   7.498  1.0247  0.7373 -2.5802
13301SOL     OW51556   1.958   5.619   4.956  0.5672 -0.1999  0.5218
13301SOL    HW151557   1.964   5.521   4.979  1.0299 -0.4298 -0.5777
13301SOL    HW251558   1.861   5.645   4.950  0.4301 -0.9933 -0.8554
13302SOL     OW51559   3.963   3.880   4.887  0.4804  0.2983  0.7958
13302SOL    HW151560   3.900   3.864   4.963  0.4615  0.2373  0.7673
13302SOL    HW251561   3.928   3.836   4.805  0.0538  1.1129  0.5349
13303SOL     OW51562   9.338   9.861   0.142  0.1040  0.2408 -0.4875
13303SOL    HW151563   9.391   9.776   0.148  0.0701  0.2134 -0.5773
13303SOL    HW251564   9.244   9.843   0.171  0.4117  0.5298  0.7161
13304SOL     OW51565   2.569   6.467   3.610  0.0830 -0.1376  0.5408
13304SOL    HW151566   2.653   6.519   3.592 -0.4215  0.0146 -1.5412
13304SOL    HW251567   2.591   6.385   3.663  1.8030 -0.8934 -1.2661
13305SOL     OW51568   7.836   1.187   5.496 -0.0992 -0.0686 -0.0463
13305SOL    HW151569   7.930   1.200   5.529  0.4177  1.0779 -1.8940
13305SOL    HW251570   7.774   1.240   5.554  0.5939  0.5477  0.1498
13306SOL     OW51571   1.545   2.657   6.956  0.4913  0.1173  0.1295
13306SOL    HW151572   1.466   2.682   7.012  1.5176  0.2166  1.5611
13306SOL    HW251573   1.527   2.569   6.911 -0.0535 -0.3133  1.1778
13307SOL     OW51574   9.553   7.979   0.978  0.2975  0.2882 -0.1242
13307SOL    HW151575   9.468   7.958   1.027  1.4946 -0.0780  1.8301
13307SOL    HW251576   9.598   7.894   0.950  1.8608  0.3375  2.1021
13308SOL     OW51577   0.573   6.802   0.124 -0.2355  0.0937  0.4264
13308SOL    HW151578   0.636   6.732   0.091  2.4307  1.6861  1.9565
13308SOL    HW251579   0.529   6.848   0.047  1.4972 -0.1469 -0.7162
13309SOL     OW51580   8.142   3.977   2.822  0.1631 -0.3205  0.0850
13309SOL    HW151581   8.204   3.928   2.883  0.1322  0.1287  0.4808
13309SOL    HW251582   8.089   4.043   2.874  0.2967  0.2293 -0.4598
13310SOL     OW51583   5.068   5.254   1.133  0.1019  0.2626 -0.4229
13310SOL    HW151584   5.091   5.179   1.071 -0.4762  0.2123 -0.5796
13310SOL    HW251585   4.996   5.225   1.196 -0.0936  0.6681 -0.4529
13311SOL     OW51586   3.102   2.460   3.137 -0.4040 -0.3635 -0.1243
13311SOL    HW151587   3.172   2.409   3.188  0.0820  1.3222  0.9742
13311SOL    HW251588   3.092   2.421   3.046  2.4548 -0.2740 -0.5367
13312SOL     OW51589   7.244   8.462   3.849  0.1590 -0.3170 -0.4497
13312SOL    HW151590   7.275   8.410   3.769  0.6537 -0.5009 -0.1362
13312SOL    HW251591   7.187   8.403   3.907  1.6401 -0.8496  0.4823
13313SOL     OW51592   7.068   5.107   7.997 -0.2714 -0.1958 -0.2040
13313SOL    HW151593   7.126   5.157   7.933  0.6268 -0.6519  0.2416
13313SOL    HW251594   7.006   5.171   8.042  0.3127  0.3949 -0.2322
13314SOL     OW51595   4.788   5.866   1.284 -0.2005 -0.1370 -0.3618
13314SOL    HW151596   4.826   5.837   1.196  1.3630 -1.2549  0.6791
13314SOL    HW251597   4.784   5.966   1.287  0.9396 -0.0644 -1.1935
13315SOL     OW51598   9.980   9.441   1.028  0.3346  0.6371 -0.1130
13315SOL    HW151599  10.046   9.459   1.101  2.9979 -0.4273 -2.1916
13315SOL    HW251600   9.985   9.514   0.959  0.4976 -0.2865 -1.0858
13316SOL     OW51601   1.704   7.973   4.659  0.0763  0.1154  0.1371
13316SOL    HW151602   1.621   7.979   4.715  0.0906 -1.6665  0.3574
13316SOL    HW251603   1.778   8.023   4.705 -0.6398  1.0126  0.3371
13317SOL     OW51604   3.891   9.887   3.519  0.6841 -0.8230 -0.0493
13317SOL    HW151605   3.874   9.803   3.468  0.8091 -0.4837 -0.6580
13317SOL    HW251606   3.831   9.960   3.486  0.1236 -0.8389  0.9109
13318SOL     OW51607   7.333   7.958   5.956 -0.3723  0.2769  0.0213
13318SOL    HW151608   7.394   7.997   6.025  0.3286  1.5472 -1.2844
13318SOL    HW251609   7.367   7.867   5.929 -2.0604 -1.3506  3.1397
13319SOL     OW51610   6.556   3.560   0.607  0.2916 -0.2188  0.1329
13319SOL    HW151611   6.590   3.528   0.518  2.4080  0.0833  0.8028
13319SOL    HW251612   6.584   3.497   0.679  1.2203  1.0831  0.9560
13320SOL     OW51613   3.003   7.304   0.882  0.4549  0.1521 -0.4767
13320SOL    HW151614   3.088   7.354   0.864  0.6033  0.4942  1.1104
13320SOL    HW251615   2.948   7.354   0.948 -0.3666 -0.7482 -0.4614
13321SOL     OW51616   1.023   0.312   4.964  0.7680  0.4313 -0.0389
13321SOL    HW151617   1.052   0.222   4.998 -2.6241 -0.5228  0.5418
13321SOL    HW251618   1.028   0.312   4.864 -0.9612 -1.1064 -0.1638
13322SOL     OW51619   3.025   8.205   7.281 -0.1181 -0.1923 -0.7222
13322SOL    HW151620   2.991   8.134   7.342 -2.3958 -0.2508 -2.0192
13322SOL    HW251621   2.970   8.288   7.291  1.8672  1.0852  0.0210
13323SOL     OW51622   2.310   5.635   6.285 -0.6788  0.2093  0.2119
13323SOL    HW151623   2.379   5.707   6.288 -0.5760  0.2228 -2.0642
13323SOL    HW251624   2.234   5.660   6.345  0.2234  1.3010  0.9191
13324SOL     OW51625   6.767   0.966   1.349  0.8562  0.4688  0.7474
13324SOL    HW151626   6.761   1.055   1.303 -0.3560 -0.9994 -2.0330
13324SOL    HW251627   6.690   0.956   1.412  0.2614  0.8985  0.1044
13325SOL     OW51628   2.070   8.333   0.181 -0.2575  0.2250 -0.7853
13325SOL    HW151629   2.066   8.280   0.266  1.5566  4.3622  2.0219
13325SOL    HW251630   2.146   8.299   0.125  0.1125 -0.9012  0.3731
13326SOL     OW51631   9.280   0.906   1.670 -0.3275  0.4755 -0.0759
13326SOL    HW151632   9.196   0.852   1.681  0.0086  0.0317  0.3615
13326SOL    HW251633   9.258   1.003   1.676 -0.7848  0.3577  0.2030
13327SOL     OW51634   7.149   1.425   0.198  0.3136  0.1021 -0.3928
13327SOL    HW151635   7.171   1.457   0.290 -0.9428 -0.5483  0.1522
13327SOL    HW251636   7.174   1.495   0.131 -1.4156  1.7986  0.6859
13328SOL     OW51637   2.165   9.992   0.326 -0.1226  0.4318  0.3507
13328SOL    HW151638   2.110   9.908   0.331  0.6087 -0.1276 -0.7036
13328SOL    HW251639   2.255   9.969   0.289  0.7886  1.3524  1.9323
13329SOL     OW51640   8.548   5.477   4.441  0.0646  0.2252  0.1187
13329SOL    HW151641   8.602   5.409   4.390  0.7555  0.3128  0.7181
13329SOL    HW251642   8.513   5.435   4.525  0.9233  0.7351  0.7494
13330SOL     OW51643   1.916   0.118   2.702 -0.3053  0.0273 -0.2943
13330SOL    HW151644   1.939   0.200   2.648  0.9549  0.2821  0.6111
13330SOL    HW251645   1.977   0.112   2.780 -0.8625 -1.4152  0.0357
13331SOL     OW51646   8.782   1.850   4.542  0.4068  0.5090  0.2339
13331SOL    HW151647   8.862   1.909   4.531  0.7904 -0.3107 -1.5190
13331SOL    HW251648   8.725   1.854   4.460 -0.4118 -0.3177  0.7454
13332SOL     OW51649   6.477   7.704   4.263 -0.1689 -0.4725 -0.0253
13332SOL    HW151650   6.401   7.736   4.319 -0.6849  0.6139 -1.3137
13332SOL    HW251651   6.446   7.630   4.203  0.1763 -1.0804  0.5420
13333SOL     OW51652   3.744   4.460   4.934  0.4176 -0.1314  0.2938
13333SOL    HW151653   3.769   4.438   5.028  0.0991 -1.3043  0.1075
13333SOL    HW251654   3.743   4.560   4.922 -1.0417  0.0779  1.9562
13334SOL     OW51655   4.694   7.789   3.936  0.1180 -0.1541 -0.6807
13334SOL    HW151656   4.760   7.837   3.994 -0.8222  1.2347 -0.7394
13334SOL    HW251657   4.662   7.707   3.983  2.0490 -0.9858 -0.7528
13335SOL     OW51658   0.010   0.504   6.717  0.0645  0.4354  0.4994
13335SOL    HW151659  -0.028   0.454   6.639  1.4456 -1.9888  1.3541
13335SOL    HW251660   0.079   0.448   6.763 -1.0465  1.6088  3.7632
13336SOL     OW51661   0.446   1.073   2.583  0.9148  0.1335 -0.1301
13336SOL    HW151662   0.446   1.068   2.683 -2.8500  0.2248 -0.0647
13336SOL    HW251663   0.411   0.988   2.545  0.8559  0.6885 -1.3380
13337SOL     OW51664   9.363   9.374   1.043 -0.1692 -0.1318  0.3503
13337SOL    HW151665   9.436   9.307   1.057 -0.9308 -1.2461 -0.9126
13337SOL    HW251666   9.403   9.466   1.041  0.6770 -0.3050  4.0044
13338SOL     OW51667   1.725   0.337   7.556  0.1676  0.5073  0.5397
13338SOL    HW151668   1.807   0.297   7.596  0.1170 -1.2257 -0.9946
13338SOL    HW251669   1.750   0.416   7.499  0.7975 -0.0938 -0.0247
13339SOL     OW51670   4.687   4.011   4.303  0.2898  0.5096  0.4625
13339SOL    HW151671   4.727   3.965   4.224  0.9880  1.8031  0.0497
13339SOL    HW251672   4.596   3.972   4.322  0.3526 -0.1904 -0.6171
13340SOL     OW51673   7.391   3.352   0.312 -0.6692 -0.3465  0.1017
13340SOL    HW151674   7.311   3.407   0.290  0.7001  0.3169 -3.7789
13340SOL    HW251675   7.464   3.411   0.346  0.0286 -0.0381 -1.8558
13341SOL     OW51676   3.175   7.895   4.307 -0.2452  0.0252 -0.1818
13341SOL    HW151677   3.155   7.929   4.215 -0.7195 -1.3710 -0.6120
13341SOL    HW251678   3.217   7.804   4.301  0.6815  0.3596  0.9504
13342SOL     OW51679   8.304   4.101   1.305 -0.6001 -0.4909 -0.2306
13342SOL    HW151680   8.322   4.194   1.334  2.1984 -1.1141  0.1715
13342SOL    HW251681   8.213   4.096   1.264 -1.3140  2.1058  0.9362
13343SOL     OW51682   4.479   1.443   7.049  0.0540 -0.4947 -0.0626
13343SOL    HW151683   4.398   1.458   6.992  0.0181  1.4437  0.4594
13343SOL    HW251684   4.526   1.530   7.064  1.9402 -1.5188  0.0996
13344SOL     OW51685   7.567   2.232   8.002  0.6111 -0.4492  0.6960
13344SOL    HW151686   7.616   2.213   8.088 -0.0330 -0.0421  1.1578
13344SOL    HW251687   7.606   2.313   7.959  1.2924 -0.9722  0.3247
13345SOL     OW51688   8.826   4.208   0.118 -0.4284 -0.2267 -0.1349
13345SOL    HW151689   8.753   4.145   0.143  1.1560 -2.0913 -0.0423
13345SOL    HW251690   8.878   4.233   0.201 -2.4653  3.1186  0.2193
13346SOL     OW51691   7.191   8.920   4.585  0.0794  0.5533  0.2522
13346SOL    HW151692   7.142   8.923   4.498 -0.5951  0.6237  0.6318
13346SOL    HW251693   7.289   8.934   4.569 -0.0796  0.8630 -0.4613
13347SOL     OW51694   8.544   6.885   3.589  0.1945 -0.1968  0.0475
13347SOL    HW151695   8.511   6.803   3.542  0.3275 -0.0448 -0.3130
13347SOL    HW251696   8.467   6.946   3.607 -0.0483 -0.8201  1.1564
13348SOL     OW51697   2.377   7.066   0.863 -0.1151 -0.0801  0.2371
13348SOL    HW151698   2.282   7.049   0.835 -0.2006  0.9597 -0.1442
13348SOL    HW251699   2.390   7.038   0.958 -1.0306  0.5065  0.5443
13349SOL     OW51700   4.038   8.669   5.414 -0.1641 -0.0520 -0.5552
13349SOL    HW151701   4.062   8.601   5.345  0.5404 -0.9160  0.5351
13349SOL    HW251702   4.080   8.645   5.501 -0.0320  1.7043 -0.1210
13350SOL     OW51703   8.944   8.722   7.447 -0.5364  0.2817 -0.3169
13350SOL    HW151704   9.031   8.770   7.440 -0.3647  0.1822  1.0185
13350SOL    HW251705   8.960   8.625   7.463 -0.8899  0.4739  1.2466
13351SOL     OW51706   8.873   5.192   3.812 -1.6835  0.0492  0.2175
13351SOL    HW151707   8.829   5.196   3.722  0.1589 -1.2398 -0.7620
13351SOL    HW251708   8.933   5.271   3.823 -2.4347  0.5654  0.5881
13352SOL     OW51709   5.561   1.362   4.409 -0.2780  0.0556 -0.0842
13352SOL    HW151710   5.516   1.396   4.326  1.2147  0.2760 -0.8329
13352SOL    HW251711   5.658   1.387   4.406 -0.4191  1.0127  2.2407
13353SOL     OW51712   8.801   5.894   3.536 -0.2412  0.0198 -0.2586
13353SOL    HW151713   8.800   5.822   3.605 -2.4771  0.9379  0.6927
13353SOL    HW251714   8.888   5.944   3.541 -0.8294  0.8366  2.7171
13354SOL     OW51715   2.582   5.165   6.131  0.1764  0.0779 -0.0946
13354SOL    HW151716   2.528   5.134   6.053  0.4489  0.9001 -0.6144
13354SOL    HW251717   2.634   5.246   6.106  0.4452  0.2163  0.8770
13355SOL     OW51718   9.944   2.485   4.241 -0.6166  0.0274 -0.5413
13355SOL    HW151719   9.901   2.425   4.308 -1.4933 -0.2546 -1.3532
13355SOL    HW251720   9.873   2.540   4.196 -0.1027 -0.2787 -1.7270
13356SOL     OW51721   8.617   1.842   8.171  0.2624 -0.0121  0.4983
13356SOL    HW151722   8.680   1.792   8.231  1.4424 -0.7717 -1.3250
13356SOL    HW251723   8.636   1.818   8.076 -1.9170  0.7901 -0.1649
13357SOL     OW51724   0.190   7.300   5.297 -0.4351  0.3473 -0.0431
13357SOL    HW151725   0.204   7.210   5.339 -0.7588 -0.8186 -2.3726
13357SOL    HW251726   0.270   7.323   5.241 -1.5679  0.1948 -1.7515
13358SOL     OW51727   4.482   1.529   2.788 -0.3917 -0.4090 -0.6990
13358SOL    HW151728   4.399   1.584   2.796  0.2457  0.2998  1.7058
13358SOL    HW251729   4.505   1.491   2.878  2.1994 -0.0822 -1.1874
13359SOL     OW51730   5.037   7.620   3.858 -0.3017 -0.2490  0.2518
13359SOL    HW151731   4.982   7.550   3.904  1.6213 -1.4594  0.7794
13359SOL    HW251732   5.042   7.701   3.917 -3.2026  0.6856 -0.7139
13360SOL     OW51733   8.774   8.033   0.943 -0.2800 -0.6560  0.0413
13360SOL    HW151734   8.828   7.995   0.867  1.8065 -1.3792  1.8276
13360SOL    HW251735   8.780   8.133   0.941 -1.2021 -0.6167 -1.4141
13361SOL     OW51736   8.715   6.027   8.077 -0.3139 -0.8646  0.5430
13361SOL    HW151737   8.746   6.074   7.994 -2.7686 -0.1602 -0.0276
13361SOL    HW251738   8.686   6.095   8.145 -0.2667 -1.4858  1.1889
13362SOL     OW51739   8.000   8.189   7.544  0.1620 -0.0330 -0.1422
13362SOL    HW151740   7.961   8.122   7.480  0.3383  1.5556 -1.9873
13362SOL    HW251741   7.926   8.246   7.581  0.0950 -0.7593  0.8460
13363SOL     OW51742   4.216   0.831   7.693  0.1261  0.5508  0.2017
13363SOL    HW151743   4.305   0.785   7.696  0.0549  0.3230 -0.8495
13363SOL    HW251744   4.144   0.766   7.717  0.0206  0.0727 -1.3311
13364SOL     OW51745   2.280   3.053   1.273 -0.7577  0.1432  0.5122
13364SOL    HW151746   2.245   2.992   1.345  0.6926  0.4671  1.5081
13364SOL    HW251747   2.321   2.998   1.201 -0.8001 -0.1154  0.6821
13365SOL     OW51748   9.532   1.854   5.778 -0.3663 -0.0196 -0.9205
13365SOL    HW151749   9.515   1.855   5.680  0.2855 -0.1637 -1.0371
13365SOL    HW251750   9.616   1.903   5.799  0.4435 -1.4884 -0.6279
13366SOL     OW51751   8.935   2.840   2.629  0.4222  0.1939 -0.3214
13366SOL    HW151752   8.949   2.872   2.535 -0.3055  0.5697 -0.3048
13366SOL    HW251753   8.936   2.740   2.630 -1.3823  0.1618 -1.0280
13367SOL     OW51754   1.626   2.077   6.256 -0.3649  0.0642 -0.0777
13367SOL    HW151755   1.545   2.033   6.295 -0.8575  1.0731  0.0618
13367SOL    HW251756   1.649   2.158   6.311 -0.1481  0.6158 -0.9719
13368SOL     OW51757   2.183   3.858   5.626 -0.4826  0.4398  0.5092
13368SOL    HW151758   2.129   3.921   5.570 -1.0851 -1.5165 -1.1542
13368SOL    HW251759   2.137   3.844   5.714 -1.7178  0.2284 -0.1640
13369SOL     OW51760   3.287   5.604   0.892 -0.1787 -0.1518  1.2494
13369SOL    HW151761   3.331   5.542   0.826 -0.2247  0.2588  0.8337
13369SOL    HW251762   3.204   5.561   0.926 -0.2329 -0.3054  0.9305
13370SOL     OW51763   2.069   9.877   7.058 -0.0257  0.1262 -0.0435
13370SOL    HW151764   2.001   9.836   7.118 -0.5423  0.1517 -0.6032
13370SOL    HW251765   2.144   9.915   7.112 -0.6451  0.4431  0.5976
13371SOL     OW51766   1.656   4.260   2.151  0.1356  0.2643 -0.2624
13371SOL    HW151767   1.675   4.183   2.089  3.6093 -1.0294  2.2101
13371SOL    HW251768   1.598   4.229   2.226  0.1024  0.4897 -0.1941
13372SOL     OW51769   1.036   5.776   6.934 -0.2354  0.2277  0.1269
13372SOL    HW151770   1.016   5.874   6.932  0.5340  0.4086  0.9552
13372SOL    HW251771   1.020   5.736   6.844  0.5020  1.3366 -0.5035
13373SOL     OW51772   7.641   3.409   0.728  0.3959 -0.2626 -0.0949
13373SOL    HW151773   7.703   3.372   0.659  1.7574  2.3998 -0.3280
13373SOL    HW251774   7.683   3.398   0.819 -1.0962 -3.1439  0.3005
13374SOL     OW51775   5.042   9.232   2.837  0.8296 -0.4726 -0.5799
13374SOL    HW151776   5.007   9.150   2.882  0.4922  1.1476  2.2204
13374SOL    HW251777   5.110   9.206   2.769  2.4874 -2.9688  1.9164
13375SOL     OW51778   7.603   0.619   1.055  0.3521  0.1548 -0.0438
13375SOL    HW151779   7.650   0.700   1.017 -0.6246  1.0662  0.6739
13375SOL    HW251780   7.627   0.610   1.152 -0.6911  0.4470  0.2492
13376SOL     OW51781   7.340   1.811   1.754 -0.6866 -0.1956 -0.2950
13376SOL    HW151782   7.356   1.898   1.801  2.4652 -0.7314 -0.2457
13376SOL    HW251783   7.339   1.826   1.655  0.6216 -0.1744 -0.3180
13377SOL     OW51784   4.452   7.672   4.686  0.4283  0.1446 -0.6142
13377SOL    HW151785   4.396   7.755   4.681  0.2461  0.0994  0.4567
13377SOL    HW251786   4.548   7.697   4.697  0.4553  0.2140 -0.9947
13378SOL     OW51787   2.357   6.409   2.878  0.1072 -0.2388  0.0305
13378SOL    HW151788   2.359   6.340   2.950 -3.0957 -0.2264  0.2155
13378SOL    HW251789   2.349   6.500   2.919  1.3048  0.0113 -0.2818
13379SOL     OW51790   9.005   2.462   0.523  0.1609  0.1354  0.2846
13379SOL    HW151791   9.029   2.383   0.579 -0.0183 -0.1233  0.0009
13379SOL    HW251792   9.083   2.488   0.465 -0.1066 -0.4609 -0.3519
13380SOL     OW51793   5.246   5.662   0.922  0.7543 -0.0358 -0.3913
13380SOL    HW151794   5.212   5.614   0.841  2.3852 -0.1129 -1.0639
13380SOL    HW251795   5.256   5.759   0.901 -0.2654  0.1977  0.2041
13381SOL     OW51796   1.414   3.551   7.157  0.2659 -0.1488 -0.1011
13381SOL    HW151797   1.471   3.504   7.090  1.0258 -0.8933  1.0617
13381SOL    HW251798   1.472   3.597   7.224 -0.5008  0.0690  0.4234
13382SOL     OW51799   0.006   7.804   2.822  0.3668  0.2751  0.1565
13382SOL    HW151800   0.035   7.715   2.786 -1.9646 -0.2069 -0.6260
13382SOL    HW251801  -0.013   7.795   2.919 -1.8802 -0.6615 -0.3223
13383SOL     OW51802   9.300   1.635   4.996  0.0334 -0.1885  0.1706
13383SOL    HW151803   9.316   1.635   4.897  0.4851 -0.8188  0.2407
13383SOL    HW251804   9.386   1.650   5.044 -0.1489 -0.1157  0.4787
13384SOL     OW51805   1.768   8.692   6.355 -0.4880 -0.0659 -0.0673
13384SOL    HW151806   1.822   8.661   6.433 -1.5801  0.4900  0.9327
13384SOL    HW251807   1.722   8.778   6.378  0.6536  1.0888 -1.9872
13385SOL     OW51808   8.952   7.050   5.227 -0.2514 -0.5603 -0.3584
13385SOL    HW151809   9.010   7.128   5.248 -0.6882 -0.1414 -0.6895
13385SOL    HW251810   8.935   7.046   5.128  0.2643 -1.4283 -0.4212
13386SOL     OW51811   7.379   1.404   2.804 -0.0297  0.2043 -0.3963
13386SOL    HW151812   7.293   1.352   2.801  0.2103 -0.3244  1.3173
13386SOL    HW251813   7.443   1.367   2.736 -0.7422 -0.1472 -0.8813
13387SOL     OW51814   8.249   9.284   5.771 -0.1701 -0.1826  0.2116
13387SOL    HW151815   8.291   9.290   5.680 -0.2829 -0.6999  0.1241
13387SOL    HW251816   8.214   9.192   5.786  0.4564 -0.2853  1.0583
13388SOL     OW51817   6.931   0.124   7.065 -0.0284 -0.0711  0.2669
13388SOL    HW151818   7.014   0.075   7.092  0.4801  0.4251 -0.3729
13388SOL    HW251819   6.910   0.194   7.132  0.0370 -0.2297  0.4546
13389SOL     OW51820   6.732   0.022   6.888 -0.1102  0.4454 -0.0507
13389SOL    HW151821   6.800   0.028   6.960  0.3327 -0.8535 -0.3458
13389SOL    HW251822   6.679   0.106   6.885  0.5876  0.9338  1.0672
13390SOL     OW51823   3.952   0.544   0.727 -0.2222  0.1245  0.4942
13390SOL    HW151824   3.996   0.610   0.665 -0.3189 -1.5596 -1.4246
13390SOL    HW251825   3.890   0.486   0.675 -1.8281 -0.0542  2.5420
13391SOL     OW51826   7.300   1.948   0.718  0.2070 -0.0172 -0.4796
13391SOL    HW151827   7.392   1.984   0.733  0.2249  0.8963 -2.5908
13391SOL    HW251828   7.245   2.018   0.672 -0.9726 -1.2399 -0.9293
13392SOL     OW51829   9.565   9.466   2.452  0.0215  0.1213  0.3120
13392SOL    HW151830   9.502   9.454   2.529  1.5544 -0.3388  1.5132
13392SOL    HW251831   9.587   9.376   2.413  0.5124  0.2136  0.3748
13393SOL     OW51832   9.136   0.539   2.599 -0.1482  0.5494  0.3461
13393SOL    HW151833   9.114   0.565   2.505  0.5931 -0.6887 -0.2021
13393SOL    HW251834   9.069   0.473   2.632  1.8062 -2.1842 -0.8411
13394SOL     OW51835   7.560   5.021   7.586  0.1648  0.6259  0.4808
13394SOL    HW151836   7.494   4.971   7.641  0.8054  0.5445  1.1911
13394SOL    HW251837   7.553   5.119   7.607  0.1087  0.6432  0.3825
13395SOL     OW51838   3.606   8.300   0.405 -0.0176  0.0567  0.0491
13395SOL    HW151839   3.628   8.330   0.498  0.2230  0.2233 -0.0594
13395SOL    HW251840   3.550   8.218   0.409 -0.3478  0.2964  0.3452
13396SOL     OW51841   7.902   9.536   7.694 -0.0501  0.3793 -0.1452
13396SOL    HW151842   7.881   9.632   7.716 -1.0244 -0.1715  1.3762
13396SOL    HW251843   7.823   9.493   7.652 -0.8156 -0.6928  2.2981
13397SOL     OW51844   9.329   2.065   6.662 -0.0795 -0.5530  0.0722
13397SOL    HW151845   9.346   2.135   6.731 -0.3103  0.4738 -0.8960
13397SOL    HW251846   9.233   2.037   6.664  0.4525 -2.3987  1.8736
13398SOL     OW51847   0.481   6.471   6.148  0.2610  0.2242  0.4252
13398SOL    HW151848   0.505   6.375   6.132 -1.6817 -0.3233  0.7381
13398SOL    HW251849   0.450   6.483   6.242  0.3790  1.1562  0.3531
13399SOL     OW51850   8.347   1.666   2.359  0.1024  0.1963  0.6899
13399SOL    HW151851   8.337   1.642   2.455 -3.0489 -0.3731  0.2994
13399SOL    HW251852   8.310   1.758   2.344  0.7077  0.3366  0.0685
13400SOL     OW51853   9.126   4.156   5.883 -0.4578  0.3898 -0.1313
13400SOL    HW151854   9.094   4.242   5.842 -3.0183 -1.2646 -1.7338
13400SOL    HW251855   9.050   4.091   5.887  1.9160 -2.5147 -0.8362
13401SOL     OW51856   2.274   6.016   8.108  0.2850  0.0996  0.2722
13401SOL    HW151857   2.292   6.105   8.149  1.1407  0.1795 -0.2665
13401SOL    HW251858   2.294   6.019   8.011  2.4679 -1.2774  0.6386
13402SOL     OW51859   7.007   9.184   5.026  0.0012  0.0395 -0.2739
13402SOL    HW151860   7.058   9.135   5.096 -2.4003 -1.5156  0.4386
13402SOL    HW251861   7.046   9.165   4.936  2.7763  1.6294  0.5116
13403SOL     OW51862   0.180   6.486   3.215 -0.4791  0.2536  0.4032
13403SOL    HW151863   0.277   6.497   3.238 -0.3327  0.1615 -0.1552
13403SOL    HW251864   0.171   6.421   3.139 -1.0265 -0.2384  0.8921
13404SOL     OW51865   2.238   7.316   2.242  0.0509 -0.1425 -0.5336
13404SOL    HW151866   2.158   7.306   2.300 -1.2661 -0.4801 -2.3763
13404SOL    HW251867   2.271   7.225   2.215  1.5660 -0.0310  0.9016
13405SOL     OW51868   5.743   9.492   4.966  0.0524  0.1878 -0.6860
13405SOL    HW151869   5.814   9.423   4.949 -2.9167 -2.7899 -1.7100
13405SOL    HW251870   5.705   9.523   4.879 -0.2549  1.3511 -0.1409
13406SOL     OW51871   0.721   6.220   5.214  0.1456 -0.1884 -0.2516
13406SOL    HW151872   0.762   6.139   5.255  0.8670 -0.0281 -0.6442
13406SOL    HW251873   0.630   6.197   5.178 -0.6016 -0.2740  1.6193
13407SOL     OW51874   6.606   1.146   6.221  0.2806 -0.2965  0.3341
13407SOL    HW151875   6.624   1.243   6.205 -0.8706 -0.2323 -0.7368
13407SOL    HW251876   6.553   1.135   6.305 -0.3346  0.0852 -0.0015
13408SOL     OW51877   8.903   2.256   7.070 -0.0700 -0.0660 -0.0225
13408SOL    HW151878   8.868   2.251   6.977 -0.8497  0.0773  0.2589
13408SOL    HW251879   8.852   2.193   7.129  1.5390 -1.4021 -0.0336
13409SOL     OW51880   7.385   0.052   3.376 -0.1328  0.3259  0.3333
13409SOL    HW151881   7.332   0.087   3.299  0.4269  0.3826 -0.0238
13409SOL    HW251882   7.323   0.034   3.453 -0.5328  1.3078  0.2444
13410SOL     OW51883   9.290   8.437   6.404 -0.1009  0.1780  0.1055
13410SOL    HW151884   9.204   8.389   6.390 -0.6103  0.9631  0.4880
13410SOL    HW251885   9.366   8.378   6.377 -0.5296 -1.9456  3.3255
13411SOL     OW51886   4.074   2.481   7.828 -0.2349  0.3018  0.0533
13411SOL    HW151887   3.975   2.470   7.826 -0.6056  1.7913  4.1892
13411SOL    HW251888   4.116   2.399   7.867  0.0836 -0.0543 -1.0471
13412SOL     OW51889   7.733   9.472   0.378  0.3197 -0.2521 -0.6682
13412SOL    HW151890   7.812   9.516   0.335  1.3894 -1.0008  0.5093
13412SOL    HW251891   7.739   9.481   0.477 -0.7955 -0.8066 -0.5386
13413SOL     OW51892   1.934   9.456   7.594  0.2017  0.0308 -0.3405
13413SOL    HW151893   1.884   9.369   7.593  2.4926 -1.2986 -1.4892
13413SOL    HW251894   2.021   9.445   7.547  1.3060  2.5072  1.0603
13414SOL     OW51895   0.694   2.856   1.067  0.1204 -0.0496  0.5298
13414SOL    HW151896   0.711   2.919   1.143 -0.0444  1.7137 -0.8547
13414SOL    HW251897   0.777   2.848   1.012 -0.6458  1.0730 -0.8143
13415SOL     OW51898   3.464   9.824   2.738  0.4434  0.1903  0.1822
13415SOL    HW151899   3.500   9.731   2.746 -1.3050 -0.5055  0.2851
13415SOL    HW251900   3.455   9.864   2.829  0.4919  0.1849  0.1894
13416SOL     OW51901   3.842   0.596   3.281 -0.2095  0.6607  0.3646
13416SOL    HW151902   3.914   0.561   3.340 -1.1255  0.7740  1.5656
13416SOL    HW251903   3.879   0.613   3.189  1.3922  1.1656  1.0942
13417SOL     OW51904   9.274   1.513   3.954 -0.1671  0.1269  0.5242
13417SOL    HW151905   9.312   1.582   3.892 -0.5479  1.2276  1.4939
13417SOL    HW251906   9.336   1.501   4.032  0.9357 -2.1647 -0.6611
13418SOL     OW51907   2.014   2.077   7.369 -0.4823  0.1029 -0.4477
13418SOL    HW151908   1.969   1.989   7.353 -0.4997 -0.4632  2.4795
13418SOL    HW251909   2.113   2.064   7.368 -0.4895 -0.0539  0.4446
13419SOL     OW51910   1.595   0.429   2.922 -0.3318  0.0757  0.3882
13419SOL    HW151911   1.680   0.432   2.868 -0.1624 -0.1332  0.6427
13419SOL    HW251912   1.541   0.511   2.903 -0.1802  0.1000  0.0496
13420SOL     OW51913   2.967   8.611   2.100 -0.4272 -0.2802 -0.2145
13420SOL    HW151914   3.020   8.695   2.110 -0.1201 -0.4456 -0.4374
13420SOL    HW251915   2.912   8.595   2.182 -0.0629 -0.1543  0.0532
13421SOL     OW51916   9.030   6.451   7.746 -0.4991 -0.1576  0.0445
13421SOL    HW151917   9.090   6.465   7.825 -1.6918 -1.4911  1.2109
13421SOL    HW251918   8.947   6.506   7.757  0.1840  1.1822 -1.2549
13422SOL     OW51919   8.960   0.107   0.664  0.0272  0.3645 -0.4013
13422SOL    HW151920   8.985   0.010   0.660 -0.1371  0.3406 -0.9076
13422SOL    HW251921   8.863   0.116   0.642 -0.1049  0.5830  0.2622
13423SOL     OW51922   4.862   5.562   0.191 -0.2144 -0.1511 -0.2460
13423SOL    HW151923   4.842   5.473   0.232 -1.2091 -0.0439 -0.4717
13423SOL    HW251924   4.951   5.594   0.221 -0.2168 -0.8419  0.5059
13424SOL     OW51925   2.505   2.019   5.662  0.2238  0.3137 -0.0223
13424SOL    HW151926   2.582   2.065   5.617 -0.2211  0.7743 -0.3063
13424SOL    HW251927   2.540   1.944   5.718  1.0146  1.3843  0.9485
13425SOL     OW51928   6.011   9.692   3.510 -0.3002 -0.0859 -0.1727
13425SOL    HW151929   5.952   9.677   3.589 -0.2275 -0.0825 -0.1187
13425SOL    HW251930   6.107   9.689   3.538 -0.2679 -0.4691 -0.3273
13426SOL     OW51931   2.044   5.880   7.771 -0.1513  0.3578  0.3903
13426SOL    HW151932   2.036   5.847   7.865  0.7714  0.8679  0.6535
13426SOL    HW251933   2.071   5.804   7.711 -0.4846  0.0905  0.5787
13427SOL     OW51934   1.012   9.403   4.281  0.0530 -0.0533  0.3170
13427SOL    HW151935   1.054   9.416   4.191  1.0920  1.3228  0.9882
13427SOL    HW251936   1.047   9.472   4.344 -2.4439  0.4579  1.1750
13428SOL     OW51937   6.661   0.461   6.985  0.0579 -0.5811 -0.0921
13428SOL    HW151938   6.741   0.497   6.938  0.6185  0.7724  1.8466
13428SOL    HW251939   6.665   0.485   7.082 -3.2570  0.4734 -0.1569
13429SOL     OW51940   2.686   6.043   0.506 -0.8827  0.3329 -0.5724
13429SOL    HW151941   2.608   6.062   0.446  0.0383  0.5273 -1.7305
13429SOL    HW251942   2.740   5.969   0.467  0.8482  1.8179 -1.0419
13430SOL     OW51943   7.885   7.171   3.685 -0.2582  0.2903 -0.3080
13430SOL    HW151944   7.907   7.255   3.734  0.3598  0.1010 -0.2540
13430SOL    HW251945   7.790   7.173   3.655  0.0057  1.3883 -1.0678
13431SOL     OW51946   7.082   0.376   3.362  0.0117  0.1960 -0.6087
13431SOL    HW151947   6.986   0.350   3.379 -0.3415  1.1129 -1.2019
13431SOL    HW251948   7.120   0.418   3.444  0.8648 -2.9693  0.6818
13432SOL     OW51949   2.182   4.715   7.028  0.1829 -0.2453  0.9648
13432SOL    HW151950   2.220   4.767   6.952 -2.1524 -1.5200 -1.1642
13432SOL    HW251951   2.237   4.632   7.042  0.1496 -0.3970  0.1684
13433SOL     OW51952   9.250   9.130   7.148  0.1913  0.0331 -0.2119
13433SOL    HW151953   9.330   9.129   7.088  1.0876 -0.7401  0.9778
13433SOL    HW251954   9.167   9.119   7.093  0.9602 -0.1703 -1.3524
13434SOL     OW51955   8.911   5.535   4.297 -0.4591  0.2067  0.5260
13434SOL    HW151956   8.967   5.452   4.299 -0.0064  0.2411 -3.9521
13434SOL    HW251957   8.968   5.614   4.317  0.5517 -0.0203 -1.3062
13435SOL     OW51958   8.059   6.839   4.878  0.0320 -0.0848 -0.2829
13435SOL    HW151959   8.012   6.899   4.814 -0.0078  0.8690  0.6236
13435SOL    HW251960   8.140   6.800   4.834 -0.0979  0.4136 -0.9650
13436SOL     OW51961   0.371   6.674   0.269 -0.4408  0.6128  0.2263
13436SOL    HW151962   0.448   6.718   0.221  0.8666 -1.0616  0.7393
13436SOL    HW251963   0.397   6.657   0.364 -1.6001  0.3713  0.5063
13437SOL     OW51964   4.386   3.613   5.034 -0.3410 -0.3010  0.0302
13437SOL    HW151965   4.328   3.583   4.959  1.6223 -0.1571 -1.5913
13437SOL    HW251966   4.393   3.713   5.035  0.1189 -0.3282  0.0162
13438SOL     OW51967   1.649   9.746   2.444  0.0104 -0.7116  0.0481
13438SOL    HW151968   1.683   9.812   2.510 -0.5147 -1.0818  0.6892
13438SOL    HW251969   1.629   9.660   2.490  0.9417 -1.4122 -0.8252
13439SOL     OW51970   2.183   7.730   1.036  0.0549  0.3708 -0.1518
13439SOL    HW151971   2.216   7.820   1.007 -1.8480  0.8733 -0.8648
13439SOL    HW251972   2.260   7.674   1.066  1.6813  1.1190 -2.7184
13440SOL     OW51973   4.687   3.494   4.421 -0.1407  0.4887  0.0183
13440SOL    HW151974   4.588   3.490   4.433  0.1473 -0.7225  2.2333
13440SOL    HW251975   4.719   3.411   4.376 -0.1545  1.0238 -0.9923
13441SOL     OW51976   2.675   0.716   6.013 -0.0546  0.0819 -0.5840
13441SOL    HW151977   2.591   0.750   5.971 -0.6259 -0.5825  0.0161
13441SOL    HW251978   2.734   0.793   6.037 -1.1467  0.6395  0.3598
13442SOL     OW51979   8.490   4.924   5.617 -0.3085 -0.0814 -0.4971
13442SOL    HW151980   8.446   4.957   5.533 -1.3213 -0.1162  0.0133
13442SOL    HW251981   8.496   4.824   5.614  1.3256  0.0256 -1.3368
13443SOL     OW51982   4.912   4.267   4.291 -0.6435 -0.1841 -0.6093
13443SOL    HW151983   4.913   4.366   4.278 -0.7733 -0.0222  0.5870
13443SOL    HW251984   4.819   4.233   4.279 -0.6413 -0.1318 -0.7806
13444SOL     OW51985   6.515   1.285   3.601  0.7055  0.3030 -0.1033
13444SOL    HW151986   6.571   1.352   3.649  0.4593  0.3313  0.1433
13444SOL    HW251987   6.470   1.329   3.523 -1.4872  1.0502  1.5543
13445SOL     OW51988   0.219   2.443   7.872 -0.3447  0.1726 -0.3124
13445SOL    HW151989   0.155   2.367   7.862 -0.4569  0.2600 -0.2700
13445SOL    HW251990   0.167   2.528   7.885 -0.2086 -0.0427  1.9215
13446SOL     OW51991   6.896   4.703   0.850 -0.0842  0.0120 -0.1755
13446SOL    HW151992   6.907   4.693   0.751  1.4136  0.3191 -0.0538
13446SOL    HW251993   6.799   4.712   0.871 -0.4319 -0.1252 -1.6080
13447SOL     OW51994   8.203   3.096   3.467 -0.3110 -0.2473 -0.1656
13447SOL    HW151995   8.288   3.134   3.503 -1.1156  1.4052  0.0298
13447SOL    HW251996   8.125   3.142   3.510 -1.3279 -2.5300  0.4879
13448SOL     OW51997   3.092   2.050   2.910 -0.1568 -0.2329  0.2619
13448SOL    HW151998   3.114   2.119   2.840  0.2247 -0.0597  0.5479
13448SOL    HW251999   3.134   2.077   2.997  1.1653 -1.5291  0.0504
13449SOL     OW52000   1.182   7.542   1.969  0.1848 -0.6063  0.3343
13449SOL    HW152001   1.121   7.598   1.912  0.8715 -0.0586  0.1361
13449SOL    HW252002   1.229   7.601   2.035  0.0168 -1.1210  0.9220
13450SOL     OW52003   9.432   2.201   0.835  0.3382  0.7405 -0.0435
13450SOL    HW152004   9.530   2.181   0.839  0.9447  3.5702  0.6845
13450SOL    HW252005   9.419   2.300   0.833 -2.5483  0.4360  1.3414
13451SOL     OW52006   3.411   4.980   1.566  0.4738  0.1043 -0.2430
13451SOL    HW152007   3.340   4.930   1.615  0.0598 -0.1299 -1.0602
13451SOL    HW252008   3.501   4.942   1.590  0.1357 -1.3945 -1.2190
13452SOL     OW52009   7.865   3.833   6.876  0.1557 -0.3330  0.5711
13452SOL    HW152010   7.962   3.855   6.883  0.2355 -1.1434  2.3683
13452SOL    HW252011   7.811   3.912   6.904  0.2638  0.4926 -1.5057
13453SOL     OW52012   1.661   5.642   3.825  0.8894  0.1940 -0.2586
13453SOL    HW152013   1.654   5.648   3.726  1.6226  1.4330 -0.2501
13453SOL    HW252014   1.577   5.679   3.866  0.7499  0.0437 -0.4065
13454SOL     OW52015   0.282   7.060   0.169 -0.9127  0.2678  0.2368
13454SOL    HW152016   0.201   7.022   0.212 -0.5639 -0.4249  0.2876
13454SOL    HW252017   0.257   7.098   0.080 -1.3702  0.4484  0.4381
13455SOL     OW52018   2.007   9.350   6.886  0.2653  0.7888 -0.0186
13455SOL    HW152019   2.074   9.352   6.960 -0.5457  0.2381  0.7533
13455SOL    HW252020   1.946   9.271   6.899  0.1608  0.6393 -1.3187
13456SOL     OW52021   0.916   8.647   0.814  0.3375  0.1220 -0.3315
13456SOL    HW152022   0.898   8.593   0.732  1.2034 -1.6846  0.6371
13456SOL    HW252023   1.015   8.653   0.828  0.2642  2.0362 -0.4461
13457SOL     OW52024   8.815   8.981   7.579  0.3523 -0.3590  0.3650
13457SOL    HW152025   8.868   9.057   7.542  1.0142 -0.5051  0.9906
13457SOL    HW252026   8.820   8.903   7.517 -1.1051  0.4025 -0.7403
13458SOL     OW52027   3.822   0.754   2.553  0.2287  0.7666  0.1555
13458SOL    HW152028   3.885   0.751   2.476  2.0437  0.0055  1.6360
13458SOL    HW252029   3.757   0.678   2.547  0.0712  0.9781 -0.8478
13459SOL     OW52030   1.030   7.711   1.822  0.0338 -0.2441 -0.0965
13459SOL    HW152031   1.077   7.798   1.805  1.3582 -1.1361 -1.1589
13459SOL    HW252032   0.963   7.695   1.750  0.0359 -0.2670 -0.0935
13460SOL     OW52033   4.295   2.679   1.044 -0.0507  0.0364  0.0961
13460SOL    HW152034   4.280   2.627   0.960  2.5933 -0.6128 -0.0037
13460SOL    HW252035   4.293   2.777   1.024 -2.6174 -0.0320 -0.1353
13461SOL     OW52036   8.563   0.494   0.797 -0.8719 -0.7308  0.1711
13461SOL    HW152037   8.505   0.531   0.724  0.1185 -0.5767 -0.5621
13461SOL    HW252038   8.556   0.551   0.878 -1.5836 -0.6025  0.0248
13462SOL     OW52039   3.789   8.226   0.845 -0.0421 -0.2182  0.3004
13462SOL    HW152040   3.858   8.298   0.845 -0.9096  0.6228 -0.6919
13462SOL    HW252041   3.834   8.137   0.833  1.1899 -0.0442  3.1606
13463SOL     OW52042   5.175   4.549   1.038  0.9880 -0.5459 -0.2198
13463SOL    HW152043   5.261   4.507   1.011  1.9957  0.1191  1.8344
13463SOL    HW252044   5.183   4.648   1.033  0.7615 -0.4464  1.1389
13464SOL     OW52045   6.942   6.819   5.714  0.0349 -0.1967  0.1612
13464SOL    HW152046   6.944   6.917   5.730 -0.9082 -0.4086  1.6042
13464SOL    HW252047   6.896   6.773   5.790 -0.1057 -1.6905 -0.8047
13465SOL     OW52048   3.636   1.507   7.512  1.0593 -0.1986  0.5886
13465SOL    HW152049   3.583   1.589   7.534 -1.5992 -1.9347  0.8759
13465SOL    HW252050   3.732   1.523   7.533  0.5911  2.8468  0.6049
13466SOL     OW52051   1.010   2.369   1.280 -0.1610  0.2272  0.5170
13466SOL    HW152052   0.915   2.400   1.275 -0.8028 -1.7831 -0.5622
13466SOL    HW252053   1.021   2.312   1.361 -0.0845 -0.1473  0.2466
13467SOL     OW52054   3.415   4.651   5.567 -0.3521 -0.2609  0.0003
13467SOL    HW152055   3.483   4.580   5.555 -1.9516 -2.5129  3.5255
13467SOL    HW252056   3.448   4.719   5.633  0.2314  1.0984 -1.6417
13468SOL     OW52057   8.218   0.631   5.753 -0.1527  0.0793  0.2907
13468SOL    HW152058   8.147   0.627   5.683 -0.8586 -1.4549  1.0686
13468SOL    HW252059   8.264   0.543   5.759  1.4219  0.8821  0.2202
13469SOL     OW52060   4.353   8.193   1.452  0.1795 -0.4696 -0.1460
13469SOL    HW152061   4.354   8.277   1.398 -0.8090 -0.5508 -0.3020
13469SOL    HW252062   4.272   8.192   1.511  0.3735 -1.1407  0.1167
13470SOL     OW52063   1.432   8.276   7.530 -0.2466  0.3475  0.7064
13470SOL    HW152064   1.361   8.323   7.581 -0.7595  0.2213  0.1109
13470SOL    HW252065   1.499   8.237   7.594 -0.4581  0.8578  1.2443
13471SOL     OW52066   1.853   4.235   7.515 -0.2067  0.5570  0.2007
13471SOL    HW152067   1.861   4.331   7.542 -0.3158  0.7709 -0.4932
13471SOL    HW252068   1.861   4.229   7.415 -1.6738  0.0238  0.1000
13472SOL     OW52069   2.570   5.561   5.556 -0.0167 -0.6060  0.2602
13472SOL    HW152070   2.615   5.624   5.493  1.0067 -1.2552  0.3183
13472SOL    HW252071   2.524   5.613   5.628 -0.5838  0.1165 -0.6066
13473SOL     OW52072   0.750   6.287   1.518  0.1796 -1.0667  0.0602
13473SOL    HW152073   0.701   6.212   1.562  0.7127 -1.2304  0.3863
13473SOL    HW252074   0.809   6.332   1.585 -1.6072  0.9027  0.3481
13474SOL     OW52075   2.673   8.341   0.906  0.2630 -0.6174 -0.1264
13474SOL    HW152076   2.626   8.425   0.934 -2.7100 -1.7517 -1.5880
13474SOL    HW252077   2.689   8.344   0.807  0.4434 -1.6217 -0.1285
13475SOL     OW52078   0.515   1.713   3.796  0.5172  0.7166 -0.1846
13475SOL    HW152079   0.517   1.761   3.708  0.3808  0.3863 -0.3670
13475SOL    HW252080   0.559   1.624   3.786 -0.5431  0.1936 -0.2067
13476SOL     OW52081   3.754   4.569   3.879  0.1910 -0.4655 -0.3565
13476SOL    HW152082   3.704   4.650   3.911 -0.5684 -1.6163  1.4631
13476SOL    HW252083   3.849   4.593   3.860  0.3504  0.5492  1.5976
13477SOL     OW52084   3.041   5.183   4.982  0.3162 -0.2996 -0.2612
13477SOL    HW152085   2.963   5.160   5.039  0.2527 -1.3187 -0.7431
13477SOL    HW252086   3.108   5.235   5.035  1.0026 -2.6176  1.2071
13478SOL     OW52087   4.447   1.785   7.266 -0.3146 -0.3459  0.3406
13478SOL    HW152088   4.518   1.799   7.197  0.2030  1.6620  1.2546
13478SOL    HW252089   4.439   1.687   7.286  2.0329 -0.6279  0.0591
13479SOL     OW52090   0.544   0.448   1.394  0.3836 -0.2550  0.2690
13479SOL    HW152091   0.466   0.485   1.445 -1.5194 -0.6287 -2.2948
13479SOL    HW252092   0.616   0.517   1.388 -1.8828  2.0155 -1.8209
13480SOL     OW52093   1.877   3.256   1.739  0.2936  0.1988  0.2546
13480SOL    HW152094   1.856   3.167   1.780 -1.2604 -0.0315 -1.0009
13480SOL    HW252095   1.921   3.243   1.650  1.8613  0.7020  0.9361
13481SOL     OW52096   0.065   1.436   7.200  0.2839 -0.0795 -0.2211
13481SOL    HW152097   0.049   1.394   7.110 -0.0557  0.8399 -0.5900
13481SOL    HW252098   0.144   1.497   7.195  0.2750 -0.0412  0.1135
13482SOL     OW52099   9.834   2.680   0.735  0.5994  0.3976 -0.0838
13482SOL    HW152100   9.832   2.746   0.811 -4.2485 -1.3630  1.4977
13482SOL    HW252101   9.777   2.713   0.660  0.2919 -0.7593 -0.3708
13483SOL     OW52102   4.627   2.235   5.708 -0.0872  0.0962  0.5342
13483SOL    HW152103   4.570   2.296   5.652 -1.3025  0.1450  1.8004
13483SOL    HW252104   4.571   2.196   5.782  1.0168 -1.4785  0.5599
13484SOL     OW52105   3.605   2.163   0.248  0.0464  0.3038  0.1870
13484SOL    HW152106   3.679   2.190   0.308  0.7960 -1.2413 -0.0320
13484SOL    HW252107   3.518   2.169   0.297  0.3518  1.5759  0.6038
13485SOL     OW52108   5.600   1.737   4.079  0.3214 -0.4731  0.0775
13485SOL    HW152109   5.543   1.814   4.052 -0.6255 -1.9139 -2.1589
13485SOL    HW252110   5.668   1.767   4.146 -1.1192  1.9098  0.5097
13486SOL     OW52111   2.082   5.055   4.896  0.2081  0.4760  0.8070
13486SOL    HW152112   2.137   5.002   4.960  1.1908 -2.3251 -2.2455
13486SOL    HW252113   2.142   5.095   4.826 -1.3933 -1.4994 -1.7790
13487SOL     OW52114   7.153   2.777   3.759 -0.4297  0.7461 -0.0963
13487SOL    HW152115   7.155   2.846   3.687 -0.8741  1.1132  0.2435
13487SOL    HW252116   7.247   2.755   3.785 -0.2655  0.6718 -0.7247
13488SOL     OW52117   0.283   5.877   7.024  0.0137 -0.4759  0.4615
13488SOL    HW152118   0.353   5.807   7.037 -1.3852 -1.7868  1.0689
13488SOL    HW252119   0.239   5.862   6.935  0.9216  0.7259 -0.1957
13489SOL     OW52120   0.146   5.459   6.078  0.0884  0.2451  0.4207
13489SOL    HW152121   0.099   5.525   6.019  0.9365  1.2929  0.9026
13489SOL    HW252122   0.239   5.446   6.045  0.3218  0.2480  1.0782
13490SOL     OW52123   0.776   4.498   5.406 -0.0802  0.4303 -0.3169
13490SOL    HW152124   0.767   4.443   5.323 -0.6314 -1.1450  0.7499
13490SOL    HW252125   0.741   4.590   5.390 -0.5116  0.0272 -1.7207
13491SOL     OW52126   9.847   2.099   3.581  0.0967 -0.8357 -0.4319
13491SOL    HW152127   9.890   2.139   3.662  1.5501  0.3657 -1.7673
13491SOL    HW252128   9.777   2.033   3.610 -0.4562  0.6540  1.7947
13492SOL     OW52129   2.929   8.647   0.284  0.3797  0.4130 -0.0546
13492SOL    HW152130   2.878   8.694   0.356  0.5172 -2.9375  2.3575
13492SOL    HW252131   2.870   8.578   0.242  0.9155  1.0359 -1.8486
13493SOL     OW52132   8.096   3.267   1.689  0.1318  0.5720 -0.1121
13493SOL    HW152133   8.150   3.214   1.755 -1.3730 -1.7752 -0.6763
13493SOL    HW252134   8.019   3.212   1.659 -0.1368  2.2431 -2.5890
13494SOL     OW52135   8.722   4.728   1.192  0.5186  0.1962  0.0955
13494SOL    HW152136   8.748   4.762   1.282  0.3761  2.2078 -0.5958
13494SOL    HW252137   8.623   4.717   1.188  0.4862  0.5175  0.0345
13495SOL     OW52138   0.755   6.427   2.354 -0.1851 -0.1908 -0.1836
13495SOL    HW152139   0.783   6.335   2.382  0.8951 -0.3702 -1.7865
13495SOL    HW252140   0.834   6.475   2.315 -0.9107  1.1702  0.0119
13496SOL     OW52141   8.763   0.840   1.150  0.3383 -0.0657 -0.3984
13496SOL    HW152142   8.838   0.834   1.083  0.4096 -1.3284 -0.2350
13496SOL    HW252143   8.772   0.764   1.215 -0.4190  0.4619  0.3200
13497SOL     OW52144   2.889   7.757   6.930 -0.3195 -0.2196 -0.1767
13497SOL    HW152145   2.927   7.780   6.841 -1.9790 -0.4517 -0.9798
13497SOL    HW252146   2.810   7.696   6.918  0.7724 -2.0456  1.5820
13498SOL     OW52147   1.862   4.857   6.008  0.1970  0.0280 -0.4393
13498SOL    HW152148   1.795   4.808   5.953 -0.4302 -0.0886  0.4248
13498SOL    HW252149   1.946   4.802   6.015 -0.3797 -0.7697  0.2407
13499SOL     OW52150   3.274   9.329   5.521 -0.0497 -0.4917  0.0818
13499SOL    HW152151   3.294   9.242   5.566  1.3554  0.2777  0.9707
13499SOL    HW252152   3.237   9.394   5.588  0.5918  0.1661 -0.2006
13500SOL     OW52153   8.198   6.248   7.906  0.3549 -0.1379  0.5833
13500SOL    HW152154   8.292   6.271   7.934  0.3446  0.5130  0.0870
13500SOL    HW252155   8.149   6.212   7.985  1.4294 -1.7814  0.5319
13501SOL     OW52156   9.642   2.172   2.605 -0.5182  0.0356  0.0749
13501SOL    HW152157   9.711   2.235   2.572 -0.3515 -0.6288 -0.8656
13501SOL    HW252158   9.635   2.179   2.704  0.5285  0.4777  0.1236
13502SOL     OW52159   0.329   7.700   2.341  0.2630 -0.3562 -0.2512
13502SOL    HW152160   0.254   7.764   2.355 -0.7324 -1.9273  1.7917
13502SOL    HW252161   0.394   7.739   2.276 -0.0796  2.9490  1.2696
13503SOL     OW52162   9.728   0.220   5.910 -0.3158  0.5493  0.2475
13503SOL    HW152163   9.797   0.148   5.902 -2.9551 -1.9815 -0.4222
13503SOL    HW252164   9.684   0.214   6.000 -0.1934  1.6772  0.3913
13504SOL     OW52165   2.543   0.999   1.092  0.1213  0.2862  0.5203
13504SOL    HW152166   2.554   1.025   1.188 -3.7454  0.2031  1.0884
13504SOL    HW252167   2.449   1.020   1.063  1.1380  0.0270 -3.1712
13505SOL     OW52168   9.883   4.708   1.590  0.8218 -0.2507 -0.4645
13505SOL    HW152169   9.876   4.639   1.517 -2.3650 -0.7985  0.2924
13505SOL    HW252170   9.867   4.799   1.551 -1.7315 -0.6188 -0.3971
13506SOL     OW52171   5.986   1.422   0.762  0.3119 -0.1182  0.0885
13506SOL    HW152172   5.984   1.511   0.808  0.9722  0.6846 -1.3725
13506SOL    HW252173   5.934   1.355   0.815 -1.6416  1.5603  0.3489
13507SOL     OW52174   0.023   8.562   3.313 -0.0326  0.1926  0.0687
13507SOL    HW152175   0.075   8.478   3.328 -0.7708 -0.4008 -0.6649
13507SOL    HW252176   0.031   8.621   3.393  1.7904  0.1290 -0.0424
13508SOL     OW52177   3.003   7.740   7.712 -0.3383 -0.2489  0.3789
13508SOL    HW152178   2.906   7.758   7.727 -1.1868 -3.8964 -0.2755
13508SOL    HW252179   3.046   7.714   7.799 -1.0726 -3.2772 -0.1148
13509SOL     OW52180   3.120   4.065   0.217 -0.6101  0.6021 -0.2445
13509SOL    HW152181   3.192   4.022   0.163 -0.6710  0.8661 -0.5301
13509SOL    HW252182   3.136   4.047   0.314 -0.0346  0.8573 -0.2942
13510SOL     OW52183   1.171   7.730   7.480  0.0071  0.6945 -0.2958
13510SOL    HW152184   1.181   7.792   7.557 -0.0034  0.2765  0.0467
13510SOL    HW252185   1.118   7.774   7.408 -1.6107  0.4125  0.7058
13511SOL     OW52186   1.364   8.994   5.961 -0.3066  0.3362 -0.5425
13511SOL    HW152187   1.362   8.900   5.929 -0.6415  0.4563 -0.8836
13511SOL    HW252188   1.278   9.040   5.935 -0.1799  0.7089 -0.3119
13512SOL     OW52189   8.309   7.694   4.542  0.5771  0.1435  0.3265
13512SOL    HW152190   8.359   7.628   4.599  0.7106 -0.0985 -0.0681
13512SOL    HW252191   8.241   7.645   4.487  0.9608  0.2794 -0.2764
13513SOL     OW52192   4.820   0.659   1.047  0.1409  0.3558  0.4320
13513SOL    HW152193   4.844   0.643   0.951 -0.9889 -3.4546  0.7119
13513SOL    HW252194   4.894   0.628   1.106 -0.8422 -1.2041  0.8908
13514SOL     OW52195   0.121   0.036   0.493  0.0444 -0.1403  0.4871
13514SOL    HW152196   0.125  -0.042   0.430 -0.0442 -1.1219  1.6768
13514SOL    HW252197   0.056   0.103   0.459  0.3180 -0.4591 -0.6878
13515SOL     OW52198   2.453   0.102   6.554 -0.4330  0.0492  0.6792
13515SOL    HW152199   2.520   0.164   6.595  1.1953 -0.7891 -0.6259
13515SOL    HW252200   2.365   0.148   6.547  0.6013  2.0375  0.2064
13516SOL     OW52201   2.527   9.671   3.221  0.2092  0.3768 -0.3244
13516SOL    HW152202   2.492   9.715   3.138 -1.7518 -1.0558 -0.2662
13516SOL    HW252203   2.619   9.707   3.240 -0.9735  3.8244 -0.7349
13517SOL     OW52204   0.095   1.586   1.089  0.1951 -0.3274  0.0035
13517SOL    HW152205   0.075   1.564   0.994 -0.9951  2.5468 -0.4593
13517SOL    HW252206   0.017   1.560   1.146 -0.9831  2.0650 -0.4662
13518SOL     OW52207   6.797   9.883   3.417  0.0933  0.2456  0.6329
13518SOL    HW152208   6.751   9.911   3.332 -1.1140 -0.6645  0.9667
13518SOL    HW252209   6.849   9.800   3.401 -0.2640 -0.0156  0.8097
13519SOL     OW52210   4.770   1.253   6.358 -0.6363  0.3481 -0.1045
13519SOL    HW152211   4.793   1.293   6.269 -0.7394  0.5196 -0.0540
13519SOL    HW252212   4.671   1.257   6.371 -0.8869 -1.9002 -1.0496
13520SOL     OW52213   7.285   2.906   4.037  0.2700 -0.2426 -0.4311
13520SOL    HW152214   7.254   2.812   4.054 -3.1083  0.7871 -0.6424
13520SOL    HW252215   7.254   2.965   4.112  0.3602  1.1334 -1.4798
13521SOL     OW52216   9.783   4.262   2.003  0.0600 -0.2567 -0.1220
13521SOL    HW152217   9.864   4.204   1.996  0.1430 -0.1498 -0.0509
13521SOL    HW252218   9.793   4.341   1.943 -0.6394 -0.9989 -1.2554
13522SOL     OW52219   5.300   5.228   1.412 -0.1953 -0.0361  0.2155
13522SOL    HW152220   5.221   5.173   1.386  1.0463 -1.8403  0.1144
13522SOL    HW252221   5.312   5.302   1.347 -0.3469 -1.2307 -1.2149
13523SOL     OW52222   7.295   3.464   1.691 -0.2476 -0.3030 -0.2905
13523SOL    HW152223   7.265   3.459   1.787 -1.2357  0.5084 -0.5500
13523SOL    HW252224   7.250   3.541   1.646 -0.1070 -0.9369 -1.5251
13524SOL     OW52225   9.742   6.472   0.697 -0.7385  0.2071  0.1737
13524SOL    HW152226   9.804   6.443   0.770 -2.1409  0.1190  1.3437
13524SOL    HW252227   9.745   6.406   0.622  0.3773  0.0742  0.3188
13525SOL     OW52228   2.338   8.234   3.648  0.0265  0.2918 -0.2758
13525SOL    HW152229   2.365   8.278   3.734 -0.5342 -1.7862  1.0139
13525SOL    HW252230   2.417   8.228   3.588  0.8951  0.1404  0.8477
13526SOL     OW52231   4.988   0.922   2.765  0.2626  0.4107 -0.6198
13526SOL    HW152232   4.941   0.997   2.719 -0.1640  1.6565  1.8063
13526SOL    HW252233   5.075   0.904   2.718  0.1243  2.0691 -1.5420
13527SOL     OW52234   3.574   4.326   6.453  0.0859  0.1138  0.5472
13527SOL    HW152235   3.580   4.246   6.512  0.3911  0.4686  0.9920
13527SOL    HW252236   3.656   4.332   6.396 -0.0654 -0.0495  0.3104
13528SOL     OW52237   7.474   0.056   4.375  0.4741  0.1032  0.1770
13528SOL    HW152238   7.439   0.092   4.288 -0.9368 -0.2530  0.5892
13528SOL    HW252239   7.470   0.129   4.444 -0.4103 -0.2233  0.4772
13529SOL     OW52240   4.518   0.627   7.928 -0.4842  0.2119  0.4507
13529SOL    HW152241   4.554   0.701   7.871 -1.6965  2.2539  2.2524
13529SOL    HW252242   4.594   0.582   7.975  0.1330  1.5862  0.8031
13530SOL     OW52243   8.498   0.811   3.085 -0.5348  0.5586 -0.3919
13530SOL    HW152244   8.569   0.744   3.065 -0.8202 -0.1999  1.0909
13530SOL    HW252245   8.534   0.904   3.075 -0.0903  0.2032 -2.2837
13531SOL     OW52246   2.033   2.206   0.492 -0.6596  0.0452 -0.0677
13531SOL    HW152247   2.121   2.174   0.525 -0.4833  0.2578 -0.3335
13531SOL    HW252248   2.040   2.301   0.462 -0.8356 -0.1126 -0.6301
13532SOL     OW52249   1.116   5.113   5.888  0.4438  0.4969  0.1427
13532SOL    HW152250   1.056   5.068   5.954 -0.4436  0.3952 -0.7181
13532SOL    HW252251   1.136   5.050   5.812 -0.3454  1.3352 -0.7829
13533SOL     OW52252   2.565   1.618   5.176  0.6111  0.4161  0.0728
13533SOL    HW152253   2.522   1.675   5.106  0.6257  0.6419  0.2445
13533SOL    HW252254   2.644   1.570   5.137 -0.1494 -0.4629 -0.4033
13534SOL     OW52255   1.199   8.857   0.580 -0.5178  0.4561  0.8734
13534SOL    HW152256   1.254   8.936   0.607 -0.0402  0.6699 -0.6585
13534SOL    HW252257   1.155   8.876   0.492 -0.0429 -1.1441  0.2770
13535SOL     OW52258   3.720   3.612   3.117 -0.0605 -0.0202  0.2057
13535SOL    HW152259   3.732   3.695   3.062  0.4404 -0.8871 -1.0192
13535SOL    HW252260   3.654   3.629   3.190  0.0643  1.4614 -0.0234
13536SOL     OW52261   2.866   2.679   3.551  0.7093  0.3630  0.3467
13536SOL    HW152262   2.909   2.673   3.462  2.1513  0.0765  1.0449
13536SOL    HW252263   2.867   2.589   3.596 -0.3134  0.4239  0.5220
13537SOL     OW52264   2.331   3.604   5.938 -0.7179 -0.5829  0.0621
13537SOL    HW152265   2.351   3.697   5.905 -1.9585 -0.6315 -0.8591
13537SOL    HW252266   2.415   3.551   5.939  0.1916  0.8270  1.5206
13538SOL     OW52267   1.247   1.607   3.519  0.0402 -0.2326  0.3643
13538SOL    HW152268   1.270   1.565   3.606 -1.2898 -0.7476  0.4716
13538SOL    HW252269   1.321   1.591   3.453  0.1569 -1.5640  0.8091
13539SOL     OW52270   7.211   1.820   7.528 -0.9806 -0.2408 -0.3577
13539SOL    HW152271   7.294   1.875   7.538  0.4514 -2.4003 -0.2662
13539SOL    HW252272   7.163   1.816   7.616  0.5049 -1.6235  0.4134
13540SOL     OW52273   9.858   2.687   3.538 -0.0856 -0.0510  0.9404
13540SOL    HW152274   9.893   2.625   3.467  0.2582 -0.9812  1.9054
13540SOL    HW252275   9.758   2.684   3.539 -0.2001  1.6829 -1.0019
13541SOL     OW52276   9.218   4.372   1.642  0.1279 -0.0843  0.6813
13541SOL    HW152277   9.132   4.404   1.603 -0.0615  0.4074  1.4980
13541SOL    HW252278   9.250   4.437   1.710  1.5925  0.1646 -0.2201
13542SOL     OW52279   8.861   3.640   5.165 -0.3298  0.6429 -0.4623
13542SOL    HW152280   8.912   3.582   5.229  0.4326  0.1024 -1.5455
13542SOL    HW252281   8.925   3.700   5.117 -0.7176  0.1001 -1.6822
13543SOL     OW52282   5.003   5.698   2.076  0.1743 -0.2898 -0.9526
13543SOL    HW152283   5.066   5.749   2.018  1.4878 -0.2440  0.4963
13543SOL    HW252284   5.038   5.696   2.170 -1.3395 -1.3499 -0.3968
13544SOL     OW52285   8.012   0.869   6.209 -0.2038  0.1007 -0.2799
13544SOL    HW152286   8.074   0.809   6.260  0.7987  0.6382 -0.8670
13544SOL    HW252287   7.949   0.813   6.155  0.3671 -0.4348 -0.3946
13545SOL     OW52288   3.259   1.811   4.333 -0.4329 -0.5130 -0.3060
13545SOL    HW152289   3.313   1.861   4.266  0.2690 -2.0017 -0.8840
13545SOL    HW252290   3.270   1.713   4.318 -1.2287 -0.8567  1.2287
13546SOL     OW52291   0.307   2.274   2.033 -0.3307 -0.2276  0.3513
13546SOL    HW152292   0.276   2.212   2.106 -0.8973 -0.8970 -0.4536
13546SOL    HW252293   0.269   2.244   1.946 -1.5874  1.9746  0.1256
13547SOL     OW52294   4.201   2.813   7.523 -0.1687 -0.0309 -0.0263
13547SOL    HW152295   4.251   2.742   7.573  0.4291  1.1952  1.1727
13547SOL    HW252296   4.103   2.799   7.533 -0.0569  0.1320  1.4382
13548SOL     OW52297   0.911   9.489   5.998  0.0663 -0.1726  0.2730
13548SOL    HW152298   0.885   9.463   6.091  0.4482 -0.1178  0.3945
13548SOL    HW252299   1.008   9.511   5.996 -0.4839  2.3711  0.4133
13549SOL     OW52300   0.834   8.743   1.770 -0.3090  0.2632  0.4858
13549SOL    HW152301   0.911   8.689   1.737 -0.8669  0.0165 -0.4123
13549SOL    HW252302   0.752   8.723   1.716 -1.0299  0.4675  1.4720
13550SOL     OW52303   8.725   4.092   3.870  0.7474 -0.0794 -0.4374
13550SOL    HW152304   8.771   4.010   3.905 -0.2284 -0.5915 -0.3268
13550SOL    HW252305   8.701   4.078   3.774 -3.9625 -2.0074  0.8762
13551SOL     OW52306   8.009   8.304   7.976  0.2126 -0.3673 -0.1638
13551SOL    HW152307   8.063   8.385   7.994 -0.0521 -0.0996 -0.5513
13551SOL    HW252308   7.918   8.331   7.943 -0.5211 -0.7861  1.4597
13552SOL     OW52309   9.337   7.476   0.817  0.3420 -0.1499 -0.0177
13552SOL    HW152310   9.338   7.520   0.727  0.8578 -0.8338 -0.3456
13552SOL    HW252311   9.244   7.444   0.837  0.0909  0.5520 -0.0313
13553SOL     OW52312   9.332   0.132   3.949 -0.0971 -0.8028 -0.4843
13553SOL    HW152313   9.349   0.077   4.031  2.2881 -1.2159 -1.2230
13553SOL    HW252314   9.238   0.117   3.918 -0.2171 -2.6391  0.6655
13554SOL     OW52315   7.794   0.757   3.228 -0.1781 -0.2173 -0.0757
13554SOL    HW152316   7.831   0.699   3.156  0.3861  0.5717 -0.4304
13554SOL    HW252317   7.819   0.720   3.318  1.2969  0.1950 -0.3115
13555SOL     OW52318   8.067   6.647   2.200  0.1844 -0.1675 -0.3396
13555SOL    HW152319   8.013   6.640   2.117  0.7758  0.9791 -0.8273
13555SOL    HW252320   8.129   6.569   2.207  1.2153  0.5105 -1.7493
13556SOL     OW52321   0.765   9.027   6.303 -0.3309  0.0131 -0.0993
13556SOL    HW152322   0.849   9.005   6.351  0.7172  0.9809 -1.4437
13556SOL    HW252323   0.786   9.054   6.209 -2.1650  0.0153 -0.5408
13557SOL     OW52324   9.646   0.356   0.422  0.1931 -0.0850 -0.2841
13557SOL    HW152325   9.721   0.301   0.460  0.5804  2.3568  2.6506
13557SOL    HW252326   9.566   0.298   0.408  1.8995 -2.2665 -1.3706
13558SOL     OW52327   7.044   0.613   4.920  0.2971 -0.2593 -0.4334
13558SOL    HW152328   7.037   0.667   5.004  0.0722 -0.6268 -0.2144
13558SOL    HW252329   7.084   0.524   4.941  1.0474 -0.0223 -0.8628
13559SOL     OW52330   6.904   2.700   3.606 -0.4090  0.8992 -0.1436
13559SOL    HW152331   7.000   2.719   3.627 -0.3123 -0.2859  0.5680
13559SOL    HW252332   6.850   2.704   3.691 -0.4705 -1.3760 -0.0463
13560SOL     OW52333   3.032   0.657   1.476 -0.0182  0.6156 -0.6832
13560SOL    HW152334   2.943   0.680   1.436 -0.9584 -1.7909 -0.0866
13560SOL    HW252335   3.018   0.594   1.553  2.2145 -0.0511 -0.7985
13561SOL     OW52336   0.743   0.917   7.170 -0.2479  0.6589  0.2021
13561SOL    HW152337   0.744   0.967   7.257  1.4689  0.9377  0.0372
13561SOL    HW252338   0.775   0.977   7.097 -1.2551  0.2826 -0.5501
13562SOL     OW52339   4.236   8.219   5.040  0.1373  0.2302 -0.0449
13562SOL    HW152340   4.262   8.256   4.951  1.5031  1.2883  0.7784
13562SOL    HW252341   4.311   8.163   5.076 -0.0157  0.6279  0.8938
13563SOL     OW52342   2.453   3.061   2.619 -0.6338  0.1332  0.1912
13563SOL    HW152343   2.550   3.077   2.601 -0.1106 -0.3677  2.4127
13563SOL    HW252344   2.443   2.982   2.679 -2.4382  0.1276 -0.0929
13564SOL     OW52345   7.442   0.720   4.304  0.2121  0.2969 -0.2977
13564SOL    HW152346   7.442   0.771   4.390 -0.8889 -0.6774  0.3101
13564SOL    HW252347   7.535   0.715   4.267  0.8696 -0.1254  1.3640
13565SOL     OW52348   5.908   4.124   7.913  0.0077 -0.6600 -0.3308
13565SOL    HW152349   5.984   4.173   7.870 -0.4289  2.0662  1.8309
13565SOL    HW252350   5.941   4.041   7.957  1.7950  0.5695  0.7019
13566SOL     OW52351   6.524   2.386   5.707  0.3243 -0.3635  0.3622
13566SOL    HW152352   6.534   2.485   5.718  1.5487 -0.3480 -0.7592
13566SOL    HW252353   6.610   2.347   5.676  0.0885 -1.9163  1.5786
13567SOL     OW52354   2.108   4.445   3.819 -0.0495  0.3596  0.2156
13567SOL    HW152355   2.122   4.509   3.895  2.0854 -0.8404  0.8905
13567SOL    HW252356   2.145   4.356   3.844 -2.0646 -0.8722 -1.1109
13568SOL     OW52357   5.988   0.729   5.711 -0.3625  0.6255 -0.0210
13568SOL    HW152358   5.892   0.753   5.727 -0.3774 -0.7147  2.2546
13568SOL    HW252359   6.046   0.785   5.769 -0.0277 -0.8406  1.1045
13569SOL     OW52360   9.134   4.400   4.572  0.3926 -0.3914  0.4606
13569SOL    HW152361   9.180   4.448   4.497 -1.2259 -0.1196 -0.3773
13569SOL    HW252362   9.151   4.449   4.658  0.1286  0.7524 -0.1242
13570SOL     OW52363   2.773   1.587   0.920  0.5492  0.0510  0.1892
13570SOL    HW152364   2.802   1.575   1.015 -0.9701 -1.8171  0.4618
13570SOL    HW252365   2.752   1.497   0.881 -2.1309  1.0836 -0.8331
13571SOL     OW52366   8.128   2.694   1.807 -0.0979  0.2500 -0.0231
13571SOL    HW152367   8.051   2.636   1.834  0.7913 -0.8703  0.1478
13571SOL    HW252368   8.094   2.785   1.783 -1.1974  0.5716  2.5386
13572SOL     OW52369   6.277   0.985   4.381  0.0606  0.2198 -0.3316
13572SOL    HW152370   6.192   1.039   4.384 -0.8054 -1.2250  2.3474
13572SOL    HW252371   6.350   1.041   4.341 -0.9751  3.1441  1.6787
13573SOL     OW52372   8.860   5.259   1.698  0.2182  0.1184 -0.0660
13573SOL    HW152373   8.830   5.354   1.706  2.3067  0.8433 -0.5603
13573SOL    HW252374   8.915   5.234   1.777 -1.2005 -1.0218  0.5717
13574SOL     OW52375   2.667   3.891   0.004 -0.3220  0.1258  0.1610
13574SOL    HW152376   2.596   3.889   0.074 -1.0382  0.5427 -0.5468
13574SOL    HW252377   2.723   3.973   0.015  0.1619 -0.2907  0.8253
13575SOL     OW52378   0.391   9.688   6.604  0.0067  0.4342 -0.2764
13575SOL    HW152379   0.407   9.775   6.558  1.8621  0.0617 -0.3581
13575SOL    HW252380   0.393   9.614   6.537 -0.7959  0.2366 -0.0922
13576SOL     OW52381   0.444   5.769   3.508  0.5559 -0.6393  0.6340
13576SOL    HW152382   0.510   5.838   3.538 -0.9092  1.3316 -0.5569
13576SOL    HW252383   0.351   5.807   3.512 -0.0795 -1.6976 -2.2849
13577SOL     OW52384   9.673   5.786   1.057 -0.7159 -0.2429 -0.1849
13577SOL    HW152385   9.647   5.795   0.961  0.8353  0.7339 -0.5435
13577SOL    HW252386   9.702   5.692   1.075  1.4398  0.1460 -1.3551
13578SOL     OW52387   4.298   2.255   4.283  0.3053  0.7049 -0.4839
13578SOL    HW152388   4.371   2.323   4.295 -2.0791  3.1850  0.5650
13578SOL    HW252389   4.291   2.231   4.186  1.8535  1.1665 -0.7356
13579SOL     OW52390   0.382   5.345   7.214  0.2464 -0.0842  0.0517
13579SOL    HW152391   0.381   5.270   7.280  0.1787 -1.3347 -1.3590
13579SOL    HW252392   0.295   5.395   7.219  0.4493  0.1567  1.2726
13580SOL     OW52393   4.960   8.212   5.414  0.0951 -0.3211  0.0738
13580SOL    HW152394   4.928   8.232   5.507 -0.7791  0.1643 -0.3295
13580SOL    HW252395   4.918   8.127   5.382 -1.4692  0.7541 -0.7734
13581SOL     OW52396   9.529   2.466   7.723  0.0751 -0.5927 -0.1228
13581SOL    HW152397   9.581   2.551   7.731 -1.5830  0.4434 -0.1289
13581SOL    HW252398   9.494   2.439   7.813 -0.1831 -0.7664 -0.2727
13582SOL     OW52399   2.367   8.765   7.580  0.2174 -0.1755 -0.2841
13582SOL    HW152400   2.370   8.688   7.644  1.4142 -0.0188 -0.1521
13582SOL    HW252401   2.285   8.820   7.598 -0.6668 -1.4285 -0.4032
13583SOL     OW52402   9.860   4.749   5.225 -0.3322  0.0786  0.0760
13583SOL    HW152403   9.851   4.811   5.148 -2.3654  0.5123  0.6488
13583SOL    HW252404   9.907   4.796   5.300 -0.0433  0.2660 -0.2220
13584SOL     OW52405   7.515   3.379   3.889 -0.3603 -0.0980  0.1082
13584SOL    HW152406   7.569   3.409   3.967  0.3745  0.3807 -0.5871
13584SOL    HW252407   7.473   3.457   3.845  0.6695 -0.1869 -1.0432
13585SOL     OW52408   6.690   7.062   5.605  0.0836 -0.4100  0.0948
13585SOL    HW152409   6.666   6.999   5.531 -1.2692 -1.2061  1.1783
13585SOL    HW252410   6.789   7.071   5.611  0.2447 -1.4699 -0.8697
13586SOL     OW52411   9.821   2.412   1.588 -0.0207 -0.0918  0.0260
13586SOL    HW152412   9.769   2.399   1.503 -0.8596 -1.4738  0.7353
13586SOL    HW252413   9.913   2.373   1.577  0.3311  0.9073 -0.6784
13587SOL     OW52414   2.459   2.533   5.893  0.4983  0.0198 -0.3170
13587SOL    HW152415   2.482   2.470   5.818 -0.7915  1.2278 -1.7687
13587SOL    HW252416   2.543   2.573   5.929  1.1325 -0.3992 -1.2936
13588SOL     OW52417   8.433   3.022   7.448 -0.4369 -0.3362 -0.4513
13588SOL    HW152418   8.347   3.074   7.454 -0.3325 -0.3050  0.8126
13588SOL    HW252419   8.498   3.073   7.391 -1.3884 -0.5634 -1.7777
13589SOL     OW52420   3.731   4.929   5.717 -0.2598  0.1285  0.2119
13589SOL    HW152421   3.734   5.020   5.675  1.6650 -0.0762 -0.1089
13589SOL    HW252422   3.783   4.865   5.662 -1.8893 -1.2822  0.2551
13590SOL     OW52423   2.801   4.515   2.250 -0.3683 -0.1330  0.3973
13590SOL    HW152424   2.739   4.455   2.301  0.2580 -0.4996  0.7359
13590SOL    HW252425   2.766   4.609   2.254 -1.0568 -0.3799  0.3401
13591SOL     OW52426   1.311   0.006   3.754  0.0772  0.6803 -0.2778
13591SOL    HW152427   1.233  -0.050   3.782 -0.2998  1.3202 -0.0421
13591SOL    HW252428   1.296   0.100   3.783  1.4398  0.5967  0.7053
13592SOL     OW52429   7.104   6.362   7.029 -0.4595  0.2655  0.1735
13592SOL    HW152430   7.185   6.368   6.970 -0.9276  0.7834 -0.4315
13592SOL    HW252431   7.023   6.389   6.976 -0.6868  2.2700  1.4926
13593SOL     OW52432   8.648   9.564   0.038 -0.5979  0.2318  0.1594
13593SOL    HW152433   8.725   9.538   0.096 -1.2759  0.7198  1.2955
13593SOL    HW252434   8.600   9.641   0.079 -1.4328  0.2118 -0.7651
13594SOL     OW52435   1.226   3.327   6.841 -0.1731 -0.3767  0.0096
13594SOL    HW152436   1.314   3.363   6.871 -1.4230  1.7864  1.2239
13594SOL    HW252437   1.194   3.257   6.906 -0.0186 -0.1196  0.3623
13595SOL     OW52438   1.349   8.117   6.683 -0.3774  0.0407 -1.0378
13595SOL    HW152439   1.262   8.081   6.718 -0.9218  1.2227 -1.1272
13595SOL    HW252440   1.395   8.048   6.628 -0.2467 -1.3341  0.7459
13596SOL     OW52441   1.856   4.732   0.508 -0.2457  0.4707 -0.3669
13596SOL    HW152442   1.922   4.772   0.572 -1.7562 -0.9009  2.1638
13596SOL    HW252443   1.824   4.645   0.545 -2.6069  0.5484 -2.1327
13597SOL     OW52444   2.241   0.032   7.167 -0.3775  0.1851 -0.4828
13597SOL    HW152445   2.242   0.036   7.267 -1.3869  1.3521 -0.5145
13597SOL    HW252446   2.335   0.021   7.134 -0.2451 -2.5789  0.6514
13598SOL     OW52447   9.571   2.653   3.189 -0.2857 -0.4750  0.0837
13598SOL    HW152448   9.638   2.671   3.117  0.4404 -2.2257  0.2875
13598SOL    HW252449   9.483   2.629   3.147 -0.3387  0.1928 -0.1946
13599SOL     OW52450   5.988   9.220   2.761 -0.7267 -0.2082  0.0866
13599SOL    HW152451   6.081   9.255   2.769 -0.9882  0.2961  0.9453
13599SOL    HW252452   5.963   9.170   2.844 -1.6657  0.7313  0.3812
13600SOL     OW52453   5.849   7.326   3.148  0.1901  0.4074  0.3734
13600SOL    HW152454   5.945   7.311   3.168 -0.0284 -0.9802  0.4402
13600SOL    HW252455   5.800   7.351   3.231  0.3323  0.2826  0.4935
13601SOL     OW52456   8.023   4.456   1.549 -0.5281 -0.3281  0.3286
13601SOL    HW152457   7.934   4.460   1.504 -0.0484  0.7930 -0.5603
13601SOL    HW252458   8.029   4.372   1.604 -1.4360 -1.3166 -1.0416
13602SOL     OW52459   2.750   6.871   7.181  0.3466 -0.1234 -0.2460
13602SOL    HW152460   2.786   6.964   7.176 -1.8443  0.7135 -1.1331
13602SOL    HW252461   2.661   6.872   7.228  0.0125 -1.6621 -0.8113
13603SOL     OW52462   9.535   1.243   2.406  0.3794 -0.2073 -0.1151
13603SOL    HW152463   9.628   1.272   2.428 -0.1185  1.3585 -0.0066
13603SOL    HW252464   9.485   1.220   2.490  0.5359 -0.6629 -0.1437
13604SOL     OW52465   4.502   8.829   7.558  0.3096 -0.2471 -0.1072
13604SOL    HW152466   4.531   8.922   7.536  1.4481 -0.5283  0.1897
13604SOL    HW252467   4.556   8.763   7.505 -0.1721 -0.7575  0.0302
13605SOL     OW52468   5.024   7.676   4.208  0.5669 -0.1311 -0.5180
13605SOL    HW152469   5.112   7.722   4.223 -1.0281  3.0721 -0.4306
13605SOL    HW252470   4.993   7.637   4.294  0.6205  1.2041  0.1322
13606SOL     OW52471   3.129   4.431   1.664  0.2953  0.0635 -0.5596
13606SOL    HW152472   3.087   4.520   1.652 -0.1055  0.0644  0.8319
13606SOL    HW252473   3.219   4.441   1.706 -0.4621 -0.2917  1.1893
13607SOL     OW52474   5.215   1.265   1.547  0.0328  0.5624 -0.2649
13607SOL    HW152475   5.174   1.264   1.456 -0.3859 -0.5782 -0.0783
13607SOL    HW252476   5.301   1.214   1.545 -0.3841 -0.1685  0.1542
13608SOL     OW52477   6.353   1.279   4.891 -0.6159 -0.4039  0.5235
13608SOL    HW152478   6.269   1.325   4.862 -0.5612  0.5218  1.7636
13608SOL    HW252479   6.348   1.261   4.989  0.8062  0.0532  0.6903
13609SOL     OW52480   2.742   4.811   2.119 -0.5936  0.2446 -0.9996
13609SOL    HW152481   2.780   4.833   2.029  1.3597  0.0167 -0.2413
13609SOL    HW252482   2.761   4.886   2.183 -0.4414 -0.3615 -0.3270
13610SOL     OW52483   7.274   0.369   2.848  0.1081  0.3307  0.2918
13610SOL    HW152484   7.231   0.401   2.933  2.8734  1.4107  1.3598
13610SOL    HW252485   7.256   0.435   2.775  0.3325  1.0047  0.8374
13611SOL     OW52486   9.354   4.015   3.366  0.3787 -0.2309 -0.5353
13611SOL    HW152487   9.436   4.010   3.423  1.2525  1.0696 -1.6420
13611SOL    HW252488   9.276   4.044   3.423  1.3470  1.5875 -0.0738
13612SOL     OW52489   4.381   2.024   5.690 -0.2067  0.6046  0.0755
13612SOL    HW152490   4.322   1.953   5.729  0.9945 -0.9594 -0.8901
13612SOL    HW252491   4.423   2.077   5.764  0.1711 -0.7732  0.8606
13613SOL     OW52492   3.003   6.682   6.204  0.3322  0.6306 -0.4937
13613SOL    HW152493   2.984   6.632   6.289 -3.6008  1.6829 -0.6603
13613SOL    HW252494   3.046   6.769   6.226  0.7541  0.2344  0.2983
13614SOL     OW52495   0.831   7.381   7.984 -0.1083 -0.0948 -0.2451
13614SOL    HW152496   0.863   7.452   7.921  2.2099 -0.6552  0.2691
13614SOL    HW252497   0.787   7.425   8.063 -0.4340  0.7033 -0.8616
13615SOL     OW52498   3.016   2.121   2.059 -0.0809  0.0791  0.2786
13615SOL    HW152499   2.963   2.179   2.120 -0.6665 -0.1835  0.0218
13615SOL    HW252500   2.966   2.106   1.974  0.7142  0.4158 -0.2614
13616SOL     OW52501   8.452   6.066   5.121 -0.1766  0.1437  0.3926
13616SOL    HW152502   8.550   6.058   5.103  0.3426  0.6829  2.8492
13616SOL    HW252503   8.430   6.023   5.208 -1.9358  1.0263  0.4118
13617SOL     OW52504   5.438   8.075   5.551  0.1053  0.1103  0.6727
13617SOL    HW152505   5.382   8.141   5.500  0.2343  0.5351  1.0735
13617SOL    HW252506   5.508   8.124   5.602 -0.5663 -0.2399  1.9481
13618SOL     OW52507   0.547   7.013   3.864 -0.3289 -0.0548  0.4886
13618SOL    HW152508   0.602   6.929   3.869 -0.3621 -0.1348 -0.4141
13618SOL    HW252509   0.454   6.990   3.835 -0.7555  0.1198  1.6967
13619SOL     OW52510   1.038   1.731   6.697 -0.2325  0.0286  0.5938
13619SOL    HW152511   1.111   1.663   6.689 -0.2629 -0.2501  2.3365
13619SOL    HW252512   0.951   1.684   6.715 -0.6657  0.4124 -0.4676
13620SOL     OW52513   0.246   7.428   5.680 -0.3923  0.2100 -0.5160
13620SOL    HW152514   0.210   7.335   5.676 -0.1052  0.1424 -1.7412
13620SOL    HW252515   0.206   7.483   5.606 -1.1660  1.2840  0.6703
13621SOL     OW52516   4.223   2.100   1.192  0.2179 -0.3254  0.4355
13621SOL    HW152517   4.269   2.070   1.108 -0.5047 -0.5506  0.1137
13621SOL    HW252518   4.155   2.031   1.218  1.2081 -0.7961  1.8268
13622SOL     OW52519   5.036   8.326   6.561  1.3856 -0.4141  0.0270
13622SOL    HW152520   4.994   8.403   6.514  0.5844 -1.1951 -0.5407
13622SOL    HW252521   5.008   8.327   6.657  1.7232  0.2453  0.1209
13623SOL     OW52522   3.317   8.388   4.025  0.1542  0.8986 -0.0677
13623SOL    HW152523   3.286   8.352   4.113  2.0824 -1.6135 -0.3813
13623SOL    HW252524   3.255   8.358   3.953 -0.8203  2.0648  0.2677
13624SOL     OW52525   3.227   1.536   3.117 -0.0107  0.0125  0.2024
13624SOL    HW152526   3.234   1.636   3.116  1.6817 -0.1054 -0.5079
13624SOL    HW252527   3.252   1.500   3.028  2.7181 -1.2265  1.3992
13625SOL     OW52528   0.386   1.076   8.119  0.1259 -0.1056  0.2429
13625SOL    HW152529   0.319   1.075   8.045 -0.8693 -1.1771  1.1150
13625SOL    HW252530   0.358   1.142   8.189 -0.1106 -0.6455  0.6681
13626SOL     OW52531   9.110   8.589   5.631  0.3369  0.0630 -0.1055
13626SOL    HW152532   9.047   8.530   5.580  1.7199 -1.1266 -0.4437
13626SOL    HW252533   9.058   8.640   5.700 -0.7039 -2.5443  1.1135
13627SOL     OW52534   5.065   0.401   5.325  0.0127 -0.2692 -0.2739
13627SOL    HW152535   5.138   0.400   5.257  0.4323 -1.3322  0.1884
13627SOL    HW252536   5.046   0.307   5.355 -0.0002  0.2106  1.2590
13628SOL     OW52537   9.093   5.549   1.766 -0.6855 -0.1006  0.5141
13628SOL    HW152538   8.999   5.528   1.791 -0.6242 -0.6745  0.2640
13628SOL    HW252539   9.133   5.610   1.835 -0.2738 -2.2836  2.2521
13629SOL     OW52540   1.834   3.370   1.371  0.3677  0.5028 -0.1823
13629SOL    HW152541   1.796   3.393   1.282 -0.4092 -0.5903 -0.1436
13629SOL    HW252542   1.779   3.412   1.443  0.2175  0.2971 -0.1771
13630SOL     OW52543   8.732   2.131   7.252  0.2441 -0.9034  0.2544
13630SOL    HW152544   8.747   2.143   7.350  0.9907  0.5846 -0.0266
13630SOL    HW252545   8.638   2.154   7.230  0.0944 -1.1711  0.6085
13631SOL     OW52546   0.521   8.299   1.857 -0.0824  0.0156 -0.3872
13631SOL    HW152547   0.533   8.389   1.900 -0.5665  0.4628 -1.1712
13631SOL    HW252548   0.594   8.286   1.789  0.4443 -0.5182  0.2778
13632SOL     OW52549   7.932   8.769   7.287 -0.2124 -0.8517 -0.0433
13632SOL    HW152550   7.848   8.798   7.333  0.3084 -0.0109  0.3811
13632SOL    HW252551   7.943   8.670   7.299 -1.0415 -0.9391  0.0516
13633SOL     OW52552   6.572   9.225   3.361 -0.3969  0.3497  0.1083
13633SOL    HW152553   6.604   9.130   3.369 -2.6721 -0.5084 -0.6526
13633SOL    HW252554   6.644   9.286   3.394  1.3800 -1.5835 -0.0135
13634SOL     OW52555   7.698   2.930   3.930 -0.2420  0.0494  0.2250
13634SOL    HW152556   7.613   2.968   3.895  0.4493  1.0099 -0.4463
13634SOL    HW252557   7.772   2.996   3.918  0.9222 -1.3815 -0.6804
13635SOL     OW52558   3.917   4.485   6.991  0.2909  0.3989 -0.2288
13635SOL    HW152559   3.893   4.530   6.905  0.6254 -0.5543 -0.8267
13635SOL    HW252560   3.888   4.542   7.068  1.0210  1.8064 -0.9775
13636SOL     OW52561   6.786   1.817   5.164 -0.3216  0.1059 -0.0287
13636SOL    HW152562   6.867   1.790   5.217 -0.3720  0.6349  0.3192
13636SOL    HW252563   6.718   1.744   5.166 -0.4173  0.2186  0.8344
13637SOL     OW52564   7.768   1.052   2.115  0.1018 -0.5273  0.2365
13637SOL    HW152565   7.673   1.077   2.132 -0.1693 -1.4861  0.1802
13637SOL    HW252566   7.826   1.091   2.187 -0.3794 -0.2575  0.4819
13638SOL     OW52567   8.619   8.045   3.729  0.5248  0.3749  0.3265
13638SOL    HW152568   8.573   7.966   3.770 -0.1662 -0.0806 -1.3043
13638SOL    HW252569   8.574   8.069   3.643  2.5936  0.6837 -0.7013
13639SOL     OW52570   2.764   8.931   5.268 -0.3295  0.3638  0.1195
13639SOL    HW152571   2.806   8.969   5.351 -0.6959  0.1905  0.3864
13639SOL    HW252572   2.743   9.006   5.205  0.6795  0.4216 -0.1606
13640SOL     OW52573   7.459   8.397   2.053  0.4343 -0.4508  0.0756
13640SOL    HW152574   7.414   8.413   2.141  1.5245 -0.1353  0.5905
13640SOL    HW252575   7.556   8.378   2.068  0.5260 -0.9051 -1.0273
13641SOL     OW52576   0.360   0.518   1.563 -0.0007  0.4262  0.6543
13641SOL    HW152577   0.315   0.607   1.560 -0.1498  0.4522  2.6356
13641SOL    HW252578   0.419   0.514   1.644  0.3407 -1.1196  0.3455
13642SOL     OW52579   4.105   0.956   7.035 -0.0612 -0.1346  0.2768
13642SOL    HW152580   4.154   0.932   7.119  1.9078  0.6947 -0.6043
13642SOL    HW252581   4.171   0.970   6.961 -1.7362 -0.3636 -1.2993
13643SOL     OW52582   8.949   0.448   7.487 -0.1306 -0.2040 -0.7204
13643SOL    HW152583   9.011   0.374   7.459 -0.4949 -2.0743  3.0924
13643SOL    HW252584   9.002   0.529   7.510  0.6866 -0.8920 -0.1511
13644SOL     OW52585   9.485   2.251   0.132 -0.2911 -0.0823 -0.4679
13644SOL    HW152586   9.497   2.181   0.062 -2.3985 -0.0680 -0.8712
13644SOL    HW252587   9.392   2.245   0.170 -0.3443  2.1763 -0.1568
13645SOL     OW52588   4.545   6.739   1.765 -0.0653  0.1024 -0.0283
13645SOL    HW152589   4.559   6.640   1.775 -1.0000 -0.1556 -1.1012
13645SOL    HW252590   4.458   6.755   1.718 -1.5709  1.5249  3.0680
13646SOL     OW52591   8.807   9.613   7.702  0.3638 -0.6649 -0.9702
13646SOL    HW152592   8.732   9.642   7.761  0.0567 -0.7542 -1.3100
13646SOL    HW252593   8.818   9.679   7.628  2.3318  0.7484  0.5273
13647SOL     OW52594   2.943   8.587   1.259  0.1601  0.5711 -0.1773
13647SOL    HW152595   2.867   8.635   1.303 -0.3072  0.8274 -1.2631
13647SOL    HW252596   2.908   8.510   1.206  0.9575 -1.4888  2.1891
13648SOL     OW52597   8.602   8.695   5.260 -0.5251  0.1566 -0.0104
13648SOL    HW152598   8.529   8.686   5.328 -1.9780  0.8217 -1.4582
13648SOL    HW252599   8.570   8.660   5.172 -0.5481  4.0363 -1.6557
13649SOL     OW52600   5.934   9.638   2.211 -0.2944  0.1855  0.1661
13649SOL    HW152601   6.007   9.586   2.166 -1.6023 -1.4533 -0.1161
13649SOL    HW252602   5.972   9.720   2.254  1.6287 -0.4229 -0.3599
13650SOL     OW52603   8.641   1.642   1.395  0.1990  0.6639  0.1384
13650SOL    HW152604   8.739   1.644   1.414 -0.1307  2.6603  1.8222
13650SOL    HW252605   8.608   1.548   1.399  2.1640 -0.1088 -1.1812
13651SOL     OW52606   1.689   4.416   2.553 -0.8277 -0.2821  0.0696
13651SOL    HW152607   1.752   4.389   2.481 -0.4572  0.2539  0.1899
13651SOL    HW252608   1.683   4.343   2.621  1.0661  0.3994  0.9945
13652SOL     OW52609   3.751   4.766   0.524 -0.0008 -0.0436 -0.3800
13652SOL    HW152610   3.850   4.755   0.539  0.1176 -1.7491 -2.1876
13652SOL    HW252611   3.730   4.748   0.428 -2.2498 -0.8422  0.2305
13653SOL     OW52612   2.079   5.880   6.685 -0.5875  0.2713 -0.3149
13653SOL    HW152613   2.067   5.973   6.650  0.8242  0.1558 -1.1741
13653SOL    HW252614   2.036   5.872   6.775 -1.5092  1.4903 -0.6369
13654SOL     OW52615   6.024   0.149   1.841  0.3212  0.2510 -0.4538
13654SOL    HW152616   6.080   0.208   1.782  3.1151 -0.6485  1.2122
13654SOL    HW252617   5.970   0.206   1.904  1.1389  1.0886 -0.5107
13655SOL     OW52618   3.110   9.332   4.548  0.0032 -0.7245  0.1184
13655SOL    HW152619   3.053   9.410   4.521  0.0495 -0.4742  0.7460
13655SOL    HW252620   3.111   9.265   4.474 -1.5263 -0.9606  0.2986
13656SOL     OW52621   3.187   5.138   6.439  0.0962  0.4644  0.3937
13656SOL    HW152622   3.208   5.121   6.535  2.5442 -2.2774 -0.5434
13656SOL    HW252623   3.250   5.206   6.402  1.3001 -0.8531 -0.0391
13657SOL     OW52624   3.561   0.060   7.151 -0.5005  0.3259 -0.4497
13657SOL    HW152625   3.559   0.065   7.251 -1.3285 -2.0182 -0.3251
13657SOL    HW252626   3.472   0.087   7.114 -0.7254 -0.4271 -0.4630
13658SOL     OW52627   0.847   6.126   2.790  0.1331 -0.1212  0.5529
13658SOL    HW152628   0.762   6.089   2.751 -0.3926  1.5693  0.0447
13658SOL    HW252629   0.825   6.179   2.872  0.8015 -0.3352  0.8766
13659SOL     OW52630   5.475   8.207   2.782 -0.4438  0.2863 -0.2117
13659SOL    HW152631   5.431   8.151   2.711  1.2117 -1.3712  0.0277
13659SOL    HW252632   5.447   8.173   2.872 -1.2582  1.3512 -0.0538
13660SOL     OW52633   2.264   4.527   2.698  0.0713 -0.6655 -0.1831
13660SOL    HW152634   2.165   4.512   2.696 -0.0701  0.2760 -0.4193
13660SOL    HW252635   2.290   4.586   2.622  0.4582  1.1124  1.2832
13661SOL     OW52636   0.112   5.433   7.276  0.4786  0.1732 -0.0768
13661SOL    HW152637   0.069   5.522   7.258 -0.6419 -0.2539  0.4712
13661SOL    HW252638   0.168   5.440   7.359 -0.8985 -0.0499  0.8922
13662SOL     OW52639   8.449   8.799   7.331  0.3510 -0.0076 -0.0233
13662SOL    HW152640   8.381   8.728   7.352  0.2435 -0.0289 -0.4451
13662SOL    HW252641   8.404   8.877   7.288  0.7049 -0.3221 -0.9668
13663SOL     OW52642   0.186   7.816   6.115 -0.5642  0.3053  0.5537
13663SOL    HW152643   0.194   7.750   6.040 -1.3358  1.3929 -0.4938
13663SOL    HW252644   0.254   7.794   6.185 -0.7719 -1.5793  0.2059
13664SOL     OW52645   7.639   8.680   3.448  0.2551  0.2031 -0.1690
13664SOL    HW152646   7.730   8.678   3.489  0.4381  0.1808 -0.5687
13664SOL    HW252647   7.573   8.639   3.511  0.3911  0.9153  0.4410
13665SOL     OW52648   5.119   8.109   2.461 -0.1652 -0.0206  0.3853
13665SOL    HW152649   5.047   8.176   2.444  0.4261  0.8851  1.3944
13665SOL    HW252650   5.100   8.026   2.409 -1.2854  0.6593 -0.3184
13666SOL     OW52651   1.785   9.645   7.481  0.0065  0.5565  0.3984
13666SOL    HW152652   1.685   9.647   7.479 -0.0168 -0.3250 -2.7104
13666SOL    HW252653   1.816   9.557   7.517 -0.3396  0.8107  1.3167
13667SOL     OW52654   4.319   5.106   7.296  0.2430  0.0659  0.3695
13667SOL    HW152655   4.330   5.086   7.198  1.7297 -0.4421  0.6299
13667SOL    HW252656   4.331   5.021   7.348  0.5526  0.5337  1.0641
13668SOL     OW52657   9.084   7.396   0.290 -0.2923 -0.0450 -0.1574
13668SOL    HW152658   9.057   7.333   0.363 -0.7279 -0.8138 -0.9705
13668SOL    HW252659   9.118   7.344   0.212  2.2418  0.8498  0.3062
13669SOL     OW52660   3.377   4.561   0.439  0.5981 -0.0141 -0.6384
13669SOL    HW152661   3.327   4.481   0.407  0.6495 -0.4222  0.3038
13669SOL    HW252662   3.435   4.536   0.517  0.2915  1.0242 -0.0665
13670SOL     OW52663   3.931   0.242   2.959 -0.0686 -0.2920 -0.3236
13670SOL    HW152664   3.866   0.316   2.973  0.2807 -0.1228  0.4110
13670SOL    HW252665   3.907   0.165   3.019  0.4492 -0.2028 -0.0021
13671SOL     OW52666   0.439   0.076   5.530  0.1413  0.3378 -0.3844
13671SOL    HW152667   0.428   0.100   5.434 -0.3016  1.5025 -0.0528
13671SOL    HW252668   0.349   0.054   5.569  0.0268  1.9750  0.2998
13672SOL     OW52669   3.417   6.069   7.960  0.3469 -0.0381  0.0631
13672SOL    HW152670   3.410   6.050   7.862 -0.2633  0.5605 -0.0158
13672SOL    HW252671   3.506   6.111   7.980 -0.1671  1.3603 -0.5048
13673SOL     OW52672   2.020   4.800   1.725  1.0476 -0.1557 -0.0896
13673SOL    HW152673   2.045   4.894   1.700 -0.4722  0.5818  1.0898
13673SOL    HW252674   1.926   4.782   1.698  1.5997 -1.6622 -1.1002
13674SOL     OW52675   8.292   7.021   4.791  0.1459  0.1766 -0.3057
13674SOL    HW152676   8.301   6.924   4.771 -1.1706  0.0044 -0.0941
13674SOL    HW252677   8.250   7.067   4.712 -0.1439  0.4007 -0.0217
13675SOL     OW52678   1.321   2.616   1.690 -0.1409 -0.2411 -0.0892
13675SOL    HW152679   1.306   2.589   1.785 -1.7492 -0.9625 -0.5386
13675SOL    HW252680   1.418   2.605   1.667  0.4564  0.9089  1.7584
13676SOL     OW52681   8.853   3.060   0.789 -0.0622  0.0704 -0.5521
13676SOL    HW152682   8.897   3.134   0.738  0.3361  0.8666  0.9224
13676SOL    HW252683   8.811   3.097   0.872 -1.5359 -1.0624 -0.7888
13677SOL     OW52684   6.054   1.467   5.494  0.1127  1.0841 -0.4916
13677SOL    HW152685   6.025   1.562   5.505  0.1728  1.0745 -0.2528
13677SOL    HW252686   6.137   1.451   5.548 -0.2254  0.7370 -0.0734
13678SOL     OW52687   7.130   0.345   4.539  0.0730 -0.2020 -0.3221
13678SOL    HW152688   7.207   0.379   4.485  0.8455 -1.0604  0.2175
13678SOL    HW252689   7.070   0.421   4.562 -0.1864  0.2055 -2.2412
13679SOL     OW52690   7.111   2.391   0.357 -0.7079  0.2999  0.5796
13679SOL    HW152691   7.077   2.298   0.343  1.3472 -0.4301  0.3314
13679SOL    HW252692   7.139   2.429   0.269 -0.9692  0.9382  0.7693
13680SOL     OW52693   4.152   4.010   0.918  0.1842  0.3296  0.2981
13680SOL    HW152694   4.213   3.935   0.893 -0.2589 -0.0403  0.3223
13680SOL    HW252695   4.186   4.095   0.878  1.0189  0.2229  0.7752
13681SOL     OW52696   5.633   0.572   5.804  0.6690 -0.4640 -0.3003
13681SOL    HW152697   5.674   0.589   5.893  0.1457 -0.8539  0.0176
13681SOL    HW252698   5.667   0.486   5.767  1.4449  0.0541 -0.8097
13682SOL     OW52699   9.637   9.925   4.195 -0.0138  0.9557 -0.4573
13682SOL    HW152700   9.689   9.919   4.110  0.5698 -0.0732 -0.0416
13682SOL    HW252701   9.700   9.939   4.272  0.0458 -3.3136  0.4275
13683SOL     OW52702   5.380   7.951   3.123 -0.2194  0.7328  0.0021
13683SOL    HW152703   5.353   7.866   3.169 -1.1406  0.9123 -0.1943
13683SOL    HW252704   5.470   7.939   3.080 -0.4542 -0.2265 -0.2326
13684SOL     OW52705   8.116   3.927   3.143 -0.2555 -0.0744 -0.1639
13684SOL    HW152706   8.021   3.899   3.150  0.0571 -1.3479 -0.8451
13684SOL    HW252707   8.164   3.867   3.079  1.3036 -0.2590  1.1342
13685SOL     OW52708   8.730   1.292   2.965  0.3733 -0.1049 -0.2475
13685SOL    HW152709   8.688   1.205   2.991 -2.9915  1.5202  0.0845
13685SOL    HW252710   8.738   1.351   3.045  0.8112  0.6009 -0.8024
13686SOL     OW52711   2.253   4.560   5.583  0.2418 -0.0935  0.1731
13686SOL    HW152712   2.258   4.462   5.568 -0.2295  0.3441 -3.3054
13686SOL    HW252713   2.341   4.603   5.561  0.6282  0.2397  2.2339
13687SOL     OW52714   2.895   7.948   5.749  0.4565  0.1206  0.2947
13687SOL    HW152715   2.955   7.930   5.827 -1.0933 -0.0592  1.4541
13687SOL    HW252716   2.860   8.041   5.754  2.2186  0.9382 -1.4917
13688SOL     OW52717   8.322   8.155   3.738  0.1259 -0.1902 -0.2028
13688SOL    HW152718   8.391   8.157   3.665  1.6190 -0.0212  1.1692
13688SOL    HW252719   8.282   8.064   3.744  0.0485 -0.2253 -1.1856
13689SOL     OW52720   8.666   2.909   7.576 -0.2567 -0.2453  0.0815
13689SOL    HW152721   8.662   2.851   7.658 -1.3509  0.6525  0.6702
13689SOL    HW252722   8.579   2.957   7.565  0.8365  1.6954 -0.1098
13690SOL     OW52723   9.122   2.422   1.654 -0.5239 -0.6892  0.3639
13690SOL    HW152724   9.171   2.403   1.569  0.8839 -1.2299  1.2694
13690SOL    HW252725   9.027   2.445   1.634 -0.1525 -0.6196 -1.3607
13691SOL     OW52726   1.628   7.846   7.343 -0.1019 -0.2582 -0.1467
13691SOL    HW152727   1.591   7.937   7.325  0.4520  0.1716  0.8602
13691SOL    HW252728   1.634   7.795   7.257  2.0860  1.5981 -1.1630
13692SOL     OW52729   1.769   1.990   1.179  0.1399  0.0862 -0.3303
13692SOL    HW152730   1.755   1.900   1.138 -1.2088  0.8121 -1.5082
13692SOL    HW252731   1.681   2.027   1.209  0.6976  0.9779  0.2233
13693SOL     OW52732   3.609   4.422   7.270  0.4169 -0.0427 -0.1467
13693SOL    HW152733   3.581   4.488   7.201  0.2753 -0.1176 -0.1621
13693SOL    HW252734   3.657   4.346   7.227  0.1049 -0.2152 -0.1978
13694SOL     OW52735   8.326   3.653   1.798  0.4081 -0.1159  1.2192
13694SOL    HW152736   8.279   3.613   1.878 -1.1361 -0.9311 -0.0677
13694SOL    HW252737   8.355   3.579   1.738 -0.4332  0.5909 -0.0685
13695SOL     OW52738   2.379   5.640   5.746  0.2229  0.2074  0.6384
13695SOL    HW152739   2.303   5.582   5.718  3.0910 -2.9873 -0.9687
13695SOL    HW252740   2.387   5.639   5.845 -0.2716 -1.5761  0.6876
13696SOL     OW52741   6.593   4.956   1.325  0.0070 -0.1449  0.3420
13696SOL    HW152742   6.516   4.945   1.389 -1.7325  0.9912 -1.5033
13696SOL    HW252743   6.655   5.026   1.359 -0.2057 -0.4800  1.4433
13697SOL     OW52744   2.211   7.756   2.925 -0.1268 -0.6310 -0.0770
13697SOL    HW152745   2.151   7.693   2.876  0.6357 -1.5298  0.1266
13697SOL    HW252746   2.198   7.744   3.024  0.2287 -0.6784 -0.0365
13698SOL     OW52747   4.963   9.565   3.591  0.7884  0.0495 -0.3991
13698SOL    HW152748   5.044   9.622   3.606  0.3532  0.6993 -0.5168
13698SOL    HW252749   4.958   9.539   3.494  0.6404  0.3275 -0.4647
13699SOL     OW52750   4.186   2.339   2.353  0.2483  0.1945 -1.0424
13699SOL    HW152751   4.098   2.298   2.376  0.2969 -0.4695 -1.9838
13699SOL    HW252752   4.250   2.327   2.428 -0.1344 -0.3012 -0.7942
13700SOL     OW52753   6.669   0.740   1.990 -0.4290 -0.4731 -0.0515
13700SOL    HW152754   6.571   0.722   1.994 -0.0028 -2.6944  1.9461
13700SOL    HW252755   6.718   0.667   2.037  2.0998  1.3759  0.3254
13701SOL     OW52756   4.892   7.456   5.735 -0.3658  0.4476  0.4475
13701SOL    HW152757   4.859   7.404   5.814 -1.0576  1.9407  1.1692
13701SOL    HW252758   4.863   7.552   5.744  0.1254  0.7740 -1.2869
13702SOL     OW52759   6.343   5.723   0.498 -0.0128 -0.1719 -0.0509
13702SOL    HW152760   6.323   5.821   0.503 -0.7484 -0.2970 -0.4559
13702SOL    HW252761   6.425   5.703   0.552 -0.1876  0.5778  0.5080
13703SOL     OW52762   3.158   9.081   5.893  0.4788  0.3809 -0.1084
13703SOL    HW152763   3.240   9.125   5.928  0.1898  0.3990  0.5486
13703SOL    HW252764   3.144   8.993   5.939 -0.8093  1.1592  1.0443
13704SOL     OW52765   0.782   5.098   8.176  0.0011  0.2226  0.4519
13704SOL    HW152766   0.693   5.141   8.186  0.3772  1.2113 -0.3069
13704SOL    HW252767   0.779   5.033   8.101 -0.1182  0.1719  0.5004
13705SOL     OW52768   4.433   1.838   3.631 -0.0434 -0.0169 -0.1046
13705SOL    HW152769   4.355   1.826   3.570 -0.8432 -3.0437  1.4185
13705SOL    HW252770   4.489   1.755   3.630  0.8608  0.5273  2.0019
13706SOL     OW52771   1.317   2.862   1.919 -0.1250 -0.2107 -0.1501
13706SOL    HW152772   1.347   2.767   1.915  0.2886 -0.1054  0.3896
13706SOL    HW252773   1.378   2.914   1.979  0.3346  0.6563 -1.3611
13707SOL     OW52774   3.707   1.079   6.900  0.3304  0.5573 -0.3763
13707SOL    HW152775   3.795   1.123   6.918 -0.6649  2.2962  0.3486
13707SOL    HW252776   3.649   1.140   6.846 -0.2159 -0.8120 -1.3562
13708SOL     OW52777   6.620   5.456   8.071 -0.0848 -0.2086  0.2493
13708SOL    HW152778   6.700   5.516   8.064  0.2054 -0.5966  0.1840
13708SOL    HW252779   6.580   5.466   8.162 -0.0350  0.0809  0.2419
13709SOL     OW52780   2.743   8.072   3.647  0.5852 -0.1012 -0.0915
13709SOL    HW152781   2.729   8.000   3.579 -0.0837  0.0359 -0.1015
13709SOL    HW252782   2.764   8.158   3.601 -0.8481  0.2214 -0.1841
13710SOL     OW52783   9.597   2.767   3.447  0.8292  0.5837 -0.0353
13710SOL    HW152784   9.597   2.746   3.349  0.9270 -0.8789  0.2583
13710SOL    HW252785   9.513   2.733   3.489  1.0684  0.6313  0.4996
13711SOL     OW52786   3.374   3.397   5.647  0.3937  0.2880  0.1561
13711SOL    HW152787   3.445   3.445   5.699 -2.7508  0.6116  4.4014
13711SOL    HW252788   3.296   3.458   5.632 -0.6033 -1.2264 -1.0292
13712SOL     OW52789   3.102   0.877   1.728  0.2978  0.2122 -0.2153
13712SOL    HW152790   3.096   0.970   1.689  1.9696  0.7291  0.7048
13712SOL    HW252791   3.137   0.815   1.658  0.4691  0.5531 -0.4381
13713SOL     OW52792   9.642   3.551   5.855 -0.0923  1.0847  0.3865
13713SOL    HW152793   9.577   3.626   5.872  0.9576  1.8426  1.1281
13713SOL    HW252794   9.680   3.561   5.763  1.2801  2.4409  1.0773
13714SOL     OW52795   2.688   5.952   0.058  0.1271 -0.1891  0.1314
13714SOL    HW152796   2.775   5.988   0.024 -0.8331  0.9829 -1.1589
13714SOL    HW252797   2.622   6.026   0.067 -0.8037 -1.0929  0.9277
13715SOL     OW52798   9.146   8.664   2.788  0.4110 -0.1699  0.0840
13715SOL    HW152799   9.113   8.591   2.727  0.4356 -0.0358 -0.0910
13715SOL    HW252800   9.167   8.745   2.733 -0.9426  0.4269  0.4356
13716SOL     OW52801   1.016   4.808   3.153 -0.5396  0.4146  0.3955
13716SOL    HW152802   1.034   4.843   3.061  1.0439 -1.9216 -0.2314
13716SOL    HW252803   1.065   4.864   3.220  0.4055  0.5851 -0.4177
13717SOL     OW52804   8.468   5.458   7.470 -0.3368 -0.2418  0.0078
13717SOL    HW152805   8.562   5.485   7.489 -0.7302  1.0044  0.1873
13717SOL    HW252806   8.453   5.364   7.503  0.7724 -0.3650  0.1715
13718SOL     OW52807   1.072   0.642   1.177 -0.8938  0.4143 -0.0022
13718SOL    HW152808   0.991   0.624   1.121 -0.8976  1.4848 -0.3567
13718SOL    HW252809   1.148   0.586   1.145 -1.6600 -1.0458  0.7227
13719SOL     OW52810   4.000   8.206   3.475  0.0757 -0.0540  0.8108
13719SOL    HW152811   4.053   8.173   3.397  1.8096  0.5157  1.7197
13719SOL    HW252812   3.993   8.133   3.543 -3.0035 -1.1753 -0.6005
13720SOL     OW52813   6.863   5.131   0.721  0.1386  0.1300 -0.1838
13720SOL    HW152814   6.777   5.135   0.771  1.3236  2.5847  1.7443
13720SOL    HW252815   6.939   5.152   0.783  1.9615 -0.0604 -2.2877
13721SOL     OW52816   9.278   3.913   6.043 -0.2733  0.0768  0.0915
13721SOL    HW152817   9.184   3.908   6.075 -0.0793 -1.3264  0.4706
13721SOL    HW252818   9.280   3.916   5.943 -0.7426  0.9477  0.1039
13722SOL     OW52819   4.166   0.989   1.233 -0.1614  0.4792  0.5281
13722SOL    HW152820   4.264   0.978   1.215 -0.2667  0.9683 -0.3617
13722SOL    HW252821   4.146   0.957   1.325  0.6146 -0.8907  0.2398
13723SOL     OW52822   1.844   8.321   4.463 -0.7397  0.1079  0.3642
13723SOL    HW152823   1.834   8.420   4.476 -1.5044  0.0561  0.2010
13723SOL    HW252824   1.757   8.276   4.482 -0.9409 -0.3233 -1.5205
13724SOL     OW52825   4.978   1.038   0.646  0.3112 -0.1607  0.4640
13724SOL    HW152826   4.971   0.990   0.559  0.1159  0.5849  0.0583
13724SOL    HW252827   4.982   1.137   0.629  0.0008  0.0019  1.3178
13725SOL     OW52828   7.496   9.639   6.244 -0.3592  0.0796 -0.0163
13725SOL    HW152829   7.406   9.601   6.267 -0.1989 -0.6115 -0.5303
13725SOL    HW252830   7.542   9.668   6.328 -1.4594  1.3598  0.1811
13726SOL     OW52831   3.181   4.134   7.727 -0.6945 -0.1105 -0.3281
13726SOL    HW152832   3.267   4.185   7.735  0.5040 -2.2063  0.5255
13726SOL    HW252833   3.105   4.193   7.754  0.8998  0.5329  3.0667
13727SOL     OW52834   2.969   2.452   1.780  0.0444 -0.3082  0.7140
13727SOL    HW152835   2.999   2.524   1.843  0.3904  0.5348 -0.4155
13727SOL    HW252836   3.041   2.383   1.771 -0.0544 -0.4975  1.3288
13728SOL     OW52837   8.869   4.520   4.822 -0.2991  0.0433 -0.6239
13728SOL    HW152838   8.874   4.587   4.896 -2.2692 -0.2046 -0.2541
13728SOL    HW252839   8.876   4.428   4.860  0.6475 -0.0400 -0.9661
13729SOL     OW52840   9.344   5.263   6.841  0.5392 -0.1481 -0.4615
13729SOL    HW152841   9.414   5.225   6.780  0.0960  1.9511 -2.3327
13729SOL    HW252842   9.268   5.299   6.786 -0.4005  0.7728  1.4059
13730SOL     OW52843   3.937   7.611   2.423 -0.0523  0.2065  0.4047
13730SOL    HW152844   3.948   7.512   2.430 -0.9677  0.1757  1.6843
13730SOL    HW252845   3.843   7.632   2.395  0.4269  0.7004 -0.8864
13731SOL     OW52846   6.992   4.857   6.848 -0.1719 -0.3477 -0.4328
13731SOL    HW152847   7.051   4.936   6.856 -0.0618 -0.6075  1.5887
13731SOL    HW252848   6.941   4.861   6.762  0.2143  1.6391 -0.5747
13732SOL     OW52849   2.583   8.582   6.432  0.0233  0.6949 -0.2419
13732SOL    HW152850   2.493   8.601   6.472 -0.2467  0.8545 -0.9120
13732SOL    HW252851   2.570   8.541   6.342  0.6178 -0.1890  0.0717
13733SOL     OW52852   7.467   4.369   0.122 -0.3193 -0.2570  0.0275
13733SOL    HW152853   7.539   4.318   0.169 -1.3073 -1.4856  0.2159
13733SOL    HW252854   7.471   4.351   0.024  0.3744  0.6184 -0.1150
13734SOL     OW52855   8.626   2.255   4.481  0.3559  0.0118 -0.0598
13734SOL    HW152856   8.574   2.171   4.492  1.0420 -0.3228  0.6416
13734SOL    HW252857   8.602   2.319   4.554 -0.1693  0.4310 -0.5944
13735SOL     OW52858   2.139   8.865   4.588 -0.8216 -0.6097 -0.0671
13735SOL    HW152859   2.106   8.888   4.496  0.5812 -1.2174 -0.7495
13735SOL    HW252860   2.114   8.938   4.651  0.4172  1.0985 -1.4675
13736SOL     OW52861   9.176   8.877   6.923  0.0959  0.0593  0.3001
13736SOL    HW152862   9.192   8.815   7.000 -0.2299 -1.4396 -0.8161
13736SOL    HW252863   9.132   8.960   6.956 -1.1639 -1.0817  1.5850
13737SOL     OW52864   5.174   1.242   1.287 -0.0382 -0.1268  0.0510
13737SOL    HW152865   5.184   1.148   1.253 -0.6512  0.1879 -1.0179
13737SOL    HW252866   5.080   1.272   1.275  0.0837  0.5271  0.6782
13738SOL     OW52867   0.231   5.919   3.906 -0.6406 -0.0366  0.2567
13738SOL    HW152868   0.235   5.823   3.877  0.8930 -0.5186  1.9981
13738SOL    HW252869   0.317   5.964   3.884 -1.9849  1.4564 -2.1720
13739SOL     OW52870   1.349   9.385   0.065 -0.2786  0.0950 -0.2360
13739SOL    HW152871   1.404   9.408   0.146  0.3407  0.6050 -0.7999
13739SOL    HW252872   1.365   9.289   0.041  1.0520  0.4905 -0.9336
13740SOL     OW52873   6.974   9.427   5.794 -0.1919 -0.8307 -0.0229
13740SOL    HW152874   7.023   9.342   5.772 -1.6060 -1.3488 -1.2673
13740SOL    HW252875   6.878   9.405   5.812 -0.6376  0.5713 -0.7013
13741SOL     OW52876   3.678   2.459   5.209  0.4197  0.8756  0.4975
13741SOL    HW152877   3.674   2.384   5.143  1.8468  0.2312  1.1216
13741SOL    HW252878   3.619   2.437   5.287  2.0794 -0.3640  1.4320
13742SOL     OW52879   0.992   6.611   5.346 -0.5519 -0.2423  0.0972
13742SOL    HW152880   0.990   6.532   5.285 -0.4392 -0.5292  0.4613
13742SOL    HW252881   0.901   6.627   5.383 -0.6312 -0.0379 -0.1800
13743SOL     OW52882   0.489   7.799   7.748 -0.8359 -0.7627 -0.4520
13743SOL    HW152883   0.585   7.792   7.773 -0.9562  0.9623  0.6598
13743SOL    HW252884   0.459   7.715   7.703  1.3903 -0.9890 -1.5644
13744SOL     OW52885   7.092   0.117   0.354  0.3454 -0.5932  0.3306
13744SOL    HW152886   7.115   0.137   0.259  0.1992 -0.1700  0.3849
13744SOL    HW252887   7.102   0.019   0.371  1.7338 -0.4808  0.2530
13745SOL     OW52888   8.561   1.143   6.276  0.0796  1.0766 -0.4667
13745SOL    HW152889   8.517   1.120   6.188  1.7113 -0.6803 -0.8551
13745SOL    HW252890   8.504   1.209   6.325 -1.7306  0.7662 -2.0750
13746SOL     OW52891   7.739   8.368   4.430 -0.2624 -0.3666 -0.3639
13746SOL    HW152892   7.658   8.331   4.474  1.0644 -1.4625  1.2052
13746SOL    HW252893   7.819   8.353   4.488  1.2877 -0.4481 -2.4483
13747SOL     OW52894   9.960   9.636   6.433  0.5265 -0.2280  0.5392
13747SOL    HW152895   9.972   9.718   6.489 -1.9181  0.5193  0.0075
13747SOL    HW252896   9.917   9.564   6.487 -2.0324  0.5652 -0.3609
13748SOL     OW52897   8.315   1.567   5.412 -0.0969  0.0963 -0.0291
13748SOL    HW152898   8.301   1.474   5.446  1.2301 -0.5147 -1.0766
13748SOL    HW252899   8.237   1.595   5.357  1.3218 -2.1069 -3.3626
13749SOL     OW52900   6.005   2.337   0.553 -0.1489 -0.7180 -0.3892
13749SOL    HW152901   6.038   2.424   0.590  0.5034 -1.3992  0.6637
13749SOL    HW252902   5.909   2.346   0.528 -0.8421 -0.4667  2.2468
13750SOL     OW52903   9.958   4.396   2.284 -0.2352 -0.5637  0.2092
13750SOL    HW152904   9.964   4.496   2.280 -1.5373 -0.5161 -1.0128
13750SOL    HW252905  10.037   4.356   2.238  0.1428 -0.0945  0.4491
13751SOL     OW52906   8.377   3.879   2.276 -0.1146  0.6172 -0.2207
13751SOL    HW152907   8.360   3.922   2.187 -0.7816 -2.3247 -1.5687
13751SOL    HW252908   8.290   3.845   2.313  0.8217 -2.6262 -0.8564
13752SOL     OW52909   1.646   6.296   3.180 -0.3029 -0.1065 -0.6624
13752SOL    HW152910   1.638   6.207   3.224  0.6047  0.8212  1.4885
13752SOL    HW252911   1.743   6.319   3.170 -0.4539 -0.9279 -4.5637
13753SOL     OW52912   3.230   0.857   7.727  0.7448 -0.4502  0.2760
13753SOL    HW152913   3.175   0.932   7.764  0.9518  0.1179 -0.5320
13753SOL    HW252914   3.199   0.770   7.766  0.3066  0.0248  1.0010
13754SOL     OW52915   9.667   6.834   2.438  0.4659  0.3302  0.1207
13754SOL    HW152916   9.573   6.865   2.452 -1.1759 -2.9213 -2.9216
13754SOL    HW252917   9.680   6.746   2.485  2.3403  1.2506  1.3736
13755SOL     OW52918   4.791   1.888   2.076  0.6539 -0.2124  0.0594
13755SOL    HW152919   4.764   1.971   2.027 -1.4727  0.7423  2.7401
13755SOL    HW252920   4.737   1.810   2.042 -0.6367  0.3948  0.6939
13756SOL     OW52921   8.757   6.116   0.752  0.4179  0.1940  0.0822
13756SOL    HW152922   8.838   6.119   0.693  0.2986  1.1724 -0.0250
13756SOL    HW252923   8.762   6.188   0.820  0.1668 -0.4412  0.7810
13757SOL     OW52924   9.817   6.906   1.036 -0.0314 -0.6705 -0.0397
13757SOL    HW152925   9.848   6.811   1.042  1.0983 -0.2994  0.1317
13757SOL    HW252926   9.764   6.919   0.952 -2.0716 -1.9704  0.9866
13758SOL     OW52927   8.661   5.591   7.772 -0.4287  0.4263 -0.0507
13758SOL    HW152928   8.640   5.688   7.773 -0.1060  0.5051 -0.5166
13758SOL    HW252929   8.614   5.545   7.847 -0.4628  0.9682  0.2599
13759SOL     OW52930   9.226   2.659   8.021 -0.6333 -0.3162 -0.0372
13759SOL    HW152931   9.148   2.614   7.979 -1.8690  1.9601 -0.2990
13759SOL    HW252932   9.274   2.714   7.953 -0.2262  0.1588  0.6201
13760SOL     OW52933   3.870   9.298   3.198 -0.3256  0.1037 -0.1660
13760SOL    HW152934   3.906   9.366   3.133  0.7974 -0.6416 -0.3402
13760SOL    HW252935   3.937   9.285   3.272 -0.3499 -1.1304 -0.3621
13761SOL     OW52936   7.497   8.793   7.032  0.2406  0.1162 -0.0790
13761SOL    HW152937   7.469   8.862   6.965 -2.4392  0.8921  1.7249
13761SOL    HW252938   7.488   8.702   6.991 -0.6289  0.6140 -1.0360
13762SOL     OW52939   6.400   0.525   5.130  0.5402 -0.7654 -0.2984
13762SOL    HW152940   6.492   0.550   5.098  1.1047 -1.2490  0.9023
13762SOL    HW252941   6.407   0.480   5.219 -0.8974 -0.5401 -0.0564
13763SOL     OW52942   9.467   8.262   2.000  0.5341 -0.0469  0.9525
13763SOL    HW152943   9.520   8.310   1.931 -0.8019 -0.1323 -0.1574
13763SOL    HW252944   9.499   8.167   2.007 -0.9925 -0.7601 -1.3841
13764SOL     OW52945   4.901   8.612   3.134 -0.3909  0.6230 -0.2423
13764SOL    HW152946   4.986   8.588   3.181 -0.5843 -0.2271 -0.3034
13764SOL    HW252947   4.914   8.695   3.081  0.3542  0.5952 -0.1122
13765SOL     OW52948   2.726   2.482   4.580 -0.2110 -0.1304 -0.0115
13765SOL    HW152949   2.685   2.542   4.649  1.3542  0.0723  0.7503
13765SOL    HW252950   2.749   2.536   4.498 -0.7519 -0.1037 -0.1500
13766SOL     OW52951   1.422   8.056   7.078  0.3426 -0.0387 -0.3165
13766SOL    HW152952   1.367   8.134   7.050 -0.8556 -1.6265 -2.4926
13766SOL    HW252953   1.510   8.058   7.031  0.0842 -0.3179 -0.8088
13767SOL     OW52954   0.223   6.859   0.487  0.4784  0.6981 -0.6053
13767SOL    HW152955   0.292   6.921   0.524 -0.5193  2.3536 -1.5083
13767SOL    HW252956   0.255   6.764   0.497  2.7251  1.4237 -0.7002
13768SOL     OW52957   2.977   5.279   2.124 -0.0319  0.8896  0.1638
13768SOL    HW152958   2.985   5.348   2.197  0.4409  0.3298  0.6486
13768SOL    HW252959   2.913   5.208   2.153 -0.7927  1.2947 -0.4836
13769SOL     OW52960   2.511   1.331   1.327 -0.0290  0.0003  1.0387
13769SOL    HW152961   2.520   1.233   1.345  0.9750  0.0030  0.5879
13769SOL    HW252962   2.526   1.382   1.412 -0.4809 -0.2259  1.2581
13770SOL     OW52963   9.001   6.367   3.649  0.0006 -1.1681  0.5439
13770SOL    HW152964   8.954   6.366   3.738  1.0879  0.2859  1.1599
13770SOL    HW252965   9.089   6.321   3.657  1.0555  0.8327  0.7999
13771SOL     OW52966   3.539   4.105   6.939 -0.5704  0.6601 -0.0088
13771SOL    HW152967   3.457   4.099   6.882 -0.6057  0.1750  0.0963
13771SOL    HW252968   3.513   4.119   7.034 -0.6990 -3.7874  0.7230
13772SOL     OW52969   1.179   1.057   1.547 -0.1636 -0.1960  0.0430
13772SOL    HW152970   1.278   1.045   1.558 -0.1786  0.4826  0.9384
13772SOL    HW252971   1.146   0.996   1.474  0.9296 -0.3324 -0.3496
13773SOL     OW52972   4.931   8.980   5.055 -0.0320  0.0898  0.2166
13773SOL    HW152973   4.857   9.042   5.080 -0.2921 -0.2528  0.3052
13773SOL    HW252974   4.898   8.916   4.986  0.3894  0.3873 -0.2630
13774SOL     OW52975   1.728   9.398   5.688  0.0310 -0.2995 -0.2591
13774SOL    HW152976   1.665   9.476   5.684 -0.4000 -0.6535 -0.4738
13774SOL    HW252977   1.741   9.371   5.783 -0.2410 -0.2983 -0.2190
13775SOL     OW52978   2.292   9.926   5.321 -0.6996  0.0519 -0.2171
13775SOL    HW152979   2.348   9.859   5.369 -0.3320  1.5993  1.5575
13775SOL    HW252980   2.226   9.878   5.262  0.6467 -1.8179 -0.2631
13776SOL     OW52981   3.261   4.177   4.319  1.0264  0.3690  0.1812
13776SOL    HW152982   3.239   4.201   4.414  1.1466  2.6344 -0.3406
13776SOL    HW252983   3.354   4.208   4.297  0.3835  1.3561 -1.1803
13777SOL     OW52984   4.167   4.068   4.847 -0.3279 -0.0574  0.1131
13777SOL    HW152985   4.232   4.046   4.774 -0.0157 -0.0574  0.3916
13777SOL    HW252986   4.098   3.996   4.852 -0.4490  0.0300 -0.3000
13778SOL     OW52987   6.965   5.840   0.433 -0.0895  0.2161 -0.5525
13778SOL    HW152988   6.992   5.802   0.344  0.6169 -0.1129 -0.2040
13778SOL    HW252989   7.037   5.901   0.466 -0.6532  0.8675 -0.5167
13779SOL     OW52990   9.404   4.366   8.054  0.3545  0.2694  0.1045
13779SOL    HW152991   9.402   4.273   8.090  3.6924 -0.2075 -0.7405
13779SOL    HW252992   9.355   4.370   7.967 -1.3590 -0.2425  1.0183
13780SOL     OW52993   3.953   8.938   3.983 -0.0480  0.2970 -0.0706
13780SOL    HW152994   3.869   8.955   3.931 -1.2367  1.0159  2.0148
13780SOL    HW252995   4.029   8.988   3.942 -0.6653 -0.1952 -1.8615
13781SOL     OW52996   7.042   2.684   3.044 -0.5796  0.0459  0.3931
13781SOL    HW152997   7.073   2.616   3.109 -0.4946 -0.2723  0.0207
13781SOL    HW252998   7.113   2.699   2.975 -1.4384 -1.0397 -0.7412
13782SOL     OW52999   0.874   7.125   7.899 -1.0510 -0.4865  0.2734
13782SOL    HW153000   0.859   7.220   7.929  0.9022  0.2120 -0.8989
13782SOL    HW253001   0.859   7.063   7.977 -0.4319  0.9358  1.5543
13783SOL     OW53002   9.015   8.627   1.249 -0.2865  0.3553 -0.0543
13783SOL    HW153003   9.047   8.722   1.241 -2.0799  0.9884  0.0547
13783SOL    HW253004   8.954   8.619   1.327 -0.9284 -0.6612 -0.6523
13784SOL     OW53005   2.918   4.288   4.078  0.3189  0.0201 -0.0376
13784SOL    HW153006   2.822   4.313   4.063 -0.2657  0.3163  3.7921
13784SOL    HW253007   2.969   4.368   4.108  0.3647 -1.3598  3.8425
13785SOL     OW53008   1.579   5.447   7.588  0.0898  0.1415 -0.7495
13785SOL    HW153009   1.601   5.361   7.634 -0.1188  0.5711  0.1725
13785SOL    HW253010   1.647   5.466   7.517  2.1845  0.9590  1.3990
13786SOL     OW53011   3.186   4.811   6.675  0.3794  0.0091 -0.1232
13786SOL    HW153012   3.163   4.783   6.582  0.4330  0.1442 -0.1772
13786SOL    HW253013   3.267   4.870   6.673 -1.3304  2.3913 -0.2883
13787SOL     OW53014   8.388   3.431   8.126  0.3691 -0.2921  0.8233
13787SOL    HW153015   8.306   3.467   8.170  1.2371  1.4976  1.0391
13787SOL    HW253016   8.458   3.503   8.123  1.4667 -1.3967 -0.5257
13788SOL     OW53017   4.475   4.796   5.951  0.6218  0.2384 -0.1828
13788SOL    HW153018   4.376   4.782   5.955  0.6405  0.1086 -0.1612
13788SOL    HW253019   4.507   4.782   5.857  0.7152 -0.3841 -0.0593
13789SOL     OW53020   6.638   8.350   3.924 -0.2482 -0.4253 -0.3281
13789SOL    HW153021   6.616   8.443   3.951  0.9414  0.3038 -1.7786
13789SOL    HW253022   6.714   8.316   3.980 -0.4400 -0.3896 -0.0460
13790SOL     OW53023   1.699   8.355   7.106  0.2129 -0.2548 -0.5337
13790SOL    HW153024   1.750   8.374   7.023  2.3168  0.4921  0.9078
13790SOL    HW253025   1.630   8.285   7.087  1.8408 -1.3837 -2.4672
13791SOL     OW53026   2.723   4.497   4.304 -0.4327 -0.5644  0.9889
13791SOL    HW153027   2.817   4.506   4.334 -0.1531 -0.3591  0.0726
13791SOL    HW253028   2.696   4.400   4.305  0.0236 -0.6941  0.5404
13792SOL     OW53029   0.171   7.572   1.452 -0.9002  0.0383  0.2429
13792SOL    HW153030   0.080   7.607   1.474 -0.5837  0.8573  0.2497
13792SOL    HW253031   0.177   7.476   1.480 -1.2377  0.4251  1.6415
13793SOL     OW53032   4.308   3.996   0.636  0.2257  0.1258 -0.3856
13793SOL    HW153033   4.340   4.034   0.549  0.2310  0.6262 -0.1649
13793SOL    HW253034   4.236   3.929   0.618  0.4960 -0.0589 -0.8013
13794SOL     OW53035   2.826   2.579   5.346  0.2325  0.3503  0.9510
13794SOL    HW153036   2.865   2.500   5.394 -0.3740 -0.5497 -0.0273
13794SOL    HW253037   2.738   2.603   5.387 -0.1059 -0.1788  0.5351
13795SOL     OW53038   4.180   5.479   2.969  0.2465 -0.2375 -0.1179
13795SOL    HW153039   4.276   5.502   2.952 -0.1914  0.8454 -1.2838
13795SOL    HW253040   4.171   5.381   2.983  1.4632 -0.4092 -0.4642
13796SOL     OW53041   3.004   1.807   5.445  0.1399  0.1840 -0.2159
13796SOL    HW153042   3.064   1.800   5.365 -0.1288 -1.1424 -0.2992
13796SOL    HW253043   2.935   1.735   5.442  1.3066 -1.0879  2.1837
13797SOL     OW53044   1.536   5.170   4.377 -0.3351 -0.5150  0.2594
13797SOL    HW153045   1.587   5.155   4.292  0.2996 -0.9345  0.7054
13797SOL    HW253046   1.501   5.082   4.410 -0.1442 -0.4264  0.6966
13798SOL     OW53047   0.470   0.813   5.877  0.7643 -0.1397  0.0358
13798SOL    HW153048   0.509   0.730   5.837  0.2480 -0.0062 -0.7620
13798SOL    HW253049   0.535   0.853   5.942  1.4506 -0.5871 -0.3720
13799SOL     OW53050   3.776   5.054   4.408 -0.0564  0.5351  0.8670
13799SOL    HW153051   3.731   4.973   4.446 -0.5138  0.5006  0.2474
13799SOL    HW253052   3.791   5.121   4.482  1.1743 -0.4809  1.5741
13800SOL     OW53053   3.675   9.744   5.154 -0.2508  0.0379 -0.0772
13800SOL    HW153054   3.723   9.805   5.091  0.4862  0.2024  0.6321
13800SOL    HW253055   3.669   9.787   5.244  1.5916 -1.5020  0.8370
13801SOL     OW53056   2.137   4.850   8.170  0.0641  0.3474 -0.5915
13801SOL    HW153057   2.061   4.854   8.234  0.2180  1.1306 -0.4462
13801SOL    HW253058   2.117   4.783   8.098 -0.0182 -0.6830  0.3791
13802SOL     OW53059   6.573   7.339   6.170 -0.1654 -0.0803  0.4870
13802SOL    HW153060   6.478   7.344   6.140 -0.9209 -1.6875  2.5500
13802SOL    HW253061   6.593   7.416   6.231 -0.1848  0.1472  0.2098
13803SOL     OW53062   8.959   1.614   2.780  0.2964  0.4789 -0.4994
13803SOL    HW153063   8.936   1.520   2.804 -1.1751  0.4809 -1.8172
13803SOL    HW253064   9.053   1.634   2.809 -0.7590 -0.0353  3.6103
13804SOL     OW53065   9.091   4.307   1.142  0.2039  0.0221 -0.4185
13804SOL    HW153066   9.006   4.344   1.181 -0.8520 -1.2036 -1.5004
13804SOL    HW253067   9.071   4.220   1.097  2.2095 -0.6844  0.0255
13805SOL     OW53068   0.195   6.789   6.180 -0.3528  0.6389  0.2644
13805SOL    HW153069   0.174   6.837   6.266 -1.0139 -1.4348  1.3020
13805SOL    HW253070   0.292   6.800   6.158 -0.3563  1.8678  0.8400
13806SOL     OW53071   8.039   6.710   1.043 -0.2056  0.0418  0.3549
13806SOL    HW153072   8.132   6.737   1.015 -0.0727 -0.1182  0.6368
13806SOL    HW253073   7.972   6.766   0.993  0.0089 -0.5755 -0.6494
13807SOL     OW53074   9.512   6.718   5.286 -0.3246 -0.3544 -0.8311
13807SOL    HW153075   9.546   6.750   5.374 -0.4206  0.3761 -1.0556
13807SOL    HW253076   9.560   6.633   5.261  1.3751  0.6656 -1.1446
13808SOL     OW53077   2.231   8.841   7.160 -0.2289 -0.0998  0.2542
13808SOL    HW153078   2.326   8.809   7.158 -0.9274 -2.3442  1.2737
13808SOL    HW253079   2.203   8.870   7.069  0.5747 -2.0623 -0.6419
13809SOL     OW53080   7.812   1.394   0.659 -0.0381 -0.1175 -0.6720
13809SOL    HW153081   7.813   1.411   0.758 -1.3297 -0.4220 -0.5955
13809SOL    HW253082   7.905   1.402   0.623  0.2389  1.3997  0.3259
13810SOL     OW53083   3.360   6.343   1.647  0.4007  0.4524  0.6021
13810SOL    HW153084   3.284   6.329   1.583  1.2447 -1.1204 -0.0668
13810SOL    HW253085   3.427   6.404   1.604  0.4129  0.3275  0.4414
13811SOL     OW53086   3.084   3.761   6.902  0.6367 -0.3212 -0.5179
13811SOL    HW153087   2.989   3.748   6.931  0.2661 -0.4071 -1.7552
13811SOL    HW253088   3.142   3.691   6.944  0.2968  0.2439  0.9139
13812SOL     OW53089   9.533   0.978   1.752 -0.4054  0.5702 -0.0499
13812SOL    HW153090   9.435   0.977   1.729  0.2919 -0.2115 -3.1783
13812SOL    HW253091   9.567   0.884   1.755  0.4471  0.8907  0.1889
13813SOL     OW53092   7.416   8.132   4.259  0.4305  0.4631  0.8113
13813SOL    HW153093   7.497   8.078   4.239  0.5896  0.8340  0.4416
13813SOL    HW253094   7.399   8.196   4.184 -1.1402 -0.7475  0.1179
13814SOL     OW53095   3.295   3.229   1.377 -0.2718  0.0105 -0.0292
13814SOL    HW153096   3.277   3.236   1.279 -0.4642  1.2458  0.0954
13814SOL    HW253097   3.333   3.315   1.411 -1.1528 -0.0596  1.1811
13815SOL     OW53098   9.280   8.454   1.844 -0.7814 -0.3111  0.2817
13815SOL    HW153099   9.330   8.454   1.758 -3.0661  2.1149 -1.1223
13815SOL    HW253100   9.343   8.432   1.919  1.9244  0.6030 -1.6372
13816SOL     OW53101   3.862   4.755   2.970 -0.6308 -0.3416  0.3887
13816SOL    HW153102   3.824   4.814   2.899 -0.1251 -2.0061 -1.3215
13816SOL    HW253103   3.791   4.732   3.036 -0.7613  2.3485  1.2104
13817SOL     OW53104   4.757   8.459   2.695  0.0724  0.1165  0.0210
13817SOL    HW153105   4.844   8.495   2.662  0.0936  0.0094 -0.0407
13817SOL    HW253106   4.764   8.436   2.792  0.0361  0.3487  0.0802
13818SOL     OW53107   2.125   7.193   1.277  0.0070  0.3432 -0.0252
13818SOL    HW153108   2.049   7.222   1.336  0.3221  0.8533  0.1343
13818SOL    HW253109   2.090   7.135   1.203 -0.9567  2.9384 -1.6563
13819SOL     OW53110   4.061   0.050   3.946 -0.3270 -0.4389  0.6441
13819SOL    HW153111   4.127  -0.021   3.970 -0.1588 -0.5660 -0.1643
13819SOL    HW253112   4.050   0.052   3.846 -0.0939  0.8848  0.6450
13820SOL     OW53113   1.159   9.602   6.009  0.1095 -0.1920  0.2783
13820SOL    HW153114   1.216   9.622   6.089  0.4211  0.2070 -0.0428
13820SOL    HW253115   1.213   9.612   5.926 -0.5521  0.6546 -0.0604
13821SOL     OW53116   3.465   6.393   7.626  0.4339  0.0897  0.0540
13821SOL    HW153117   3.444   6.444   7.710  2.0529  1.1758 -0.1745
13821SOL    HW253118   3.393   6.409   7.559  0.2211  0.9785  0.4837
13822SOL     OW53119   1.605   7.711   3.822 -0.3638  0.9882 -0.1183
13822SOL    HW153120   1.584   7.682   3.729 -4.0203 -1.8633  1.4920
13822SOL    HW253121   1.678   7.654   3.860 -0.7511  0.3956 -0.2773
13823SOL     OW53122   2.644   3.893   7.651 -0.2066  0.2340  0.2310
13823SOL    HW153123   2.674   3.954   7.724  0.7075  0.7113 -0.5331
13823SOL    HW253124   2.696   3.912   7.568 -0.8747 -0.6549 -0.4041
13824SOL     OW53125   4.023   9.742   6.212 -0.2806 -0.2191 -0.5545
13824SOL    HW153126   4.089   9.806   6.253 -1.1864 -0.1103  0.7594
13824SOL    HW253127   3.953   9.793   6.163 -0.3567 -0.2543 -0.4823
13825SOL     OW53128   6.886   7.826   4.781 -0.2588  0.3409  0.0841
13825SOL    HW153129   6.960   7.832   4.847  0.0901 -1.7232 -0.0944
13825SOL    HW253130   6.915   7.770   4.703 -1.1998  1.4469 -1.0998
13826SOL     OW53131   8.835   9.037   4.027  0.0019  0.1260  0.1278
13826SOL    HW153132   8.852   9.028   4.125 -0.6918  0.2611  0.2679
13826SOL    HW253133   8.786   9.123   4.009  0.0493  0.0625 -0.3218
13827SOL     OW53134   2.405   9.665   7.859  0.4122 -0.3277 -0.3025
13827SOL    HW153135   2.479   9.723   7.823  1.1296 -0.6186  0.6941
13827SOL    HW253136   2.319   9.690   7.815  0.7637  1.3240 -0.0693
13828SOL     OW53137   3.276   3.417   4.644  0.2458 -0.3567  0.4166
13828SOL    HW153138   3.241   3.359   4.571 -1.0206  0.3492  0.4588
13828SOL    HW253139   3.207   3.426   4.716  0.2675  1.5035  0.2306
13829SOL     OW53140   8.486   2.090   0.789 -0.4013 -0.4105  0.1196
13829SOL    HW153141   8.508   2.010   0.732  1.4300 -0.7081  1.1759
13829SOL    HW253142   8.524   2.172   0.747 -2.9527  0.0513 -1.3629
13830SOL     OW53143   8.886   4.870   1.411  0.3838  0.1173 -0.0360
13830SOL    HW153144   8.933   4.896   1.328  1.8511 -0.5417  0.5715
13830SOL    HW253145   8.858   4.952   1.461 -0.2055  0.5088 -1.0035
13831SOL     OW53146   5.363   9.807   5.318  0.5787  0.6551 -0.2528
13831SOL    HW153147   5.460   9.785   5.307  0.2605  0.1107 -2.0642
13831SOL    HW253148   5.308   9.744   5.263 -0.6415  2.7440 -1.4769
13832SOL     OW53149   9.667   6.893   8.107 -0.4732 -0.1779  0.3259
13832SOL    HW153150   9.573   6.927   8.101 -0.1879  0.4906 -0.2829
13832SOL    HW253151   9.698   6.898   8.202 -0.5948  0.8007  0.3108
13833SOL     OW53152   4.929   1.766   5.292 -0.4216 -0.1356  0.8234
13833SOL    HW153153   4.988   1.689   5.264  0.2813 -0.2198  2.4411
13833SOL    HW253154   4.846   1.730   5.334 -1.6162 -0.0135 -1.3834
13834SOL     OW53155   9.069   5.765   4.400 -0.7070 -0.0751  0.3078
13834SOL    HW153156   9.041   5.788   4.493 -1.6720 -0.1216  0.0291
13834SOL    HW253157   9.123   5.840   4.361 -0.7197  0.1475  0.7207
13835SOL     OW53158   6.793   0.762   4.510 -0.3730 -0.1830 -0.3422
13835SOL    HW153159   6.787   0.677   4.459  0.2862 -0.8268  0.6296
13835SOL    HW253160   6.889   0.784   4.526 -0.4751  1.6021 -1.9767
13836SOL     OW53161   8.695   6.469   6.684  0.0172 -0.1556  0.9910
13836SOL    HW153162   8.637   6.457   6.603  1.9360  0.0103 -0.4533
13836SOL    HW253163   8.642   6.511   6.757 -1.7935 -0.4013 -0.1449
13837SOL     OW53164   7.644   2.638   6.436  0.2187 -0.1098 -0.1123
13837SOL    HW153165   7.620   2.728   6.400 -0.8945 -0.0973  0.6425
13837SOL    HW253166   7.588   2.618   6.516  0.4397 -1.4856 -0.2903
13838SOL     OW53167   8.472   6.636   3.455  0.6386  0.1575  0.6987
13838SOL    HW153168   8.466   6.631   3.355 -0.6013 -0.8809  0.7956
13838SOL    HW253169   8.385   6.606   3.495  1.7246 -1.2098  2.1270
13839SOL     OW53170   9.355   1.487   1.486  0.2699 -0.2187  0.1254
13839SOL    HW153171   9.387   1.468   1.579 -0.3087 -3.1984 -0.2308
13839SOL    HW253172   9.271   1.541   1.490  0.3662 -0.1404  1.3289
13840SOL     OW53173   9.842   3.693   7.771  0.2987  0.2415 -0.0260
13840SOL    HW153174   9.895   3.609   7.760 -1.3992 -0.5478 -2.6366
13840SOL    HW253175   9.810   3.724   7.681 -1.6709  1.9822  1.2306
13841SOL     OW53176   3.844   0.881   1.209  0.2150 -0.1768  0.1119
13841SOL    HW153177   3.857   0.917   1.117  0.1841 -0.7533 -0.1185
13841SOL    HW253178   3.920   0.820   1.232  0.6194  0.5546  0.7573
13842SOL     OW53179   8.459   6.674   2.626 -0.1807 -0.4151 -0.2261
13842SOL    HW153180   8.532   6.644   2.564 -0.8855  0.2236 -1.3847
13842SOL    HW253181   8.482   6.764   2.663  0.9060 -1.3863  1.5686
13843SOL     OW53182   7.957   6.264   5.721 -0.2465  0.3217 -1.2211
13843SOL    HW153183   7.958   6.277   5.621  0.6326  0.7437 -1.1663
13843SOL    HW253184   8.050   6.265   5.755 -0.4412 -1.5149 -0.5830
13844SOL     OW53185   8.774   2.324   3.238 -0.1854 -0.3779 -0.3680
13844SOL    HW153186   8.732   2.248   3.187  0.2740 -0.9922  0.1586
13844SOL    HW253187   8.802   2.292   3.329 -0.8613  0.6739  0.2140
13845SOL     OW53188   3.703   5.739   0.221  0.0721 -0.6995  0.0767
13845SOL    HW153189   3.738   5.662   0.275 -0.7674 -0.5578  0.8257
13845SOL    HW253190   3.651   5.705   0.143  1.8759 -0.9165 -1.0687
13846SOL     OW53191   4.365   6.887   2.709 -0.2214  0.0381  0.6718
13846SOL    HW153192   4.409   6.835   2.782  1.1007 -0.8234 -0.7198
13846SOL    HW253193   4.434   6.923   2.647 -1.2307  2.0997  0.6964
13847SOL     OW53194   8.418   7.107   1.920 -0.1153 -0.0920 -0.2208
13847SOL    HW153195   8.415   7.036   1.990  1.4314 -1.1841 -1.2356
13847SOL    HW253196   8.326   7.119   1.882 -0.5180 -1.1128  0.3859
13848SOL     OW53197   0.193   6.569   7.021 -0.2365 -0.5461  0.3827
13848SOL    HW153198   0.212   6.473   7.003 -2.5605 -1.4398  2.4661
13848SOL    HW253199   0.265   6.607   7.080  0.1239 -1.2814  0.4202
13849SOL     OW53200   0.528   7.048   3.361 -0.2381 -0.1988  0.4721
13849SOL    HW153201   0.550   7.056   3.264  0.7660  0.3490  0.7456
13849SOL    HW253202   0.475   7.128   3.390  0.9512  0.4882  0.7773
13850SOL     OW53203   1.832   8.852   2.708  0.2834  0.6860 -0.5381
13850SOL    HW153204   1.740   8.814   2.720  0.4986  0.3221 -0.0140
13850SOL    HW253205   1.878   8.857   2.797  2.1149 -2.6036 -1.1993
13851SOL     OW53206   8.006   6.702   6.028 -0.0387  0.2470 -0.3295
13851SOL    HW153207   7.963   6.676   5.942  0.0022  1.4454 -0.7153
13851SOL    HW253208   7.952   6.774   6.072  0.1302 -0.1136  0.4789
13852SOL     OW53209   9.589   7.323   0.407  0.8556 -0.6131  1.1345
13852SOL    HW153210   9.574   7.276   0.320  1.0446  1.0047  0.2011
13852SOL    HW253211   9.518   7.297   0.472  0.4298 -1.4665  0.3354
13853SOL     OW53212   7.299   3.884   5.829 -0.4640 -0.1929  0.1912
13853SOL    HW153213   7.278   3.903   5.734  2.3895 -2.6853 -1.0410
13853SOL    HW253214   7.373   3.944   5.859 -0.7064 -0.0677  0.5422
13854SOL     OW53215   3.402   5.278   0.938  0.1057  0.0936 -0.2594
13854SOL    HW153216   3.435   5.322   1.021  0.6338 -0.7404 -0.0178
13854SOL    HW253217   3.465   5.298   0.862 -0.7807  1.4791 -0.6427
13855SOL     OW53218   2.452   2.149   3.335 -0.3023 -0.0410  0.1897
13855SOL    HW153219   2.430   2.094   3.254 -1.5730  0.0744  0.4475
13855SOL    HW253220   2.385   2.131   3.407  0.9643 -0.3134  1.3055
13856SOL     OW53221   6.860   2.515   0.594  0.0097 -0.2520 -0.5646
13856SOL    HW153222   6.956   2.530   0.614 -0.2588 -0.2205  0.7032
13856SOL    HW253223   6.810   2.601   0.598 -0.2157 -0.3857 -0.4491
13857SOL     OW53224   3.991   2.663   4.319  0.1943 -0.0510  0.2882
13857SOL    HW153225   3.964   2.664   4.223  3.1278  0.5068 -0.5594
13857SOL    HW253226   4.030   2.574   4.342  1.1184  0.3982  0.4891
13858SOL     OW53227   9.882   7.694   4.049  0.2150  0.1157  0.2281
13858SOL    HW153228   9.840   7.727   3.964 -0.9729  0.7117  1.0371
13858SOL    HW253229   9.958   7.754   4.074  0.6481 -0.1358 -0.4818
13859SOL     OW53230   0.443   7.759   0.880  0.2702  0.5682 -0.1471
13859SOL    HW153231   0.347   7.779   0.896 -0.1011 -2.0231  1.1416
13859SOL    HW253232   0.452   7.711   0.792  0.1640 -0.6255  0.4830
13860SOL     OW53233   1.691   3.382   2.325  0.4342 -0.0341  0.3363
13860SOL    HW153234   1.709   3.450   2.254 -0.9799  1.4183  1.3223
13860SOL    HW253235   1.777   3.355   2.368  1.1307  0.2594 -0.8517
13861SOL     OW53236   2.790   6.128   8.008  0.9374  0.3603  0.3271
13861SOL    HW153237   2.861   6.062   8.033  0.4106 -0.2198  0.3201
13861SOL    HW253238   2.770   6.119   7.910 -0.4418 -0.7754  0.6849
13862SOL     OW53239   0.958   2.330   0.965  0.4377 -0.3008  0.3125
13862SOL    HW153240   0.893   2.343   0.890 -1.2485  0.9269  1.9478
13862SOL    HW253241   0.908   2.323   1.051  2.3782 -1.2729  1.3908
13863SOL     OW53242   9.793   9.988   4.405 -0.2393 -0.1691 -0.0789
13863SOL    HW153243   9.848  10.067   4.377 -2.3968  1.0093 -1.1381
13863SOL    HW253244   9.807   9.970   4.502 -0.2129  1.9300  0.3349
13864SOL     OW53245   0.640   0.213   1.227 -0.0768  0.0837 -0.3563
13864SOL    HW153246   0.610   0.289   1.285  0.5379 -0.0146  0.0877
13864SOL    HW253247   0.662   0.134   1.284  3.7271  1.0021 -0.4064
13865SOL     OW53248   1.551   4.791   5.303 -0.2615  0.0914 -0.0857
13865SOL    HW153249   1.513   4.860   5.365 -1.1488 -0.2967 -0.1935
13865SOL    HW253250   1.523   4.810   5.209 -0.4902 -0.3938 -0.1207
13866SOL     OW53251   0.370   8.189   0.195  0.0720  0.1816 -0.1969
13866SOL    HW153252   0.336   8.107   0.241  0.3195 -0.5600 -1.3445
13866SOL    HW253253   0.316   8.206   0.112  1.0314  0.2920 -0.8018
13867SOL     OW53254   9.599   6.474   7.868  0.5684 -0.0353 -0.5037
13867SOL    HW153255   9.575   6.548   7.805 -1.3350  0.1655  0.4109
13867SOL    HW253256   9.534   6.398   7.857 -0.4380  0.4122  1.8773
13868SOL     OW53257   1.661   7.593   1.945 -0.5122 -0.5352  0.0350
13868SOL    HW153258   1.639   7.550   1.857 -0.4446 -1.0110  0.2484
13868SOL    HW253259   1.656   7.525   2.018 -0.9976 -0.0466  0.4643
13869SOL     OW53260   2.224   0.802   0.246 -0.2227 -0.0213 -0.1300
13869SOL    HW153261   2.225   0.792   0.147  0.1040 -0.5475 -0.0790
13869SOL    HW253262   2.139   0.763   0.283  0.1961 -0.9269 -0.1018
13870SOL     OW53263   9.671   0.699   5.516  0.0734  0.1138  0.3909
13870SOL    HW153264   9.598   0.696   5.447 -1.5285 -1.3011  2.1070
13870SOL    HW253265   9.738   0.627   5.497 -0.4342 -0.3585  0.3727
13871SOL     OW53266   9.693   0.574   4.704  0.2408 -0.4177 -0.2723
13871SOL    HW153267   9.787   0.568   4.737  0.1875  0.0556 -0.0170
13871SOL    HW253268   9.642   0.493   4.733  0.0215  0.2955  1.4087
13872SOL     OW53269   2.933   4.318   3.176  0.7463 -0.0237  0.8196
13872SOL    HW153270   2.977   4.229   3.167 -0.1125 -0.4251  0.5934
13872SOL    HW253271   2.943   4.350   3.270 -1.1384 -1.5263  1.5689
13873SOL     OW53272   4.810   1.423   8.103  0.3042 -0.3096  0.4472
13873SOL    HW153273   4.815   1.339   8.158 -0.2640 -0.3659  0.4203
13873SOL    HW253274   4.717   1.459   8.107 -0.0025 -0.8835 -1.3344
13874SOL     OW53275   3.204   9.730   4.772  0.3823  0.5296  0.2315
13874SOL    HW153276   3.139   9.718   4.697  0.4992  1.0125  0.0529
13874SOL    HW253277   3.273   9.797   4.746  0.2725  0.8923  0.8694
13875SOL     OW53278   3.367   9.550   7.238  0.3202 -0.2695 -0.3078
13875SOL    HW153279   3.377   9.642   7.200  0.2023  1.0187  2.6697
13875SOL    HW253280   3.272   9.520   7.229  0.2714  0.0416 -0.8959
13876SOL     OW53281   1.119   5.876   7.858 -0.8351  0.0697 -0.3266
13876SOL    HW153282   1.031   5.829   7.861 -1.1867  0.6858 -0.8538
13876SOL    HW253283   1.191   5.815   7.891 -1.4163 -0.5357 -0.1785
13877SOL     OW53284   6.449   9.262   4.563 -0.0284 -0.9991 -0.1777
13877SOL    HW153285   6.357   9.231   4.590 -0.6836 -0.5407 -1.8072
13877SOL    HW253286   6.478   9.211   4.482 -0.4506  1.4815 -1.9420
13878SOL     OW53287   7.132   0.462   7.043  0.2857 -0.4402 -0.1269
13878SOL    HW153288   7.179   0.481   6.957  0.5556 -0.3509  0.0380
13878SOL    HW253289   7.187   0.400   7.099  1.7957  2.2397  1.4649
13879SOL     OW53290   1.984   5.332   6.791  0.4549  0.1943 -0.4179
13879SOL    HW153291   2.018   5.345   6.885  0.8264  2.6275 -0.8410
13879SOL    HW253292   1.893   5.374   6.783  1.6009  2.5100 -1.8334
13880SOL     OW53293   0.526   3.471   8.101  0.3962  0.0264  0.5915
13880SOL    HW153294   0.529   3.481   8.002 -2.4828  1.5564  0.6087
13880SOL    HW253295   0.511   3.375   8.125 -3.1280  0.2050 -0.6198
13881SOL     OW53296   9.807   1.754   4.152 -0.1644  0.1038  0.2921
13881SOL    HW153297   9.864   1.698   4.092 -1.4241 -1.7062  0.7660
13881SOL    HW253298   9.711   1.727   4.144 -0.7393  1.8189  0.9576
13882SOL     OW53299   3.941   9.979   0.558 -0.0663 -0.3369 -0.0359
13882SOL    HW153300   3.987   9.953   0.474 -2.4810 -0.3123 -1.4152
13882SOL    HW253301   3.960  10.074   0.579  0.5190 -0.3346 -0.5764
13883SOL     OW53302   3.332   3.692   8.002  0.2636 -0.2425  0.7812
13883SOL    HW153303   3.247   3.717   7.956 -0.1206  0.1674  1.6956
13883SOL    HW253304   3.367   3.607   7.963  0.8370  0.9484 -1.4017
13884SOL     OW53305   4.094   3.148   2.455 -0.3139 -0.4496 -0.7338
13884SOL    HW153306   4.040   3.188   2.530  0.2971  1.0941 -1.0916
13884SOL    HW253307   4.091   3.049   2.461  0.0513 -0.3460  1.5799
13885SOL     OW53308   7.284   7.177   5.089  0.4242  0.3413 -0.4860
13885SOL    HW153309   7.376   7.203   5.119  0.9097  0.2949 -1.8812
13885SOL    HW253310   7.289   7.089   5.042 -0.5006 -0.1338  0.2948
13886SOL     OW53311   4.183   2.731   6.617 -0.0808  0.0271 -0.2856
13886SOL    HW153312   4.216   2.819   6.651 -0.1330 -0.0305 -0.0862
13886SOL    HW253313   4.232   2.657   6.664  0.3258 -0.0404 -0.8227
13887SOL     OW53314   2.799   0.031   6.488 -0.5777 -0.1356  0.2883
13887SOL    HW153315   2.718   0.023   6.546  0.2657 -1.6978  1.2907
13887SOL    HW253316   2.801  -0.044   6.423  0.2830 -0.3624  0.5642
13888SOL     OW53317   2.486   6.662   5.985 -0.4236 -0.6360  0.7914
13888SOL    HW153318   2.435   6.709   5.913 -0.1480  0.4276  1.2791
13888SOL    HW253319   2.536   6.586   5.946 -2.6769 -1.9396  0.3604
13889SOL     OW53320   4.140   9.994   3.093  0.4368 -0.0996 -0.2617
13889SOL    HW153321   4.042  10.003   3.072 -0.1005 -2.0377  1.3289
13889SOL    HW253322   4.157  10.028   3.185  1.0861 -0.7662 -0.1387
13890SOL     OW53323   7.306   4.926   0.047  0.2859  0.3386  0.3899
13890SOL    HW153324   7.324   5.017   0.008 -2.7361  0.4870 -0.8087
13890SOL    HW253325   7.316   4.857  -0.024 -1.4467  0.2049  0.2435
13891SOL     OW53326   8.803   5.452   6.122  0.1172  0.2601  0.7118
13891SOL    HW153327   8.773   5.542   6.155 -0.3496 -0.0251  1.0656
13891SOL    HW253328   8.779   5.443   6.025 -0.6913  0.1525  0.9123
13892SOL     OW53329   4.511   7.980   1.476  0.3052  0.0092  0.0871
13892SOL    HW153330   4.450   8.057   1.457 -0.2635 -0.6639 -0.7867
13892SOL    HW253331   4.465   7.894   1.456  1.3352 -0.5269 -0.0140
13893SOL     OW53332   1.696   5.452   1.244 -0.1331  0.6184  0.1548
13893SOL    HW153333   1.756   5.374   1.228 -2.3209 -1.3096  0.9262
13893SOL    HW253334   1.745   5.522   1.296  1.8342 -0.2807 -0.4399
13894SOL     OW53335   9.631   7.289   2.621  0.2447 -0.0802  0.3964
13894SOL    HW153336   9.674   7.314   2.708  0.0335 -0.3225  0.5721
13894SOL    HW253337   9.531   7.288   2.633  0.1096  1.6918 -0.3207
13895SOL     OW53338   0.733   5.773   3.231  0.4661 -0.3198  0.1214
13895SOL    HW153339   0.795   5.723   3.292  1.0989  0.0020 -0.2512
13895SOL    HW253340   0.702   5.712   3.158  0.2955 -0.4966  0.3386
13896SOL     OW53341   1.889   7.330   3.905  0.2824 -0.4524 -0.5729
13896SOL    HW153342   1.946   7.379   3.839 -1.1565 -0.1024 -1.5790
13896SOL    HW253343   1.840   7.396   3.961  0.6708 -0.7526  0.1195
13897SOL     OW53344   5.640   7.291   6.022 -0.1901 -0.1345 -0.7892
13897SOL    HW153345   5.612   7.202   5.988 -0.9721  0.5212 -1.8957
13897SOL    HW253346   5.607   7.362   5.960 -1.0333  1.0493  0.9739
13898SOL     OW53347   5.171   5.855   1.901  0.2161 -0.1093 -0.1196
13898SOL    HW153348   5.231   5.827   1.826  1.1194 -2.2641  1.3637
13898SOL    HW253349   5.226   5.875   1.983 -0.8939  0.3720  0.5294
13899SOL     OW53350   9.137   9.384   2.654  0.2029 -0.5863 -0.0951
13899SOL    HW153351   9.090   9.356   2.738  1.3326 -0.5708  0.5487
13899SOL    HW253352   9.144   9.484   2.652  0.2519 -0.5909 -0.1641
13900SOL     OW53353   2.157   4.138   3.566 -0.1245 -0.8256 -0.8775
13900SOL    HW153354   2.214   4.217   3.541  0.6279 -1.5912 -1.6071
13900SOL    HW253355   2.149   4.077   3.487  1.3259 -2.7112  0.4087
13901SOL     OW53356   8.333   0.654   0.983 -0.1092  0.2848  0.6128
13901SOL    HW153357   8.412   0.692   0.934  0.2828 -2.3004 -0.8840
13901SOL    HW253358   8.250   0.702   0.956  0.2894 -0.2605 -1.6774
13902SOL     OW53359   2.714   4.407   4.901 -0.6910  0.2578  0.4759
13902SOL    HW153360   2.789   4.457   4.945 -1.5837  1.1749  0.9766
13902SOL    HW253361   2.726   4.409   4.802  2.0597 -2.9554  0.6640
13903SOL     OW53362   8.933   6.713  -0.002 -0.0644  0.3504  0.3950
13903SOL    HW153363   9.015   6.768  -0.015  0.3837  0.0501  1.8420
13903SOL    HW253364   8.911   6.710   0.095 -0.2708 -1.7656  0.2932
13904SOL     OW53365   8.365   4.847   7.609 -0.5025 -0.0768 -0.0101
13904SOL    HW153366   8.361   4.944   7.587 -0.5492 -0.0790 -0.0116
13904SOL    HW253367   8.287   4.823   7.667  0.2443  0.1678  1.1227
13905SOL     OW53368   9.930   0.735   0.277  0.9126 -0.4251 -0.4673
13905SOL    HW153369   9.833   0.717   0.264  0.4496  2.0434 -0.6999
13905SOL    HW253370   9.945   0.777   0.366  1.5415  0.7989 -1.1361
13906SOL     OW53371   0.196   6.615   1.859 -0.0384 -0.0002  0.0469
13906SOL    HW153372   0.100   6.609   1.831  0.4790 -0.1504 -1.8312
13906SOL    HW253373   0.250   6.549   1.806  1.1326  0.2524  0.9036
13907SOL     OW53374   2.084   7.298   6.020 -0.0993 -0.1588  0.3485
13907SOL    HW153375   1.998   7.342   6.044 -0.5492 -0.7335 -0.2033
13907SOL    HW253376   2.137   7.357   5.959  0.3274  0.6076  1.4520
13908SOL     OW53377   2.739   3.918   3.539 -0.0757  0.1531 -0.3524
13908SOL    HW153378   2.702   3.828   3.564 -0.9645  0.4748 -0.4953
13908SOL    HW253379   2.805   3.906   3.465  0.6839 -0.5131  0.4257
13909SOL     OW53380   7.888   7.449   7.381  0.1157 -0.3184 -0.0239
13909SOL    HW153381   7.961   7.390   7.347  0.9733  1.2562 -0.9822
13909SOL    HW253382   7.920   7.499   7.461  0.7532  1.7260 -1.5082
13910SOL     OW53383   5.541   1.053   5.796 -0.2616  0.5815  0.3541
13910SOL    HW153384   5.494   1.009   5.873  0.0260 -0.4817 -0.0626
13910SOL    HW253385   5.508   1.014   5.710  0.2729  0.9250 -0.0086
13911SOL     OW53386   4.336   0.412   0.391 -0.0245 -0.1231  0.4417
13911SOL    HW153387   4.430   0.379   0.378  0.1397  0.2463  0.6730
13911SOL    HW253388   4.278   0.337   0.423  0.2523 -0.2840  0.5692
13912SOL     OW53389   2.098   6.851   3.243  0.3294 -0.0881 -0.1297
13912SOL    HW153390   2.136   6.779   3.301 -1.3861 -0.4840  0.5398
13912SOL    HW253391   2.041   6.912   3.299  1.4662  1.6083 -0.7484
13913SOL     OW53392   8.795   6.311   4.640 -0.0470 -0.1511  0.1270
13913SOL    HW153393   8.831   6.403   4.654 -1.0924  0.2732  0.0557
13913SOL    HW253394   8.831   6.273   4.555  0.4912  0.1297  0.2264
13914SOL     OW53395   9.491   4.283   1.925 -0.1867 -0.1551 -0.3815
13914SOL    HW153396   9.587   4.260   1.942  0.4489  0.6568 -2.6570
13914SOL    HW253397   9.441   4.287   2.012  2.9562  4.3618  1.4144
13915SOL     OW53398   3.931   0.774   4.648 -0.5456  0.3671 -0.3457
13915SOL    HW153399   3.959   0.779   4.744  1.2496  2.2974 -0.9078
13915SOL    HW253400   3.845   0.822   4.636 -2.0645 -2.0107  0.6971
13916SOL     OW53401   1.950   5.337   5.413  0.2687 -0.5107 -0.6033
13916SOL    HW153402   1.861   5.333   5.459 -0.4937 -0.1027 -2.0066
13916SOL    HW253403   1.964   5.429   5.375  2.0719 -0.0363  1.1137
13917SOL     OW53404   0.678   5.924   1.142 -0.1144 -0.1139  0.2740
13917SOL    HW153405   0.710   5.961   1.229 -1.5946 -0.8360  1.1463
13917SOL    HW253406   0.620   5.992   1.097 -1.0022 -0.5008  0.8189
13918SOL     OW53407   8.054   5.944   7.100  0.5521  0.3656 -0.0733
13918SOL    HW153408   8.106   5.990   7.172  0.3866 -0.3039  0.4764
13918SOL    HW253409   8.035   5.850   7.127  0.1755  0.2169 -0.8376
13919SOL     OW53410   6.105   5.729   1.319  0.4712  1.0220 -0.0350
13919SOL    HW153411   6.103   5.819   1.276 -0.4535  1.0886  0.1365
13919SOL    HW253412   6.071   5.661   1.253  1.6804  0.7166 -0.3502
13920SOL     OW53413   7.058   2.306   4.200  0.0677 -0.3431 -0.3412
13920SOL    HW153414   7.075   2.263   4.112 -0.5122  0.1924 -0.7169
13920SOL    HW253415   7.131   2.282   4.264  0.8261 -0.2074 -1.1592
13921SOL     OW53416   2.445   9.908   3.932 -0.1203  0.0467 -0.6463
13921SOL    HW153417   2.364   9.876   3.884 -0.4351  1.6844 -1.2596
13921SOL    HW253418   2.483   9.834   3.987 -1.8166 -0.8363 -0.6300
13922SOL     OW53419   9.018   7.512   5.210  0.3980  0.0391  0.0960
13922SOL    HW153420   9.025   7.588   5.145 -1.0446  1.0696  1.0872
13922SOL    HW253421   9.065   7.432   5.174  1.8471  1.3698 -1.0375
13923SOL     OW53422   7.066   1.078   7.879 -0.2350 -0.1106  0.2028
13923SOL    HW153423   7.014   1.020   7.942  2.2775 -1.2608  1.2777
13923SOL    HW253424   7.160   1.045   7.873  0.5881  2.3506 -1.1485
13924SOL     OW53425   9.355   0.062   4.858  0.1726 -0.0884  0.5228
13924SOL    HW153426   9.344   0.091   4.953 -1.0601 -2.2961  1.1063
13924SOL    HW253427   9.425  -0.010   4.854  0.9026  0.6696 -0.3859
13925SOL     OW53428   3.402   5.839   8.158 -0.0347 -0.1047 -0.1453
13925SOL    HW153429   3.430   5.906   8.089 -0.5661 -0.5256 -0.7700
13925SOL    HW253430   3.461   5.759   8.152  1.2131  0.6920  1.2369
13926SOL     OW53431   8.315   8.586   3.232 -0.3637  0.5558 -0.7068
13926SOL    HW153432   8.356   8.676   3.245 -0.6386  0.8804 -2.0168
13926SOL    HW253433   8.217   8.591   3.249 -0.3711  0.4869 -0.7237
13927SOL     OW53434   9.771   4.689   0.597 -0.1444 -0.0247  0.2744
13927SOL    HW153435   9.677   4.667   0.622 -0.0781 -1.1165 -0.4209
13927SOL    HW253436   9.772   4.727   0.504  0.5914 -4.3815 -1.5925
13928SOL     OW53437   7.187   8.533   3.084 -0.4181  1.3932 -0.0654
13928SOL    HW153438   7.089   8.553   3.088 -0.4506  1.3302 -0.5711
13928SOL    HW253439   7.200   8.433   3.083 -0.4278  1.3863 -1.7825
13929SOL     OW53440   2.029   8.011   7.931  0.0850 -0.6127 -0.4489
13929SOL    HW153441   1.986   7.988   8.018 -1.8364 -0.3103 -1.2904
13929SOL    HW253442   1.996   8.101   7.900  1.0974 -0.5054 -1.2671
13930SOL     OW53443   4.388   6.760   1.267  0.0594 -0.5703  0.1508
13930SOL    HW153444   4.348   6.679   1.224  0.6342 -0.3375 -0.8409
13930SOL    HW253445   4.448   6.732   1.342  1.0863 -1.1311 -0.8606
13931SOL     OW53446   7.012   8.038   5.353 -0.1245  0.5546 -0.2164
13931SOL    HW153447   6.929   7.988   5.378  1.1373 -1.2059  0.5548
13931SOL    HW253448   7.065   8.058   5.436  1.7814 -1.1641 -0.9779
13932SOL     OW53449   2.665   7.078   2.710  0.1416  0.4463 -0.2356
13932SOL    HW153450   2.712   7.134   2.778  1.0202 -1.5658  0.8467
13932SOL    HW253451   2.571   7.062   2.738  0.3269  0.1218  0.1969
13933SOL     OW53452   3.816   2.637   2.829  0.2476  0.4513 -0.3991
13933SOL    HW153453   3.802   2.638   2.928 -0.4966 -0.8103 -0.4730
13933SOL    HW253454   3.894   2.579   2.807 -1.2027 -1.4402 -0.7033
13934SOL     OW53455   8.653   0.049   1.404  0.4519 -0.0072 -0.1708
13934SOL    HW153456   8.699   0.115   1.464  1.2881 -0.2410 -0.5402
13934SOL    HW253457   8.658  -0.043   1.445 -0.1220  0.0487  0.0249
13935SOL     OW53458   3.300   4.060   1.114 -0.0634 -0.3108  0.4542
13935SOL    HW153459   3.345   4.141   1.078 -0.1968  0.0586  1.1119
13935SOL    HW253460   3.319   3.982   1.054  2.5512 -0.4662  1.4159
13936SOL     OW53461   9.813   6.411   5.824  0.4116  0.6423  0.0197
13936SOL    HW153462   9.908   6.421   5.854  0.2142  0.4196  0.7346
13936SOL    HW253463   9.802   6.321   5.782 -0.1379 -0.4918  2.4910
13937SOL     OW53464   2.422   4.039   4.750 -0.1707 -0.2131 -0.3904
13937SOL    HW153465   2.408   3.967   4.682 -1.1739  0.7086 -1.1862
13937SOL    HW253466   2.520   4.048   4.769  0.1167 -0.5596 -1.6268
13938SOL     OW53467   3.261   0.667   1.642  0.4786  0.0944  0.0848
13938SOL    HW153468   3.208   0.674   1.557  1.0159  0.3823 -0.2299
13938SOL    HW253469   3.228   0.589   1.695  1.1358 -0.9973 -1.0975
13939SOL     OW53470   9.063   8.338   8.084 -0.1690 -0.4506  0.3386
13939SOL    HW153471   8.975   8.375   8.114 -0.3605 -0.3848 -0.3139
13939SOL    HW253472   9.118   8.411   8.044 -0.2323 -0.7074 -0.2152
13940SOL     OW53473   4.952   1.616   1.446  0.2288 -0.0492  0.0390
13940SOL    HW153474   5.016   1.573   1.382 -1.4405 -0.4921 -1.3835
13940SOL    HW253475   4.892   1.678   1.396  0.0056  0.9020  1.4633
13941SOL     OW53476   8.608   5.586   3.851  0.3339  0.8371  0.0471
13941SOL    HW153477   8.688   5.633   3.814  0.3572  0.5065 -0.3269
13941SOL    HW253478   8.628   5.552   3.943  0.5256  1.0112  0.0680
13942SOL     OW53479   8.489   6.539   1.614 -0.3428 -0.4888 -0.7001
13942SOL    HW153480   8.520   6.448   1.589  0.4100 -0.8348  1.3551
13942SOL    HW253481   8.459   6.539   1.710 -0.2620  1.4277 -0.6465
13943SOL     OW53482   9.055   6.541   7.473 -0.6470  0.1574 -0.2315
13943SOL    HW153483   9.134   6.532   7.534 -0.1022  0.4619 -0.8857
13943SOL    HW253484   9.059   6.629   7.426 -1.2816  0.0984 -0.3945
13944SOL     OW53485   1.334   9.125   2.136 -0.3560  0.0165  0.4168
13944SOL    HW153486   1.431   9.137   2.114 -0.0596 -1.1111  1.0802
13944SOL    HW253487   1.281   9.122   2.052  0.3893 -1.0787 -0.0247
13945SOL     OW53488   2.121   9.592   1.073 -0.0866 -0.3436  0.1381
13945SOL    HW153489   2.202   9.535   1.084  0.1316 -0.3831 -1.4495
13945SOL    HW253490   2.040   9.541   1.103  0.3848 -0.5703  1.0488
13946SOL     OW53491   7.127   2.384   5.741  0.3094 -0.3860 -0.1872
13946SOL    HW153492   7.217   2.428   5.741 -0.7325  1.8329 -0.0143
13946SOL    HW253493   7.066   2.433   5.679 -1.6633  0.0529  2.0281
13947SOL     OW53494   0.382   0.388   5.789  0.3063  0.0890  0.0909
13947SOL    HW153495   0.438   0.355   5.865 -0.4910 -1.1673  0.1515
13947SOL    HW253496   0.311   0.450   5.824 -0.1494 -0.6004  0.4054
13948SOL     OW53497   7.621   4.970   1.585  0.3166  0.0395 -0.5026
13948SOL    HW153498   7.524   4.975   1.561  0.4018 -1.0149 -1.0783
13948SOL    HW253499   7.634   4.901   1.656  0.4951  0.9860  0.3987
13949SOL     OW53500   7.571   9.760   7.529 -0.1189  0.2465 -0.1694
13949SOL    HW153501   7.628   9.679   7.520 -0.9142 -0.2783 -0.5741
13949SOL    HW253502   7.579   9.796   7.622 -0.0864 -0.5449  0.1397
13950SOL     OW53503   1.146   5.481   4.901  1.0757 -0.4830 -0.5137
13950SOL    HW153504   1.156   5.425   4.984  3.1542 -1.2145 -1.2370
13950SOL    HW253505   1.219   5.550   4.898  0.2725  0.3566 -1.1192
13951SOL     OW53506   0.176   1.894   3.463  0.0827  0.1196  0.8788
13951SOL    HW153507   0.214   1.860   3.548  0.0713 -1.3575  0.3081
13951SOL    HW253508   0.130   1.982   3.479  2.0391  0.9760  1.9234
13952SOL     OW53509   5.055   8.337   2.727  0.2498 -0.0700  0.2332
13952SOL    HW153510   5.147   8.369   2.751 -0.6317  2.0519  0.8814
13952SOL    HW253511   5.010   8.302   2.809  0.2031 -0.3710  0.0755
13953SOL     OW53512   9.776   5.010   0.113 -0.4405  0.0661  0.1124
13953SOL    HW153513   9.680   4.981   0.118 -0.8518  1.5486  1.3758
13953SOL    HW253514   9.804   5.016   0.017 -1.6922 -0.1685 -0.2781
13954SOL     OW53515   6.502   2.849   3.768 -0.0005  0.2786  0.3375
13954SOL    HW153516   6.430   2.815   3.829 -0.7706 -0.3169 -0.8792
13954SOL    HW253517   6.520   2.781   3.696 -0.7034  1.8869 -1.4181
13955SOL     OW53518   2.846   6.269   0.362 -0.1140  0.1279  0.0955
13955SOL    HW153519   2.837   6.192   0.425  0.0932 -0.6218 -0.7883
13955SOL    HW253520   2.935   6.265   0.316 -0.5890  0.2056 -0.8487
13956SOL     OW53521   8.146   9.008   0.411 -0.1657  0.4056  0.1704
13956SOL    HW153522   8.179   8.947   0.339  0.6322  1.1836 -0.1281
13956SOL    HW253523   8.217   9.018   0.481 -0.0494  1.5044 -0.1039
13957SOL     OW53524   3.271   5.972   1.398 -0.5651 -0.2515 -0.2029
13957SOL    HW153525   3.230   5.886   1.367 -1.6769  0.4034 -0.5781
13957SOL    HW253526   3.285   5.969   1.496  0.6828 -1.3965 -0.4121
13958SOL     OW53527   4.908   9.077   4.501  0.5468 -0.4947  0.2322
13958SOL    HW153528   4.868   9.088   4.592 -0.5073 -1.2756 -0.1308
13958SOL    HW253529   4.906   9.165   4.453 -1.0964 -0.6066  0.0783
13959SOL     OW53530   8.828   2.858   4.268  0.2948 -0.3399  0.2256
13959SOL    HW153531   8.747   2.913   4.250 -0.4067 -1.0389  1.1810
13959SOL    HW253532   8.871   2.831   4.182 -0.4153  0.1307 -0.2797
13960SOL     OW53533   9.046   1.170   7.534 -0.2190  0.4535 -0.2446
13960SOL    HW153534   8.957   1.148   7.493 -0.8917 -0.2165  1.5206
13960SOL    HW253535   9.098   1.086   7.548  0.4940  0.7955 -0.7991
13961SOL     OW53536   3.763   6.830   3.243  0.4034 -0.2126 -0.1061
13961SOL    HW153537   3.757   6.918   3.195 -1.1057 -0.7196 -0.8786
13961SOL    HW253538   3.723   6.838   3.334 -3.2301 -1.0183 -1.5556
13962SOL     OW53539   7.935   1.502   6.764  0.4087 -0.1898 -0.3470
13962SOL    HW153540   7.841   1.529   6.787  0.6325  1.4257 -1.2754
13962SOL    HW253541   7.933   1.414   6.715 -0.4723 -1.0017  1.0835
13963SOL     OW53542   7.786   0.525   7.176 -0.1231  0.0401 -0.4759
13963SOL    HW153543   7.870   0.508   7.124 -0.2856  0.6056 -0.9255
13963SOL    HW253544   7.752   0.616   7.155 -0.5819  0.0008  0.0872
13964SOL     OW53545   0.028   8.809   4.115 -0.0987 -0.3433 -0.1566
13964SOL    HW153546  -0.026   8.861   4.049  0.2494 -1.4459 -1.3196
13964SOL    HW253547   0.123   8.839   4.110 -0.2144  0.1315  0.4175
13965SOL     OW53548   4.028   9.479   7.327 -0.1026 -0.0521 -0.4364
13965SOL    HW153549   4.122   9.462   7.357 -0.6426  0.3276  1.5458
13965SOL    HW253550   3.981   9.536   7.395 -2.1470 -1.2515 -0.7976
13966SOL     OW53551   3.800   5.164   1.149  0.1099 -0.2940  0.1155
13966SOL    HW153552   3.851   5.168   1.235 -1.4504  2.2784  0.9833
13966SOL    HW253553   3.862   5.172   1.072  1.3321 -0.6951  1.0411
13967SOL     OW53554   7.874   3.391   6.708 -0.3477  1.2127  0.0738
13967SOL    HW153555   7.786   3.410   6.665 -0.2905  2.0917  0.3151
13967SOL    HW253556   7.900   3.296   6.693  0.4784  1.9189 -3.2879
13968SOL     OW53557   5.516   2.234   3.356 -0.6990 -0.5246 -0.0241
13968SOL    HW153558   5.490   2.219   3.261 -0.6616 -1.3374  0.0922
13968SOL    HW253559   5.482   2.323   3.386  0.5233  0.3603 -1.2319
13969SOL     OW53560   5.524   5.683   1.762 -0.3277  0.2637  0.1106
13969SOL    HW153561   5.442   5.685   1.705 -0.1421 -0.5903 -0.1858
13969SOL    HW253562   5.554   5.776   1.780 -1.5918  0.5953  0.5398
13970SOL     OW53563   7.143   0.139   5.264  0.2486  0.1906 -0.0638
13970SOL    HW153564   7.160   0.147   5.166 -0.2221  0.0408 -0.1591
13970SOL    HW253565   7.206   0.073   5.303 -0.5386 -0.8473 -0.5330
13971SOL     OW53566   6.997   0.603   2.354 -0.4614 -0.5690 -0.0747
13971SOL    HW153567   6.995   0.703   2.355  2.4375 -0.4789  0.2809
13971SOL    HW253568   6.944   0.568   2.431 -0.7217  0.7181  0.3475
13972SOL     OW53569   0.180   2.136   2.795  0.4268  0.0746 -0.1462
13972SOL    HW153570   0.100   2.098   2.749 -1.2898  2.6962  0.5778
13972SOL    HW253571   0.187   2.098   2.887 -0.5634  0.5557  0.1323
13973SOL     OW53572   6.975   3.756   0.262  0.5616  0.2424 -0.8188
13973SOL    HW153573   6.882   3.757   0.224  0.7001 -0.6489 -1.1906
13973SOL    HW253574   7.014   3.847   0.254 -0.3393  0.6617 -0.5240
13974SOL     OW53575   9.453   3.605   1.683  0.1828 -0.9692 -0.1148
13974SOL    HW153576   9.452   3.562   1.773  0.7932 -0.1483  0.2798
13974SOL    HW253577   9.501   3.692   1.687 -3.1994  0.9998 -0.3604
13975SOL     OW53578   4.533   9.603   6.047  0.0062  0.2975  0.3553
13975SOL    HW153579   4.621   9.566   6.016 -0.2456  0.3823 -0.4605
13975SOL    HW253580   4.467   9.529   6.057  0.2280  0.2052  1.1809
13976SOL     OW53581   8.515   8.346   2.892  0.7257 -0.1377  0.2858
13976SOL    HW153582   8.458   8.425   2.915  1.3948  0.2787  0.5227
13976SOL    HW253583   8.465   8.262   2.915 -0.6544  0.1583 -1.5016
13977SOL     OW53584   9.955   4.668   1.106 -0.2445  0.1660  0.1932
13977SOL    HW153585   9.971   4.666   1.007  0.2949 -1.6113  0.3052
13977SOL    HW253586   9.881   4.605   1.129 -1.8228  2.1387  0.6950
13978SOL     OW53587   9.337   4.573   6.873 -0.1243 -0.3760  0.7427
13978SOL    HW153588   9.404   4.609   6.938  1.0453  0.6901 -1.0037
13978SOL    HW253589   9.262   4.639   6.863  0.9396  0.6446 -0.8206
13979SOL     OW53590   5.473   7.890   4.373 -0.4434  0.2639  0.2598
13979SOL    HW153591   5.483   7.844   4.461  0.8829 -2.9477 -1.4670
13979SOL    HW253592   5.394   7.853   4.325  1.0138 -0.7173 -1.4344
13980SOL     OW53593   3.403   1.355   6.370  0.2205  0.3566 -0.0848
13980SOL    HW153594   3.489   1.405   6.382  0.5692  0.2612 -1.9534
13980SOL    HW253595   3.376   1.313   6.457  1.2224  1.7147  0.9048
13981SOL     OW53596   2.756   6.543   6.719  0.5726 -0.6644  0.0829
13981SOL    HW153597   2.844   6.591   6.710 -0.3016  1.2716  1.5086
13981SOL    HW253598   2.696   6.571   6.643  1.1170 -1.8629 -0.7995
13982SOL     OW53599   9.861   9.827   6.208  0.8207  0.2911  0.1857
13982SOL    HW153600   9.944   9.773   6.218  0.9827  0.7835  1.6743
13982SOL    HW253601   9.783   9.777   6.246  0.9502  1.0278  1.4551
13983SOL     OW53602   1.584   8.763   2.772 -0.5743 -0.0479  0.4567
13983SOL    HW153603   1.564   8.675   2.730  1.2136  0.7123 -2.0652
13983SOL    HW253604   1.499   8.816   2.779 -1.4566 -1.4738  0.9115
13984SOL     OW53605   6.944   1.954   1.811  0.0592  0.1074 -0.3162
13984SOL    HW153606   7.005   1.909   1.876 -1.6323 -0.8616  0.6465
13984SOL    HW253607   6.862   1.898   1.799 -2.2420  3.0076  1.0937
13985SOL     OW53608   1.137   4.093   5.740  0.1718 -0.0837  0.5378
13985SOL    HW153609   1.079   4.172   5.719 -2.1238 -1.6664  0.6763
13985SOL    HW253610   1.196   4.073   5.662 -1.6009 -0.2104 -0.8083
13986SOL     OW53611   1.963   8.585   0.534  0.2808  0.5066  0.3131
13986SOL    HW153612   1.928   8.677   0.513 -2.7756 -0.2395  1.7801
13986SOL    HW253613   1.989   8.580   0.630 -0.2001 -0.3432  0.4044
13987SOL     OW53614   1.512   0.434   7.346 -0.7384 -0.7118 -0.3955
13987SOL    HW153615   1.600   0.387   7.348  0.0293  0.7050  0.8051
13987SOL    HW253616   1.449   0.391   7.411 -1.0055 -1.8368 -1.3851
13988SOL     OW53617   3.003   5.702   2.604 -0.1637 -0.3805  0.3635
13988SOL    HW153618   3.093   5.729   2.571 -1.0293  0.7791 -1.0755
13988SOL    HW253619   2.971   5.623   2.552 -0.5858  0.0893 -0.0939
13989SOL     OW53620   4.417   3.716   3.931  0.1635  0.1920  0.6913
13989SOL    HW153621   4.434   3.629   3.978  2.3847  1.1352  1.7535
13989SOL    HW253622   4.433   3.706   3.833 -3.0854 -1.4470  0.2822
13990SOL     OW53623   0.680   9.561   4.887 -0.1630 -0.1412  0.2124
13990SOL    HW153624   0.749   9.490   4.874 -0.5818 -0.8866  1.9061
13990SOL    HW253625   0.713   9.629   4.952 -0.8165 -0.1992  0.6040
13991SOL     OW53626   3.272   5.625   7.919 -0.2877  0.7449  0.7450
13991SOL    HW153627   3.240   5.543   7.873 -0.0975  0.4655  1.1080
13991SOL    HW253628   3.232   5.706   7.875  0.8648  0.5541 -0.6756
13992SOL     OW53629   1.650   8.091   7.659  0.6247  0.5100 -0.0011
13992SOL    HW153630   1.692   8.074   7.749  1.5477 -0.1388 -0.5493
13992SOL    HW253631   1.718   8.077   7.587 -0.6811 -1.1511 -0.9482
13993SOL     OW53632   5.249   7.708   6.975 -0.5555  0.5705  0.2143
13993SOL    HW153633   5.153   7.737   6.969 -0.1557  1.6519 -1.2939
13993SOL    HW253634   5.278   7.673   6.886  0.3829  0.0269  0.7382
13994SOL     OW53635   1.837   4.132   4.845 -0.6546  0.2944  0.2005
13994SOL    HW153636   1.761   4.184   4.806 -0.1734  0.3590 -0.6497
13994SOL    HW253637   1.811   4.036   4.851 -1.3729  0.5489  1.3440
13995SOL     OW53638   9.987   2.623   7.279 -0.1955 -0.4724  0.1359
13995SOL    HW153639   9.968   2.704   7.335  1.7816  0.1506 -0.0550
13995SOL    HW253640   9.955   2.639   7.186 -2.4215 -1.0547  0.7673
13996SOL     OW53641   2.702   5.580   3.935  0.3051 -0.0930  0.1765
13996SOL    HW153642   2.607   5.553   3.916 -0.0546  0.8165  0.6743
13996SOL    HW253643   2.763   5.504   3.911 -0.4967 -0.4749 -0.6913
13997SOL     OW53644   1.648   9.759   4.925 -0.3847  0.0467  0.5505
13997SOL    HW153645   1.630   9.682   4.986  1.4263  1.2127  2.6388
13997SOL    HW253646   1.671   9.840   4.979  1.9495  0.9670 -1.6947
13998SOL     OW53647   2.067   6.937   7.023 -0.4281 -0.0649 -0.3508
13998SOL    HW153648   1.975   6.903   7.041 -0.3437 -1.3124 -2.1657
13998SOL    HW253649   2.129   6.906   7.095 -1.4130  0.8186  0.9016
13999SOL     OW53650   4.771   9.347   0.441 -0.2135 -0.0300  0.1113
13999SOL    HW153651   4.799   9.274   0.378 -1.0491 -0.8844  0.7199
13999SOL    HW253652   4.787   9.436   0.398  1.2734 -0.5501 -0.4533
14000SOL     OW53653   6.997   3.011   2.771  0.3460 -0.3306 -0.0955
14000SOL    HW153654   6.952   2.970   2.850  1.0284  0.5355  0.7629
14000SOL    HW253655   6.958   2.975   2.687 -0.8473 -0.7687  0.6427
14001SOL     OW53656   8.807   0.106   5.430 -0.2784 -0.8196  0.1022
14001SOL    HW153657   8.803   0.027   5.491 -0.8257 -0.6262  0.3252
14001SOL    HW253658   8.902   0.129   5.410 -0.1254 -2.3809 -1.0726
14002SOL     OW53659   2.245   9.212   7.771  0.1575  0.2194  0.3716
14002SOL    HW153660   2.146   9.193   7.771  0.4428 -1.3340  0.4891
14002SOL    HW253661   2.267   9.273   7.847 -0.6832  0.4037  0.4777
14003SOL     OW53662   2.095   9.691   5.426  0.2594  0.1066 -0.3597
14003SOL    HW153663   2.077   9.747   5.345  0.6093  0.2310 -0.3499
14003SOL    HW253664   2.026   9.619   5.432 -0.5092  0.8528 -0.0874
14004SOL     OW53665   5.274   8.842   3.416 -0.6094 -0.1660  0.1768
14004SOL    HW153666   5.307   8.802   3.330  0.9537  1.2928  0.0718
14004SOL    HW253667   5.269   8.941   3.407 -2.9805 -0.1933  0.9419
14005SOL     OW53668   9.646   4.824   1.220  0.2486  0.4141 -0.5146
14005SOL    HW153669   9.642   4.788   1.127 -1.0467 -0.8920  0.0285
14005SOL    HW253670   9.586   4.903   1.228 -1.1051 -0.6208 -0.3125
14006SOL     OW53671   1.599   5.984   7.761 -0.3300 -0.0162 -0.4074
14006SOL    HW153672   1.607   5.909   7.695  0.5854 -0.0467 -0.2701
14006SOL    HW253673   1.531   6.049   7.729 -0.4491 -0.4239 -1.0026
14007SOL     OW53674   2.715   9.671   1.101  0.2795 -0.2258 -0.2465
14007SOL    HW153675   2.668   9.723   1.172  2.5380  0.5110  0.7355
14007SOL    HW253676   2.778   9.731   1.051  3.0669 -1.9948  1.0283
14008SOL     OW53677   6.501   1.622   2.705  0.6450  0.4948  0.2955
14008SOL    HW153678   6.514   1.713   2.664 -0.9446  0.4506 -0.3415
14008SOL    HW253679   6.406   1.611   2.732  1.0850 -0.5555  1.4614
14009SOL     OW53680   7.030   8.021   6.283 -0.0318 -0.6232  0.3950
14009SOL    HW153681   7.002   8.103   6.233  0.2094  0.2078  1.5944
14009SOL    HW253682   7.125   7.999   6.261 -0.3868 -1.1572 -0.6627
14010SOL     OW53683   2.912   1.104   1.063 -0.3000  0.5524 -0.6249
14010SOL    HW153684   2.830   1.134   1.015  0.9900  1.1826 -2.4768
14010SOL    HW253685   2.960   1.035   1.009  0.0490 -0.3313  0.7609
14011SOL     OW53686   8.373   1.265   0.447  0.0604 -0.0684 -0.2930
14011SOL    HW153687   8.392   1.326   0.524  2.1709 -0.9421 -0.0746
14011SOL    HW253688   8.446   1.198   0.439 -1.0829 -1.1641 -1.9258
14012SOL     OW53689   0.576   8.215   5.513 -0.1746  0.4445 -0.5599
14012SOL    HW153690   0.527   8.294   5.552 -1.3325 -0.5737  0.0912
14012SOL    HW253691   0.584   8.143   5.582  1.2964  0.1725 -1.0069
14013SOL     OW53692   4.534   1.455   0.965 -0.3384 -0.0259  0.1205
14013SOL    HW153693   4.572   1.451   0.873 -0.4841  0.5341  0.0362
14013SOL    HW253694   4.575   1.383   1.021 -0.3886 -0.4844 -0.4307
14014SOL     OW53695   4.778   2.080   2.529 -0.3202  0.4704 -0.4060
14014SOL    HW153696   4.726   2.053   2.449 -1.4454  0.7059  0.2357
14014SOL    HW253697   4.735   2.043   2.611  1.0765 -0.1569  0.0652
14015SOL     OW53698   1.825   0.786   7.466  0.8344  0.5605  0.0717
14015SOL    HW153699   1.919   0.819   7.471  1.4185 -0.5960 -2.6813
14015SOL    HW253700   1.771   0.847   7.407 -0.3146  1.5094  2.0342
14016SOL     OW53701   1.241   4.066   4.845  0.0485  0.1590  0.1330
14016SOL    HW153702   1.271   3.971   4.853 -0.8351  0.0993  3.6475
14016SOL    HW253703   1.320   4.127   4.857  0.1965 -0.0942  0.4554
14017SOL     OW53704   1.259   5.127   1.549  0.3834 -0.2442  0.0651
14017SOL    HW153705   1.197   5.193   1.507 -0.6853 -1.3638 -0.1456
14017SOL    HW253706   1.250   5.039   1.502  2.3658 -0.3506 -0.1743
14018SOL     OW53707   1.076   0.373   4.706 -0.2147  0.3665 -0.5967
14018SOL    HW153708   1.051   0.467   4.682  0.3362  0.6966  0.1117
14018SOL    HW253709   1.000   0.312   4.682 -0.2901  0.8878 -1.7318
14019SOL     OW53710   9.865   0.955   1.006  0.1110  0.2737  0.1564
14019SOL    HW153711   9.797   0.916   0.943  0.8285  0.0716 -0.5086
14019SOL    HW253712   9.826   1.036   1.050 -0.2651  0.6731 -0.8686
14020SOL     OW53713   4.210   3.491   7.940 -0.1466  0.4651  0.4844
14020SOL    HW153714   4.170   3.433   7.870  1.1082 -0.5234  0.5608
14020SOL    HW253715   4.197   3.587   7.916  0.5973  0.1355 -1.3111
14021SOL     OW53716   9.515   4.031   7.639 -0.6943 -0.4928 -0.2070
14021SOL    HW153717   9.419   4.052   7.656 -0.9247 -2.0131  0.4391
14021SOL    HW253718   9.521   3.960   7.568  0.0366  1.3011 -1.9630
14022SOL     OW53719   4.209   1.692   4.408  0.0018 -0.8728 -0.3901
14022SOL    HW153720   4.214   1.735   4.499 -0.2311 -0.3373 -0.6269
14022SOL    HW253721   4.142   1.618   4.410  2.0484 -2.7312  0.6288
14023SOL     OW53722   4.466   8.352   1.805  0.5073 -0.2317 -0.2807
14023SOL    HW153723   4.532   8.279   1.788 -0.4163 -0.9202 -0.9381
14023SOL    HW253724   4.373   8.319   1.788  0.1065  1.2364 -1.0803
14024SOL     OW53725   3.796   3.634   5.475 -0.2549 -0.1802  0.4790
14024SOL    HW153726   3.832   3.673   5.559  0.2777  0.7378 -0.1612
14024SOL    HW253727   3.721   3.691   5.441  0.3807  0.1831 -0.3416
14025SOL     OW53728   7.465   3.740   2.364 -0.2040 -0.1472  0.0438
14025SOL    HW153729   7.515   3.655   2.353  1.9298  0.7349  2.3341
14025SOL    HW253730   7.369   3.720   2.386  0.2970 -1.9625  0.6660
14026SOL     OW53731   8.344   7.379   5.967  0.2394  0.4273  0.3856
14026SOL    HW153732   8.428   7.380   5.914  0.3787  1.0313  0.6254
14026SOL    HW253733   8.363   7.402   6.062 -0.6593  3.8462 -0.2186
14027SOL     OW53734   7.927   1.045   0.886 -0.1399 -0.2377  0.1910
14027SOL    HW153735   7.943   1.083   0.977 -0.6591 -0.0439  0.2057
14027SOL    HW253736   7.998   1.077   0.824  1.0778 -1.5951  0.8666
14028SOL     OW53737   3.429   7.736   6.883  0.0032 -0.3048  0.2947
14028SOL    HW153738   3.455   7.813   6.942 -1.3905 -0.3595  0.9737
14028SOL    HW253739   3.338   7.703   6.908 -0.8924  0.0979 -2.2960
14029SOL     OW53740   8.586   8.998   5.739 -1.0279 -0.2705 -0.1790
14029SOL    HW153741   8.682   8.975   5.725 -1.0588 -0.9326  0.6253
14029SOL    HW253742   8.578   9.073   5.805 -0.9987  0.9435 -1.5335
14030SOL     OW53743   0.102   9.084   2.587 -0.1871 -0.5805 -0.0884
14030SOL    HW153744   0.136   9.104   2.495  0.6979 -1.4660  0.0427
14030SOL    HW253745   0.013   9.038   2.580 -1.2956  1.5649 -0.4301
14031SOL     OW53746   1.409   3.067   3.905  0.4109 -0.3119 -0.5038
14031SOL    HW153747   1.332   3.004   3.902  0.0425  0.1285 -0.4863
14031SOL    HW253748   1.400   3.126   3.985  1.9446 -1.7228  0.7259
14032SOL     OW53749   3.497   7.533   6.725 -0.1439  0.1629 -0.3104
14032SOL    HW153750   3.504   7.447   6.775  2.2078  0.0459 -0.7439
14032SOL    HW253751   3.468   7.605   6.787 -2.3988 -0.9795 -0.0028
14033SOL     OW53752   0.099   0.466   4.117  0.1472  0.6386  0.3501
14033SOL    HW153753   0.103   0.493   4.021  0.2667  0.7691  0.3925
14033SOL    HW253754   0.019   0.509   4.160 -2.3772 -2.7639 -0.7424
14034SOL     OW53755   3.586   9.023   5.846  0.5269  0.1158  0.3489
14034SOL    HW153756   3.650   8.947   5.834  0.2160 -0.1064  0.1175
14034SOL    HW253757   3.582   9.048   5.942 -0.1097 -0.7947  0.5601
14035SOL     OW53758   8.170   8.544   0.777  0.1854 -0.4418 -0.0400
14035SOL    HW153759   8.163   8.447   0.753  1.3402 -0.5768  0.1413
14035SOL    HW253760   8.150   8.600   0.696  1.1106 -0.8623 -0.5721
14036SOL     OW53761   7.397   1.656   2.169  0.0466  0.1526  0.0314
14036SOL    HW153762   7.388   1.658   2.069  1.7073 -0.2270 -0.1416
14036SOL    HW253763   7.448   1.737   2.199 -0.1926  0.1149  0.5307
14037SOL     OW53764   1.685   1.192   6.985  0.1407 -0.6504  0.1459
14037SOL    HW153765   1.643   1.278   6.954 -0.3444 -0.5194  1.1541
14037SOL    HW253766   1.777   1.184   6.945  0.5290  0.7501  0.7090
14038SOL     OW53767   7.694   1.761   3.330 -0.1053 -0.1797 -0.3341
14038SOL    HW153768   7.640   1.776   3.247 -0.4172 -0.0497 -0.1076
14038SOL    HW253769   7.791   1.780   3.311  0.0418 -1.5259 -1.0613
14039SOL     OW53770   2.379   7.324   1.735 -0.3550  0.5358  0.0810
14039SOL    HW153771   2.362   7.229   1.711  0.6772  0.8572 -2.0183
14039SOL    HW253772   2.323   7.383   1.678  1.1542  1.2870 -0.6464
14040SOL     OW53773   3.370   4.438   1.777 -0.6237  0.3014 -0.2925
14040SOL    HW153774   3.450   4.488   1.745 -1.0483  0.8683 -0.4836
14040SOL    HW253775   3.381   4.416   1.874 -0.3276  0.5633 -0.2644
14041SOL     OW53776   6.584   2.717   3.528 -0.7588 -0.4661 -0.7976
14041SOL    HW153777   6.514   2.708   3.457 -0.4498  0.2389 -1.1926
14041SOL    HW253778   6.653   2.782   3.499  0.5625 -1.8435 -0.7879
14042SOL     OW53779   2.133   8.675   1.308  0.1174  0.0516  0.8488
14042SOL    HW153780   2.050   8.700   1.357  1.2353 -0.9074  3.3564
14042SOL    HW253781   2.211   8.721   1.350  0.8335  1.4986 -1.9095
14043SOL     OW53782   5.772   4.702   0.462  0.0458  0.0768 -0.7112
14043SOL    HW153783   5.813   4.755   0.388 -0.3920  0.5572 -0.6156
14043SOL    HW253784   5.778   4.754   0.547  1.8543 -1.0817 -0.1052
14044SOL     OW53785   8.683   9.485   0.969 -0.3283  0.4557 -0.0510
14044SOL    HW153786   8.651   9.396   1.004 -0.3417 -0.2943 -1.9401
14044SOL    HW253787   8.644   9.502   0.879  1.3820  1.3890 -0.6460
14045SOL     OW53788   8.278   6.744   1.850 -0.2712  0.1052  0.1762
14045SOL    HW153789   8.360   6.688   1.859 -0.7877 -0.5003  1.2130
14045SOL    HW253790   8.197   6.688   1.870 -0.7748  1.2672  1.4838
14046SOL     OW53791   0.899   1.669   7.983 -0.6152  0.0637 -0.3034
14046SOL    HW153792   0.977   1.660   7.922  1.0116  0.6572  1.6311
14046SOL    HW253793   0.864   1.578   8.006  1.2750 -0.3647  1.0016
14047SOL     OW53794   9.645   7.689   6.842  0.2003  0.0078  0.3647
14047SOL    HW153795   9.665   7.594   6.866 -0.9912 -0.3545 -0.0180
14047SOL    HW253796   9.684   7.710   6.753  0.2710 -0.1980  0.3482
14048SOL     OW53797   8.841   1.025   6.549  0.1699 -0.0494  0.6406
14048SOL    HW153798   8.786   1.023   6.633 -0.7248  0.5445  0.0753
14048SOL    HW253799   8.909   0.952   6.553 -1.3413 -1.5021  0.8995
14049SOL     OW53800   0.299   3.973   5.605  0.3888  0.0101 -0.2412
14049SOL    HW153801   0.287   4.064   5.643  0.3172  0.4046 -1.1990
14049SOL    HW253802   0.259   3.905   5.667  0.3796  0.6261  0.4361
14050SOL     OW53803   1.032   3.309   2.122 -0.1572  0.7973 -0.2286
14050SOL    HW153804   1.074   3.241   2.182 -0.8287 -0.2682 -0.9459
14050SOL    HW253805   0.935   3.319   2.146  0.1823  2.3268  0.5997
14051SOL     OW53806   8.068   6.876   1.762  0.2515  0.4398 -0.6153
14051SOL    HW153807   8.151   6.826   1.789 -0.7504 -1.2874 -0.6640
14051SOL    HW253808   8.058   6.873   1.663  0.2182  0.8043 -0.6228
14052SOL     OW53809   7.917   6.628   1.987  0.7126  1.0988 -0.2123
14052SOL    HW153810   7.818   6.631   1.972  0.6434  2.4686  0.4516
14052SOL    HW253811   7.961   6.577   1.913 -0.8047 -2.2404  1.0650
14053SOL     OW53812   1.720   5.661   6.638 -0.1883  0.5861  0.0819
14053SOL    HW153813   1.721   5.759   6.658 -1.2949  0.9327 -1.4569
14053SOL    HW253814   1.790   5.639   6.571  0.7704  0.1373  1.2273
14054SOL     OW53815   0.200   0.388   7.859 -0.4140  0.5208 -0.2254
14054SOL    HW153816   0.207   0.454   7.784  2.0702  0.0741 -0.4194
14054SOL    HW253817   0.280   0.396   7.917  0.2464 -2.7985 -0.6290
14055SOL     OW53818   4.389   5.950   0.583 -0.3151 -0.2791 -0.5532
14055SOL    HW153819   4.413   6.038   0.540 -2.6863  0.7026  0.0938
14055SOL    HW253820   4.318   5.905   0.529 -0.3281 -1.0208  0.0733
14056SOL     OW53821   1.980   4.099   6.901 -0.0721 -0.0615 -0.1946
14056SOL    HW153822   1.997   4.196   6.886 -3.9034  0.7441  0.0790
14056SOL    HW253823   1.940   4.086   6.992 -0.6819 -1.7512 -0.6879
14057SOL     OW53824   8.943   5.158   2.508  0.5219  0.0546  0.6626
14057SOL    HW153825   8.961   5.068   2.548  1.1371 -0.0631  0.1392
14057SOL    HW253826   8.854   5.191   2.538 -0.7299 -1.7476 -0.9482
14058SOL     OW53827   6.956   8.672   6.300 -0.3931  0.3072  0.2144
14058SOL    HW153828   6.930   8.647   6.393  0.2770  0.5953  0.4845
14058SOL    HW253829   7.056   8.682   6.295 -0.4383  0.4403 -0.4969
14059SOL     OW53830   7.013   0.885   5.921 -0.1362  0.0275  0.0947
14059SOL    HW153831   6.941   0.840   5.868  1.1888 -0.5141 -1.3035
14059SOL    HW253832   6.972   0.949   5.986 -2.0469 -2.9328  1.9178
14060SOL     OW53833   4.486   4.066   5.817 -0.3228  0.1584 -0.0981
14060SOL    HW153834   4.483   3.966   5.810 -0.8029  0.1667  0.0158
14060SOL    HW253835   4.500   4.092   5.913 -2.5507  0.2512  0.2233
14061SOL     OW53836   1.450   0.047   6.409 -0.1132 -0.3052 -0.1686
14061SOL    HW153837   1.471   0.124   6.349  2.7666 -1.6234 -0.9169
14061SOL    HW253838   1.368   0.000   6.376 -1.0469  1.5632 -0.5341
14062SOL     OW53839   1.370   3.645   0.541 -0.2609  0.5979  0.0708
14062SOL    HW153840   1.359   3.716   0.611  2.6492  0.8079  0.3916
14062SOL    HW253841   1.436   3.677   0.472 -1.4843 -0.4618 -1.6192
14063SOL     OW53842   2.765   5.570   3.645  0.0354  0.1106  0.1427
14063SOL    HW153843   2.745   5.577   3.743 -2.0954 -0.7893 -0.1914
14063SOL    HW253844   2.830   5.496   3.630 -1.9641 -1.8054  0.6257
14064SOL     OW53845   2.035   6.701   7.522  0.0037  0.1655 -0.3307
14064SOL    HW153846   1.957   6.672   7.466 -0.5873  0.5704  0.2726
14064SOL    HW253847   2.116   6.646   7.498 -0.9078 -1.4839  0.2583
14065SOL     OW53848   2.407   7.047   7.122  0.0447 -0.5502 -0.4042
14065SOL    HW153849   2.422   7.070   7.026  1.9608  0.1836  0.0508
14065SOL    HW253850   2.326   7.094   7.156  0.6544  1.0121 -1.0553
14066SOL     OW53851   8.202   3.434   2.898 -0.1634 -0.1600  0.5125
14066SOL    HW153852   8.236   3.375   2.972  1.2618 -0.4058 -0.3315
14066SOL    HW253853   8.238   3.402   2.811 -2.7963 -0.6101 -0.4615
14067SOL     OW53854   7.134   0.623   6.765 -0.3317  0.1480  0.1199
14067SOL    HW153855   7.120   0.622   6.666  0.0391 -0.7101  0.0706
14067SOL    HW253856   7.049   0.597   6.810 -0.4660  0.4189  0.0284
14068SOL     OW53857   8.057   9.827   3.355 -0.0051  0.1272 -0.0105
14068SOL    HW153858   8.030   9.779   3.438  1.0970 -0.9606 -0.2784
14068SOL    HW253859   7.982   9.824   3.289 -1.2019  1.7274  1.2464
14069SOL     OW53860   3.907   6.667   1.436  0.6717 -0.1375 -0.4602
14069SOL    HW153861   3.947   6.578   1.460  0.5680  0.0178  0.2856
14069SOL    HW253862   3.922   6.732   1.510 -2.0663 -0.4258  0.3886
14070SOL     OW53863   7.539   0.487   2.549 -0.5659 -0.1355 -0.2937
14070SOL    HW153864   7.531   0.395   2.510 -0.6692  0.9202 -2.8645
14070SOL    HW253865   7.453   0.536   2.538  0.2045  1.0706 -1.1340
14071SOL     OW53866   0.925   1.166   5.601 -0.3549  0.3029  0.0871
14071SOL    HW153867   1.022   1.146   5.612 -0.1368  1.3952  0.2863
14071SOL    HW253868   0.907   1.191   5.506 -0.4810 -0.1442 -0.0035
14072SOL     OW53869   0.902   2.007   4.179  0.0451 -1.0180 -0.4670
14072SOL    HW153870   0.813   2.016   4.133 -0.1077  4.6887  0.4797
14072SOL    HW253871   0.888   1.987   4.276 -0.4041  1.5315  0.0382
14073SOL     OW53872   2.596   2.838   5.183 -0.0078 -0.8501  0.3437
14073SOL    HW153873   2.601   2.847   5.282  0.6387 -0.3486  0.2641
14073SOL    HW253874   2.553   2.751   5.160  0.8498 -1.4719  1.0622
14074SOL     OW53875   2.640   3.143   3.423 -0.3359 -0.4299  0.1750
14074SOL    HW153876   2.650   3.051   3.383  0.4473 -0.3692  0.2277
14074SOL    HW253877   2.728   3.173   3.458 -0.6091  0.3278  0.2028
14075SOL     OW53878   7.392   3.231   0.068  0.5551 -0.5109  1.0119
14075SOL    HW153879   7.306   3.188   0.038  0.3674  0.8624 -0.4608
14075SOL    HW253880   7.388   3.247   0.166 -0.9674 -0.2829  0.9269
14076SOL     OW53881   1.405   6.931   2.698 -0.0027 -0.3023 -0.5450
14076SOL    HW153882   1.375   6.841   2.732  2.3330 -0.4004  1.3598
14076SOL    HW253883   1.390   6.935   2.600  0.2379 -2.9445 -0.7450
14077SOL     OW53884   1.049   1.243   4.789  0.1760  0.0810 -0.1396
14077SOL    HW153885   0.955   1.273   4.807  0.7414  0.3619  2.5810
14077SOL    HW253886   1.104   1.321   4.758  0.1538  0.5293  0.9264
14078SOL     OW53887   9.318   4.369   2.418  0.1761 -0.5741  0.4866
14078SOL    HW153888   9.367   4.297   2.467  1.9661  0.6220  0.4954
14078SOL    HW253889   9.230   4.386   2.463  0.4185 -1.6624  1.3970
14079SOL     OW53890   9.832   9.377   6.172  0.5328  0.0808  0.0665
14079SOL    HW153891   9.892   9.415   6.242  0.7485 -0.1621  0.0140
14079SOL    HW253892   9.817   9.280   6.190 -0.1291  0.2204  0.2761
14080SOL     OW53893   6.949   9.429   2.859 -0.4064  0.0051 -0.6728
14080SOL    HW153894   6.883   9.369   2.905 -0.5025 -0.5354 -1.4984
14080SOL    HW253895   7.019   9.373   2.815 -0.6537  0.4875 -1.6902
14081SOL     OW53896   3.366   5.966   7.720  0.1141 -0.4077 -0.4214
14081SOL    HW153897   3.407   5.875   7.720  0.6239 -0.2000  1.0656
14081SOL    HW253898   3.269   5.959   7.743  0.3503 -0.5043  0.5563
14082SOL     OW53899   1.861   7.407   5.030 -0.2118 -0.2720  0.3071
14082SOL    HW153900   1.916   7.487   5.053 -0.5139 -0.1251  0.5190
14082SOL    HW253901   1.915   7.324   5.044  0.0631 -0.1106  0.1956
14083SOL     OW53902   3.307   3.665   0.449 -0.0724  0.0642  0.3757
14083SOL    HW153903   3.308   3.570   0.481 -2.1483 -0.1920 -0.2329
14083SOL    HW253904   3.279   3.724   0.524 -0.1598  0.0262  0.3737
14084SOL     OW53905   9.331   7.359   2.278  0.1957 -0.3351 -0.2184
14084SOL    HW153906   9.389   7.278   2.281  0.5879 -0.1016 -1.3308
14084SOL    HW253907   9.309   7.389   2.371  0.3041 -1.5318  0.1900
14085SOL     OW53908   9.491   8.572   1.252 -0.3942 -0.1770 -0.0462
14085SOL    HW153909   9.437   8.599   1.172  0.8363  0.4277 -0.6878
14085SOL    HW253910   9.431   8.558   1.330 -1.6338 -0.9184 -1.1192
14086SOL     OW53911   9.493   1.830   3.405  0.4329  0.0761  0.2700
14086SOL    HW153912   9.457   1.924   3.404  0.2027  0.0135  1.5979
14086SOL    HW253913   9.558   1.820   3.480 -0.2677 -1.0846  0.7422
14087SOL     OW53914   8.207   5.148   0.700  0.0742 -0.3500  0.3748
14087SOL    HW153915   8.139   5.200   0.752 -1.5549 -1.9698 -0.0671
14087SOL    HW253916   8.176   5.053   0.692  1.8029 -0.8176 -0.9171
14088SOL     OW53917   9.779   2.247   1.810  0.3685  0.2179  0.1255
14088SOL    HW153918   9.768   2.337   1.768  0.5992 -0.4983 -1.4793
14088SOL    HW253919   9.770   2.176   1.741 -2.5033 -1.1464  1.7813
14089SOL     OW53920   5.184   8.621   3.755 -0.4105  0.3412 -0.3028
14089SOL    HW153921   5.195   8.672   3.670 -2.1284 -0.8036 -1.2448
14089SOL    HW253922   5.156   8.683   3.828  1.8793  1.4760 -0.3500
14090SOL     OW53923   8.913   2.043   0.084 -0.0795 -0.1515 -0.5153
14090SOL    HW153924   8.921   2.090  -0.004 -2.0156  1.8563  0.3363
14090SOL    HW253925   8.845   2.090   0.141 -3.1286 -4.7306 -0.1041
14091SOL     OW53926   0.621   2.022   4.527 -0.0850  0.1379 -0.3955
14091SOL    HW153927   0.715   1.989   4.530 -0.2849 -0.5090 -1.0394
14091SOL    HW253928   0.618   2.111   4.483  0.2191  0.1150 -0.4635
14092SOL     OW53929   0.648   3.541   3.540 -0.7867  0.6945  0.6252
14092SOL    HW153930   0.577   3.609   3.524 -0.3611  0.9187 -0.2863
14092SOL    HW253931   0.735   3.572   3.502 -0.7499 -0.6736 -0.4414
14093SOL     OW53932   3.225   7.461   3.939 -0.1639 -0.0637 -0.3910
14093SOL    HW153933   3.193   7.483   3.847  0.1246  2.8747  0.1410
14093SOL    HW253934   3.154   7.486   4.006  1.5033  2.5323  0.4860
14094SOL     OW53935   5.972   0.244   3.989  0.0603  0.2980  0.1218
14094SOL    HW153936   5.989   0.151   4.022  0.0152  0.0993 -0.4004
14094SOL    HW253937   5.902   0.287   4.045  1.8077  0.8886  1.8904
14095SOL     OW53938   2.759   2.644   1.882  0.0190 -0.3962 -0.1373
14095SOL    HW153939   2.852   2.606   1.877 -0.4208 -1.4982  0.0066
14095SOL    HW253940   2.737   2.689   1.795  0.8945  0.3750  0.0244
14096SOL     OW53941   4.621   3.024   0.129 -0.6864  0.5378  0.1544
14096SOL    HW153942   4.617   3.059   0.036  1.0289  0.8883  0.1972
14096SOL    HW253943   4.680   2.943   0.132 -1.6829 -0.1882  0.7348
14097SOL     OW53944   1.215   2.626   3.846 -0.4174 -0.1955  0.1202
14097SOL    HW153945   1.200   2.588   3.754  1.5260 -1.4327  0.2645
14097SOL    HW253946   1.248   2.553   3.906 -0.6491  0.8503  1.5282
14098SOL     OW53947   0.627   5.720   6.584  0.0559 -0.3390  0.2596
14098SOL    HW153948   0.681   5.652   6.633  0.8647  0.2643  0.2402
14098SOL    HW253949   0.635   5.808   6.631  0.2159  0.0685 -0.5130
14099SOL     OW53950   3.414   5.193   3.403 -0.3212 -0.4953  0.3342
14099SOL    HW153951   3.493   5.139   3.377 -0.0695  1.3388 -3.0489
14099SOL    HW253952   3.331   5.153   3.363 -0.4612  0.1978 -0.0853
14100SOL     OW53953   7.527   1.625   3.822 -0.1663  0.0320 -0.6101
14100SOL    HW153954   7.607   1.600   3.877  0.4014  1.2066 -0.8889
14100SOL    HW253955   7.557   1.661   3.734 -1.0672 -1.7723 -1.6919
14101SOL     OW53956   0.899   3.005   2.311 -0.3138  0.2574  0.0305
14101SOL    HW153957   0.884   2.925   2.253  0.8910  0.0458 -0.0025
14101SOL    HW253958   0.862   3.086   2.267 -2.5473 -0.4415  0.5553
14102SOL     OW53959   9.704   2.704   7.728 -0.1319 -0.1159 -0.3254
14102SOL    HW153960   9.731   2.799   7.742  0.1544 -0.4420  1.4058
14102SOL    HW253961   9.769   2.659   7.666  0.0642  0.6489 -0.6762
14103SOL     OW53962   0.305   8.077   4.037  0.0318 -0.7307 -0.0042
14103SOL    HW153963   0.265   8.068   3.946  1.0541  0.4933 -0.5971
14103SOL    HW253964   0.390   8.130   4.031  0.0964 -0.6105  1.6611
14104SOL     OW53965   4.195   7.193   2.330  0.4311  0.2666  0.0029
14104SOL    HW153966   4.220   7.096   2.330  0.3317  0.2335  1.1836
14104SOL    HW253967   4.276   7.247   2.309  0.0100 -0.1642 -2.9169
14105SOL     OW53968   8.346   7.939   4.904  0.6755  0.4051 -0.0023
14105SOL    HW153969   8.349   7.981   4.813  0.7970  1.8145  0.6418
14105SOL    HW253970   8.422   7.975   4.959  1.5961 -1.6892  0.1286
14106SOL     OW53971   7.855   0.629   3.723 -0.0255  0.2765  0.1049
14106SOL    HW153972   7.923   0.618   3.651  1.3799  2.0175  1.1253
14106SOL    HW253973   7.779   0.684   3.689 -0.2251 -0.4069 -0.5732
14107SOL     OW53974   6.609   8.849   3.701 -0.3383  0.1664  0.4362
14107SOL    HW153975   6.693   8.832   3.649  0.3800  0.5710  1.4683
14107SOL    HW253976   6.624   8.921   3.768 -1.3637 -0.1334  1.0073
14108SOL     OW53977   0.019   5.980   6.517 -0.4591 -0.2186  0.0432
14108SOL    HW153978   0.040   6.031   6.600  1.4683 -0.9220  0.0047
14108SOL    HW253979   0.049   5.885   6.527  0.9256 -0.0171 -1.9074
14109SOL     OW53980   4.211   6.311   1.750 -0.4494 -0.1032 -0.5848
14109SOL    HW153981   4.208   6.411   1.742 -2.0991 -0.2746 -2.3511
14109SOL    HW253982   4.170   6.270   1.669  0.5173 -2.2407 -0.0155
14110SOL     OW53983   4.032   9.844   2.044  0.2977  0.2507 -0.0683
14110SOL    HW153984   4.091   9.800   2.112  0.7370  1.3492  0.2784
14110SOL    HW253985   4.048   9.943   2.046 -0.0740  0.3370 -1.4094
14111SOL     OW53986   2.820   3.043   0.672 -0.2288  0.7021  0.2469
14111SOL    HW153987   2.878   2.986   0.730  0.9319  2.3194  0.7324
14111SOL    HW253988   2.851   3.138   0.678  0.0224  0.9113 -3.1192
14112SOL     OW53989   1.172   6.447   6.117 -0.2783  0.1540 -0.0414
14112SOL    HW153990   1.180   6.349   6.101  0.6772  0.4071 -1.1415
14112SOL    HW253991   1.238   6.496   6.060 -0.6069  1.4232  0.6501
14113SOL     OW53992   8.196   2.741   3.452 -0.0390  0.6559  0.1453
14113SOL    HW153993   8.180   2.644   3.468 -0.2570  0.6048 -0.4048
14113SOL    HW253994   8.109   2.787   3.433  0.1174  0.8781 -0.0347
14114SOL     OW53995   8.896   0.869   3.022 -0.3565  0.0917  0.0888
14114SOL    HW153996   8.963   0.899   3.089 -0.7847 -0.4257  0.7540
14114SOL    HW253997   8.936   0.874   2.930  0.4933  0.0537  0.4502
14115SOL     OW53998   5.210   1.150   2.610  0.4118 -0.2610 -0.3391
14115SOL    HW153999   5.151   1.206   2.668  0.8665  0.8965 -0.9730
14115SOL    HW254000   5.229   1.199   2.525  2.1864 -0.6743 -0.1953
14116SOL     OW54001   6.959   2.869   3.985  0.0771 -0.0534  0.0316
14116SOL    HW154002   7.051   2.864   3.948  0.4340 -0.4927  0.9454
14116SOL    HW254003   6.894   2.833   3.918  0.3703  1.7426 -1.2397
14117SOL     OW54004   3.762   9.830   6.101 -0.4456  1.0011 -0.2696
14117SOL    HW154005   3.696   9.905   6.091 -1.1280  0.2475 -1.5401
14117SOL    HW254006   3.774   9.785   6.012  0.7709  0.2867  0.2569
14118SOL     OW54007   2.774   7.699   3.630  0.5181  0.1109 -0.6538
14118SOL    HW154008   2.763   7.765   3.704 -0.8515  0.9859 -1.6219
14118SOL    HW254009   2.801   7.611   3.668  1.9456  1.0979  0.6917
14119SOL     OW54010   4.341   9.937   1.361 -0.0839  0.3393  0.4710
14119SOL    HW154011   4.286   9.994   1.421  0.1410 -0.1008  1.1005
14119SOL    HW254012   4.322   9.840   1.380 -0.8975  0.1878 -0.9827
14120SOL     OW54013   4.208   2.250   2.986  0.1482 -0.0813 -0.3244
14120SOL    HW154014   4.117   2.223   3.014  1.2596 -1.8063  1.7623
14120SOL    HW254015   4.231   2.206   2.899 -0.5558 -0.5731 -0.2625
14121SOL     OW54016   2.750   0.649   5.718 -0.1600 -0.3472  0.5361
14121SOL    HW154017   2.819   0.694   5.774 -0.2743  1.5262 -0.8258
14121SOL    HW254018   2.661   0.692   5.733 -0.2041  0.1473 -1.0427
14122SOL     OW54019   5.021   9.768   1.373  0.0429 -0.0755 -0.3423
14122SOL    HW154020   5.027   9.676   1.333 -0.6177  0.3832 -1.5023
14122SOL    HW254021   4.925   9.793   1.385  0.2231  0.3640  0.2159
14123SOL     OW54022   7.756   0.685   5.641 -0.3544 -0.4840  0.0275
14123SOL    HW154023   7.853   0.675   5.616 -0.5293  0.1202 -0.8929
14123SOL    HW254024   7.737   0.780   5.662 -0.7421 -0.6161  0.2807
14124SOL     OW54025   3.608   3.556   4.882 -0.9775 -0.1167 -0.1235
14124SOL    HW154026   3.667   3.636   4.878  0.2033 -0.9130  0.7532
14124SOL    HW254027   3.538   3.569   4.953  1.6018 -1.3711  2.7854
14125SOL     OW54028   2.092   8.520   1.762 -0.0821 -0.5679  0.0416
14125SOL    HW154029   2.134   8.597   1.811 -0.4336 -0.1521 -0.3054
14125SOL    HW254030   2.016   8.554   1.707 -2.0024 -1.5630  2.0078
14126SOL     OW54031   0.633   3.219   3.297  0.1240 -0.1248  0.2885
14126SOL    HW154032   0.541   3.205   3.335 -0.6315  0.8905 -1.1114
14126SOL    HW254033   0.701   3.189   3.364 -1.1464  1.6167  2.4623
14127SOL     OW54034   8.992   8.630   0.450 -0.6062 -0.6233  0.6268
14127SOL    HW154035   8.944   8.692   0.512  1.0696  0.2333  1.1181
14127SOL    HW254036   9.084   8.612   0.486  0.2066 -0.5377 -1.3386
14128SOL     OW54037   9.238   1.397   5.353  0.1890  0.4123 -0.5158
14128SOL    HW154038   9.305   1.330   5.320  0.0939 -0.5006  1.0828
14128SOL    HW254039   9.158   1.396   5.293  0.4452 -0.4942 -0.8572
14129SOL     OW54040   3.839   9.393   1.424  1.1147 -0.0696 -0.3859
14129SOL    HW154041   3.796   9.475   1.461  0.7205 -1.0313  1.3280
14129SOL    HW254042   3.794   9.367   1.338 -0.3844  0.0845  0.3452
14130SOL     OW54043   3.025   4.418   6.507 -0.0661 -0.7318 -0.5237
14130SOL    HW154044   2.969   4.340   6.536 -1.5537  0.4675 -0.0826
14130SOL    HW254045   3.085   4.446   6.581  0.2651 -1.2688 -0.5859
14131SOL     OW54046   4.199   1.911   6.790 -0.1658 -0.2061 -0.2974
14131SOL    HW154047   4.202   2.006   6.823 -2.1890  0.5464 -2.1531
14131SOL    HW254048   4.279   1.893   6.733  0.0347  0.5137 -0.2475
14132SOL     OW54049   0.392   4.198   3.784 -0.3807 -0.4335 -0.1761
14132SOL    HW154050   0.394   4.298   3.772 -1.2246 -0.5067 -0.9453
14132SOL    HW254051   0.476   4.169   3.829 -0.6888  0.7809  1.2530
14133SOL     OW54052   1.931   5.364   4.023 -0.1352  0.0947  0.3723
14133SOL    HW154053   1.881   5.445   4.053  0.0999  0.5431 -0.4348
14133SOL    HW254054   1.976   5.383   3.936 -0.3134 -0.9913  0.0343
14134SOL     OW54055   4.454   8.389   7.591  0.5415 -0.4629  0.0002
14134SOL    HW154056   4.417   8.482   7.590  1.3712 -0.1269  0.2814
14134SOL    HW254057   4.410   8.336   7.664 -0.7066 -0.6216 -0.8372
14135SOL     OW54058   3.261   6.587   6.595  0.3829  0.1076 -0.0348
14135SOL    HW154059   3.358   6.565   6.607  0.3632 -0.1941 -0.4126
14135SOL    HW254060   3.253   6.672   6.543  0.4460  0.2556  0.1949
14136SOL     OW54061   6.018   8.946   3.582 -0.1558  0.2121  0.5155
14136SOL    HW154062   6.040   8.888   3.503 -1.0780 -0.8751  1.0360
14136SOL    HW254063   6.103   8.982   3.621  0.5988 -2.2859  1.2808
14137SOL     OW54064   7.571   4.852   1.099  0.0077  0.3365  0.1026
14137SOL    HW154065   7.611   4.928   1.152  0.7420  0.4738 -0.6377
14137SOL    HW254066   7.523   4.889   1.020 -0.6119  0.0918  0.3595
14138SOL     OW54067   4.867   4.061   1.607  0.1382  0.1835 -0.2457
14138SOL    HW154068   4.888   4.114   1.690  0.7122 -0.4464  0.0126
14138SOL    HW254069   4.919   3.976   1.608 -0.7343 -0.3565 -0.6979
14139SOL     OW54070   9.330   9.404   4.002 -0.1794 -0.2423  0.4369
14139SOL    HW154071   9.347   9.358   3.915 -5.4618 -1.5248 -0.0670
14139SOL    HW254072   9.282   9.342   4.064  1.8257  1.2656  3.6530
14140SOL     OW54073   7.634   8.934   5.230  0.3237  0.1206 -0.4788
14140SOL    HW154074   7.635   8.869   5.306 -0.4398  0.1762 -0.4235
14140SOL    HW254075   7.591   9.019   5.260  2.8135  1.2823 -0.0427
14141SOL     OW54076   0.379   5.865   4.414 -0.1849  0.2112 -0.1035
14141SOL    HW154077   0.319   5.786   4.427 -1.4047  1.2504  0.7981
14141SOL    HW254078   0.399   5.876   4.317 -2.4034  0.4704 -0.5770
14142SOL     OW54079   4.234   2.527   2.173  0.6967 -0.1898 -0.3546
14142SOL    HW154080   4.183   2.613   2.171  0.9159 -0.0340  0.4887
14142SOL    HW254081   4.204   2.472   2.251  0.5774 -0.8731 -0.8702
14143SOL     OW54082   5.199   1.993   7.892  0.3533  0.3130 -0.4069
14143SOL    HW154083   5.233   1.990   7.798  0.4174  0.4924 -0.3895
14143SOL    HW254084   5.265   1.950   7.953  0.3197  0.2118 -0.4429
14144SOL     OW54085   3.238   7.053   4.434 -0.0963 -0.0261 -0.2739
14144SOL    HW154086   3.330   7.071   4.469  0.0191 -0.4575 -0.3466
14144SOL    HW254087   3.183   7.010   4.506 -0.2858  0.3729 -0.1833
14145SOL     OW54088   5.238   9.235   2.618 -0.0711  0.6939 -0.7082
14145SOL    HW154089   5.190   9.198   2.539 -0.1000 -0.5398 -0.1309
14145SOL    HW254090   5.292   9.315   2.591 -0.3253  0.4622 -1.8971
14146SOL     OW54091   8.434   2.930   5.161  0.1245  0.0705  0.7400
14146SOL    HW154092   8.388   3.016   5.180  0.3649  0.3108  0.2406
14146SOL    HW254093   8.495   2.941   5.082  1.2258 -0.1781  1.5495
14147SOL     OW54094   2.560   1.505   2.392  0.6388  0.0804 -0.0344
14147SOL    HW154095   2.654   1.476   2.409  0.8227 -0.6005 -2.0616
14147SOL    HW254096   2.498   1.457   2.454  1.5134 -0.3296  0.5255
14148SOL     OW54097   9.361   1.932   4.742  0.4229  0.2338  0.0239
14148SOL    HW154098   9.318   1.981   4.818 -2.9663 -0.8499 -1.1101
14148SOL    HW254099   9.352   1.834   4.756 -0.4781  0.0158 -1.8492
14149SOL     OW54100   7.744   9.144   3.452 -0.1567 -0.1639 -0.6172
14149SOL    HW154101   7.672   9.202   3.492 -0.0783  0.0117 -0.7305
14149SOL    HW254102   7.790   9.094   3.525 -2.3047 -2.4910 -0.7921
14150SOL     OW54103   8.610   1.269   2.262  0.3830  0.3154 -0.7812
14150SOL    HW154104   8.550   1.341   2.227 -0.3860 -0.3325 -0.8049
14150SOL    HW254105   8.562   1.217   2.333  1.5584  0.9442  0.5043
14151SOL     OW54106   1.525   7.104   1.807  0.0572  0.2847  0.0319
14151SOL    HW154107   1.583   7.184   1.792  0.0049  0.3354  0.1037
14151SOL    HW254108   1.582   7.022   1.809  0.1199  0.3283  0.0409
14152SOL     OW54109   3.673   5.586   1.880  0.0477 -0.6254 -0.0867
14152SOL    HW154110   3.644   5.682   1.883  0.2326 -0.5655 -0.2325
14152SOL    HW254111   3.637   5.543   1.798 -0.5860 -0.8579  0.3106
14153SOL     OW54112   8.629   9.212   1.089 -0.8956 -0.1074  0.2594
14153SOL    HW154113   8.684   9.159   1.024  0.9162  1.4255  0.5099
14153SOL    HW254114   8.537   9.226   1.051 -0.1811 -0.1219 -1.5067
14154SOL     OW54115   5.048   8.098   4.410 -0.1661  0.0477  0.3354
14154SOL    HW154116   5.102   8.091   4.327  0.4873 -0.8568  0.8224
14154SOL    HW254117   5.090   8.042   4.482 -0.8465  0.6325  1.2012
14155SOL     OW54118   7.978   4.588   3.570  0.9890 -0.1458  0.5267
14155SOL    HW154119   7.959   4.530   3.491  0.9646  0.8379 -0.1977
14155SOL    HW254120   8.004   4.531   3.648 -2.3450 -1.3655  0.8002
14156SOL     OW54121   1.844   5.223   0.572  0.6251 -0.1912  0.0781
14156SOL    HW154122   1.873   5.186   0.485 -0.6733  0.5316 -0.6832
14156SOL    HW254123   1.920   5.221   0.637  0.9560 -2.9064 -0.3375
14157SOL     OW54124   4.134   4.005   6.410  0.0398  0.2511  0.5853
14157SOL    HW154125   4.037   4.029   6.412 -0.2279 -0.5856 -1.2881
14157SOL    HW254126   4.176   4.043   6.327  1.1662  0.0952  1.0777
14158SOL     OW54127   2.380   1.965   3.551 -0.2192  0.5378  0.0144
14158SOL    HW154128   2.452   1.957   3.483 -2.0245 -1.4502 -1.7024
14158SOL    HW254129   2.378   1.883   3.608 -1.6609  0.2258 -0.4793
14159SOL     OW54130   8.063   6.175   6.266  0.1043 -0.3533 -0.8780
14159SOL    HW154131   8.130   6.224   6.209 -0.2435  1.7984  0.5087
14159SOL    HW254132   8.075   6.202   6.361 -1.7249 -1.1464 -0.4042
14160SOL     OW54133   8.639   3.845   1.051  0.3990  0.1355 -0.0920
14160SOL    HW154134   8.611   3.936   1.080 -2.3179 -0.7400  0.1359
14160SOL    HW254135   8.570   3.807   0.989  1.3932 -1.8610 -0.0055
14161SOL     OW54136   7.147   8.397   5.499  0.1897  0.1906  0.3750
14161SOL    HW154137   7.184   8.474   5.447 -1.3464 -1.0766 -2.7652
14161SOL    HW254138   7.217   8.327   5.509  0.3421  0.2091 -0.5293
14162SOL     OW54139   1.589   8.954   1.819  0.5988  0.3934 -0.1006
14162SOL    HW154140   1.511   8.937   1.879 -0.3298  1.3959 -0.9934
14162SOL    HW254141   1.648   8.873   1.817 -1.6326 -1.2769 -1.2176
14163SOL     OW54142   4.213   3.267   6.548 -0.6214  0.4804  0.1239
14163SOL    HW154143   4.224   3.334   6.474 -3.1814  1.7923  0.8979
14163SOL    HW254144   4.286   3.278   6.615 -0.4721  1.8345 -0.2650
14164SOL     OW54145   4.925   9.954   2.071 -0.3638 -0.8052 -0.0705
14164SOL    HW154146   5.011   9.981   2.029 -0.3739 -0.0876  0.3451
14164SOL    HW254147   4.885   9.877   2.021  0.4331 -1.0360 -0.3605
14165SOL     OW54148   6.797   2.937   1.335  0.0068  0.0709 -0.1367
14165SOL    HW154149   6.705   2.911   1.307 -0.2395 -0.1238  0.8425
14165SOL    HW254150   6.791   3.014   1.399  0.5487  0.3538 -0.4257
14166SOL     OW54151   0.851   8.487   3.184 -0.1774 -0.3829 -0.2720
14166SOL    HW154152   0.799   8.477   3.100 -0.7370  0.5380 -0.0426
14166SOL    HW254153   0.949   8.490   3.163 -0.1613 -2.6084 -0.6586
14167SOL     OW54154   3.726   8.827   7.265  0.0750  0.2632 -0.0827
14167SOL    HW154155   3.796   8.894   7.239  1.6776 -1.7180 -1.0734
14167SOL    HW254156   3.739   8.801   7.360  0.1365  0.5443 -0.0126
14168SOL     OW54157   4.930   3.720   5.820 -0.1080  0.2086 -0.2589
14168SOL    HW154158   4.976   3.718   5.909 -1.8942 -0.4676  0.6674
14168SOL    HW254159   4.999   3.726   5.748  1.3217  2.0669  1.1932
14169SOL     OW54160   6.801   9.652   1.872  0.3740  0.2693 -0.3063
14169SOL    HW154161   6.752   9.669   1.957 -0.6128  1.4315 -1.0904
14169SOL    HW254162   6.739   9.608   1.806  0.9867 -0.1552 -0.6060
14170SOL     OW54163   5.743   2.431   4.591 -0.0552  0.0626  0.1950
14170SOL    HW154164   5.767   2.358   4.526  0.2116 -0.5610  0.9893
14170SOL    HW254165   5.799   2.512   4.572  1.8031 -0.9612  1.2385
14171SOL     OW54166   1.252   4.653   5.176 -0.6981 -0.1354 -0.3196
14171SOL    HW154167   1.229   4.702   5.260  0.7953 -1.0129  0.6075
14171SOL    HW254168   1.267   4.556   5.196 -0.2253 -0.3378 -1.5867
14172SOL     OW54169   8.708   2.252   6.514 -0.1210 -0.6190 -0.1444
14172SOL    HW154170   8.784   2.190   6.532  1.4803  1.0671 -0.9543
14172SOL    HW254171   8.667   2.280   6.601  0.9856 -0.5534  0.3646
14173SOL     OW54172   9.155   1.946   1.118 -0.0133  0.3693  0.3555
14173SOL    HW154173   9.186   1.860   1.158  0.8023  1.3504  1.8508
14173SOL    HW254174   9.066   1.931   1.074 -0.1253 -1.1284  1.0409
14174SOL     OW54175   8.520   8.779   3.564 -0.2076  0.8874  0.0454
14174SOL    HW154176   8.506   8.743   3.472  0.6202  0.5265  0.0642
14174SOL    HW254177   8.568   8.867   3.559  0.8321  0.3309  0.1943
14175SOL     OW54178   2.732   5.046   2.285 -0.3189  0.1208 -0.1702
14175SOL    HW154179   2.645   5.016   2.324  0.9015 -1.2393  1.5980
14175SOL    HW254180   2.795   5.071   2.359  0.9916  0.5608 -1.4033
14176SOL     OW54181   0.274   4.040   6.265  0.5077  0.3747  0.0686
14176SOL    HW154182   0.220   4.045   6.181  2.5801 -0.2615 -1.3342
14176SOL    HW254183   0.353   4.101   6.257  1.9897 -1.4395  0.6036
14177SOL     OW54184   7.597   0.767   3.640 -0.7419 -0.0041 -0.0724
14177SOL    HW154185   7.552   0.831   3.702 -0.7895 -0.7209  0.6368
14177SOL    HW254186   7.576   0.673   3.667  0.1917 -0.3364 -0.4657
14178SOL     OW54187   6.328   9.272   3.785 -0.6043  0.0679  0.0848
14178SOL    HW154188   6.264   9.241   3.856 -2.0418  0.3562 -1.0575
14178SOL    HW254189   6.416   9.294   3.827 -1.5251  0.5269  1.8252
14179SOL     OW54190   8.252   0.073   2.286  0.2828  0.1804  0.2964
14179SOL    HW154191   8.278   0.167   2.305  1.4396 -0.2145  0.7518
14179SOL    HW254192   8.207   0.067   2.197 -0.1043  1.2053  0.4183
14180SOL     OW54193   4.381   8.559   0.900  0.4503 -0.1983  0.6116
14180SOL    HW154194   4.418   8.646   0.868 -2.2580  1.4622  1.8368
14180SOL    HW254195   4.381   8.557   1.000 -1.9908 -0.4657  0.6385
14181SOL     OW54196   9.919   9.668   0.879  0.3096 -0.1828  0.3747
14181SOL    HW154197   9.842   9.663   0.816  1.1911  0.1066 -0.7305
14181SOL    HW254198   9.990   9.727   0.841  1.1541 -0.5869  1.3013
14182SOL     OW54199   8.881   1.556   3.628  0.3952  0.5950 -0.3628
14182SOL    HW154200   8.832   1.510   3.702 -0.4175  0.8006 -0.7657
14182SOL    HW254201   8.827   1.633   3.595 -0.7175 -1.3812 -3.3046
14183SOL     OW54202   7.259   6.918   3.868 -0.2199  0.0862  0.2455
14183SOL    HW154203   7.350   6.902   3.830  0.2830  0.9745  1.0436
14183SOL    HW254204   7.192   6.859   3.823  1.3130 -3.1968  2.1154
14184SOL     OW54205   1.676   1.028   0.227  0.0939  0.0352  0.3965
14184SOL    HW154206   1.645   1.107   0.174  1.5380  0.9780  0.9265
14184SOL    HW254207   1.596   0.977   0.260 -0.9551  2.5876  1.9966
14185SOL     OW54208   7.829   3.565   3.243 -0.0907  0.5129 -0.4231
14185SOL    HW154209   7.743   3.572   3.193 -0.0756  3.3440 -0.1653
14185SOL    HW254210   7.901   3.613   3.191  0.8767 -0.1117  0.3187
14186SOL     OW54211   9.185   7.637   2.179  0.5194  0.1820 -0.4661
14186SOL    HW154212   9.235   7.567   2.229  0.7710  0.8275  0.1836
14186SOL    HW254213   9.245   7.680   2.112  0.6311  0.4441 -0.1977
14187SOL     OW54214   7.647   1.125   2.444 -0.0929 -0.3490 -0.4759
14187SOL    HW154215   7.597   1.115   2.357  0.9597 -0.0050 -1.1320
14187SOL    HW254216   7.716   1.053   2.450 -0.8454 -0.9864  0.5525
14188SOL     OW54217   8.259   8.752   6.962 -0.0991 -0.0211 -0.3871
14188SOL    HW154218   8.238   8.789   7.052 -0.7184 -0.1778 -0.4661
14188SOL    HW254219   8.225   8.658   6.956  0.9297 -0.3965 -0.3933
14189SOL     OW54220   1.383   7.529   2.663  0.3432  0.4737 -0.1196
14189SOL    HW154221   1.414   7.452   2.719 -0.2817 -0.2068 -0.7097
14189SOL    HW254222   1.463   7.573   2.622  0.7847  0.8000  1.0627
14190SOL     OW54223   8.369   2.671   5.954 -0.3704  0.5484  0.1514
14190SOL    HW154224   8.366   2.599   5.885 -1.4163  0.2447  0.5088
14190SOL    HW254225   8.464   2.701   5.967  0.0996 -0.9210  0.1823
14191SOL     OW54226   3.540   4.624   0.921 -0.1723  0.0673  0.2050
14191SOL    HW154227   3.567   4.669   1.006 -0.4131 -0.3500  0.5027
14191SOL    HW254228   3.558   4.685   0.844  1.8786 -0.2970  0.3698
14192SOL     OW54229   8.162   0.783   0.275  0.1966 -0.4508  0.6026
14192SOL    HW154230   8.252   0.825   0.264 -0.5373  0.6724 -1.6112
14192SOL    HW254231   8.172   0.684   0.286  1.5901 -0.9540 -3.8911
14193SOL     OW54232   8.573   7.418   5.358  0.3535  0.3228 -0.4921
14193SOL    HW154233   8.649   7.449   5.301  0.9652 -0.4387 -0.0993
14193SOL    HW254234   8.534   7.335   5.317  1.1598 -0.5568  0.4877
14194SOL     OW54235   8.757   6.275   4.101  0.2369  0.7634 -0.3536
14194SOL    HW154236   8.826   6.205   4.118  0.0754  0.8969  0.8824
14194SOL    HW254237   8.666   6.235   4.106  0.2020  0.6764 -1.5543
14195SOL     OW54238   6.087   9.830   6.652  0.7921 -0.2797 -0.0994
14195SOL    HW154239   6.114   9.853   6.745  1.6216  1.9753 -0.8514
14195SOL    HW254240   5.987   9.840   6.643  0.7677 -0.0158  0.4273
14196SOL     OW54241   1.468   2.064   0.849 -0.0415  0.2221  0.4473
14196SOL    HW154242   1.450   1.966   0.838 -1.3216  0.4086  0.8428
14196SOL    HW254243   1.565   2.082   0.831 -0.3558 -0.6859 -2.5696
14197SOL     OW54244   4.630   1.705   2.313 -0.0477 -0.4837 -0.0172
14197SOL    HW154245   4.702   1.689   2.381  0.0650  0.9910  0.2278
14197SOL    HW254246   4.645   1.646   2.234 -0.5687 -2.7375  1.5035
14198SOL     OW54247   7.593   3.202   1.207  0.0406  0.5728  0.6263
14198SOL    HW154248   7.684   3.198   1.165  0.3679  1.7117  1.2011
14198SOL    HW254249   7.539   3.123   1.178  1.0442  0.1520 -0.1154
14199SOL     OW54250   9.817   5.502   7.308  0.3161  0.7660 -0.4875
14199SOL    HW154251   9.730   5.485   7.263 -0.0398  2.5623 -0.5421
14199SOL    HW254252   9.870   5.568   7.255  0.6428  1.5687  0.7896
14200SOL     OW54253   1.549   6.816   1.981  0.5983 -0.0466 -0.2457
14200SOL    HW154254   1.518   6.726   2.012 -2.5631  1.4961  1.3353
14200SOL    HW254255   1.505   6.838   1.894 -0.3633  0.8594  0.4604
14201SOL     OW54256   1.380   5.866   5.600 -0.0764  0.0579  0.6254
14201SOL    HW154257   1.374   5.921   5.683  0.8339  0.6213  0.3177
14201SOL    HW254258   1.461   5.891   5.548  0.7185 -2.0345  0.8005
14202SOL     OW54259   2.831   9.287   5.269 -0.2075 -0.5559  0.2744
14202SOL    HW154260   2.898   9.355   5.240 -0.9672 -0.1180 -0.4608
14202SOL    HW254261   2.822   9.289   5.369  0.4079 -0.1801  0.3203
14203SOL     OW54262   7.541   2.437   1.423  0.7244 -0.3464 -0.0818
14203SOL    HW154263   7.598   2.381   1.483  2.8551  2.7871  0.9914
14203SOL    HW254264   7.575   2.430   1.329  0.8768 -0.9952  0.0192
14204SOL     OW54265   2.135   7.516   2.792 -0.9262 -0.6030  0.2916
14204SOL    HW154266   2.113   7.545   2.699 -1.1655 -1.5116  0.0535
14204SOL    HW254267   2.186   7.429   2.788  2.4955  1.2811  0.8287
14205SOL     OW54268   1.116   6.448   3.627 -0.3465  0.4211  0.2228
14205SOL    HW154269   1.122   6.529   3.569  0.5580  0.5032  0.4230
14205SOL    HW254270   1.149   6.470   3.719 -0.2106 -0.1400  0.3083
14206SOL     OW54271   0.244   8.796   0.392  0.8862  0.3850 -0.4077
14206SOL    HW154272   0.192   8.732   0.449 -1.9441  2.0456 -1.0366
14206SOL    HW254273   0.287   8.865   0.451  0.9723  0.0140 -0.0320
14207SOL     OW54274   0.684   3.782   7.591 -0.1805 -0.1662  0.1293
14207SOL    HW154275   0.692   3.827   7.502  1.9967 -1.1574 -0.2096
14207SOL    HW254276   0.697   3.683   7.580  2.3426 -0.0732  1.8055
14208SOL     OW54277   2.492   9.363   0.117  0.0007  0.4539 -0.0377
14208SOL    HW154278   2.497   9.437   0.184  0.7743  2.2572 -2.0229
14208SOL    HW254279   2.542   9.390   0.034 -2.4157 -0.9911 -2.0227
14209SOL     OW54280   6.835   2.504   7.764  0.3102  0.2180 -0.5276
14209SOL    HW154281   6.806   2.557   7.844 -0.6378 -1.3652  0.2038
14209SOL    HW254282   6.931   2.524   7.745  0.7558  0.1129  1.4426
14210SOL     OW54283   4.526   9.940   6.938  0.2924 -0.1499  0.4022
14210SOL    HW154284   4.440   9.976   6.975 -0.0606 -0.1398 -0.4222
14210SOL    HW254285   4.508   9.893   6.852  1.0389 -0.6264  0.5011
14211SOL     OW54286   2.934   8.396   4.063 -0.5408 -0.1534  0.1201
14211SOL    HW154287   2.934   8.467   3.992 -0.1820  1.0673  1.3127
14211SOL    HW254288   2.986   8.317   4.032  2.1572  1.5568  0.1468
14212SOL     OW54289   5.179   9.875   4.956  0.1654  0.1494 -0.3110
14212SOL    HW154290   5.236   9.804   4.998 -0.2814  1.0361  1.8684
14212SOL    HW254291   5.117   9.913   5.025 -3.1038 -0.7948 -2.5995
14213SOL     OW54292   5.639   7.309   4.450  0.4784 -0.1681  0.2490
14213SOL    HW154293   5.580   7.337   4.526  0.3197 -0.1562  0.1202
14213SOL    HW254294   5.647   7.385   4.385 -2.2294 -1.3568 -1.5481
14214SOL     OW54295   0.777   0.391   6.333 -0.8182  0.1125 -0.4771
14214SOL    HW154296   0.754   0.350   6.421  0.3589  0.7542  0.1429
14214SOL    HW254297   0.767   0.490   6.339  0.5140  0.2680 -0.6662
14215SOL     OW54298   3.276   9.340   6.888  0.0203 -0.3849 -0.3037
14215SOL    HW154299   3.322   9.251   6.884 -1.2535 -0.9916 -1.7840
14215SOL    HW254300   3.342   9.410   6.916  1.0870 -1.7478  0.7146
14216SOL     OW54301   9.981   6.540   8.174  0.5750 -0.0991  0.1856
14216SOL    HW154302   9.890   6.577   8.157  0.1435 -0.4930  1.5314
14216SOL    HW254303  10.038   6.610   8.218  0.7197 -0.0542 -0.0744
14217SOL     OW54304   1.281   2.311   6.900 -0.4975  0.9713 -0.4210
14217SOL    HW154305   1.262   2.378   6.973 -1.2255  0.3913 -0.0777
14217SOL    HW254306   1.265   2.219   6.934  1.5086  0.5380 -0.5790
14218SOL     OW54307   4.644   0.570   1.446 -0.7203  0.2049 -0.5134
14218SOL    HW154308   4.550   0.540   1.433 -0.5569  0.4577 -2.3584
14218SOL    HW254309   4.705   0.516   1.388  0.2646  0.0970  0.6044
14219SOL     OW54310   5.255   1.409   0.035  0.8520  0.8719 -0.0552
14219SOL    HW154311   5.273   1.359   0.119  1.7247 -0.7616 -1.1797
14219SOL    HW254312   5.243   1.344  -0.040 -0.2063  2.2915 -1.1430
14220SOL     OW54313   0.497   1.226   1.352  0.2360 -0.1615  0.3844
14220SOL    HW154314   0.422   1.224   1.286  0.4056 -2.4004  0.2169
14220SOL    HW254315   0.558   1.148   1.336  1.8629  0.8662  1.3755
14221SOL     OW54316   9.907   2.125   2.283 -0.3006 -0.1796  0.1561
14221SOL    HW154317   9.900   2.164   2.375 -0.3021 -0.1014  0.1232
14221SOL    HW254318   9.930   2.198   2.218  3.1197 -0.7648  0.5863
14222SOL     OW54319   6.939   7.519   5.493  0.9131  0.8929  0.5050
14222SOL    HW154320   6.943   7.616   5.518  1.4508  0.9863  0.0759
14222SOL    HW254321   6.894   7.509   5.405 -2.9575  0.3752  2.4211
14223SOL     OW54322   4.295   7.321   2.787 -0.0293  0.0808  0.1640
14223SOL    HW154323   4.280   7.238   2.840 -1.4864 -0.8505 -1.6388
14223SOL    HW254324   4.375   7.310   2.729 -0.0173  0.0721  0.1825
14224SOL     OW54325   6.197   1.278   3.565  0.6849 -0.4798  0.2458
14224SOL    HW154326   6.238   1.347   3.624 -3.7407  2.0787  0.5408
14224SOL    HW254327   6.152   1.209   3.620  2.1898 -1.7537 -0.0990
14225SOL     OW54328   3.127   3.675   3.529  0.2391  0.3147 -0.4374
14225SOL    HW154329   3.100   3.613   3.602  0.3163 -0.4265 -1.0304
14225SOL    HW254330   3.143   3.767   3.566  0.1776 -0.0375  0.4479
14226SOL     OW54331   1.738   7.832   4.928 -0.3921  0.0444  0.2381
14226SOL    HW154332   1.789   7.917   4.943  1.3485 -1.0650  0.7599
14226SOL    HW254333   1.648   7.840   4.971  0.0082  1.3788  0.8813
14227SOL     OW54334   2.456   9.713   4.453 -0.1695  0.4002 -0.1800
14227SOL    HW154335   2.411   9.698   4.365  0.5194 -1.5467 -0.2206
14227SOL    HW254336   2.548   9.749   4.438 -0.7406  1.9374 -0.1668
14228SOL     OW54337   2.650   0.915   8.067 -0.2175 -0.1894  0.5590
14228SOL    HW154338   2.706   0.940   7.988 -1.6516  1.7961  0.1368
14228SOL    HW254339   2.613   0.998   8.109 -0.7585 -1.3328  2.3622
14229SOL     OW54340   4.003   2.116   2.652 -0.4015  0.3268  0.2901
14229SOL    HW154341   3.996   2.095   2.555  2.5581  1.9551 -0.3444
14229SOL    HW254342   4.086   2.074   2.689 -0.2247  1.7268  1.5214
14230SOL     OW54343   4.108   3.279   7.738 -0.3447 -0.1013  0.1127
14230SOL    HW154344   4.199   3.241   7.757 -0.4620  0.5454  2.1626
14230SOL    HW254345   4.038   3.210   7.759 -0.3733 -0.2793 -0.5558
14231SOL     OW54346   2.636   0.050   4.096  0.0900  0.5356 -0.1674
14231SOL    HW154347   2.564   0.056   4.165 -2.2194  2.9224 -2.6505
14231SOL    HW254348   2.597   0.017   4.010  2.6777 -1.2892 -0.7050
14232SOL     OW54349   2.134   1.350   2.598  0.3947 -0.2831 -0.0036
14232SOL    HW154350   2.058   1.315   2.544 -0.2855  0.6375  0.3547
14232SOL    HW254351   2.099   1.397   2.679  1.2916  0.9923 -0.3321
14233SOL     OW54352   2.275   3.404   6.761 -0.6635  0.2725  0.0232
14233SOL    HW154353   2.318   3.492   6.784 -1.7467  0.8754 -0.2092
14233SOL    HW254354   2.246   3.358   6.844 -0.4184  0.3042  0.1260
14234SOL     OW54355   8.415   3.254   1.013  0.3003 -0.5355  0.0566
14234SOL    HW154356   8.372   3.313   1.081  2.1237  0.9671 -0.0538
14234SOL    HW254357   8.372   3.268   0.924  0.7211  0.6245  0.0356
14235SOL     OW54358   0.841   5.776   2.667  0.0063  0.0041 -0.3937
14235SOL    HW154359   0.915   5.735   2.720 -1.1878 -0.3357  1.0587
14235SOL    HW254360   0.864   5.774   2.569  1.0134 -1.9847 -0.1424
14236SOL     OW54361   3.649   8.280   1.777  0.5359 -0.1030 -0.4985
14236SOL    HW154362   3.683   8.373   1.765  1.4105 -0.2928  0.4491
14236SOL    HW254363   3.553   8.276   1.750  0.7106  0.8876 -1.3047
14237SOL     OW54364   4.284   0.556   3.725  0.2626  0.3087 -0.2253
14237SOL    HW154365   4.282   0.630   3.792 -1.5046  0.9668 -0.9640
14237SOL    HW254366   4.230   0.479   3.759 -3.2208  1.7797 -2.0727
14238SOL     OW54367   4.589   5.286   1.454 -0.0582  0.2914  0.6561
14238SOL    HW154368   4.539   5.251   1.533  0.0202  0.5174  0.8067
14238SOL    HW254369   4.577   5.224   1.377  0.6878 -0.4629  1.1333
14239SOL     OW54370   9.052   6.064   2.948  0.0382  0.7645  0.9902
14239SOL    HW154371   9.106   6.128   2.893 -1.1223  0.3801 -0.6373
14239SOL    HW254372   9.004   6.115   3.019 -1.4174  1.8722 -0.7150
14240SOL     OW54373   1.961   3.399   6.803 -0.6592  0.4612  0.2329
14240SOL    HW154374   2.039   3.436   6.752 -1.5130 -0.7891 -2.0509
14240SOL    HW254375   1.984   3.308   6.837 -1.2735 -0.1203 -0.8788
14241SOL     OW54376   4.528   5.535   2.427  0.8883 -0.1802  0.3800
14241SOL    HW154377   4.435   5.532   2.390 -0.0138  2.1725  2.2946
14241SOL    HW254378   4.590   5.569   2.357 -0.3437  1.7513  0.1881
14242SOL     OW54379   3.787   4.013   5.696  0.3298  0.7645 -0.5254
14242SOL    HW154380   3.801   4.099   5.746  1.1856 -0.0788  0.7073
14242SOL    HW254381   3.862   4.000   5.631 -0.6631  1.7469 -1.8919
14243SOL     OW54382   7.749   5.865   6.500  0.6477 -0.0020 -0.8056
14243SOL    HW154383   7.652   5.842   6.508  0.6264  0.2935 -0.2315
14243SOL    HW254384   7.804   5.789   6.537  0.6548 -0.4530 -1.7321
14244SOL     OW54385   6.870   9.376   2.346  0.7425 -0.3989  0.0124
14244SOL    HW154386   6.829   9.456   2.303  0.3960 -1.4704 -1.6580
14244SOL    HW254387   6.960   9.401   2.383  0.4696  0.8540 -0.1507
14245SOL     OW54388   0.251   0.165   7.697 -0.2977  0.5508  0.2671
14245SOL    HW154389   0.194   0.186   7.617  1.0143  0.5247 -0.6727
14245SOL    HW254390   0.257   0.246   7.755  0.2184  1.1002 -0.5606
14246SOL     OW54391   2.354   9.080   6.352  0.1609 -0.1464 -0.0327
14246SOL    HW154392   2.328   9.175   6.337 -2.0077 -0.1124  3.3643
14246SOL    HW254393   2.305   9.021   6.288 -0.9086  0.8009 -0.1096
14247SOL     OW54394   9.497   6.332   0.969 -0.3579  0.3128  0.1908
14247SOL    HW154395   9.583   6.329   1.020 -0.5183 -0.6018  0.4179
14247SOL    HW254396   9.507   6.277   0.885 -0.2613  1.3785 -0.4977
14248SOL     OW54397   6.201   7.417   4.289 -0.3401 -0.0645 -0.2837
14248SOL    HW154398   6.171   7.496   4.343 -0.3132 -0.2285 -0.0272
14248SOL    HW254399   6.293   7.391   4.317 -0.3840 -0.2428 -0.3047
14249SOL     OW54400   3.481   5.938   6.041 -0.8098  0.2600  0.0357
14249SOL    HW154401   3.485   5.858   5.982  1.7455  1.0371 -0.9298
14249SOL    HW254402   3.428   6.010   5.997 -0.7940  0.0516 -0.3254
14250SOL     OW54403   0.235   6.139   1.561 -0.1777 -0.4593  0.0386
14250SOL    HW154404   0.197   6.213   1.507  1.6501 -0.5710 -1.4568
14250SOL    HW254405   0.264   6.174   1.650 -1.1310  0.1925  0.1005
14251SOL     OW54406   0.068   3.327   2.305  0.6619 -0.1546 -0.1614
14251SOL    HW154407   0.125   3.390   2.358 -0.1501 -0.3636  0.9750
14251SOL    HW254408   0.011   3.273   2.367  0.5931 -1.2818 -1.1866
14252SOL     OW54409   6.294   1.930   1.700  0.3461  0.2159  0.0732
14252SOL    HW154410   6.291   1.882   1.612  2.0179 -0.1364  0.1839
14252SOL    HW254411   6.223   1.894   1.760  0.3406 -0.7950 -0.5266
14253SOL     OW54412   2.443   5.438   1.060  0.1655  0.4608 -0.0434
14253SOL    HW154413   2.528   5.398   1.024 -1.3086 -0.4237 -2.6467
14253SOL    HW254414   2.451   5.537   1.062 -0.0558  0.5964 -3.7921
14254SOL     OW54415   9.513   5.168   5.394 -0.3465 -0.5081 -0.1981
14254SOL    HW154416   9.417   5.169   5.366  0.2616 -0.0123 -2.3812
14254SOL    HW254417   9.568   5.129   5.320  1.4787  1.8574 -0.1263
14255SOL     OW54418   7.595   3.490   2.374 -0.3413 -0.6223  0.7870
14255SOL    HW154419   7.688   3.458   2.353 -0.3827 -2.0229  2.6174
14255SOL    HW254420   7.559   3.439   2.452 -2.6280 -0.0142  0.1605
14256SOL     OW54421   2.822   6.869   5.438 -0.0761 -0.3627  0.0029
14256SOL    HW154422   2.796   6.801   5.506 -3.4349 -0.3073 -1.1296
14256SOL    HW254423   2.763   6.861   5.358  0.7647  2.5664 -0.9900
14257SOL     OW54424   7.721   6.322   3.154 -0.5645 -0.6210  0.0821
14257SOL    HW154425   7.638   6.292   3.202  0.6970 -3.4189  0.6441
14257SOL    HW254426   7.758   6.245   3.101  0.4682  1.2218 -1.9295
14258SOL     OW54427   1.669   1.508   5.190  0.3011 -0.6001  0.1506
14258SOL    HW154428   1.754   1.545   5.228 -0.6715  2.3187 -0.4210
14258SOL    HW254429   1.595   1.518   5.257  0.1119 -1.9132  0.1446
14259SOL     OW54430   1.983   6.081   4.311  0.6410  0.2699 -0.1461
14259SOL    HW154431   2.040   6.124   4.241  1.6705 -1.6610 -0.5346
14259SOL    HW254432   1.896   6.053   4.270  0.3773  1.0443 -0.1302
14260SOL     OW54433   8.113   2.253   7.666 -0.0245  0.4285 -0.2252
14260SOL    HW154434   8.088   2.279   7.572  0.1639 -1.7385 -0.9140
14260SOL    HW254435   8.182   2.181   7.662 -0.7568 -0.3868  1.5870
14261SOL     OW54436   3.504   7.855   4.455 -0.2854  0.1330 -0.1438
14261SOL    HW154437   3.550   7.924   4.400 -2.0027 -1.2951 -3.5086
14261SOL    HW254438   3.560   7.772   4.460 -0.5735 -0.0850 -0.5556
14262SOL     OW54439   9.680   8.450   1.612  0.2288 -0.2829  0.1401
14262SOL    HW154440   9.759   8.434   1.551 -0.6281 -0.2339 -0.9993
14262SOL    HW254441   9.644   8.541   1.594 -0.6049 -0.6292  0.0671
14263SOL     OW54442   7.625   8.808   4.139 -0.2390 -0.1195 -0.2577
14263SOL    HW154443   7.538   8.855   4.156  0.5773  0.6602  1.8233
14263SOL    HW254444   7.629   8.724   4.192 -0.4657 -1.1030 -1.7576
14264SOL     OW54445   8.062   7.994   4.785  0.1809  0.9394  0.4158
14264SOL    HW154446   8.144   8.040   4.751 -0.8552  0.6287 -2.6159
14264SOL    HW254447   8.069   7.896   4.767 -0.7364  0.8783  0.3774
14265SOL     OW54448   4.131   6.724   1.042  0.5356  0.0564  0.0379
14265SOL    HW154449   4.197   6.653   1.069  0.8143  0.6865  1.0449
14265SOL    HW254450   4.129   6.732   0.942  1.9973  0.0409  0.0029
14266SOL     OW54451   2.400   3.937   5.407  0.2909  0.5144  0.5450
14266SOL    HW154452   2.346   3.889   5.477  0.7666 -3.4513 -1.6256
14266SOL    HW254453   2.338   3.986   5.345 -0.6112 -1.0116  0.2038
14267SOL     OW54454   2.675   6.884   6.532  0.5735 -0.1948 -0.4870
14267SOL    HW154455   2.627   6.851   6.613  1.7175  0.8787  0.6462
14267SOL    HW254456   2.682   6.810   6.465  2.5524 -2.1148  1.7536
14268SOL     OW54457   1.549   2.325   4.084  0.9544 -0.2658  0.1422
14268SOL    HW154458   1.482   2.290   4.149 -0.4472 -0.2583 -1.2601
14268SOL    HW254459   1.591   2.408   4.121 -0.9948  0.6440  0.3453
14269SOL     OW54460   6.776   6.506   5.700 -0.0903  0.1344 -0.2949
14269SOL    HW154461   6.745   6.556   5.619 -2.5598 -0.2587  0.3559
14269SOL    HW254462   6.861   6.458   5.679 -0.6200  0.1520 -2.6046
14270SOL     OW54463   1.032   5.332   7.631  0.1565 -0.9349  0.5272
14270SOL    HW154464   1.124   5.343   7.594 -0.0926  0.4038  0.2668
14270SOL    HW254465   1.024   5.386   7.715 -1.7695  2.7983 -1.9280
14271SOL     OW54466   7.761   8.291   3.191  0.0407 -0.0262  0.1802
14271SOL    HW154467   7.793   8.197   3.208 -0.7869 -0.3623 -0.0868
14271SOL    HW254468   7.820   8.334   3.122  0.6891 -0.1948  0.6222
14272SOL     OW54469   8.214   8.257   7.737 -0.0455 -0.6396  0.3407
14272SOL    HW154470   8.249   8.338   7.692  2.0708 -1.8183 -0.1697
14272SOL    HW254471   8.142   8.215   7.680  2.4000 -1.9603 -1.8636
14273SOL     OW54472   1.916   3.667   0.744 -0.8371 -0.4801  0.1116
14273SOL    HW154473   1.837   3.629   0.793 -1.6208  0.2859 -0.5318
14273SOL    HW254474   1.956   3.596   0.685 -0.9615 -0.9060  0.5328
14274SOL     OW54475   6.658   9.926   5.384 -0.2492  0.0738 -0.3109
14274SOL    HW154476   6.629   9.869   5.307 -0.9245 -0.5154  0.3780
14274SOL    HW254477   6.732   9.880   5.433 -2.3345 -1.3110  1.6186
14275SOL     OW54478   5.182   7.994   2.014 -0.4592 -0.1071 -0.1908
14275SOL    HW154479   5.167   7.936   2.094 -0.7882 -0.1909 -0.3127
14275SOL    HW254480   5.244   8.069   2.038 -1.2703  0.3857  0.3846
14276SOL     OW54481   1.251   3.169   2.545 -0.3862  0.0202 -0.3227
14276SOL    HW154482   1.232   3.232   2.470 -1.3094  0.4165  0.2349
14276SOL    HW254483   1.228   3.076   2.518 -1.6067  0.2874 -0.2098
14277SOL     OW54484   1.760   5.502   7.374 -0.3682 -0.4943 -0.5494
14277SOL    HW154485   1.816   5.440   7.319  0.3782  0.2921 -0.6777
14277SOL    HW254486   1.731   5.579   7.318 -1.3421 -0.7414 -0.4021
14278SOL     OW54487   4.278   7.117   4.312 -0.2777  0.2973 -0.9096
14278SOL    HW154488   4.324   7.139   4.226 -0.1167 -0.7065 -1.0843
14278SOL    HW254489   4.313   7.175   4.385  0.3038  0.4583 -1.3216
14279SOL     OW54490   3.744   2.905   5.036 -0.2742  0.3357  0.4769
14279SOL    HW154491   3.664   2.846   5.048  0.3430 -0.9195 -1.3718
14279SOL    HW254492   3.815   2.877   5.102 -0.2424 -0.5581  0.0803
14280SOL     OW54493   5.418   0.046   2.605 -0.3239  0.6026  0.1497
14280SOL    HW154494   5.447   0.062   2.511 -1.1086 -1.4809 -0.4676
14280SOL    HW254495   5.493   0.001   2.655 -0.7845 -0.5588 -0.1812
14281SOL     OW54496   7.874   3.657   2.487 -0.2296 -0.0768 -0.1339
14281SOL    HW154497   7.915   3.719   2.554 -1.3329  0.2440  0.2472
14281SOL    HW254498   7.836   3.578   2.535 -2.6365  1.0189 -0.1852
14282SOL     OW54499   1.972   7.504   8.130 -0.6245  0.1189 -0.6753
14282SOL    HW154500   1.920   7.578   8.087  1.2918  1.4429 -0.8039
14282SOL    HW254501   1.976   7.519   8.228 -0.2839  0.1516 -0.6950
14283SOL     OW54502   6.787   9.782   2.545  0.0618 -0.0751  0.3118
14283SOL    HW154503   6.808   9.724   2.624 -1.0232  0.9216  1.3565
14283SOL    HW254504   6.708   9.840   2.566  1.4304  2.1543 -0.5220
14284SOL     OW54505   4.970   9.445   2.686  0.1542 -0.4269 -0.6168
14284SOL    HW154506   4.976   9.359   2.736 -1.5225 -0.6251 -0.7365
14284SOL    HW254507   5.063   9.479   2.667  0.8126 -1.1674  1.1792
14285SOL     OW54508   1.166   9.376   2.401  0.2219  0.0336 -0.2909
14285SOL    HW154509   1.105   9.318   2.347  1.2448  0.3666 -1.8311
14285SOL    HW254510   1.214   9.439   2.340  1.2553  0.5529  1.0471
14286SOL     OW54511   2.134   4.241   0.315  0.7853  0.4291  0.0255
14286SOL    HW154512   2.084   4.181   0.377  1.3250 -1.6041 -1.4494
14286SOL    HW254513   2.188   4.306   0.368 -1.2803  0.8824  1.6381
14287SOL     OW54514   8.100   4.403   0.386 -0.0345 -0.3258  0.8161
14287SOL    HW154515   8.191   4.443   0.374 -0.0278 -0.4272  0.5169
14287SOL    HW254516   8.070   4.418   0.480 -1.1454  2.7200  0.0433
14288SOL     OW54517   1.056   4.717   2.061 -0.0095  0.1272  0.2180
14288SOL    HW154518   0.965   4.676   2.060 -0.4425  1.0672  0.6172
14288SOL    HW254519   1.061   4.785   2.134  0.8085  0.5501 -0.2293
14289SOL     OW54520   9.144   5.062   4.286 -0.1345  0.1879  0.8205
14289SOL    HW154521   9.235   5.093   4.315 -0.3021  1.9112 -0.4339
14289SOL    HW254522   9.155   4.990   4.218  0.2810 -0.3866  1.4845
14290SOL     OW54523   1.149   9.093   3.623  0.4927  0.1917  0.0381
14290SOL    HW154524   1.083   9.023   3.652  0.4945  0.3219  0.3539
14290SOL    HW254525   1.224   9.049   3.574  1.3509 -0.2390  1.6794
14291SOL     OW54526   2.813   8.602   7.019  0.2170 -0.2444 -0.6049
14291SOL    HW154527   2.744   8.617   7.089 -0.5040 -0.7614 -1.1929
14291SOL    HW254528   2.893   8.660   7.037  0.8355 -1.7622  1.7041
14292SOL     OW54529   4.530   8.478   2.492  0.5911 -0.1977  0.2266
14292SOL    HW154530   4.612   8.493   2.549 -1.7438 -2.6367  4.5478
14292SOL    HW254531   4.508   8.380   2.492 -1.3436  0.1993 -2.3359
14293SOL     OW54532   4.876   3.648   8.153  0.1098  0.0676 -0.1417
14293SOL    HW154533   4.946   3.685   8.213  2.4807 -2.5020 -1.2153
14293SOL    HW254534   4.801   3.610   8.208 -0.6076  3.0295  1.0070
14294SOL     OW54535   9.352   0.654   7.734  0.1680 -0.3830 -0.1424
14294SOL    HW154536   9.386   0.714   7.806 -1.5419 -0.8427  1.0714
14294SOL    HW254537   9.420   0.648   7.661  1.8852  0.1769  1.3670
14295SOL     OW54538   1.200   8.338   6.102  0.3322  0.3866  0.6835
14295SOL    HW154539   1.169   8.350   6.197  0.5532 -1.0952  0.9557
14295SOL    HW254540   1.299   8.348   6.098  0.1714  1.9144  0.3534
14296SOL     OW54541   2.743   1.544   7.979 -0.1079 -0.0235 -0.4065
14296SOL    HW154542   2.778   1.590   7.897 -0.3830 -0.8399 -0.9882
14296SOL    HW254543   2.812   1.478   8.011 -0.0283  0.2486 -0.0181
14297SOL     OW54544   9.269   0.694   2.786 -0.1061 -0.3110 -0.5874
14297SOL    HW154545   9.200   0.664   2.720 -0.2507  0.1888 -0.6673
14297SOL    HW254546   9.343   0.627   2.790 -1.4528 -1.7551  0.8057
14298SOL     OW54547   4.580   2.450   3.984  0.4744  0.1962 -0.4440
14298SOL    HW154548   4.603   2.357   4.013  2.1445  0.9493  0.7314
14298SOL    HW254549   4.615   2.465   3.891  1.1836  0.0049 -0.2116
14299SOL     OW54550   5.885   8.272   6.871  0.3552  0.1022 -0.1608
14299SOL    HW154551   5.796   8.303   6.838  0.2878  0.1999  0.1083
14299SOL    HW254552   5.888   8.279   6.971  0.7887  0.4345 -0.1929
14300SOL     OW54553   1.842   2.705   3.958  0.9258  0.4413 -0.2915
14300SOL    HW154554   1.782   2.741   3.886  1.5906  0.2135 -0.9622
14300SOL    HW254555   1.871   2.780   4.017 -0.8506  0.4142  0.6799
14301SOL     OW54556   7.827   7.251   2.724  0.1428 -0.6033  0.0742
14301SOL    HW154557   7.751   7.302   2.765  1.3762  1.0395  0.3331
14301SOL    HW254558   7.834   7.275   2.627 -0.2836 -1.5135 -0.1899
14302SOL     OW54559   9.734   6.213   1.275  0.6372  0.4370  0.1013
14302SOL    HW154560   9.757   6.214   1.372 -1.2472  0.5794  0.5537
14302SOL    HW254561   9.689   6.299   1.250  0.8847  0.3001 -0.8478
14303SOL     OW54562   9.702   3.869   6.797  0.6084 -0.6880 -0.2316
14303SOL    HW154563   9.680   3.791   6.856 -1.8348  0.7548  0.8278
14303SOL    HW254564   9.731   3.946   6.854 -2.1776  0.8588 -0.8589
14304SOL     OW54565   0.129   7.235   7.658 -0.6646  0.1086  0.2559
14304SOL    HW154566   0.154   7.295   7.582 -1.1658  0.7165  0.5681
14304SOL    HW254567   0.058   7.279   7.713  0.7264  0.2850  1.9137
14305SOL     OW54568   7.718   6.860   6.328  0.0499  0.1346 -0.7923
14305SOL    HW154569   7.799   6.881   6.274  0.1651 -1.4826 -1.2739
14305SOL    HW254570   7.721   6.765   6.358 -1.3899  0.2156 -0.3152
14306SOL     OW54571   8.034   6.879   3.560  0.1618  0.3506  0.2718
14306SOL    HW154572   7.970   6.902   3.486  0.7593  2.1226  0.2951
14306SOL    HW254573   8.115   6.936   3.553  1.6249 -1.6526  0.4615
14307SOL     OW54574   1.089   6.889   7.605 -0.0314 -0.2374  0.3850
14307SOL    HW154575   1.077   6.791   7.589 -0.9685 -0.2276  0.9420
14307SOL    HW254576   1.062   6.940   7.523  0.8401 -0.4598 -0.0453
14308SOL     OW54577   7.047   9.592   4.425 -0.0603 -0.0313 -0.0404
14308SOL    HW154578   7.146   9.596   4.438 -0.2749  2.0928  1.2072
14308SOL    HW254579   7.012   9.683   4.403 -1.7476 -0.7606 -0.5034
14309SOL     OW54580   5.581   1.684   4.817  0.7019 -0.2453  0.0461
14309SOL    HW154581   5.646   1.607   4.818  0.0322 -0.8192  1.0057
14309SOL    HW254582   5.630   1.769   4.836  1.5068 -0.3909 -1.3665
14310SOL     OW54583   8.044   2.586   6.654 -0.6607 -0.0352 -0.8326
14310SOL    HW154584   8.021   2.572   6.558 -0.8227  2.0282 -1.1260
14310SOL    HW254585   8.118   2.653   6.661  1.3988 -2.3768  0.3648
14311SOL     OW54586   0.747   6.388   4.269 -0.0373  0.6451 -0.2599
14311SOL    HW154587   0.707   6.328   4.200  0.7571 -1.7734  1.3245
14311SOL    HW254588   0.819   6.443   4.227  0.0776 -0.3969 -1.4780
14312SOL     OW54589   3.218   9.175   2.012  0.6767 -0.3607 -0.0797
14312SOL    HW154590   3.225   9.076   2.025  2.8087 -0.3020 -0.6303
14312SOL    HW254591   3.284   9.222   2.071 -0.6573  0.7788  0.5458
14313SOL     OW54592   3.021   6.721   2.009  0.1061 -0.0969 -0.3114
14313SOL    HW154593   2.967   6.669   1.942 -1.1765  0.5979  0.1633
14313SOL    HW254594   3.070   6.794   1.962  1.5254 -1.4156 -0.9085
14314SOL     OW54595   3.140   7.495   6.796 -0.0794  0.3887 -0.0526
14314SOL    HW154596   3.139   7.541   6.707  1.2449  0.4990 -0.0130
14314SOL    HW254597   3.157   7.563   6.868  0.9168 -0.0222  0.0947
14315SOL     OW54598   8.770   5.291   4.926 -0.2905 -0.1279  0.0262
14315SOL    HW154599   8.751   5.295   4.828  1.6127 -1.1105 -0.4106
14315SOL    HW254600   8.862   5.253   4.940 -0.3480  0.4998  2.1684
14316SOL     OW54601   1.863   4.613   6.775  0.0255  0.4749 -0.2181
14316SOL    HW154602   1.788   4.660   6.728 -2.3530 -1.6542  1.2812
14316SOL    HW254603   1.900   4.671   6.847  1.9641  2.7570 -2.9647
14317SOL     OW54604   2.918   0.703   4.622 -0.6039 -0.0394 -0.6606
14317SOL    HW154605   2.887   0.702   4.717 -0.1157 -0.6291 -0.5002
14317SOL    HW254606   3.017   0.718   4.620 -1.0893  3.5712 -1.2321
14318SOL     OW54607   2.820   2.842   5.664 -0.9305  0.0562  0.0664
14318SOL    HW154608   2.881   2.836   5.585 -2.2093 -0.7900 -0.8967
14318SOL    HW254609   2.870   2.878   5.742 -0.3469  3.6451 -1.8590
14319SOL     OW54610   9.857   2.763   4.618 -0.2364  0.4817 -0.6754
14319SOL    HW154611   9.886   2.675   4.581  0.8462 -1.2894  4.0409
14319SOL    HW254612   9.938   2.819   4.637 -0.6647  0.7697  0.3140
14320SOL     OW54613   0.144   3.433   1.330  0.0174 -0.1677  0.3124
14320SOL    HW154614   0.208   3.362   1.301  0.8319 -0.6403  3.0933
14320SOL    HW254615   0.050   3.402   1.316  0.3749 -1.1564  0.0994
14321SOL     OW54616   6.803   4.656   1.969 -0.2209 -0.0551 -0.9712
14321SOL    HW154617   6.852   4.742   1.978  1.1866 -0.8449 -0.8766
14321SOL    HW254618   6.714   4.663   2.014 -0.7061  1.7800 -2.1989
14322SOL     OW54619   0.194   8.513   7.016 -0.2803  0.2031  0.1051
14322SOL    HW154620   0.118   8.451   6.998 -0.7308  0.1078  2.1486
14322SOL    HW254621   0.237   8.540   6.930 -1.8065 -0.7636 -0.9828
14323SOL     OW54622   0.857   7.151   0.182 -0.1446  0.4054 -1.1813
14323SOL    HW154623   0.823   7.099   0.261  0.2178 -1.3631 -2.1525
14323SOL    HW254624   0.943   7.195   0.207  0.5143 -1.0050 -0.8686
14324SOL     OW54625   2.710   4.023   1.284  0.6303  0.1009  0.2385
14324SOL    HW154626   2.789   3.997   1.229 -0.3238  0.3869 -1.2890
14324SOL    HW254627   2.713   3.973   1.371  1.4425 -1.3784 -0.6056
14325SOL     OW54628   2.515   1.993   1.248 -0.0440 -0.1123  0.3852
14325SOL    HW154629   2.570   1.911   1.232 -1.1630 -0.8569  0.3444
14325SOL    HW254630   2.574   2.065   1.286  1.0487 -0.7559 -0.0513
14326SOL     OW54631   1.998   9.502   4.769 -0.2188 -0.1027  0.3262
14326SOL    HW154632   2.059   9.506   4.690 -0.7196 -1.0720 -0.1229
14326SOL    HW254633   2.019   9.420   4.823  0.5782  0.9061  1.5839
14327SOL     OW54634   0.918   2.692   6.255  0.4396  0.6176 -0.3346
14327SOL    HW154635   0.859   2.724   6.330 -2.1404 -0.5134 -1.8102
14327SOL    HW254636   0.863   2.681   6.172  2.1046 -3.2797 -1.0316
14328SOL     OW54637   0.261   0.728   5.575  0.3783  0.1448  0.0261
14328SOL    HW154638   0.236   0.761   5.666  0.7455 -2.2001  1.0181
14328SOL    HW254639   0.252   0.802   5.509 -2.7297  1.1214  1.4602
14329SOL     OW54640   8.003   5.254   0.865  0.0632 -0.6557 -0.1774
14329SOL    HW154641   7.904   5.269   0.868 -0.2452 -2.6351  0.4874
14329SOL    HW254642   8.031   5.206   0.948  1.5232 -0.4604 -0.5520
14330SOL     OW54643   8.297   6.638   2.972 -0.4669  0.2793  0.1691
14330SOL    HW154644   8.302   6.736   2.993 -1.2752  0.4764 -0.5266
14330SOL    HW254645   8.382   6.610   2.928 -0.0463  0.5661  0.7955
14331SOL     OW54646   9.280   5.844   5.212  0.7576  0.1398 -0.4107
14331SOL    HW154647   9.349   5.801   5.154  1.1070 -0.2797  0.3180
14331SOL    HW254648   9.195   5.791   5.207  0.3707  0.8718 -1.6067
14332SOL     OW54649   0.369   5.958   1.846  0.1259 -0.6439 -0.0937
14332SOL    HW154650   0.271   5.978   1.839  0.4975  0.3039 -4.0829
14332SOL    HW254651   0.410   6.017   1.915 -2.1866 -1.4680  2.0436
14333SOL     OW54652   0.435   0.785   3.502 -0.1180  0.7208 -0.3403
14333SOL    HW154653   0.360   0.739   3.548 -0.2784  0.0685 -1.2559
14333SOL    HW254654   0.522   0.752   3.539 -0.2621  0.9210  0.1823
14334SOL     OW54655   5.105   7.741   5.629  0.1550 -0.3018 -0.3891
14334SOL    HW154656   5.177   7.787   5.577  0.5308 -3.4651 -2.8587
14334SOL    HW254657   5.023   7.732   5.572 -0.5743 -0.9536  0.7336
14335SOL     OW54658   0.660   2.493   3.769 -0.2874 -0.4663  0.4454
14335SOL    HW154659   0.709   2.542   3.697 -1.6769 -0.1030 -0.2668
14335SOL    HW254660   0.724   2.468   3.842  0.7413  1.0540  0.0920
14336SOL     OW54661   1.501   6.683   2.944  0.1047  0.4299 -0.0084
14336SOL    HW154662   1.565   6.745   2.989 -0.3825  0.9376 -0.0050
14336SOL    HW254663   1.545   6.643   2.864  0.5028  0.6092  0.1178
14337SOL     OW54664   4.177   9.969   4.821  0.6855 -0.0586  0.3639
14337SOL    HW154665   4.144   9.884   4.862  1.9514 -0.6332  0.2061
14337SOL    HW254666   4.275   9.963   4.805  0.5221  0.8432 -1.0988
14338SOL     OW54667   6.990   9.550   6.639  0.2289  0.2503  0.0992
14338SOL    HW154668   6.892   9.564   6.649  0.0345  0.3271 -1.8653
14338SOL    HW254669   7.031   9.630   6.594  1.1312  0.0418  0.5281
14339SOL     OW54670   6.245   1.190   6.601  0.2825  0.6235  0.2804
14339SOL    HW154671   6.146   1.179   6.611 -0.0614  0.4270 -3.0535
14339SOL    HW254672   6.266   1.280   6.565  1.3942  0.8799  1.4998
14340SOL     OW54673   2.924   7.115   7.190  0.0521  0.1078 -0.1622
14340SOL    HW154674   2.945   7.176   7.267 -0.3646 -0.8838  0.7386
14340SOL    HW254675   3.010   7.078   7.154  0.5479  3.1950 -2.3773
14341SOL     OW54676   3.405   8.048   2.349  0.1155  0.0504 -0.4829
14341SOL    HW154677   3.358   8.134   2.370 -0.2006  0.0878 -1.3273
14341SOL    HW254678   3.489   8.067   2.298  0.1204 -0.1325 -0.5426
14342SOL     OW54679   3.336   2.207   3.443 -0.0572  0.4889 -0.3426
14342SOL    HW154680   3.430   2.214   3.412 -0.2808 -1.3115 -1.5392
14342SOL    HW254681   3.314   2.111   3.461 -2.4745  0.5158 -2.8226
14343SOL     OW54682   8.039   4.377   2.610 -0.1438 -0.0738  0.1052
14343SOL    HW154683   8.039   4.352   2.707 -0.3818  0.2213  0.1838
14343SOL    HW254684   8.117   4.335   2.565  0.9923  1.2551  0.8177
14344SOL     OW54685   1.987   0.930   6.273 -0.0706  0.2549 -0.4252
14344SOL    HW154686   1.955   1.024   6.282  1.2394  0.5237  1.7040
14344SOL    HW254687   1.938   0.872   6.338  0.3338 -0.2380 -0.5579
14345SOL     OW54688   3.551   5.115   7.354 -0.2161 -0.1541 -0.1111
14345SOL    HW154689   3.581   5.183   7.287 -0.0845 -0.1487 -0.0486
14345SOL    HW254690   3.482   5.155   7.414  0.5933  0.2397  0.5639
14346SOL     OW54691   7.532   9.922   7.253 -0.4884 -0.0621  0.2569
14346SOL    HW154692   7.572   9.831   7.256 -1.0633 -0.2659  2.1843
14346SOL    HW254693   7.452   9.922   7.192 -0.2070 -0.7262 -0.1077
14347SOL     OW54694   8.653   3.540   6.115  0.0638 -0.1700  0.5714
14347SOL    HW154695   8.613   3.560   6.026 -1.5146  1.4762  1.6313
14347SOL    HW254696   8.584   3.499   6.175  0.2283  1.6806  2.0613
14348SOL     OW54697   8.579   9.596   0.730 -0.3412 -0.0572  0.3740
14348SOL    HW154698   8.660   9.561   0.682  0.7901  0.1169  2.0991
14348SOL    HW254699   8.511   9.627   0.664  0.5137 -1.3254 -1.1149
14349SOL     OW54700   0.799   0.683   6.369 -0.1075 -0.3900  0.8785
14349SOL    HW154701   0.772   0.776   6.394 -0.5029  0.1928 -1.5817
14349SOL    HW254702   0.896   0.670   6.389  0.2845  1.0176 -0.0015
14350SOL     OW54703   1.539   0.194   2.779 -0.4477 -0.0328  0.4730
14350SOL    HW154704   1.574   0.272   2.831  0.0731 -0.0977  0.2220
14350SOL    HW254705   1.458   0.222   2.727 -1.2307 -0.0760  1.6463
14351SOL     OW54706   8.787   6.475   0.048 -0.7071 -0.0137  0.7136
14351SOL    HW154707   8.721   6.505   0.116 -1.3506  2.1363 -0.8126
14351SOL    HW254708   8.862   6.541   0.043 -0.6808 -0.1395 -0.6650
14352SOL     OW54709   0.557   2.792   6.129 -0.5154 -0.0267 -0.4069
14352SOL    HW154710   0.516   2.871   6.083  1.5303  1.6454  0.5559
14352SOL    HW254711   0.533   2.793   6.226  2.6120  1.6089  0.4072
14353SOL     OW54712   1.863   8.348   7.502 -0.2426  0.2755 -0.4006
14353SOL    HW154713   1.795   8.380   7.567  0.0341  0.3078 -0.1228
14353SOL    HW254714   1.870   8.248   7.509 -0.8341  0.1927 -0.9962
14354SOL     OW54715   4.690   2.285   6.544  0.3740 -0.8439  0.1001
14354SOL    HW154716   4.604   2.327   6.573  0.4924  0.4020 -1.2525
14354SOL    HW254717   4.670   2.198   6.499 -0.2037 -0.5456 -0.2401
14355SOL     OW54718   9.304   6.393   3.953 -0.4024 -0.7843  1.1827
14355SOL    HW154719   9.298   6.483   3.996  0.7064 -0.0334 -0.1897
14355SOL    HW254720   9.261   6.325   4.012 -2.5282  0.8662  1.5963
14356SOL     OW54721   3.593   0.409   7.948 -0.2871 -0.1003  0.1154
14356SOL    HW154722   3.519   0.414   8.014 -1.3628  0.8233 -1.1461
14356SOL    HW254723   3.641   0.496   7.944  0.4733 -0.4951  0.4591
14357SOL     OW54724   8.041   8.561   5.455  0.2332  0.0827  0.4363
14357SOL    HW154725   8.063   8.635   5.519  0.3212  1.0382 -0.6840
14357SOL    HW254726   8.032   8.475   5.505 -0.5341  0.9680  1.8491
14358SOL     OW54727   9.613   3.128   4.641  0.4667 -0.0613 -0.3364
14358SOL    HW154728   9.628   3.030   4.625  0.7063 -0.1508  0.4373
14358SOL    HW254729   9.606   3.145   4.739 -0.1164  0.6211 -0.4924
14359SOL     OW54730   1.406   9.783   3.335 -0.2699  0.1436  0.0160
14359SOL    HW154731   1.455   9.866   3.307 -1.4126  1.0737  0.7513
14359SOL    HW254732   1.389   9.786   3.433 -0.9942 -0.5981 -0.0811
14360SOL     OW54733   1.525   3.775   2.369  0.3640  0.4024  0.3000
14360SOL    HW154734   1.531   3.741   2.276  1.5946  0.1496  0.4620
14360SOL    HW254735   1.549   3.702   2.433 -0.1367  0.6702  0.7975
14361SOL     OW54736   9.820   4.928   6.534 -0.2672 -0.2406 -0.0822
14361SOL    HW154737   9.880   4.909   6.612  0.4011  0.4217 -0.4206
14361SOL    HW254738   9.726   4.902   6.556 -0.5715  2.3491  1.9300
14362SOL     OW54739   8.670   7.887   6.476  0.6420  0.0370  0.1304
14362SOL    HW154740   8.710   7.816   6.534  2.7482  0.7712 -0.3865
14362SOL    HW254741   8.737   7.960   6.462 -0.4386  0.6722 -1.8431
14363SOL     OW54742   9.031   5.694   5.165 -0.3529 -0.6196 -0.0899
14363SOL    HW154743   9.012   5.605   5.205 -0.4280 -0.6052 -0.0951
14363SOL    HW254744   8.951   5.728   5.116 -0.8968  0.2097  1.3459
14364SOL     OW54745   0.496   6.922   6.380  0.1484  0.0354 -0.0254
14364SOL    HW154746   0.537   7.012   6.396  0.1313 -0.1230  0.9458
14364SOL    HW254747   0.416   6.911   6.439 -0.4156 -0.2441 -0.8352
14365SOL     OW54748   3.127   1.391   5.977 -0.4173 -0.0195 -0.0020
14365SOL    HW154749   3.190   1.350   6.044 -1.7987  1.2485  2.1100
14365SOL    HW254750   3.075   1.464   6.021 -1.2658  0.9219 -2.5268
14366SOL     OW54751   8.121   2.117   8.164  0.0641 -0.4291  0.4660
14366SOL    HW154752   8.213   2.101   8.127 -0.8294 -0.8097 -1.6822
14366SOL    HW254753   8.062   2.039   8.143 -1.6665  1.2869 -1.3040
14367SOL     OW54754   9.809   1.598   4.884  0.2178 -0.3145  0.2205
14367SOL    HW154755   9.840   1.584   4.789 -1.0915  1.6605 -0.5281
14367SOL    HW254756   9.885   1.634   4.938  0.6352 -0.2819 -0.3742
14368SOL     OW54757   3.982   9.701   7.492  0.1523  0.3548  0.3005
14368SOL    HW154758   3.976   9.786   7.545 -2.6378  0.3108  0.1472
14368SOL    HW254759   3.890   9.664   7.480  0.8286 -0.1790 -3.6879
14369SOL     OW54760   1.374   2.206   0.416  0.2004  0.0878  0.8848
14369SOL    HW154761   1.368   2.223   0.318  1.2963 -0.5442  0.7043
14369SOL    HW254762   1.282   2.203   0.455 -0.1767  2.0969  0.1903
14370SOL     OW54763   4.997   9.026   3.002  0.8062  0.1989 -0.5831
14370SOL    HW154764   5.037   9.066   3.084  0.3862  0.7276 -0.6349
14370SOL    HW254765   5.066   8.970   2.955  0.8195 -0.7307  0.5377
14371SOL     OW54766   7.255   2.618   4.110 -0.2871  0.4480 -0.2322
14371SOL    HW154767   7.280   2.591   4.018 -0.4019 -0.0970 -0.1035
14371SOL    HW254768   7.155   2.625   4.118 -0.3411 -0.7947  0.2086
14372SOL     OW54769   4.418   5.990   3.043  0.1009 -0.3196 -0.9875
14372SOL    HW154770   4.383   5.960   2.954 -0.1004  1.3014 -1.4533
14372SOL    HW254771   4.395   5.921   3.112  1.0571 -2.0397 -2.3316
14373SOL     OW54772   8.172   8.104   2.121  0.0546 -0.5540 -0.3609
14373SOL    HW154773   8.133   8.196   2.113 -2.1248 -1.4440 -0.3971
14373SOL    HW254774   8.177   8.061   2.031  0.1414 -0.8265 -0.2286
14374SOL     OW54775   8.462   3.689   6.702 -0.1335  0.4129  0.6410
14374SOL    HW154776   8.373   3.645   6.693  0.9421 -1.7837  0.5989
14374SOL    HW254777   8.497   3.712   6.611 -0.6182  1.2380  0.6550
14375SOL     OW54778   8.972   0.832   7.263 -0.0443  0.1884 -0.1153
14375SOL    HW154779   9.069   0.854   7.274  1.0717 -4.5521  0.2784
14375SOL    HW254780   8.927   0.834   7.352  0.2862 -0.1614  0.0614
14376SOL     OW54781   9.989   1.724   3.687 -0.5624 -0.2177 -0.4279
14376SOL    HW154782  10.070   1.782   3.675 -0.0653 -0.5119  1.3292
14376SOL    HW254783   9.981   1.698   3.784 -1.6341 -1.8369 -0.9383
14377SOL     OW54784   1.965   3.583   2.543  0.0424  0.1210 -0.0133
14377SOL    HW154785   1.874   3.623   2.536  0.1125  0.4824  1.1026
14377SOL    HW254786   1.970   3.524   2.624  1.2152  1.2139  0.7313
14378SOL     OW54787   4.352   2.168   7.505 -0.1681 -0.2255  0.1126
14378SOL    HW154788   4.286   2.202   7.439 -0.6773 -1.5644 -0.0925
14378SOL    HW254789   4.389   2.080   7.473  0.9053 -0.0182  0.7449
14379SOL     OW54790   4.087   3.805   0.568  0.0408  0.3371  0.2904
14379SOL    HW154791   4.045   3.827   0.480 -0.4763  0.8033  0.6525
14379SOL    HW254792   4.029   3.739   0.617  1.9996 -2.6011 -1.1606
14380SOL     OW54793   8.120   6.596   0.718  0.1574  0.1266 -0.3917
14380SOL    HW154794   8.205   6.564   0.760  0.1207 -0.4679 -0.7664
14380SOL    HW254795   8.123   6.696   0.710  0.0310  0.2803  1.2979
14381SOL     OW54796   2.902   4.265   2.874 -0.2420 -1.0347  0.8289
14381SOL    HW154797   2.871   4.333   2.808 -0.0273 -0.0190  1.7651
14381SOL    HW254798   2.854   4.277   2.960  0.7334 -1.2353  1.4094
14382SOL     OW54799   8.512   3.765   1.387  1.1611 -0.4655 -0.0445
14382SOL    HW154800   8.606   3.797   1.377  1.0916  0.2595  1.4812
14382SOL    HW254801   8.459   3.832   1.439 -0.5223 -0.2920 -1.8832
14383SOL     OW54802   8.571   8.985   5.349 -0.3075 -0.3578 -0.1745
14383SOL    HW154803   8.517   9.028   5.277  1.2601 -0.1342 -1.2623
14383SOL    HW254804   8.620   8.907   5.311  0.7077 -0.1086  0.5934
14384SOL     OW54805   9.825   3.349   2.726  0.0584 -0.0532  0.4817
14384SOL    HW154806   9.818   3.323   2.823 -2.0439  1.9503  0.8969
14384SOL    HW254807   9.776   3.281   2.670  0.6860 -0.8343  0.8633
14385SOL     OW54808   4.490   9.385   3.536 -0.8807  0.3118 -0.1172
14385SOL    HW154809   4.483   9.396   3.437 -1.3133 -0.5660 -0.1951
14385SOL    HW254810   4.587   9.383   3.562 -0.7783  3.2652 -0.1783
14386SOL     OW54811   1.581   8.341   1.227 -0.5538  0.3471 -0.1724
14386SOL    HW154812   1.598   8.270   1.159 -1.9603 -0.5568  0.4032
14386SOL    HW254813   1.663   8.353   1.284  0.4557  0.7535 -1.6668
14387SOL     OW54814   8.448   3.899   0.305 -0.3030  0.0864 -0.5331
14387SOL    HW154815   8.516   3.864   0.370 -0.8165 -0.6217 -0.3680
14387SOL    HW254816   8.409   3.823   0.254 -1.8493  0.3581  0.2303
14388SOL     OW54817   6.403   4.879   0.427  0.4766 -0.2529  0.6765
14388SOL    HW154818   6.360   4.879   0.336  0.8747  1.4419  0.4693
14388SOL    HW254819   6.463   4.799   0.435  0.2808 -0.5284 -0.4803
14389SOL     OW54820   2.067   1.976   5.535 -0.0170 -0.0633  0.1951
14389SOL    HW154821   2.013   2.048   5.580  1.2038  0.3065  1.1197
14389SOL    HW254822   2.032   1.887   5.562  0.1568  0.1695  1.2233
14390SOL     OW54823   0.882   1.482   7.024 -0.0560  0.4378  0.3213
14390SOL    HW154824   0.860   1.434   7.109 -2.1972 -0.8726 -0.9026
14390SOL    HW254825   0.870   1.580   7.037 -3.4114  0.0418  0.7484
14391SOL     OW54826   9.993   7.715   7.603  0.5240 -0.0022  0.2924
14391SOL    HW154827   9.947   7.664   7.531 -0.4902  1.5462 -0.1871
14391SOL    HW254828  10.088   7.733   7.577 -0.3985  2.3261 -1.6123
14392SOL     OW54829   4.039   5.588   1.395 -0.1977 -0.8238  0.1360
14392SOL    HW154830   3.966   5.603   1.329  2.1070  0.1146 -2.2592
14392SOL    HW254831   4.084   5.675   1.416 -0.6952 -1.1514  2.7348
14393SOL     OW54832   3.052   2.077   7.413  0.2232  0.1821 -0.0798
14393SOL    HW154833   3.010   2.013   7.476 -0.7130  0.3308 -0.5453
14393SOL    HW254834   3.015   2.169   7.428  0.9125  0.4468 -0.0003
14394SOL     OW54835   4.195   7.094   5.217  0.4053 -0.5473 -0.1769
14394SOL    HW154836   4.245   7.007   5.221  0.1696 -0.6392  0.9487
14394SOL    HW254837   4.116   7.090   5.278  1.4082  1.0771  1.2603
14395SOL     OW54838   8.725   7.200   3.319 -0.3322  0.3500  0.3914
14395SOL    HW154839   8.664   7.264   3.365  0.8738  0.7303  1.5082
14395SOL    HW254840   8.708   7.202   3.220  0.0129  2.7807  0.3537
14396SOL     OW54841   2.804   3.112   1.492 -0.0709  0.0469  0.3221
14396SOL    HW154842   2.893   3.157   1.495  0.9355 -1.8834  0.5703
14396SOL    HW254843   2.745   3.157   1.425  1.7655  0.1855 -1.2436
14397SOL     OW54844   9.063   5.504   0.785  0.0695 -0.2212  0.3116
14397SOL    HW154845   9.038   5.600   0.797 -1.3960 -0.6373  0.6343
14397SOL    HW254846   9.036   5.452   0.866 -0.5909 -1.1887 -0.5156
14398SOL     OW54847   7.488   0.027   5.661 -0.2186 -0.1094 -0.0551
14398SOL    HW154848   7.454   0.089   5.590 -0.0849 -0.3560 -0.3381
14398SOL    HW254849   7.559  -0.032   5.622 -1.6878 -1.7579 -0.3218
14399SOL     OW54850   4.640   1.800   1.017 -0.5729  0.0493 -0.1504
14399SOL    HW154851   4.556   1.854   1.015  0.4977  1.7272 -0.4490
14399SOL    HW254852   4.664   1.772   0.924 -1.6003 -1.7341  0.0912
14400SOL     OW54853   5.531   2.504   0.686  0.4972 -0.2425 -0.0177
14400SOL    HW154854   5.501   2.552   0.769 -0.5119 -1.4881  0.3580
14400SOL    HW254855   5.452   2.462   0.642  1.3852 -1.6675 -0.2690
14401SOL     OW54856   5.886   9.150   6.434  0.2136  0.0249  0.0897
14401SOL    HW154857   5.881   9.064   6.383  0.3632 -0.3286  0.6759
14401SOL    HW254858   5.794   9.182   6.456  0.0356  1.2290 -2.1582
14402SOL     OW54859   3.814   4.154   3.022 -0.2867 -0.3125 -0.0517
14402SOL    HW154860   3.859   4.230   2.974  2.0421 -0.2034  2.1572
14402SOL    HW254861   3.723   4.182   3.051  0.6454  1.7671  0.9738
14403SOL     OW54862   7.618   7.580   3.321  0.0416  0.4415  0.2581
14403SOL    HW154863   7.709   7.557   3.286  0.4253  1.6886  0.4164
14403SOL    HW254864   7.561   7.613   3.246 -0.1742  0.0073  0.2274
14404SOL     OW54865   3.360   1.621   3.717  0.3823  0.5123  0.0135
14404SOL    HW154866   3.342   1.530   3.681 -1.0166  0.5531  0.5707
14404SOL    HW254867   3.453   1.649   3.693  0.1767 -0.2855 -1.7745
14405SOL     OW54868   6.641   9.095   2.498  0.1509 -0.0797  0.2242
14405SOL    HW154869   6.628   9.191   2.522 -1.0281 -0.2502  0.3064
14405SOL    HW254870   6.736   9.069   2.515  0.6730  1.2693 -0.5071
14406SOL     OW54871   4.679   8.011   1.202 -0.0397 -0.4893 -0.0851
14406SOL    HW154872   4.675   7.919   1.242  1.2907 -0.1775  0.8363
14406SOL    HW254873   4.651   8.078   1.270 -0.9933 -0.2074 -0.7530
14407SOL     OW54874   2.953   7.301   6.849 -0.0891  0.5578  0.8540
14407SOL    HW154875   3.023   7.372   6.839  0.0357  0.1738 -1.2787
14407SOL    HW254876   2.964   7.233   6.777 -2.0990  0.0102  1.0352
14408SOL     OW54877   0.216   2.512   0.792 -0.2453  0.2341  0.3971
14408SOL    HW154878   0.247   2.605   0.773  0.1111  0.3080  1.3177
14408SOL    HW254879   0.281   2.467   0.853 -0.4251 -0.6145 -0.0292
14409SOL     OW54880   4.358   1.934   2.129 -0.1110 -0.1925 -0.2519
14409SOL    HW154881   4.263   1.904   2.121 -0.5929  0.4322  2.7103
14409SOL    HW254882   4.418   1.854   2.137 -0.2124 -0.6298 -3.1344
14410SOL     OW54883   3.307   2.706   6.517  0.4694  0.1149  0.0737
14410SOL    HW154884   3.226   2.667   6.473  0.4480 -0.3685  0.5408
14410SOL    HW254885   3.362   2.632   6.556  1.3134  0.4023 -0.5383
14411SOL     OW54886   6.927   5.931   5.912  0.0468 -0.1464 -0.4742
14411SOL    HW154887   6.970   5.870   5.979  0.0089 -0.8205 -1.0470
14411SOL    HW254888   6.828   5.934   5.927  0.1075  0.1602 -0.1391
14412SOL     OW54889   5.143   6.471   2.469 -0.8110 -0.0194  0.3380
14412SOL    HW154890   5.142   6.455   2.370 -1.3456  0.1758  0.3120
14412SOL    HW254891   5.089   6.552   2.490 -0.2323  0.2706  0.7350
14413SOL     OW54892   3.464   2.440   0.971  0.0785  0.0880  0.6256
14413SOL    HW154893   3.463   2.479   1.063  2.6649 -2.5891  1.8832
14413SOL    HW254894   3.416   2.353   0.971  0.5734 -0.1902 -0.4291
14414SOL     OW54895   3.898   4.221   0.882  0.5976 -0.3487  0.2596
14414SOL    HW154896   3.842   4.303   0.898  0.2713 -0.9622  2.4642
14414SOL    HW254897   3.994   4.241   0.902  0.9221  0.1931 -1.7364
14415SOL     OW54898   4.454   8.941   3.144 -0.4787  0.5916  0.2079
14415SOL    HW154899   4.387   9.007   3.180  0.7358  3.2722 -2.1771
14415SOL    HW254900   4.544   8.985   3.139  0.4964 -1.4652 -0.8589
14416SOL     OW54901   0.886   6.693   1.667 -0.2764 -0.5335 -0.2287
14416SOL    HW154902   0.886   6.737   1.577  3.7438  0.0109 -0.0716
14416SOL    HW254903   0.879   6.762   1.739  1.3853 -0.5095 -0.0700
14417SOL     OW54904   4.020   1.855   1.200 -0.3827 -0.0836  0.2852
14417SOL    HW154905   3.925   1.843   1.171  0.0073 -3.9435  0.3549
14417SOL    HW254906   4.038   1.800   1.282  2.4504 -1.1975 -1.0007
14418SOL     OW54907   1.093   9.149   4.994 -0.3408 -0.2828 -0.4122
14418SOL    HW154908   1.075   9.218   5.064  2.4944 -1.5145  1.6215
14418SOL    HW254909   1.010   9.094   4.981 -1.5486  1.2727  0.4728
14419SOL     OW54910   1.587   0.693   1.945 -0.3552  0.1733 -0.7393
14419SOL    HW154911   1.525   0.616   1.959 -0.3822  0.9691  4.2248
14419SOL    HW254912   1.541   0.779   1.969  1.9972  0.9590  1.1294
14420SOL     OW54913   4.152   5.316   1.758 -0.1047 -0.2669 -0.0750
14420SOL    HW154914   4.171   5.319   1.856 -0.6315  2.3274 -0.0001
14420SOL    HW254915   4.230   5.352   1.708  0.2554 -1.8121 -0.6395
14421SOL     OW54916   3.191   8.279   3.784 -0.3746  0.4005 -0.0829
14421SOL    HW154917   3.267   8.281   3.719  0.3317 -0.5467  0.7113
14421SOL    HW254918   3.107   8.254   3.735  0.4171 -1.7600 -0.3975
14422SOL     OW54919   0.545   2.337   2.877 -0.4012  0.0387  0.7111
14422SOL    HW154920   0.575   2.256   2.927 -1.2016 -0.1634  0.8828
14422SOL    HW254921   0.576   2.331   2.782  1.4344  0.5985  1.2553
14423SOL     OW54922   0.641   4.591   7.338  0.1234 -0.8201  0.2751
14423SOL    HW154923   0.739   4.597   7.358  0.2423 -1.8580  0.0613
14423SOL    HW254924   0.620   4.645   7.257  0.7036 -1.4307 -0.2850
14424SOL     OW54925   1.638   0.904   1.263 -0.5060 -0.4106  0.2773
14424SOL    HW154926   1.672   0.932   1.173  0.9071  1.1896  1.2790
14424SOL    HW254927   1.658   0.976   1.330  0.0748 -2.3431  2.2239
14425SOL     OW54928   0.304   4.419   5.210  0.3164  0.1441 -0.3105
14425SOL    HW154929   0.369   4.370   5.152  0.3649  0.8721 -0.8718
14425SOL    HW254930   0.313   4.387   5.305 -1.2926 -2.6744 -1.0368
14426SOL     OW54931   3.008   4.511   1.367  0.2607  0.1484  0.1868
14426SOL    HW154932   3.019   4.590   1.426 -1.1631  0.7800 -0.3748
14426SOL    HW254933   3.014   4.427   1.421 -0.8298  0.7177  1.2003
14427SOL     OW54934   8.785   1.889   1.562  0.1563  0.2805 -0.3054
14427SOL    HW154935   8.788   1.818   1.491 -0.2446 -0.7212  0.6700
14427SOL    HW254936   8.879   1.913   1.588  0.2873 -0.6895  0.1456
14428SOL     OW54937   2.621   1.855   3.124 -0.3692 -0.1447 -0.3010
14428SOL    HW154938   2.712   1.821   3.150  0.6741  2.7854  0.0936
14428SOL    HW254939   2.631   1.925   3.054 -2.3056  0.6752  0.2087
14429SOL     OW54940   2.715   5.201   5.353  0.9296  0.0083 -0.5961
14429SOL    HW154941   2.795   5.218   5.410  0.5548  0.9114 -0.3222
14429SOL    HW254942   2.649   5.275   5.366 -0.6453 -1.5556  0.4188
14430SOL     OW54943   0.433   1.438   6.196  0.4798  0.1041  0.0336
14430SOL    HW154944   0.522   1.425   6.239  0.9120  2.9302  0.1301
14430SOL    HW254945   0.442   1.503   6.120 -1.5212  0.5575  0.1503
14431SOL     OW54946   4.868   2.600   5.315  0.2007  0.0031 -0.1096
14431SOL    HW154947   4.902   2.542   5.241  0.3433  2.2991 -1.9117
14431SOL    HW254948   4.945   2.649   5.357 -0.2618  1.5505 -0.9937
14432SOL     OW54949   2.775   9.312   7.377 -0.3448 -0.3058  0.0978
14432SOL    HW154950   2.678   9.291   7.365 -0.1510 -1.4528  0.4509
14432SOL    HW254951   2.830   9.251   7.320  0.2591 -1.1031  1.4996
14433SOL     OW54952   3.231   9.652   3.461 -0.5842 -0.2354 -0.0586
14433SOL    HW154953   3.208   9.578   3.523  1.0821 -0.4063  0.3718
14433SOL    HW254954   3.271   9.614   3.377  1.6073  0.2117  0.7496
14434SOL     OW54955   3.007   0.050   6.921 -0.2595 -0.3448 -0.0491
14434SOL    HW154956   3.029   0.091   7.010 -1.2589 -1.0726  0.5420
14434SOL    HW254957   2.908   0.048   6.909 -0.1325 -0.4642 -1.0842
14435SOL     OW54958   8.597   2.596   6.790 -0.1722  0.1170 -0.3703
14435SOL    HW154959   8.557   2.553   6.709  1.6368 -1.7493 -0.3208
14435SOL    HW254960   8.550   2.682   6.809 -0.8102  0.4430 -3.2254
14436SOL     OW54961   9.100   9.553   0.718  0.1435  0.2006  0.3088
14436SOL    HW154962   9.129   9.589   0.629 -0.9878 -0.7437 -0.4348
14436SOL    HW254963   9.156   9.474   0.742  0.8875  0.8469  0.7581
14437SOL     OW54964   1.148   8.333   6.384 -0.1298  0.3762  0.1694
14437SOL    HW154965   1.054   8.323   6.416  0.4013  0.2464  1.7290
14437SOL    HW254966   1.211   8.300   6.455  1.0417 -0.9002 -1.4480
14438SOL     OW54967   8.689   7.274   4.948  0.1788 -0.1325  0.2855
14438SOL    HW154968   8.686   7.322   5.036 -0.6259 -2.0595  1.3473
14438SOL    HW254969   8.753   7.198   4.954 -0.0333 -0.3957 -0.7288
14439SOL     OW54970   3.216   7.716   5.185  0.4717  0.5710 -0.1106
14439SOL    HW154971   3.186   7.786   5.120  0.0727  1.3324  0.8798
14439SOL    HW254972   3.171   7.731   5.273 -1.0051 -1.9796 -0.3629
14440SOL     OW54973   2.738   9.647   4.335  0.2624  0.0009 -0.2920
14440SOL    HW154974   2.797   9.568   4.315 -1.2299 -1.2151  0.0333
14440SOL    HW254975   2.737   9.664   4.433 -1.3397 -1.1157 -0.1024
14441SOL     OW54976   8.329   1.674   2.628  0.3222  0.1014  0.4941
14441SOL    HW154977   8.404   1.633   2.680  0.2710  0.3317  0.7488
14441SOL    HW254978   8.249   1.614   2.632  0.7088 -0.4905 -0.3731
14442SOL     OW54979   2.276   4.723   1.596  0.0831 -0.4833  0.1718
14442SOL    HW154980   2.296   4.634   1.554 -0.8633 -0.0574 -1.2340
14442SOL    HW254981   2.196   4.713   1.656 -0.6516 -0.3666 -0.7815
14443SOL     OW54982   0.780   7.637   4.655 -0.6316 -0.5215  0.3983
14443SOL    HW154983   0.710   7.698   4.692 -0.0487  0.2598  0.2326
14443SOL    HW254984   0.753   7.608   4.563 -0.5365  0.1220  0.1622
14444SOL     OW54985   8.782   3.033   0.374  0.8868 -0.4491 -0.7122
14444SOL    HW154986   8.699   2.977   0.376  1.0639 -0.7138 -0.8559
14444SOL    HW254987   8.810   3.054   0.468  1.8908 -2.1740 -0.5958
14445SOL     OW54988   4.756   2.316   0.273  0.0216  0.6028 -0.0460
14445SOL    HW154989   4.849   2.354   0.270  0.8098 -1.2396  0.6410
14445SOL    HW254990   4.743   2.253   0.197 -0.7346  0.9694 -0.2284
14446SOL     OW54991   8.211   2.307   1.707  0.2949 -0.7463  0.1547
14446SOL    HW154992   8.115   2.279   1.706  0.4721 -1.3409 -0.3097
14446SOL    HW254993   8.248   2.305   1.614  0.4291  0.6361  0.1635
14447SOL     OW54994   4.529   2.477   8.179 -0.2219  0.0959 -0.2668
14447SOL    HW154995   4.480   2.504   8.096 -2.4542  1.5995  1.4821
14447SOL    HW254996   4.534   2.555   8.242  0.7588 -1.2113  1.3308
14448SOL     OW54997   1.006   6.067   2.380  0.1437  0.0003 -0.8929
14448SOL    HW154998   1.010   5.968   2.398 -3.5627  0.1230  1.1889
14448SOL    HW254999   0.969   6.083   2.288  0.5793 -0.5523 -1.1657
14449SOL     OW55000   8.963   6.748   1.233  0.0335 -0.1201  0.6990
14449SOL    HW155001   8.882   6.696   1.260 -0.3340 -0.6207 -1.2657
14449SOL    HW255002   8.942   6.803   1.152  0.7724  2.1727  2.0156
14450SOL     OW55003   3.028   1.051   5.856  0.0255 -0.1620 -0.1586
14450SOL    HW155004   2.931   1.075   5.860 -0.1922 -1.1485  0.7414
14450SOL    HW255005   3.073   1.078   5.942  0.7883  1.2931 -1.0034
14451SOL     OW55006   8.164   0.023   1.417  0.2541  0.6751  0.1492
14451SOL    HW155007   8.252   0.053   1.381  0.1745  0.3753 -0.3002
14451SOL    HW255008   8.091   0.051   1.355  0.1728 -0.3921 -0.2537
14452SOL     OW55009   6.364   0.857   0.453 -0.1482  0.1155 -0.2443
14452SOL    HW155010   6.331   0.913   0.529  0.1176  0.3203 -0.2769
14452SOL    HW255011   6.460   0.832   0.470 -0.9297 -2.2308  0.8623
14453SOL     OW55012   7.511   5.302   6.869 -0.6213  0.4863 -0.0859
14453SOL    HW155013   7.525   5.203   6.863 -0.7508  0.5641 -2.0337
14453SOL    HW255014   7.519   5.331   6.964 -0.0877 -1.3222  0.4442
14454SOL     OW55015   3.406   4.286   3.934  0.0725 -0.7072  0.1001
14454SOL    HW155016   3.437   4.217   3.868 -0.5110 -0.0098 -0.8965
14454SOL    HW255017   3.319   4.257   3.974 -0.5152 -0.2186 -0.8235
14455SOL     OW55018   2.815   4.157   7.525 -0.2523 -0.0289 -0.0054
14455SOL    HW155019   2.889   4.093   7.542 -0.6547 -0.4231  0.2541
14455SOL    HW255020   2.812   4.226   7.598  1.6805  1.7029 -1.5016
14456SOL     OW55021   1.496   1.566   5.434  0.2524  0.6244  0.7526
14456SOL    HW155022   1.562   1.629   5.474  0.4715  1.1718 -0.4509
14456SOL    HW255023   1.433   1.616   5.374  1.3238 -0.4644 -1.3589
14457SOL     OW55024   4.054   8.028   4.234  0.4870 -0.0948 -0.3335
14457SOL    HW155025   4.072   7.999   4.328 -0.6554  2.0090  0.5858
14457SOL    HW255026   4.097   8.117   4.218  0.2136 -0.1821 -1.6305
14458SOL     OW55027   2.210   9.811   3.853 -0.0882  0.3229 -0.1221
14458SOL    HW155028   2.229   9.717   3.824  1.0266  0.5742 -0.2179
14458SOL    HW255029   2.167   9.860   3.777 -1.3074 -0.2965  0.1529
14459SOL     OW55030   2.210   5.438   6.142 -0.0423 -0.1262  0.7341
14459SOL    HW155031   2.110   5.441   6.148 -0.0706 -0.9227  0.7712
14459SOL    HW255032   2.249   5.507   6.203 -0.5956  1.7313 -0.9844
14460SOL     OW55033   9.232   9.685   1.482  0.2547 -0.1475 -0.4678
14460SOL    HW155034   9.139   9.674   1.447  0.2275 -2.8844  0.3816
14460SOL    HW255035   9.242   9.632   1.567  2.1664  1.2912  0.2386
14461SOL     OW55036   5.552   3.032   0.602  0.5970 -0.0863  0.2541
14461SOL    HW155037   5.491   3.084   0.662  2.7652  1.1775  1.4037
14461SOL    HW255038   5.626   2.992   0.656  2.1163  0.3687 -1.4395
14462SOL     OW55039   3.398   4.143   2.805  0.4117  0.4200  0.3717
14462SOL    HW155040   3.315   4.199   2.805  0.2347  0.1585  0.4056
14462SOL    HW255041   3.465   4.182   2.742  0.4268  0.8715  0.6646
14463SOL     OW55042   8.488   7.744   5.816 -0.5072  0.6250 -0.1568
14463SOL    HW155043   8.539   7.769   5.734 -0.0607 -1.1251 -0.4364
14463SOL    HW255044   8.398   7.709   5.790 -0.0921 -0.6141  0.0437
14464SOL     OW55045   2.665   6.464   5.053 -0.1120 -0.0259  0.4729
14464SOL    HW155046   2.667   6.366   5.075 -0.9003 -0.0221  0.5892
14464SOL    HW255047   2.614   6.512   5.123 -3.6435 -0.1679 -1.8629
14465SOL     OW55048   4.001   3.835   5.356  0.4386 -0.2327  0.2123
14465SOL    HW155049   3.904   3.817   5.372  0.3273 -0.0089 -0.2037
14465SOL    HW255050   4.029   3.797   5.268  0.9939 -1.2462  0.8134
14466SOL     OW55051   3.204   2.751   8.153 -0.0169  0.4537 -0.0943
14466SOL    HW155052   3.179   2.721   8.061 -0.9864  0.8507  0.0400
14466SOL    HW255053   3.146   2.705   8.220  2.3809 -1.7844  0.5112
14467SOL     OW55054   8.946   3.203   4.554 -0.0785  0.1723  0.2859
14467SOL    HW155055   8.989   3.150   4.628  1.9835  1.9183  0.3869
14467SOL    HW255056   8.867   3.252   4.590  0.8828  0.9690  1.3701
14468SOL     OW55057   1.555   9.725   2.921  0.5788  0.0364  0.2182
14468SOL    HW155058   1.472   9.669   2.915  0.8160 -0.4335  1.2657
14468SOL    HW255059   1.630   9.678   2.876  0.6444 -0.2281  0.6078
14469SOL     OW55060   8.277   6.333   6.174 -0.2089 -0.1899  0.4260
14469SOL    HW155061   8.263   6.431   6.190 -1.1077  0.2581 -2.7184
14469SOL    HW255062   8.375   6.314   6.165 -0.1783  1.0504 -2.3056
14470SOL     OW55063   0.016   5.812   0.198  0.0737 -0.1752 -0.3672
14470SOL    HW155064  -0.076   5.849   0.184  0.3729  1.1873  1.1509
14470SOL    HW255065   0.077   5.846   0.126 -0.3610 -0.2076 -0.7528
14471SOL     OW55066   8.258   3.123   2.730  0.3419  0.0776  0.4516
14471SOL    HW155067   8.314   3.042   2.713  0.1050  0.2108 -1.0475
14471SOL    HW255068   8.190   3.102   2.801  2.7421  0.1484  2.8289
14472SOL     OW55069   4.143   5.909   3.781  0.9202 -0.0252 -0.1686
14472SOL    HW155070   4.053   5.940   3.749  1.2479 -0.4116 -1.4868
14472SOL    HW255071   4.207   5.985   3.779  1.2998 -0.3690 -1.8167
14473SOL     OW55072   5.549   9.525   3.977  0.2719  0.2529  0.4508
14473SOL    HW155073   5.516   9.430   3.975  0.5250  0.1654  0.4241
14473SOL    HW255074   5.592   9.547   3.890  0.7330  0.2068  0.6660
14474SOL     OW55075   1.517   4.694   2.833 -0.4677  0.2128 -0.0278
14474SOL    HW155076   1.436   4.651   2.794 -1.3169  0.3605  1.5362
14474SOL    HW255077   1.547   4.643   2.913  0.0289  1.0787  0.3505
14475SOL     OW55078   6.429   8.358   5.863  0.1574  0.4212 -0.0133
14475SOL    HW155079   6.455   8.263   5.881  1.6918  1.1148  1.5871
14475SOL    HW255080   6.331   8.363   5.846  0.1111 -1.4955 -0.4059
14476SOL     OW55081   4.934   1.896   0.815  0.0644  0.1877 -0.2072
14476SOL    HW155082   5.009   1.869   0.875  0.5318  0.0499 -0.8519
14476SOL    HW255083   4.907   1.990   0.836 -1.2960 -0.6057  1.7722
14477SOL     OW55084   1.235   4.205   3.939 -0.1967 -0.3879  0.4806
14477SOL    HW155085   1.215   4.285   3.882  0.4785  2.1110  3.5447
14477SOL    HW255086   1.333   4.185   3.935 -0.5270 -1.7306 -1.0863
14478SOL     OW55087   9.934   8.055   1.123 -0.0467 -0.2984  0.6451
14478SOL    HW155088   9.922   7.962   1.159  1.3025 -0.4755  0.6339
14478SOL    HW255089   9.886   8.061   1.035  1.2995 -1.5288 -0.2122
14479SOL     OW55090   3.135   5.379   0.999  0.2154 -0.0293  0.1469
14479SOL    HW155091   3.054   5.334   0.960  1.1223 -0.6876 -0.9904
14479SOL    HW255092   3.204   5.310   1.022  1.3543  0.7177 -0.9891
14480SOL     OW55093   0.859   9.798   1.391  0.0573 -0.3393  0.4065
14480SOL    HW155094   0.852   9.716   1.449 -2.3498  1.0170  2.1032
14480SOL    HW255095   0.933   9.856   1.425  0.2829 -0.7399  0.6050
14481SOL     OW55096   9.916   7.604   2.533  0.1034  0.7221  0.1607
14481SOL    HW155097   9.956   7.595   2.624  1.5151  1.4423 -0.3792
14481SOL    HW255098   9.856   7.684   2.530 -1.9187 -0.7165  1.1496
14482SOL     OW55099   4.227   9.086   6.622 -0.2133  0.3351  0.4237
14482SOL    HW155100   4.172   9.108   6.702  0.0493 -0.3686  0.7954
14482SOL    HW255101   4.184   9.011   6.572 -0.2214  0.5813  0.0556
14483SOL     OW55102   9.771   0.855   7.336 -0.3880  0.4798  0.5659
14483SOL    HW155103   9.837   0.930   7.332 -1.5466  1.5036  0.2874
14483SOL    HW255104   9.686   0.888   7.376 -1.2319 -0.4569 -0.4416
14484SOL     OW55105   6.302   2.322   0.789  0.8604 -0.0290  0.0426
14484SOL    HW155106   6.234   2.281   0.849  2.0668 -2.7079 -0.3471
14484SOL    HW255107   6.392   2.318   0.831  1.6334 -1.4384 -1.6629
14485SOL     OW55108   0.434   3.259   3.090 -0.0080  0.1021  0.7271
14485SOL    HW155109   0.518   3.241   3.140 -0.4431  0.8426  1.7268
14485SOL    HW255110   0.389   3.172   3.068  1.2935 -0.3277 -0.3155
14486SOL     OW55111   2.292   0.089   5.081 -0.0209  0.4332  0.2377
14486SOL    HW155112   2.315   0.029   5.157  0.4948 -1.0234 -1.0376
14486SOL    HW255113   2.193   0.086   5.065  0.1711 -1.1966 -0.7162
14487SOL     OW55114   1.328   9.647   1.177  0.1033 -0.1632 -0.5031
14487SOL    HW155115   1.342   9.588   1.257  1.6506 -0.5947 -1.0674
14487SOL    HW255116   1.260   9.716   1.198  1.0263  0.1781  1.4575
14488SOL     OW55117   3.671   8.547   0.917  0.5444 -0.1132 -0.0183
14488SOL    HW155118   3.580   8.515   0.943  0.2240  0.3133 -0.5849
14488SOL    HW255119   3.679   8.545   0.817  1.5156 -1.1000  0.0827
14489SOL     OW55120   9.628   6.519   3.255 -0.5274  0.3734 -0.2773
14489SOL    HW155121   9.556   6.453   3.276 -1.2893  1.3239  0.1224
14489SOL    HW255122   9.704   6.508   3.319 -0.8091  0.1116  0.0120
14490SOL     OW55123   1.095   7.543   4.299 -0.5022 -0.2624 -0.1090
14490SOL    HW155124   1.177   7.488   4.286  0.4069  1.1803 -0.5442
14490SOL    HW255125   1.090   7.572   4.395 -0.9895 -1.0877  0.1243
14491SOL     OW55126   9.389   7.624   1.604 -0.4907  0.1463 -0.5499
14491SOL    HW155127   9.347   7.547   1.652 -0.2638 -0.2519 -0.9858
14491SOL    HW255128   9.453   7.671   1.666  0.4302 -0.8718 -0.7071
14492SOL     OW55129   7.698   2.616   2.242 -0.3569 -0.4900  0.2517
14492SOL    HW155130   7.639   2.617   2.161  1.3953  0.2747 -1.0695
14492SOL    HW255131   7.712   2.710   2.274 -2.3152 -0.9113  2.4341
14493SOL     OW55132   4.167   4.069   4.141 -0.3656  0.9348  1.0249
14493SOL    HW155133   4.158   3.969   4.147  0.3878  0.8586  0.8616
14493SOL    HW255134   4.261   4.093   4.119 -0.7009  1.6597  0.3601
14494SOL     OW55135   7.519   8.269   3.048  0.2018 -0.0576  0.6481
14494SOL    HW155136   7.507   8.368   3.056  0.4688 -0.1266  2.0660
14494SOL    HW255137   7.598   8.241   3.103 -0.2795 -1.1463  0.7928
14495SOL     OW55138   8.659   9.858   4.654 -0.0341 -0.2815  0.9340
14495SOL    HW155139   8.706   9.816   4.576 -1.3520  0.3255 -0.2097
14495SOL    HW255140   8.704   9.830   4.739  2.0865 -0.0806 -0.0883
14496SOL     OW55141   8.258   8.440   5.085  0.8117  0.3085 -0.0729
14496SOL    HW155142   8.265   8.356   5.138  1.8387 -0.2890 -1.1550
14496SOL    HW255143   8.198   8.504   5.134 -0.2436 -1.1470  0.5988
14497SOL     OW55144   1.558   0.291   2.100 -0.7990  0.6837 -1.2303
14497SOL    HW155145   1.537   0.356   2.173  0.8977 -0.3486  0.2278
14497SOL    HW255146   1.599   0.209   2.140  1.0855  0.5139 -3.4448
14498SOL     OW55147   9.410   9.380   5.539  0.3144  0.7619 -0.2268
14498SOL    HW155148   9.439   9.452   5.602  1.3734  0.2783 -0.1507
14498SOL    HW255149   9.471   9.301   5.548 -1.1277 -0.3265  0.0170
14499SOL     OW55150   1.203   0.053   2.542 -0.7712  0.2239  0.1503
14499SOL    HW155151   1.280   0.016   2.595 -0.3814  0.6897 -0.0851
14499SOL    HW255152   1.125  -0.008   2.550  0.0225 -0.9115 -0.6370
14500SOL     OW55153   1.750   1.026   2.915  0.2563 -0.0983 -0.1042
14500SOL    HW155154   1.762   1.042   2.817  2.0259 -0.6585  0.0059
14500SOL    HW255155   1.728   0.929   2.930 -1.0858  0.2129 -0.0274
14501SOL     OW55156   9.286   5.353   5.096 -0.0973  0.1541  0.1951
14501SOL    HW155157   9.384   5.336   5.085 -0.0550  1.1037 -0.9751
14501SOL    HW255158   9.270   5.452   5.105 -0.9748  0.0233  0.1498
14502SOL     OW55159   6.775   1.394   4.314  0.3460 -0.0515 -0.1503
14502SOL    HW155160   6.768   1.304   4.358  0.5187 -0.4373 -0.9130
14502SOL    HW255161   6.834   1.388   4.234 -1.3976  0.2520 -1.4781
14503SOL     OW55162   3.019   8.774   2.421 -0.0057 -0.0586 -0.2595
14503SOL    HW155163   2.969   8.818   2.495 -0.6234  1.1459 -1.3697
14503SOL    HW255164   2.981   8.683   2.405 -0.2554 -0.0908  0.5007
14504SOL     OW55165   5.709   0.395   6.708  0.7192  0.3459  0.5362
14504SOL    HW155166   5.640   0.444   6.763 -1.5055 -2.7772  0.6861
14504SOL    HW255167   5.666   0.359   6.626  2.5569 -0.4464 -0.0940
14505SOL     OW55168   1.573   5.098   5.243 -0.0017  0.3314  0.1190
14505SOL    HW155169   1.672   5.097   5.232  0.0738  1.8987  0.6429
14505SOL    HW255170   1.534   5.172   5.188 -0.8708 -0.1669  0.0532
14506SOL     OW55171   2.472   1.133   5.674 -0.5330  0.1476  0.0834
14506SOL    HW155172   2.523   1.079   5.741  2.1459  2.0375 -0.3338
14506SOL    HW255173   2.389   1.168   5.716  0.4415  0.1952  2.0469
14507SOL     OW55174   0.596   4.005   3.799  0.0278 -0.1254 -0.1701
14507SOL    HW155175   0.521   3.988   3.735  0.8096 -2.0989 -0.6013
14507SOL    HW255176   0.682   3.971   3.760  0.6513 -0.6310  1.5794
14508SOL     OW55177   1.950   2.557   7.244 -0.1916 -0.0097  0.4085
14508SOL    HW155178   1.852   2.558   7.226  0.1831  0.2932 -1.7993
14508SOL    HW255179   1.967   2.520   7.335 -2.1539 -3.4066 -0.5009
14509SOL     OW55180   7.518   8.820   2.570  0.2501  0.4161 -0.6191
14509SOL    HW155181   7.593   8.862   2.621 -0.7705  0.8817  0.5278
14509SOL    HW255182   7.439   8.882   2.570 -0.9035 -1.0273  0.1352
14510SOL     OW55183   8.158   3.786   7.597  0.3238  0.0571  0.1584
14510SOL    HW155184   8.077   3.729   7.581 -0.3194  0.5961  1.4953
14510SOL    HW255185   8.133   3.882   7.594  1.1251  0.2476 -0.5246
14511SOL     OW55186   4.654   0.446   3.509 -0.9588 -0.4554  0.3488
14511SOL    HW155187   4.710   0.411   3.584 -0.7325 -0.2921  0.2553
14511SOL    HW255188   4.629   0.371   3.448 -0.0724 -0.3800 -0.1162
14512SOL     OW55189   0.226   0.509   7.075  0.0397  0.4167  0.5579
14512SOL    HW155190   0.245   0.573   7.000  0.8212 -0.5871 -0.1067
14512SOL    HW255191   0.127   0.509   7.095 -0.1796  0.6272 -0.5237
14513SOL     OW55192   7.393   4.218   5.890  0.0474  0.5982  0.5963
14513SOL    HW155193   7.449   4.138   5.909 -0.4409  0.5262  1.7497
14513SOL    HW255194   7.311   4.216   5.947 -1.2664  0.5725 -1.2569
14514SOL     OW55195   6.683   7.922   4.961 -0.3861  0.3099  0.6787
14514SOL    HW155196   6.767   7.961   4.999  0.2527 -0.7691  0.3932
14514SOL    HW255197   6.702   7.883   4.871 -1.3765  0.7640  0.2658
14515SOL     OW55198   0.006   4.989   3.185 -0.3564  1.2099 -0.3192
14515SOL    HW155199  -0.060   4.933   3.136  2.2519 -0.8070 -1.6905
14515SOL    HW255200   0.006   4.964   3.282  0.3205 -0.7801 -0.8007
14516SOL     OW55201   0.859   2.864   2.729 -0.1039  0.2638  0.1322
14516SOL    HW155202   0.786   2.799   2.751 -0.6636 -0.0806 -2.4845
14516SOL    HW255203   0.945   2.815   2.719  0.2091  0.4598  1.7265
14517SOL     OW55204   2.583   0.963   3.775  0.0323  0.0278  0.8639
14517SOL    HW155205   2.565   1.051   3.730 -0.5464 -0.9801 -0.9124
14517SOL    HW255206   2.664   0.972   3.834  2.0030  0.9042 -1.8667
14518SOL     OW55207   6.047   8.341   5.617  0.1091 -0.1279 -0.2572
14518SOL    HW155208   6.075   8.349   5.713 -1.3759  0.2431  0.1643
14518SOL    HW255209   6.011   8.429   5.585  1.0605 -0.1136 -1.3163
14519SOL     OW55210   2.694   4.638   4.576  0.0158 -0.0304  0.3668
14519SOL    HW155211   2.772   4.637   4.513 -0.9183 -2.5046 -0.8582
14519SOL    HW255212   2.615   4.679   4.530 -0.1883 -0.2220  0.5418
14520SOL     OW55213   7.106   4.213   1.580 -0.2013 -0.9166  0.0044
14520SOL    HW155214   7.108   4.126   1.629 -1.4784 -0.9727 -0.0325
14520SOL    HW255215   7.052   4.204   1.497 -0.8616  0.0707  0.3120
14521SOL     OW55216   8.669   9.479   3.215  0.0284  0.1394 -0.1931
14521SOL    HW155217   8.715   9.562   3.244 -1.0581  0.0828  1.7860
14521SOL    HW255218   8.601   9.501   3.144 -0.4164  0.9785  0.4862
14522SOL     OW55219   3.776   5.255   4.586  0.8717  0.1348  0.0781
14522SOL    HW155220   3.741   5.338   4.543  0.0136  0.5292  1.5183
14522SOL    HW255221   3.706   5.215   4.645  1.1302 -1.8602 -0.9388
14523SOL     OW55222   7.894   3.725   1.180 -0.3478  0.3111  0.2110
14523SOL    HW155223   7.965   3.723   1.110 -0.2516 -0.2159  0.3269
14523SOL    HW255224   7.819   3.663   1.155 -0.6422  0.6583  0.2227
14524SOL     OW55225   8.459   2.222   7.222  0.3702  0.4900  0.4646
14524SOL    HW155226   8.409   2.245   7.305  1.1790 -0.0999  1.1242
14524SOL    HW255227   8.465   2.303   7.163 -1.1374  0.6304  0.4749
14525SOL     OW55228   7.964   0.086   5.532 -0.0698  0.4768  0.3013
14525SOL    HW155229   7.902   0.121   5.462  0.5008 -0.9839 -0.9720
14525SOL    HW255230   7.935   0.119   5.621 -2.0052  0.7469 -0.3954
14526SOL     OW55231   3.526   9.986   5.625  0.3297 -0.3551 -0.2553
14526SOL    HW155232   3.476  10.034   5.697 -1.3390 -2.0094 -0.2687
14526SOL    HW255233   3.464   9.963   5.550  1.5289 -0.7551 -1.1441
14527SOL     OW55234   2.374   3.841   0.794  0.0554  0.5878  0.2143
14527SOL    HW155235   2.429   3.847   0.711  0.3206 -1.1302  0.2473
14527SOL    HW255236   2.401   3.760   0.847 -2.0655  0.0485  0.5342
14528SOL     OW55237   3.008   7.006   5.725 -0.3724 -0.5819 -0.0932
14528SOL    HW155238   3.096   6.992   5.681 -0.5772  0.4440 -0.8458
14528SOL    HW255239   2.964   6.918   5.741 -0.0477 -0.9954 -1.4446
14529SOL     OW55240   8.972   4.620   0.719  0.0928 -0.0876  0.4114
14529SOL    HW155241   8.915   4.542   0.695 -0.2441  0.0764  0.6737
14529SOL    HW255242   8.917   4.689   0.766  0.2692  0.5416 -0.2977
14530SOL     OW55243   7.607   9.683   7.897  0.7618 -0.4384  0.1799
14530SOL    HW155244   7.594   9.592   7.857  0.0442 -0.2964  0.0882
14530SOL    HW255245   7.578   9.682   7.992 -3.2718  0.7488 -0.9546
14531SOL     OW55246   2.171   8.275   7.746  0.4757 -0.3503  0.2782
14531SOL    HW155247   2.149   8.357   7.799  2.1177  0.8962 -0.9298
14531SOL    HW255248   2.093   8.213   7.748 -0.5729  0.9674  1.7183
14532SOL     OW55249   9.316   0.397   7.221 -0.5960  0.1748 -0.9083
14532SOL    HW155250   9.243   0.333   7.246  0.8531 -0.3589  2.2422
14532SOL    HW255251   9.285   0.491   7.236 -0.8034 -0.0364  0.0223
14533SOL     OW55252   7.510   3.036   1.690  0.4348  0.2692  0.0927
14533SOL    HW155253   7.418   3.040   1.730  0.8997  0.7620  1.1480
14533SOL    HW255254   7.503   3.030   1.591 -0.7451 -0.1219  0.1872
14534SOL     OW55255   3.690   4.048   4.140 -0.0550 -0.1307 -0.2166
14534SOL    HW155256   3.725   4.124   4.086 -0.9262 -0.2225 -0.9371
14534SOL    HW255257   3.612   4.079   4.195  0.4019 -0.1973  0.4729
14535SOL     OW55258   2.501   6.865   1.780 -0.0066 -0.3111  0.3579
14535SOL    HW155259   2.462   6.800   1.715 -0.2707 -0.5540  0.7568
14535SOL    HW255260   2.593   6.891   1.750 -0.9369  1.1936 -1.2269
14536SOL     OW55261   2.970   4.259   3.719  0.1813 -0.1702 -0.3549
14536SOL    HW155262   2.900   4.312   3.768 -1.2434 -0.4588 -2.0289
14536SOL    HW255263   2.928   4.211   3.642  2.1199 -0.8678 -1.0122
14537SOL     OW55264   3.990   5.121   5.878  0.1695  0.1458  0.0691
14537SOL    HW155265   4.010   5.153   5.785 -0.6044 -1.0869 -0.5314
14537SOL    HW255266   4.029   5.029   5.890 -0.9491 -0.2859  0.4786
14538SOL     OW55267   2.173   3.346   3.430  0.0862 -0.0759  0.2693
14538SOL    HW155268   2.268   3.335   3.401  0.2021 -0.9971  0.9752
14538SOL    HW255269   2.129   3.257   3.433 -1.3169  0.5139 -1.7412
14539SOL     OW55270   9.726   7.554   4.222  0.0896 -0.2444 -0.4973
14539SOL    HW155271   9.737   7.605   4.307 -1.3225  2.9666 -2.1480
14539SOL    HW255272   9.787   7.591   4.152 -0.4218 -1.3089 -1.5392
14540SOL     OW55273   3.748   6.508   2.430 -0.0815 -0.2041 -0.3333
14540SOL    HW155274   3.686   6.539   2.503  0.5017  0.7750 -0.2410
14540SOL    HW255275   3.827   6.462   2.471 -1.1857 -2.3089 -0.4907
14541SOL     OW55276   8.066   7.609   4.413  0.0279  0.1421  0.0928
14541SOL    HW155277   8.056   7.623   4.314  1.1115  3.4136  0.3660
14541SOL    HW255278   7.979   7.627   4.458  0.1989  1.4240 -0.0533
14542SOL     OW55279   2.898   8.157   5.311 -0.3487  0.2647 -0.0294
14542SOL    HW155280   2.904   8.075   5.368 -0.4484  0.9029  0.9320
14542SOL    HW255281   2.986   8.206   5.314 -0.8931  1.2191  1.0246
14543SOL     OW55282   0.502   7.376   2.792  0.6904 -0.1856 -0.2457
14543SOL    HW155283   0.403   7.390   2.780  0.2811 -1.6295  1.1842
14543SOL    HW255284   0.550   7.460   2.773 -0.9677  0.9638  0.4703
14544SOL     OW55285   1.472   3.213   3.539 -0.5047  0.6033  0.6302
14544SOL    HW155286   1.560   3.252   3.513 -0.3771  0.1869  0.4226
14544SOL    HW255287   1.408   3.223   3.463 -0.4229  0.2725  0.5135
14545SOL     OW55288   3.751   0.609   6.151  0.5481  0.4073  0.2425
14545SOL    HW155289   3.792   0.546   6.085  0.6874 -0.6763  1.3650
14545SOL    HW255290   3.652   0.595   6.153  0.4128  1.1962 -0.5238
14546SOL     OW55291   3.213   5.832   1.662 -0.4414 -0.5497 -0.3626
14546SOL    HW155292   3.173   5.748   1.701 -0.7325 -0.2330  0.0270
14546SOL    HW255293   3.147   5.906   1.668 -0.4682 -0.4852 -1.4433
14547SOL     OW55294   9.499   1.381   3.059  0.0491 -0.6095 -0.5701
14547SOL    HW155295   9.431   1.453   3.071  0.2687 -0.2355 -1.5288
14547SOL    HW255296   9.459   1.306   3.005  0.4068 -0.3576 -1.1955
14548SOL     OW55297   9.407   8.077   3.379 -0.1747  0.6748 -0.0044
14548SOL    HW155298   9.405   8.025   3.465 -0.1689 -0.4275 -0.6530
14548SOL    HW255299   9.378   8.171   3.396 -1.9143  0.0080  0.9006
14549SOL     OW55300   2.844   7.041   6.395  0.7071  0.3289  0.4517
14549SOL    HW155301   2.771   7.010   6.456  1.3821 -1.1532  0.5526
14549SOL    HW255302   2.818   7.127   6.353  0.8332  2.1750  3.9397
14550SOL     OW55303   3.522   4.974   1.961 -0.0661  0.4695 -0.0689
14550SOL    HW155304   3.602   4.933   2.006 -1.3099  0.0497  1.8599
14550SOL    HW255305   3.468   4.902   1.917 -0.6033  0.4231  0.6491
14551SOL     OW55306   9.735   5.719   5.929  0.2239 -0.1541 -0.6920
14551SOL    HW155307   9.698   5.811   5.933 -0.5799 -0.5229  0.8898
14551SOL    HW255308   9.758   5.696   5.835 -0.2429  1.3926 -1.1941
14552SOL     OW55309   1.158   4.643   6.471 -0.4740 -0.0618 -0.1338
14552SOL    HW155310   1.185   4.654   6.376  0.7140  0.0485  0.2131
14552SOL    HW255311   1.173   4.548   6.499 -2.5651 -0.5453 -0.5909
14553SOL     OW55312   0.882   0.789   4.856  0.3112  0.2669  0.0396
14553SOL    HW155313   0.920   0.788   4.948  0.1523 -1.0774  0.1092
14553SOL    HW255314   0.895   0.879   4.815  0.6933  0.7658  1.2444
14554SOL     OW55315   8.081   7.671   1.661  0.8422 -0.0058 -0.1422
14554SOL    HW155316   8.109   7.655   1.755  0.2841  0.5021  0.1160
14554SOL    HW255317   8.061   7.768   1.648 -0.8264 -0.3428 -0.2934
14555SOL     OW55318   3.553   5.366   8.166  0.1295 -0.6699  0.1253
14555SOL    HW155319   3.529   5.270   8.180 -1.8367 -0.1348  0.5787
14555SOL    HW255320   3.548   5.388   8.069  0.6299 -1.0360  0.0165
14556SOL     OW55321   3.339   8.135   0.659  0.4691  0.0119  0.0293
14556SOL    HW155322   3.419   8.191   0.680  0.2473  1.0847 -1.8386
14556SOL    HW255323   3.257   8.181   0.692  0.4174  0.1046 -0.2255
14557SOL     OW55324   2.910   8.726   4.148 -0.0194 -0.1009 -0.5277
14557SOL    HW155325   3.005   8.758   4.142  0.2192 -0.6795  0.0716
14557SOL    HW255326   2.901   8.663   4.225 -0.8050 -0.3598 -0.8255
14558SOL     OW55327   7.470   6.595   6.800 -0.6714  0.2496  0.4395
14558SOL    HW155328   7.543   6.579   6.866 -0.6775  1.4557  0.7566
14558SOL    HW255329   7.509   6.620   6.712 -0.6949  2.4503  1.0236
14559SOL     OW55330   3.556   1.401   2.228 -0.1616 -0.1638 -0.3972
14559SOL    HW155331   3.620   1.394   2.151  0.1776  2.1529 -0.3793
14559SOL    HW255332   3.579   1.333   2.297 -1.0031 -2.8779 -2.6964
14560SOL     OW55333   3.737   8.054   4.051 -0.5887 -0.1191 -0.0454
14560SOL    HW155334   3.822   8.079   4.004 -1.5050 -2.7216 -3.3615
14560SOL    HW255335   3.672   8.129   4.046  0.2881  0.6071 -0.6448
14561SOL     OW55336   3.576   1.087   7.439  0.1680 -0.3944 -0.7367
14561SOL    HW155337   3.629   1.074   7.522  0.4438 -1.4303 -1.0661
14561SOL    HW255338   3.637   1.083   7.359  0.0493  1.5386 -0.9504
14562SOL     OW55339   9.751   8.464   6.288  0.2048 -0.0705  0.0836
14562SOL    HW155340   9.800   8.403   6.226  1.8135  1.8330 -0.5528
14562SOL    HW255341   9.685   8.518   6.235 -1.6949 -1.7072  0.7455
14563SOL     OW55342   4.788   3.106   0.431 -0.1318  0.0220 -0.1405
14563SOL    HW155343   4.797   3.192   0.481 -1.5212 -0.7252  1.4461
14563SOL    HW255344   4.691   3.088   0.413  0.3375  0.6502 -3.8603
14564SOL     OW55345   9.461   3.636   1.213 -0.2064 -0.3167  0.1966
14564SOL    HW155346   9.424   3.593   1.131 -2.2572  0.5712  0.6409
14564SOL    HW255347   9.428   3.587   1.294  1.9963 -1.3376  0.5267
14565SOL     OW55348   9.228   9.657   7.435 -0.0792 -0.1860  0.7703
14565SOL    HW155349   9.164   9.624   7.504 -0.6378  0.9750  0.8284
14565SOL    HW255350   9.304   9.705   7.481  0.2876 -0.6500  0.6509
14566SOL     OW55351   9.493   1.518   2.137 -0.2362 -0.3482  0.0015
14566SOL    HW155352   9.463   1.426   2.112  1.4533 -1.5468  2.2766
14566SOL    HW255353   9.417   1.568   2.178 -0.3238 -1.8410  1.6867
14567SOL     OW55354   0.029   8.535   5.652  0.2850  0.2810  0.2421
14567SOL    HW155355   0.090   8.514   5.575  1.8067 -1.4562  1.8490
14567SOL    HW255356   0.083   8.571   5.728 -1.2168  2.0711  0.4965
14568SOL     OW55357   4.339   5.203   1.082  0.0407 -0.0801 -0.8538
14568SOL    HW155358   4.381   5.250   1.004 -0.8815 -0.2958 -1.4921
14568SOL    HW255359   4.278   5.265   1.130  2.8529  0.9429  1.4976
14569SOL     OW55360   9.038   8.132   7.927 -0.0800 -0.1699  0.8014
14569SOL    HW155361   8.993   8.049   7.960 -1.7870  0.4005 -0.0523
14569SOL    HW255362   9.041   8.200   8.000 -2.3904  0.4968  0.3144
14570SOL     OW55363   7.934   9.377   7.936 -0.0741  0.1848  0.3754
14570SOL    HW155364   7.923   9.467   7.894 -0.7890 -0.1363 -0.1357
14570SOL    HW255365   8.018   9.335   7.903  0.9828  1.2256  1.6611
14571SOL     OW55366   4.804   9.697   2.410 -0.7294 -0.3092 -0.4681
14571SOL    HW155367   4.778   9.659   2.499 -0.9437  0.8938 -0.0010
14571SOL    HW255368   4.829   9.793   2.421 -1.4791  0.0575 -1.8292
14572SOL     OW55369   6.395   7.444   5.879  0.6115  0.0023  0.1702
14572SOL    HW155370   6.493   7.438   5.902  1.0420  0.7958 -1.3831
14572SOL    HW255371   6.344   7.476   5.959  1.7432  0.4353  0.7292
14573SOL     OW55372   0.718   9.106   6.982  0.8350  0.3912  0.0693
14573SOL    HW155373   0.699   9.052   6.899 -0.5350 -0.8060  1.1288
14573SOL    HW255374   0.662   9.188   6.982  1.6359  0.9475 -0.7031
14574SOL     OW55375   4.782   9.530   6.283  0.1457  0.0131 -0.3083
14574SOL    HW155376   4.778   9.555   6.186  2.2385 -1.9070 -0.9413
14574SOL    HW255377   4.747   9.437   6.294  1.1045 -0.2449  0.5743
14575SOL     OW55378   7.543   9.613   4.895  0.0165  0.0952 -0.4841
14575SOL    HW155379   7.444   9.606   4.881 -0.1351  0.5992  0.3261
14575SOL    HW255380   7.589   9.612   4.806 -0.6472 -1.1048 -0.8267
14576SOL     OW55381   7.487   8.314   5.380 -0.0879  0.2877 -0.2777
14576SOL    HW155382   7.442   8.366   5.307 -0.9740 -1.1928 -0.7921
14576SOL    HW255383   7.514   8.225   5.345  3.2749  1.1349  0.0225
14577SOL     OW55384   1.872   2.946   2.181  0.2027 -0.3608  0.7305
14577SOL    HW155385   1.890   2.873   2.114  0.2436 -1.0073  1.4343
14577SOL    HW255386   1.781   2.932   2.222 -0.3148  0.7071 -0.0426
14578SOL     OW55387   7.496   2.140   1.110 -0.4575  0.0420 -0.0125
14578SOL    HW155388   7.397   2.136   1.120 -0.4898  1.1993  0.1960
14578SOL    HW255389   7.528   2.231   1.135  0.5430 -0.0252 -1.0316
14579SOL     OW55390   7.641   0.050   4.069 -0.2299  0.2399 -0.0535
14579SOL    HW155391   7.740   0.037   4.062 -0.4137 -0.9223 -0.5379
14579SOL    HW255392   7.594  -0.034   4.043 -1.3941  1.2553 -1.3372
14580SOL     OW55393   8.561   0.920   7.154 -0.2359 -0.4569  0.0588
14580SOL    HW155394   8.538   0.940   7.250  2.0560 -2.1554  1.0093
14580SOL    HW255395   8.498   0.852   7.118 -1.1773  0.2651  0.3328
14581SOL     OW55396   0.787   9.371   1.158 -0.5748  0.4157 -0.4218
14581SOL    HW155397   0.809   9.316   1.078 -1.8672 -0.1624 -0.4043
14581SOL    HW255398   0.838   9.456   1.156  0.6358 -0.3122 -1.0177
14582SOL     OW55399   9.999   8.181   5.559  1.0357 -0.4959 -0.1802
14582SOL    HW155400   9.986   8.249   5.486 -3.1879 -1.7724 -0.7354
14582SOL    HW255401  10.026   8.228   5.643 -2.2337  2.0523 -0.4266
14583SOL     OW55402   5.083   9.312   5.684  0.2444 -0.1099  0.4314
14583SOL    HW155403   5.029   9.395   5.670  2.4871  1.3163  0.0515
14583SOL    HW255404   5.067   9.276   5.776 -1.2323  0.3596  0.3696
14584SOL     OW55405   5.465   0.290   4.000  0.3921  0.8741  0.1718
14584SOL    HW155406   5.465   0.200   3.957 -0.3703  1.1432 -0.4022
14584SOL    HW255407   5.474   0.360   3.930 -1.7306  1.3574  0.3278
14585SOL     OW55408   7.315   3.821   1.352  0.1042 -0.1737 -0.3139
14585SOL    HW155409   7.357   3.783   1.435  0.4919  0.3510 -0.2663
14585SOL    HW255410   7.386   3.858   1.293 -0.3136  1.0399 -0.0752
14586SOL     OW55411   2.716   4.326   7.961 -0.2607  0.2420  0.3471
14586SOL    HW155412   2.641   4.393   7.956 -1.1583 -0.6720  1.3412
14586SOL    HW255413   2.794   4.368   8.008 -0.2226  1.1193 -0.4695
14587SOL     OW55414   4.079   4.838   5.708 -0.6515  0.3480  0.3822
14587SOL    HW155415   4.166   4.838   5.658  0.0984  0.6632  1.6531
14587SOL    HW255416   4.011   4.785   5.657  1.0517 -2.2134  0.6716
14588SOL     OW55417   4.021   5.264   3.115 -0.4934  0.1379  0.2656
14588SOL    HW155418   3.950   5.242   3.049 -0.9352  1.0130  0.4439
14588SOL    HW255419   4.084   5.186   3.124 -1.4867 -0.6756  0.1963
14589SOL     OW55420   9.205   8.457   4.808 -0.0618  0.3309  0.7189
14589SOL    HW155421   9.208   8.369   4.760 -0.0144  0.2691  0.8345
14589SOL    HW255422   9.158   8.445   4.896  0.3103  0.3328  0.9193
14590SOL     OW55423   3.187   4.086   7.181  0.0582  0.6548  0.4963
14590SOL    HW155424   3.284   4.110   7.177 -0.4732  2.8624  0.0484
14590SOL    HW255425   3.140   4.149   7.243 -1.3187  0.4638 -0.3208
14591SOL     OW55426   9.531   2.495   2.581  0.0628  0.0115 -0.2761
14591SOL    HW155427   9.541   2.486   2.482  2.5392  0.6875 -0.1234
14591SOL    HW255428   9.495   2.586   2.603 -0.8855 -0.2897 -0.5656
14592SOL     OW55429   4.017   1.158   7.716 -0.4846 -0.0334 -0.1834
14592SOL    HW155430   4.066   1.139   7.802 -0.4609 -1.5265 -0.5081
14592SOL    HW255431   3.998   1.256   7.710 -0.2754  0.1285  1.4114
14593SOL     OW55432   0.655   3.026   5.831  0.7198 -0.2962 -0.2631
14593SOL    HW155433   0.690   3.076   5.910  0.1354  0.1591 -0.2880
14593SOL    HW255434   0.707   3.051   5.750  1.4331 -0.8942  0.0116
14594SOL     OW55435   5.915   1.508   3.295  0.2553  0.4711  0.2101
14594SOL    HW155436   5.839   1.442   3.294  0.6026  0.0533  0.8570
14594SOL    HW255437   5.967   1.500   3.210  2.1968 -2.3455  1.5971
14595SOL     OW55438   2.054   4.169   1.988 -0.1525  0.1584  0.0086
14595SOL    HW155439   2.045   4.247   2.051  1.0151 -0.9032  1.5108
14595SOL    HW255440   2.085   4.202   1.899 -0.5375  1.5276  0.3631
14596SOL     OW55441   2.270   6.653   4.040 -0.2877 -1.4539  0.4530
14596SOL    HW155442   2.292   6.719   4.111  0.7840 -2.4000  1.0164
14596SOL    HW255443   2.209   6.695   3.972  0.3224  0.0705  0.8413
14597SOL     OW55444   1.033   9.135   1.562  0.2240 -0.0054  0.3299
14597SOL    HW155445   1.125   9.110   1.530  0.5586  2.5366 -0.8550
14597SOL    HW255446   1.030   9.234   1.577 -2.5764  0.0588 -0.5115
14598SOL     OW55447   5.959   9.259   5.389  0.2113 -0.1673  0.2034
14598SOL    HW155448   5.865   9.234   5.364 -0.2679  1.7402 -0.0262
14598SOL    HW255449   5.957   9.322   5.467  1.3941 -1.3408  1.1980
14599SOL     OW55450   4.119   2.759   7.850 -0.5995  0.0853  0.3964
14599SOL    HW155451   4.128   2.661   7.866 -0.5290  0.2023  1.1019
14599SOL    HW255452   4.210   2.799   7.839 -0.6570 -0.0268 -0.5190
14600SOL     OW55453   3.891   4.119   2.064  0.4534  0.0702 -0.0352
14600SOL    HW155454   3.811   4.075   2.103  2.0755 -0.9213  2.3043
14600SOL    HW255455   3.866   4.167   1.980 -2.6393  0.1611  0.9105
14601SOL     OW55456   8.738   8.226   2.957 -0.2020  0.2751 -0.1911
14601SOL    HW155457   8.662   8.282   2.922  0.3845  0.3701 -1.3308
14601SOL    HW255458   8.824   8.273   2.941  0.2265 -0.5666 -0.3879
14602SOL     OW55459   2.256   5.239   1.529 -0.1691  0.1864 -0.1228
14602SOL    HW155460   2.265   5.302   1.452 -0.7821 -1.3209 -1.4487
14602SOL    HW255461   2.321   5.265   1.601  1.6332  0.5739 -1.8610
14603SOL     OW55462   5.015   3.781   1.599  0.2425 -0.0172 -0.4846
14603SOL    HW155463   5.057   3.713   1.659 -0.4163 -0.6421 -0.7139
14603SOL    HW255464   4.937   3.739   1.552 -1.3378  1.4615  0.7915
14604SOL     OW55465   1.589   0.811   5.551  0.1969 -0.2153  0.3586
14604SOL    HW155466   1.592   0.911   5.547  1.5474 -0.2424  0.3833
14604SOL    HW255467   1.508   0.778   5.503 -0.2556  0.8917  0.3432
14605SOL     OW55468   2.336   5.056   1.763  0.1156  0.3650 -0.3433
14605SOL    HW155469   2.331   5.076   1.861  2.5896  1.2975 -0.3684
14605SOL    HW255470   2.254   5.006   1.735 -2.0345  2.6277  1.5989
14606SOL     OW55471   7.396   1.356   0.734  0.3877  0.0041  0.0460
14606SOL    HW155472   7.454   1.333   0.812  0.8607  3.0605  0.6501
14606SOL    HW255473   7.454   1.380   0.656 -0.0831 -0.2155 -0.3763
14607SOL     OW55474   6.166   8.999   5.350  0.0862 -0.0639 -0.0734
14607SOL    HW155475   6.255   9.043   5.332 -0.0479  1.1489  2.0910
14607SOL    HW255476   6.096   9.069   5.362 -0.9201 -0.9897 -0.4527
14608SOL     OW55477   8.771   7.375   6.521 -0.1042 -0.4165 -0.7531
14608SOL    HW155478   8.859   7.374   6.569 -0.2383 -2.6786 -0.4858
14608SOL    HW255479   8.786   7.390   6.424  0.5536 -0.5040 -0.6648
14609SOL     OW55480   8.260   7.601   6.516  0.7859 -0.5001  0.0250
14609SOL    HW155481   8.221   7.564   6.601  0.6571  1.1556  0.7099
14609SOL    HW255482   8.360   7.609   6.526  0.8668 -1.1228 -0.2984
14610SOL     OW55483   1.639   2.879   5.706  0.1596 -0.0764  0.0145
14610SOL    HW155484   1.660   2.784   5.729  0.3907 -0.4696 -1.7590
14610SOL    HW255485   1.545   2.900   5.731  0.1513 -0.7260  0.5374
14611SOL     OW55486   9.110   0.046   4.168  0.0695 -0.2250  0.2705
14611SOL    HW155487   9.165   0.100   4.232 -0.8031 -0.1674  0.9659
14611SOL    HW255488   9.013   0.058   4.187 -0.2649  0.9423 -1.9908
14612SOL     OW55489   8.842   7.824   7.605 -0.2694 -0.3624 -0.6051
14612SOL    HW155490   8.880   7.738   7.639 -0.1883 -0.5148 -1.0816
14612SOL    HW255491   8.914   7.893   7.603 -0.6576  0.1145  1.1310
14613SOL     OW55492   9.268   0.991   8.138 -0.1238  0.1538  0.1299
14613SOL    HW155493   9.307   0.947   8.057 -0.7465 -0.9099  0.3887
14613SOL    HW255494   9.304   0.946   8.220  0.8065  1.4868  0.4549
14614SOL     OW55495   1.402   0.540   5.469 -0.1617 -0.6563 -0.5592
14614SOL    HW155496   1.324   0.574   5.521  0.3196  0.4561 -0.5649
14614SOL    HW255497   1.417   0.598   5.389  1.7103  0.1538  0.3616
14615SOL     OW55498   3.434   3.889   7.198  0.5337 -0.7345 -0.1848
14615SOL    HW155499   3.483   3.919   7.280 -0.0736  0.6257 -0.3072
14615SOL    HW255500   3.500   3.860   7.129  1.0296 -2.9272  1.1506
14616SOL     OW55501   1.538   2.909   7.174  0.1538 -0.2570  0.5028
14616SOL    HW155502   1.484   2.959   7.106  0.5669  0.7209  0.8794
14616SOL    HW255503   1.620   2.872   7.132 -0.1426 -0.5951  0.2252
14617SOL     OW55504   2.617   8.371   5.614  0.5004 -0.3896 -0.0446
14617SOL    HW155505   2.628   8.329   5.524 -0.3081  2.7987 -1.7025
14617SOL    HW255506   2.526   8.352   5.649 -0.0439  0.4319 -1.0185
14618SOL     OW55507   3.286   5.936   3.588  0.3888 -0.3145 -1.0569
14618SOL    HW155508   3.336   6.022   3.584  0.4470 -0.3540 -1.1894
14618SOL    HW255509   3.224   5.929   3.510  0.0865 -0.2105 -0.8259
14619SOL     OW55510   6.825   5.262   8.092 -0.2317 -0.3927  0.3159
14619SOL    HW155511   6.768   5.301   8.019  0.5187 -0.7236 -0.4611
14619SOL    HW255512   6.901   5.325   8.111 -0.2553 -0.4500  0.5908
14620SOL     OW55513   1.187   0.823   5.126 -0.4550  0.6567  0.3239
14620SOL    HW155514   1.113   0.765   5.091  0.9168 -0.2049 -1.2010
14620SOL    HW255515   1.149   0.890   5.190 -2.3099 -0.8390  0.8451
14621SOL     OW55516   3.223   2.861   0.778  0.1454 -0.2650 -0.6175
14621SOL    HW155517   3.289   2.888   0.848 -0.7853 -0.1616  0.2228
14621SOL    HW255518   3.174   2.942   0.745 -0.6192 -0.5431 -0.1608
14622SOL     OW55519   8.741   9.090   4.708  0.2431  0.0153  0.6588
14622SOL    HW155520   8.688   9.037   4.775 -0.0694 -1.8624 -1.0093
14622SOL    HW255521   8.680   9.151   4.658 -0.1562 -1.2284 -0.3942
14623SOL     OW55522   2.345   4.719   2.494  0.4616  0.5032 -0.2518
14623SOL    HW155523   2.337   4.808   2.540  2.2925  0.0217  1.0008
14623SOL    HW255524   2.327   4.731   2.396 -1.5829  1.8458  0.2483
14624SOL     OW55525   4.399   0.615   7.620  0.8999  0.0943  0.3597
14624SOL    HW155526   4.363   0.537   7.570  1.0854  0.9371 -1.1327
14624SOL    HW255527   4.484   0.589   7.666  1.0066 -0.5664 -0.1944
14625SOL     OW55528   1.178   1.197   8.047  0.3584  0.3044 -0.0542
14625SOL    HW155529   1.201   1.151   7.962 -0.7871  1.2866 -0.9116
14625SOL    HW255530   1.230   1.283   8.053  1.0840 -0.1775  0.6496
14626SOL     OW55531   6.406   1.387   1.777 -0.1324  0.3453 -0.4946
14626SOL    HW155532   6.426   1.342   1.864  0.7577  1.1602 -0.2665
14626SOL    HW255533   6.349   1.328   1.721 -0.0935 -0.4968  0.3476
14627SOL     OW55534   2.882   2.886   6.082 -0.0183 -0.4083 -0.1023
14627SOL    HW155535   2.806   2.950   6.074 -1.0387 -1.6671 -0.5341
14627SOL    HW255536   2.943   2.898   6.004 -0.1855  0.0491 -0.1680
14628SOL     OW55537   7.347   4.098   8.074  0.1578 -0.2198 -0.3856
14628SOL    HW155538   7.258   4.076   8.035 -0.7292  0.7564  1.0318
14628SOL    HW255539   7.369   4.194   8.056  0.1381  0.0013  0.7046
14629SOL     OW55540   2.747   9.894   6.272  0.4884 -0.2662 -0.2390
14629SOL    HW155541   2.672   9.853   6.221  0.6642  0.2544 -0.9170
14629SOL    HW255542   2.786   9.970   6.220 -1.1796  2.1225  1.8630
14630SOL     OW55543   6.873   5.380   1.116  0.3407 -0.1970  0.1207
14630SOL    HW155544   6.887   5.469   1.071  3.1939  0.4861  2.1935
14630SOL    HW255545   6.808   5.390   1.191 -0.1170 -0.0994 -0.2866
14631SOL     OW55546   3.205   6.875   4.666  0.1148 -0.1523 -0.9513
14631SOL    HW155547   3.147   6.796   4.686 -2.1567  1.5940 -0.3306
14631SOL    HW255548   3.269   6.889   4.741 -0.6364 -0.4128 -0.2471
14632SOL     OW55549   9.045   8.535   3.990  0.0297  0.2829  0.3457
14632SOL    HW155550   8.975   8.569   4.053  1.2204  1.4497  1.0713
14632SOL    HW255551   9.051   8.597   3.911  1.3164  1.0430  1.0397
14633SOL     OW55552   2.174   8.630   4.008  0.0978 -0.2282  0.2821
14633SOL    HW155553   2.214   8.547   4.046 -2.8861 -1.8907 -0.0659
14633SOL    HW255554   2.086   8.648   4.053 -0.7688  0.9744 -1.8386
14634SOL     OW55555   1.318   1.843   6.760 -0.1233  0.1117 -0.6071
14634SOL    HW155556   1.272   1.803   6.681  1.1688 -1.8486 -0.3928
14634SOL    HW255557   1.398   1.895   6.729 -0.9491  1.3097 -0.7616
14635SOL     OW55558   9.222   4.908   6.034 -0.0738 -0.0308 -0.7874
14635SOL    HW155559   9.168   4.840   6.084  0.5962  0.1570  0.1783
14635SOL    HW255560   9.193   4.999   6.061 -1.3741  0.1091 -2.4998
14636SOL     OW55561   6.899   5.757   0.063  0.4994 -0.5462  0.2183
14636SOL    HW155562   6.860   5.841   0.027 -1.0294 -2.4265 -2.6733
14636SOL    HW255563   6.831   5.712   0.122  0.2918 -1.1018 -0.4392
14637SOL     OW55564   8.463   1.158   6.863 -0.1654  0.4363  0.3245
14637SOL    HW155565   8.511   1.237   6.901 -0.0896  1.0721 -1.0447
14637SOL    HW255566   8.368   1.183   6.844  0.4486  0.9464 -2.2802
14638SOL     OW55567   6.729   4.435   1.642 -0.2085 -0.3696  0.0747
14638SOL    HW155568   6.820   4.440   1.682 -0.2306  0.1246  0.0591
14638SOL    HW255569   6.662   4.476   1.704 -0.2911  0.0769 -0.3050
14639SOL     OW55570   0.651   6.319   3.671  0.3546 -0.3698  0.2555
14639SOL    HW155571   0.692   6.344   3.759 -0.2611 -1.3294  0.8275
14639SOL    HW255572   0.639   6.220   3.668  2.6177 -0.6171 -1.9113
14640SOL     OW55573   2.426   6.622   2.596  0.2961  0.1517  0.1413
14640SOL    HW155574   2.519   6.645   2.569  0.7235 -1.4956  0.1674
14640SOL    HW255575   2.423   6.527   2.628 -1.0852  0.6831  1.6209
14641SOL     OW55576   4.605   2.200   7.133 -0.4390 -0.1073 -0.6365
14641SOL    HW155577   4.516   2.154   7.138 -1.3099  1.7164  1.5354
14641SOL    HW255578   4.592   2.294   7.103  0.6483  0.4522  0.6204
14642SOL     OW55579   3.753   3.171   0.925 -0.0012  0.7484 -0.0248
14642SOL    HW155580   3.654   3.170   0.911 -0.1071  1.2338  0.7050
14642SOL    HW255581   3.777   3.242   0.991  0.7788  0.2323  0.2512
14643SOL     OW55582   2.423   1.027   0.069 -0.3049  0.0468  0.0342
14643SOL    HW155583   2.371   0.953   0.026  0.5760  0.4962 -1.8462
14643SOL    HW255584   2.439   1.005   0.165 -0.4449 -1.9889 -0.3898
14644SOL     OW55585   4.259   1.800   5.786  0.1010 -0.3100 -0.5760
14644SOL    HW155586   4.318   1.719   5.791 -0.1804 -0.5647 -1.3302
14644SOL    HW255587   4.239   1.833   5.878  1.0736 -0.4787 -0.3016
14645SOL     OW55588   9.260   5.729   1.632 -0.4239  0.4124 -0.0016
14645SOL    HW155589   9.193   5.664   1.668 -0.6947 -1.3114 -3.4443
14645SOL    HW255590   9.213   5.811   1.598 -0.4685  0.5979  0.4991
14646SOL     OW55591   1.584   1.765   3.826 -0.7142  0.5583  0.3590
14646SOL    HW155592   1.539   1.851   3.803 -0.9842  0.3584  0.1382
14646SOL    HW255593   1.607   1.716   3.742  0.3474  0.8763  0.4576
14647SOL     OW55594   4.048   1.545   4.895 -0.0844  0.3463  0.4627
14647SOL    HW155595   4.101   1.622   4.860  1.1072 -1.3785 -1.6126
14647SOL    HW255596   3.986   1.512   4.824 -0.3980 -0.7783  1.2509
14648SOL     OW55597   0.749   0.256   6.565 -0.7716  1.1303 -0.4676
14648SOL    HW155598   0.732   0.160   6.543  2.0232  0.6454 -0.7041
14648SOL    HW255599   0.791   0.263   6.655 -0.9799  2.1175 -0.4417
14649SOL     OW55600   3.247   1.551   4.234 -0.2395 -0.2210 -0.0846
14649SOL    HW155601   3.323   1.537   4.171 -0.7238 -3.2160 -0.0989
14649SOL    HW255602   3.162   1.522   4.191 -0.7213 -1.3152  1.5328
14650SOL     OW55603   8.970   9.851   6.130  1.2043 -0.0633 -0.0951
14650SOL    HW155604   8.975   9.947   6.156  0.1507 -0.6904  2.6504
14650SOL    HW255605   9.062   9.816   6.113  1.7623  0.9465  0.8042
14651SOL     OW55606   2.845   6.951   3.932  0.1175  0.6512 -0.4480
14651SOL    HW155607   2.939   6.918   3.936 -0.5883 -1.2309  1.6964
14651SOL    HW255608   2.807   6.932   3.841  1.7809  1.4291 -1.3244
14652SOL     OW55609   5.360   7.795   5.495  0.2346 -0.1299  0.2183
14652SOL    HW155610   5.420   7.725   5.534  2.6270  0.2062 -2.6488
14652SOL    HW255611   5.391   7.885   5.522  0.9471  0.0370 -1.1003
14653SOL     OW55612   3.334   5.764   4.452  0.2093 -0.4890 -0.2669
14653SOL    HW155613   3.418   5.751   4.400  0.5219  1.4069 -0.2651
14653SOL    HW255614   3.267   5.812   4.395  0.1930  0.6886  0.7179
14654SOL     OW55615   1.175   8.974   0.945 -0.1196 -0.2338  0.4183
14654SOL    HW155616   1.230   9.014   0.871  0.0218  1.3681  1.3753
14654SOL    HW255617   1.207   9.009   1.033 -1.5129 -0.6857  1.1070
14655SOL     OW55618   7.493   2.202   7.058 -0.3553 -1.1407 -0.7647
14655SOL    HW155619   7.553   2.155   6.994 -0.6103 -2.6298  0.0569
14655SOL    HW255620   7.432   2.263   7.009  1.3744 -0.1024 -1.6710
14656SOL     OW55621   9.944   9.666   2.359  0.2096  0.0968  0.1046
14656SOL    HW155622   9.974   9.614   2.439 -0.6022 -0.7173 -0.1156
14656SOL    HW255623   9.845   9.676   2.361 -0.0101 -1.4294 -1.7054
14657SOL     OW55624   2.977   6.278   6.390  0.9756  0.1361 -0.1811
14657SOL    HW155625   2.901   6.322   6.340  0.6722 -0.9451 -0.6833
14657SOL    HW255626   3.003   6.194   6.343  0.1742 -1.3184  1.9249
14658SOL     OW55627   4.261   4.193   6.556 -0.3104  0.0192  0.2790
14658SOL    HW155628   4.179   4.145   6.523 -0.3623  0.5397 -0.3692
14658SOL    HW255629   4.312   4.230   6.478  0.3265  0.0492  0.7047
14659SOL     OW55630   1.377   6.943   2.163  0.1292  0.6980  0.3083
14659SOL    HW155631   1.458   6.940   2.104 -1.0202  0.2171 -1.2905
14659SOL    HW255632   1.312   7.011   2.126  0.0043  1.4370  1.8467
14660SOL     OW55633   0.234   6.404   5.223  0.1237  0.1268  0.3174
14660SOL    HW155634   0.284   6.348   5.289 -0.0547  0.6587  0.9096
14660SOL    HW255635   0.240   6.362   5.133 -0.7253 -1.3031  0.9077
14661SOL     OW55636   9.975   2.440   4.879  0.5025  0.2252 -0.3293
14661SOL    HW155637   9.998   2.503   4.805 -1.4177  2.0102  0.5364
14661SOL    HW255638  10.059   2.403   4.919  1.6294  1.4271 -1.5340
14662SOL     OW55639   2.986   6.162   2.732 -0.3018 -0.3554  0.5033
14662SOL    HW155640   2.959   6.076   2.775 -0.6259 -0.2706  0.4769
14662SOL    HW255641   3.085   6.172   2.736 -0.3806  0.0277  1.9551
14663SOL     OW55642   9.094   5.920   0.166 -0.7445 -0.3340 -0.2188
14663SOL    HW155643   9.157   5.844   0.184  1.2254  1.5280  1.0102
14663SOL    HW255644   9.043   5.901   0.082  0.5655 -2.4603 -0.5854
14664SOL     OW55645   4.487   3.745   7.343  0.2132  0.2291  0.4794
14664SOL    HW155646   4.560   3.750   7.412 -0.4738 -0.1957  1.2458
14664SOL    HW255647   4.399   3.759   7.387 -0.1993  0.3634 -0.3877
14665SOL     OW55648   7.472   2.140   7.412 -0.0917  0.0707 -0.0362
14665SOL    HW155649   7.417   2.222   7.395  0.3428  0.1151 -1.3040
14665SOL    HW255650   7.550   2.139   7.349  0.6335 -0.6522  0.8619
14666SOL     OW55651   7.295   9.604   4.113 -0.3834 -0.0953  0.0706
14666SOL    HW155652   7.356   9.572   4.041 -0.6338  0.0277 -0.2005
14666SOL    HW255653   7.330   9.689   4.152 -1.5574  1.2224 -1.6655
14667SOL     OW55654   7.333   9.850   2.814  0.3623  0.2387  0.0002
14667SOL    HW155655   7.365   9.816   2.902 -0.2518  0.0406  0.1478
14667SOL    HW255656   7.409   9.894   2.765  0.1516  2.6271  1.7106
14668SOL     OW55657   7.741   9.199   3.079 -0.1223 -0.0979  0.0232
14668SOL    HW155658   7.714   9.138   3.154 -0.3805 -0.6686 -0.5291
14668SOL    HW255659   7.743   9.147   2.993 -0.8063  0.7761 -0.5329
14669SOL     OW55660   0.750   2.460   4.908  0.7293 -0.3692 -0.3317
14669SOL    HW155661   0.668   2.514   4.929  2.1825  2.3794 -1.4927
14669SOL    HW255662   0.742   2.422   4.816  1.2198  0.8741 -0.9051
14670SOL     OW55663   4.032   8.354   2.775  0.3896  0.0105 -0.1337
14670SOL    HW155664   4.098   8.413   2.728 -0.3757  0.6755 -0.3823
14670SOL    HW255665   4.010   8.393   2.864 -1.6967  1.2309 -1.1414
14671SOL     OW55666   4.044   3.401   0.467  0.7787  0.0306  0.3182
14671SOL    HW155667   4.138   3.366   0.460  0.3462 -1.4976  1.7334
14671SOL    HW255668   3.983   3.327   0.496 -0.9065  0.9710 -0.7371
14672SOL     OW55669   3.050   0.833   3.765 -0.2216 -0.1054  0.2641
14672SOL    HW155670   3.064   0.834   3.666  1.0346  0.7657  0.4457
14672SOL    HW255671   3.137   0.815   3.811 -0.1875  2.5643  1.3165
14673SOL     OW55672   2.813   1.024   3.914  0.3578  0.0130  0.1384
14673SOL    HW155673   2.889   1.089   3.905 -0.3076  0.7271 -0.3016
14673SOL    HW255674   2.850   0.932   3.927  1.3043  0.4087  0.2749
14674SOL     OW55675   2.865   4.903   4.118  0.0713  0.8094  0.3536
14674SOL    HW155676   2.964   4.899   4.107  0.1067  3.0885 -0.4851
14674SOL    HW255677   2.820   4.876   4.033  0.0146  1.2517  0.2393
14675SOL     OW55678   4.525   4.420   2.440 -0.0968 -0.2917 -0.2724
14675SOL    HW155679   4.579   4.469   2.507  0.6740 -2.1551  0.5092
14675SOL    HW255680   4.585   4.367   2.380 -0.8670  0.1473 -1.4717
14676SOL     OW55681   1.320   3.289   3.124 -0.0703  0.2128  0.3090
14676SOL    HW155682   1.241   3.349   3.134 -0.6312 -0.7788  1.9523
14676SOL    HW255683   1.328   3.261   3.028 -1.1065  1.1334 -0.0554
14677SOL     OW55684   8.422   0.343   6.311 -0.7471  0.4604  0.1641
14677SOL    HW155685   8.456   0.345   6.405  0.0051 -2.6152 -0.0128
14677SOL    HW255686   8.409   0.249   6.281 -2.3711  1.4180 -2.3502
14678SOL     OW55687   4.696   0.816   7.780  0.4341 -0.1483 -0.4246
14678SOL    HW155688   4.739   0.895   7.735  0.5551 -0.3887 -0.7299
14678SOL    HW255689   4.760   0.739   7.781  0.0990 -0.4275 -0.6581
14679SOL     OW55690   3.670   9.940   0.673  0.2031  0.3449  0.1670
14679SOL    HW155691   3.758   9.959   0.629  1.6288 -0.3905  2.5894
14679SOL    HW255692   3.650   9.842   0.668 -0.7739  0.5859 -0.8721
14680SOL     OW55693   7.582   8.300   6.937  0.7477  0.0967  0.2515
14680SOL    HW155694   7.511   8.231   6.927  0.5437  0.5148 -1.2259
14680SOL    HW255695   7.662   8.259   6.983  1.0130 -1.4007 -1.5056
14681SOL     OW55696   6.941   0.914   8.080  0.4503  0.3619 -0.1287
14681SOL    HW155697   6.988   0.886   8.164 -0.8587  0.3378  0.6206
14681SOL    HW255698   6.944   0.841   8.013  0.0294 -0.2659  0.5352
14682SOL     OW55699   1.586   2.539   6.608  0.4856  0.2739  0.2025
14682SOL    HW155700   1.576   2.471   6.680  0.9600 -1.0571 -0.9632
14682SOL    HW255701   1.508   2.532   6.545 -0.6627  2.3766  1.3379
14683SOL     OW55702   9.726   5.830   0.201  0.2106 -0.7338 -0.3922
14683SOL    HW155703   9.692   5.915   0.241  1.2423 -0.1032 -0.8354
14683SOL    HW255704   9.739   5.762   0.274  0.4628 -0.1399  0.1287
14684SOL     OW55705   0.937   7.377   3.655 -0.0266  0.3986 -0.8050
14684SOL    HW155706   1.003   7.307   3.628 -0.8673 -0.7271 -0.0229
14684SOL    HW255707   0.855   7.333   3.692 -0.5831  1.7997 -0.3121
14685SOL     OW55708   9.212   3.912   7.535 -0.6028 -0.2036 -0.2737
14685SOL    HW155709   9.203   4.001   7.580 -0.4954 -0.2491 -0.1592
14685SOL    HW255710   9.187   3.920   7.439 -1.8226 -0.3298  0.0271
14686SOL     OW55711   8.658   0.004   3.074  0.1660  0.0099 -0.2264
14686SOL    HW155712   8.723   0.004   3.149 -0.1610  0.9143  0.0642
14686SOL    HW255713   8.701  -0.035   2.992  0.5300 -0.9435  0.4088
14687SOL     OW55714   2.796   4.047   4.146 -0.3482  0.2819 -0.6195
14687SOL    HW155715   2.707   4.078   4.114  0.1127  1.1662 -1.0789
14687SOL    HW255716   2.864   4.120   4.131  0.2835 -0.0728  0.4708
14688SOL     OW55717   0.014   4.883   7.085 -0.3633  0.2231 -0.0694
14688SOL    HW155718  -0.059   4.863   7.151 -0.4660  2.4125  0.5352
14688SOL    HW255719   0.082   4.942   7.128 -0.1701  1.2837 -1.7659
14689SOL     OW55720   7.691   9.270   7.414 -0.2307  0.2206 -0.0499
14689SOL    HW155721   7.598   9.233   7.412 -0.2307  0.2506 -0.8248
14689SOL    HW255722   7.736   9.249   7.327  0.9986 -1.1124  0.8836
14690SOL     OW55723   8.183   8.794   2.513  0.6502 -0.1191 -0.1767
14690SOL    HW155724   8.215   8.733   2.585  0.6015  0.9783  0.8002
14690SOL    HW255725   8.089   8.771   2.488  0.1564  0.4434  1.1656
14691SOL     OW55726   7.220   3.945   7.709  0.0416 -0.1192 -0.6084
14691SOL    HW155727   7.265   4.027   7.672 -0.3439 -0.3148 -1.4954
14691SOL    HW255728   7.203   3.879   7.636 -0.7839 -0.4753 -0.1045
14692SOL     OW55729   1.559   9.324   3.413 -0.1245  0.1195  0.3290
14692SOL    HW155730   1.588   9.404   3.361  0.0442 -0.5718 -0.6760
14692SOL    HW255731   1.639   9.266   3.432 -0.7309 -1.5432 -2.0176
14693SOL     OW55732   9.078   4.780   5.829 -0.2190  0.1855 -0.7620
14693SOL    HW155733   9.158   4.749   5.881  0.2352  0.4281 -1.3165
14693SOL    HW255734   8.998   4.724   5.855  0.3475 -0.7068 -0.9322
14694SOL     OW55735   0.233   8.743   6.727 -0.0678 -0.1777 -0.2993
14694SOL    HW155736   0.192   8.813   6.786  0.7814  0.2964 -0.2590
14694SOL    HW255737   0.292   8.787   6.660 -0.6432 -0.7607 -1.1904
14695SOL     OW55738   2.844   2.022   3.925 -0.2733  0.9160  0.1095
14695SOL    HW155739   2.942   2.010   3.941 -0.5295 -1.6093 -0.0345
14695SOL    HW255740   2.830   2.070   3.839  0.8374  0.8184 -0.1337
14696SOL     OW55741   7.538   6.042   5.387  0.2051  0.1163  0.3538
14696SOL    HW155742   7.443   6.021   5.362  0.6382  0.1993 -1.4711
14696SOL    HW255743   7.553   6.019   5.483 -1.2940 -1.1671  0.3060
14697SOL     OW55744   4.154   8.664   1.194 -0.5634  0.0336 -0.4021
14697SOL    HW155745   4.156   8.736   1.124 -1.5242  0.0933 -0.3800
14697SOL    HW255746   4.086   8.687   1.264 -0.5153 -0.6435 -0.1254
14698SOL     OW55747   6.551   8.016   6.398  1.1109  0.1852 -0.3593
14698SOL    HW155748   6.543   8.112   6.427  0.4336  0.1848 -0.5467
14698SOL    HW255749   6.614   8.010   6.321  0.5229  0.5929 -0.8821
14699SOL     OW55750   0.976   4.925   6.077  0.1058  0.0574 -0.3144
14699SOL    HW155751   1.028   4.946   6.160  2.9752  0.1871 -2.0729
14699SOL    HW255752   0.970   4.826   6.065 -3.5932 -0.0759  1.9775
14700SOL     OW55753   6.429   0.387   5.387 -0.1155  0.6767  0.2813
14700SOL    HW155754   6.354   0.411   5.449  2.3079  2.8472  2.4999
14700SOL    HW255755   6.488   0.319   5.432 -0.4804 -0.7042 -1.2776
14701SOL     OW55756   6.564   1.362   3.246  0.2155  0.7004 -0.2066
14701SOL    HW155757   6.648   1.361   3.300  0.7321 -3.1282 -0.9171
14701SOL    HW255758   6.486   1.386   3.304  1.5421  2.3908  0.8839
14702SOL     OW55759   3.625   5.378   1.411  0.0857 -0.0330  0.7051
14702SOL    HW155760   3.628   5.284   1.378  0.5233  0.3609 -0.4008
14702SOL    HW255761   3.709   5.399   1.461  0.1171 -0.1374  0.6942
14703SOL     OW55762   9.901   0.158   1.973 -0.3639  0.4018  0.7338
14703SOL    HW155763   9.832   0.091   1.943  0.3133 -0.1486  0.3787
14703SOL    HW255764   9.982   0.109   2.005  0.5978  1.0770 -0.6326
14704SOL     OW55765   5.688   5.075   2.108  0.8370  0.0375 -0.0212
14704SOL    HW155766   5.713   4.985   2.143  1.2681  1.0374  2.3039
14704SOL    HW255767   5.765   5.113   2.058  0.1828 -1.4377 -2.2442
14705SOL     OW55768   8.185   4.227   0.734 -0.2548 -0.1651  0.1033
14705SOL    HW155769   8.189   4.148   0.672 -1.1973 -0.2484  0.1358
14705SOL    HW255770   8.116   4.210   0.804  0.2949  0.2408  0.7496
14706SOL     OW55771   8.631   6.409   4.386 -0.0456  0.4200  0.0842
14706SOL    HW155772   8.648   6.376   4.479  1.2103 -0.3497 -0.4058
14706SOL    HW255773   8.591   6.336   4.331 -1.8012  1.1945  0.2854
14707SOL     OW55774   4.761   7.003   2.590  0.5156  0.4732  0.2180
14707SOL    HW155775   4.844   6.980   2.641  1.0586  0.4824 -0.6506
14707SOL    HW255776   4.740   7.100   2.601  0.9796  0.6054 -0.0805
14708SOL     OW55777   2.040   1.388   4.437  0.3583  0.3023  0.2609
14708SOL    HW155778   2.087   1.473   4.413  1.6850 -0.2730  0.7561
14708SOL    HW255779   1.944   1.393   4.408  0.5242  1.8054 -0.0575
14709SOL     OW55780   1.442   6.784   1.077 -0.2512  0.0018  0.1566
14709SOL    HW155781   1.446   6.737   1.165 -1.8309 -0.4012  0.0176
14709SOL    HW255782   1.508   6.743   1.014  0.2144 -0.3175  0.8541
14710SOL     OW55783   2.454   3.274   7.499  0.3387  0.0306 -0.3632
14710SOL    HW155784   2.504   3.266   7.585 -0.1269 -2.0462 -0.2608
14710SOL    HW255785   2.480   3.199   7.438 -1.4792 -0.1805 -0.9132
14711SOL     OW55786   5.912   8.113   3.860  0.2989  0.0807 -0.3049
14711SOL    HW155787   5.832   8.150   3.813  1.4592  1.9650 -0.8527
14711SOL    HW255788   5.884   8.076   3.949 -1.0876  1.2110 -0.2499
14712SOL     OW55789   3.416   0.310   4.470 -0.0410 -0.3057  0.1241
14712SOL    HW155790   3.384   0.402   4.450  0.4148  0.1625  1.4907
14712SOL    HW255791   3.491   0.287   4.408  0.9762  0.9005  0.8803
14713SOL     OW55792   4.810   1.850   8.150 -0.4479 -0.5381 -0.9078
14713SOL    HW155793   4.870   1.873   8.074  1.7395 -2.0355  0.3057
14713SOL    HW255794   4.767   1.934   8.185  3.0939  1.0079 -0.0660
14714SOL     OW55795   7.544   1.333   2.609 -0.5297 -0.0170 -0.2178
14714SOL    HW155796   7.590   1.264   2.554 -1.8572 -1.7547  0.8185
14714SOL    HW255797   7.497   1.397   2.548  1.8547  0.8353 -1.2286
14715SOL     OW55798   7.605   9.022   3.262 -0.4760 -0.3600 -0.2304
14715SOL    HW155799   7.671   9.068   3.322 -0.6071 -1.1319  0.5141
14715SOL    HW255800   7.539   8.971   3.318 -0.2264 -1.6060 -1.0605
14716SOL     OW55801   2.121   7.463   2.023  0.4388  0.2610  0.1235
14716SOL    HW155802   2.191   7.422   2.082 -0.0846 -1.0628 -0.1674
14716SOL    HW255803   2.032   7.456   2.068  0.4691  1.9632  0.5015
14717SOL     OW55804   8.580   5.717   3.333 -0.5531  0.3258 -0.5935
14717SOL    HW155805   8.615   5.810   3.348 -1.3534  0.6973 -0.9966
14717SOL    HW255806   8.605   5.659   3.411  1.2260  0.4962 -1.0071
14718SOL     OW55807   7.535   3.837   6.196 -0.4426  0.2734  0.3833
14718SOL    HW155808   7.574   3.787   6.273  0.1805 -0.9491 -0.7060
14718SOL    HW255809   7.596   3.829   6.117 -1.6829  0.4565 -0.5999
14719SOL     OW55810   2.755   2.732   2.214 -0.2429  0.0085  0.2555
14719SOL    HW155811   2.694   2.696   2.284 -0.5028  0.1734  0.1123
14719SOL    HW255812   2.707   2.799   2.158 -0.0188 -0.0754 -0.0430
14720SOL     OW55813   8.478   5.377   2.948 -0.2605  0.7472  0.0558
14720SOL    HW155814   8.512   5.318   2.875 -0.9550  0.0122  0.3249
14720SOL    HW255815   8.545   5.449   2.967  0.1566  0.6199 -0.9359
14721SOL     OW55816   6.182   5.050   0.626 -0.5599 -0.1907 -0.9321
14721SOL    HW155817   6.194   4.964   0.677  3.1576  0.9419  0.2106
14721SOL    HW255818   6.234   5.046   0.541  1.7143  1.8666  0.3344
14722SOL     OW55819   1.042   2.027   6.717  0.1574 -0.2718  0.1209
14722SOL    HW155820   1.021   1.929   6.720  1.2888 -0.6013 -1.5560
14722SOL    HW255821   1.136   2.042   6.749 -0.0388  0.2722  0.4415
14723SOL     OW55822   1.918   2.144   5.684  0.1272  0.0678 -0.0607
14723SOL    HW155823   1.821   2.157   5.664  0.5181  4.0273  0.1855
14723SOL    HW255824   1.928   2.107   5.776 -1.1273  0.7526  0.3667
14724SOL     OW55825   0.642   2.654   1.958 -0.1065 -0.1274  0.6686
14724SOL    HW155826   0.559   2.701   1.989 -0.2868 -0.2614  0.3909
14724SOL    HW255827   0.677   2.699   1.876  0.4035  0.2631  1.0960
14725SOL     OW55828   1.028   4.453   0.327 -0.1566 -0.1167  0.0013
14725SOL    HW155829   0.943   4.501   0.346  0.4700  0.4833  1.3387
14725SOL    HW255830   1.020   4.358   0.357 -0.0269  0.1826  0.9721
14726SOL     OW55831   7.793   0.650   4.598 -0.2909 -0.7525  0.4718
14726SOL    HW155832   7.837   0.560   4.604 -0.7749 -1.0138  0.2080
14726SOL    HW255833   7.702   0.639   4.558 -0.8725 -0.3189  1.6545
14727SOL     OW55834   5.997   9.985   6.079 -0.4752  0.0056  0.0636
14727SOL    HW155835   6.007   9.919   6.154  0.2090  0.4834  0.4049
14727SOL    HW255836   6.080   9.984   6.023 -0.0365  1.2880  0.6617
14728SOL     OW55837   7.998   4.214   1.729 -0.8278 -0.6334  0.1328
14728SOL    HW155838   7.919   4.224   1.789  0.5673 -0.7266  2.0257
14728SOL    HW255839   8.003   4.121   1.694 -1.5093 -0.6418  0.0607
14729SOL     OW55840   4.296   3.894   8.002  0.1215 -0.1190 -0.7495
14729SOL    HW155841   4.368   3.898   8.072 -1.1641 -3.3887  0.8347
14729SOL    HW255842   4.334   3.860   7.917  1.1109  1.3156 -0.9125
14730SOL     OW55843   6.421   4.847   7.954 -0.0117 -0.3597 -0.0966
14730SOL    HW155844   6.353   4.855   8.027 -1.1966  0.5120 -1.2676
14730SOL    HW255845   6.376   4.818   7.870  0.9462  0.8848 -1.0527
14731SOL     OW55846   9.365   3.227   6.251 -0.1271 -0.0723  0.1995
14731SOL    HW155847   9.407   3.318   6.254 -0.2729 -0.0455  1.9781
14731SOL    HW255848   9.409   3.167   6.317 -1.1639 -0.7984  0.2506
14732SOL     OW55849   8.476   6.365   6.478  0.0266 -1.0369 -0.0727
14732SOL    HW155850   8.489   6.356   6.379  1.5070  0.4691 -0.0374
14732SOL    HW255851   8.415   6.292   6.511 -1.0418 -1.1307 -2.1950
14733SOL     OW55852   6.095   9.837   2.294 -0.4388 -0.2240  0.2124
14733SOL    HW155853   6.067   9.873   2.383  1.9965 -0.4623  1.0955
14733SOL    HW255854   6.159   9.901   2.251 -1.6403 -0.0791 -1.4295
14734SOL     OW55855   2.502   5.001   3.060  0.3605 -0.4762  0.0533
14734SOL    HW155856   2.567   5.065   3.020  1.1856 -0.6721  1.0538
14734SOL    HW255857   2.494   5.018   3.158  0.7023 -1.9891  0.3617
14735SOL     OW55858   3.112   2.203   5.754  0.0060 -0.1463 -0.9091
14735SOL    HW155859   3.128   2.277   5.818  0.8544 -0.2296 -1.0201
14735SOL    HW255860   3.199   2.159   5.731 -0.2812 -0.1319 -2.0870
14736SOL     OW55861   9.519   1.467   3.468  0.3673  0.2023  0.6882
14736SOL    HW155862   9.437   1.411   3.453  1.8000 -0.9674 -3.3589
14736SOL    HW255863   9.491   1.562   3.482 -1.7290 -0.1992 -0.5377
14737SOL     OW55864   5.900   5.220   1.726 -0.5772 -0.1375  0.3990
14737SOL    HW155865   5.963   5.182   1.659  0.2470  0.1553  0.9971
14737SOL    HW255866   5.855   5.301   1.688  1.6021  1.3885  1.0126
14738SOL     OW55867   4.565   3.404   1.575 -0.0303 -0.2316 -0.4999
14738SOL    HW155868   4.476   3.447   1.584 -0.1921 -0.3664 -1.3979
14738SOL    HW255869   4.628   3.444   1.642 -0.4800  0.6015 -0.5657
14739SOL     OW55870   7.812   9.442   6.284 -0.3087  0.4813  0.0261
14739SOL    HW155871   7.726   9.449   6.334  0.3720 -0.7428  1.3897
14739SOL    HW255872   7.858   9.357   6.307  0.5944  0.4311 -1.8067
14740SOL     OW55873   2.025   5.460   3.756 -0.0737  0.2581 -0.0835
14740SOL    HW155874   2.108   5.418   3.720  0.5804  1.0622  0.4659
14740SOL    HW255875   2.035   5.559   3.756 -0.8035  0.3365  0.5234
14741SOL     OW55876   5.390   8.085   4.681  0.7048  0.5903  0.1914
14741SOL    HW155877   5.365   8.171   4.637  0.7307  1.2058  1.3692
14741SOL    HW255878   5.381   8.094   4.780  1.9142 -0.3776  0.3956
14742SOL     OW55879   9.052   1.535   7.406 -0.3367 -0.1057 -0.8512
14742SOL    HW155880   9.089   1.469   7.341 -0.4095 -0.6667 -0.3269
14742SOL    HW255881   9.119   1.551   7.479 -0.5383 -0.0044 -0.6863
14743SOL     OW55882   3.088   5.458   4.419  0.1243  0.4875  0.2327
14743SOL    HW155883   3.116   5.527   4.486 -0.9178  1.0414  0.1088
14743SOL    HW255884   3.017   5.400   4.458 -1.3875  1.5968 -0.7834
14744SOL     OW55885   6.484   8.073   5.750  0.3230  0.4111  0.5188
14744SOL    HW155886   6.581   8.056   5.767  0.1620 -1.7001 -0.5251
14744SOL    HW255887   6.471   8.105   5.657  0.0679  1.1533  0.8085
14745SOL     OW55888   3.113   7.496   3.550 -0.1190  0.6071  0.5810
14745SOL    HW155889   3.073   7.407   3.571  0.9362  0.0038  0.0503
14745SOL    HW255890   3.189   7.484   3.486 -0.2306  1.9295  0.1885
14746SOL     OW55891   4.824   0.203   7.055  0.0026  0.2381 -0.2602
14746SOL    HW155892   4.911   0.172   7.016 -0.5579 -1.5041 -0.1597
14746SOL    HW255893   4.841   0.253   7.139  1.0649  1.9580 -1.4723
14747SOL     OW55894   9.393   6.080   0.026 -0.7041  0.2189  0.2641
14747SOL    HW155895   9.405   6.053  -0.070 -1.1266  0.3531  0.1698
14747SOL    HW255896   9.322   6.150   0.031 -1.0002 -0.1133  0.7258
14748SOL     OW55897   6.538   4.029   7.704 -0.0889  0.2898  0.0155
14748SOL    HW155898   6.457   4.074   7.741  0.2612  1.3252 -0.4485
14748SOL    HW255899   6.514   3.981   7.620 -0.9098 -2.1514  1.5757
14749SOL     OW55900   2.380   4.770   4.077  0.1302  0.3818 -0.5067
14749SOL    HW155901   2.398   4.720   3.993  0.2385 -0.9319  0.2780
14749SOL    HW255902   2.282   4.768   4.097  0.1748  0.1668 -0.2962
14750SOL     OW55903   9.818   8.129   2.623 -0.7350  0.1027 -0.2389
14750SOL    HW155904   9.744   8.093   2.680 -0.7567 -1.0286 -0.9618
14750SOL    HW255905   9.905   8.088   2.651 -0.7106 -0.2716 -0.8481
14751SOL     OW55906   0.257   6.437   7.317 -0.3013 -0.3532  0.4965
14751SOL    HW155907   0.193   6.383   7.262  0.6740  0.1573 -1.2049
14751SOL    HW255908   0.315   6.375   7.371  0.9486 -1.0734 -1.5880
14752SOL     OW55909   9.635   5.821   2.704  0.1395  0.4490 -0.2183
14752SOL    HW155910   9.649   5.919   2.716 -0.8694  0.3947  1.5216
14752SOL    HW255911   9.538   5.802   2.693  0.4018 -0.2866 -1.2992
14753SOL     OW55912   8.959   2.743   5.114 -0.0828 -0.4984 -0.3516
14753SOL    HW155913   8.951   2.803   5.194  0.1667 -1.3977  0.3614
14753SOL    HW255914   9.056   2.729   5.093 -0.1382 -0.7286 -0.4505
14754SOL     OW55915   6.003   1.839   3.957  0.3491 -0.1639  0.4886
14754SOL    HW155916   5.975   1.757   3.907  0.5593  0.3448 -0.4692
14754SOL    HW255917   6.036   1.908   3.893  0.3149  0.6216  1.3030
14755SOL     OW55918   3.155   9.912   5.158  0.2716  0.0673  0.3227
14755SOL    HW155919   3.093   9.875   5.227  0.0767 -2.7995 -1.3146
14755SOL    HW255920   3.110   9.911   5.068  1.7112  0.5444 -0.4292
14756SOL     OW55921   7.209   1.070   1.478 -0.7282  0.1702 -0.1925
14756SOL    HW155922   7.119   1.047   1.514  0.0098 -0.8700  1.0190
14756SOL    HW255923   7.272   0.993   1.492 -0.2469 -0.0226 -3.1555
14757SOL     OW55924   2.832   7.812   1.526 -0.4967 -0.2136 -0.1652
14757SOL    HW155925   2.887   7.777   1.450  0.6737  0.2250  0.4587
14757SOL    HW255926   2.796   7.902   1.502 -1.2684 -0.6682 -0.7271
14758SOL     OW55927   3.415   3.673   4.066  0.5245 -0.4631  0.0064
14758SOL    HW155928   3.415   3.573   4.075  0.9746 -0.5495 -0.8987
14758SOL    HW255929   3.321   3.706   4.054  0.3869 -0.7834  0.2017
14759SOL     OW55930   5.636   1.087   6.501 -0.3196  0.2345  0.0954
14759SOL    HW155931   5.628   1.111   6.404  0.7748  1.7087  0.3502
14759SOL    HW255932   5.701   1.011   6.510  0.0942  0.5406 -0.2672
14760SOL     OW55933   1.486   7.331   7.446  0.2902 -0.6679 -0.1079
14760SOL    HW155934   1.521   7.314   7.538 -1.2367 -0.9789  0.4257
14760SOL    HW255935   1.452   7.425   7.440  4.1611  0.7375 -1.5947
14761SOL     OW55936   6.167   3.870   0.448  0.0167  0.1806 -0.0537
14761SOL    HW155937   6.246   3.852   0.507 -2.1092 -1.5755  2.3553
14761SOL    HW255938   6.172   3.813   0.367 -0.2830 -2.1554  1.5336
14762SOL     OW55939   8.474   8.943   1.080  0.1409 -0.0836 -0.2176
14762SOL    HW155940   8.406   9.013   1.057 -1.0228 -1.2956 -0.5601
14762SOL    HW255941   8.469   8.922   1.177  1.4905  1.3157  0.1839
14763SOL     OW55942   8.684   0.157   0.659 -0.2300  0.3049  0.7014
14763SOL    HW155943   8.634   0.228   0.611 -1.4361 -0.4905  0.7657
14763SOL    HW255944   8.655   0.153   0.755 -1.0517 -1.0651  0.4092
14764SOL     OW55945   9.106   5.007   7.215  0.6835 -0.3226 -0.6073
14764SOL    HW155946   9.092   4.908   7.224  1.1753 -0.6880 -3.2073
14764SOL    HW255947   9.188   5.023   7.161  2.2875  1.5893  2.3002
14765SOL     OW55948   9.829   9.072   3.361 -0.0095  0.2031 -0.2655
14765SOL    HW155949   9.887   9.136   3.411 -0.9209 -0.3436  1.5486
14765SOL    HW255950   9.884   8.995   3.330  0.2222 -0.4037  1.5915
14766SOL     OW55951   7.001   0.740   7.684  0.0565 -0.2718  0.2969
14766SOL    HW155952   6.954   0.718   7.599 -0.4716  0.4369  0.4061
14766SOL    HW255953   7.069   0.811   7.667  1.2172 -1.3949  0.1076
14767SOL     OW55954   4.180   7.706   2.604  0.8443 -0.2313 -0.1559
14767SOL    HW155955   4.160   7.789   2.553  1.1393  0.3554  0.6770
14767SOL    HW255956   4.097   7.675   2.650  1.4804  1.4427  2.1932
14768SOL     OW55957   4.594   3.989   2.214 -0.4364  0.8458  0.2095
14768SOL    HW155958   4.644   3.919   2.163 -0.2776 -0.0505  1.5701
14768SOL    HW255959   4.502   3.998   2.176 -0.2034  0.4655 -0.4628
14769SOL     OW55960   9.370   6.572   1.008  0.0822  0.5351  0.1419
14769SOL    HW155961   9.402   6.477   1.010  0.4623  0.6788  1.0294
14769SOL    HW255962   9.442   6.633   1.041 -1.1555  0.8318  2.4083
14770SOL     OW55963   4.368   9.088   5.046 -0.1808 -0.5226  0.5590
14770SOL    HW155964   4.395   9.007   5.099  0.9400  0.0273  0.8376
14770SOL    HW255965   4.313   9.149   5.104 -0.8314 -0.9575  0.4168
14771SOL     OW55966   3.006   3.614   3.281  0.1162  0.2825  0.1002
14771SOL    HW155967   3.035   3.594   3.187 -1.3382  1.9636 -0.7400
14771SOL    HW255968   3.087   3.634   3.337  0.7945  2.5906 -1.6292
14772SOL     OW55969   4.803   4.120   0.987  0.1745 -0.0121 -0.0138
14772SOL    HW155970   4.820   4.066   1.069  1.0975 -1.8449 -1.3686
14772SOL    HW255971   4.875   4.188   0.976  0.7719 -0.6274  0.0210
14773SOL     OW55972   8.242   4.599   5.403  0.0906 -0.1790 -0.0109
14773SOL    HW155973   8.331   4.572   5.440  0.5953 -1.1482 -1.8794
14773SOL    HW255974   8.193   4.653   5.471  1.3755 -1.1204  1.7089
14774SOL     OW55975   6.392   4.977   7.542 -0.2198  0.1034  0.1445
14774SOL    HW155976   6.486   5.011   7.551 -0.9247  1.9450  0.8264
14774SOL    HW255977   6.389   4.880   7.565  1.1847  0.4984  2.1169
14775SOL     OW55978   3.221   3.000   1.210 -0.0607  0.1499  0.5176
14775SOL    HW155979   3.144   3.056   1.180  0.2231  1.3530  1.9442
14775SOL    HW255980   3.255   3.034   1.298  0.8666 -1.5621  0.8539
14776SOL     OW55981   7.839   6.347   3.488 -0.2286  0.7243  0.0184
14776SOL    HW155982   7.809   6.257   3.518  0.1489 -0.3626 -2.7251
14776SOL    HW255983   7.923   6.372   3.536  0.6737 -1.2046 -0.5073
14777SOL     OW55984   2.892   7.289   4.678 -0.4315  0.3946  0.3523
14777SOL    HW155985   2.916   7.369   4.622 -1.5502 -0.2561 -1.0701
14777SOL    HW255986   2.976   7.241   4.703  0.1102  0.8545 -0.5216
14778SOL     OW55987   7.646   5.901   6.891 -0.3163 -0.0693 -0.5628
14778SOL    HW155988   7.608   5.991   6.869  0.7133  0.7094  0.7331
14778SOL    HW255989   7.626   5.880   6.987  0.2118 -0.8251 -0.6180
14779SOL     OW55990   1.270   6.858   0.752 -0.3931  0.6363 -0.2597
14779SOL    HW155991   1.247   6.774   0.703 -0.5465  0.5598 -0.0572
14779SOL    HW255992   1.258   6.843   0.851  0.6241  0.5651 -0.1464
14780SOL     OW55993   6.347   0.889   5.820  0.1578 -0.1651 -0.1394
14780SOL    HW155994   6.422   0.939   5.864 -0.4444  0.4501  0.1911
14780SOL    HW255995   6.380   0.851   5.733  0.6606  0.7053 -0.3391
14781SOL     OW55996   6.917   0.516   6.886 -0.1831  0.0534  0.1351
14781SOL    HW155997   6.925   0.446   6.815 -0.9570  1.2064 -1.1386
14781SOL    HW255998   6.987   0.503   6.955  1.3276 -0.4307 -1.4651
14782SOL     OW55999   1.381   1.227   1.828  0.1139 -0.0687 -0.2294
14782SOL    HW156000   1.454   1.260   1.888  0.8534 -1.2580 -0.4586
14782SOL    HW256001   1.302   1.287   1.836  0.6184  0.4435  1.0679
14783SOL     OW56002   3.632   8.503   2.909 -0.3339 -0.1111 -0.0677
14783SOL    HW156003   3.728   8.508   2.881 -0.4460 -2.2670 -0.9157
14783SOL    HW256004   3.626   8.504   3.009  0.7806 -2.4034  0.0594
14784SOL     OW56005   8.693   4.647   4.644 -0.7107 -0.5233  0.6115
14784SOL    HW156006   8.759   4.596   4.699 -0.4786 -0.8457  0.0466
14784SOL    HW256007   8.741   4.711   4.585 -1.0344  0.6602  1.6260
14785SOL     OW56008   8.634   3.999   0.117  0.5979  0.4510  0.4038
14785SOL    HW156009   8.603   3.980   0.210  0.8847 -0.5698  0.2994
14785SOL    HW256010   8.570   3.961   0.051  0.7320  0.5967  0.1867
14786SOL     OW56011   7.681   7.218   5.384 -0.4896 -0.5458 -0.1715
14786SOL    HW156012   7.692   7.212   5.483 -0.3236 -0.4955 -0.1865
14786SOL    HW256013   7.662   7.312   5.358 -0.4577 -0.5459 -0.1951
14787SOL     OW56014   0.984   6.978   2.098 -0.1077  0.1253  0.3099
14787SOL    HW156015   0.967   7.074   2.080 -0.4583  0.3289  1.6865
14787SOL    HW256016   1.041   6.968   2.180  1.5455 -0.7702 -0.9112
14788SOL     OW56017   2.637   3.265   5.532  0.0910  0.3077  0.3109
14788SOL    HW156018   2.598   3.352   5.504  0.5434  0.3485 -0.2060
14788SOL    HW256019   2.737   3.272   5.534  0.0754  0.2133  1.6303
14789SOL     OW56020   9.708   4.343   4.261 -0.2420  0.0722 -0.3395
14789SOL    HW156021   9.724   4.245   4.250  1.6544  0.2173  0.8031
14789SOL    HW256022   9.667   4.360   4.351 -4.5097 -0.0165 -2.1467
14790SOL     OW56023   3.834   2.896   7.292 -0.6730 -0.0858  0.5169
14790SOL    HW156024   3.798   2.913   7.201  0.8503 -0.1654 -0.1130
14790SOL    HW256025   3.868   2.982   7.331  2.6620 -0.7377 -0.7613
14791SOL     OW56026   3.389   1.132   4.892 -0.4796  0.6773  0.4226
14791SOL    HW156027   3.354   1.190   4.819 -1.4604  0.9583  1.1137
14791SOL    HW256028   3.346   1.042   4.887 -0.5887  0.7158  0.6943
14792SOL     OW56029   4.134   1.683   7.427 -0.1153  0.2982  0.3813
14792SOL    HW156030   4.061   1.662   7.361 -0.2063  1.3161  0.1529
14792SOL    HW256031   4.097   1.741   7.499 -0.1594 -1.2596  1.6494
14793SOL     OW56032   4.920   0.448   7.192  0.4538  0.0335 -0.0166
14793SOL    HW156033   4.998   0.430   7.251  0.4962  0.4557  0.0594
14793SOL    HW256034   4.952   0.487   7.106  0.6099 -2.9275 -1.3568
14794SOL     OW56035   9.644   8.891   7.583 -0.5798 -0.4019 -0.2053
14794SOL    HW156036   9.729   8.882   7.531 -0.5777  0.0728 -0.2842
14794SOL    HW256037   9.647   8.975   7.638 -1.0248 -0.3518 -0.2588
14795SOL     OW56038   7.877   9.828   7.751 -0.6134  0.5403 -0.2394
14795SOL    HW156039   7.806   9.882   7.796 -1.2652  0.3802 -1.0580
14795SOL    HW256040   7.898   9.869   7.662  0.3241  0.5895  0.0037
14796SOL     OW56041   4.316   5.920   2.041 -0.6928 -0.9947 -0.0235
14796SOL    HW156042   4.320   6.013   2.005  1.9836 -1.1083 -0.1107
14796SOL    HW256043   4.262   5.919   2.126 -0.4434  0.7060  0.1727
14797SOL     OW56044   8.270   0.372   6.800  0.2137 -0.4547  0.0443
14797SOL    HW156045   8.231   0.309   6.732  0.1133  0.4078 -0.7049
14797SOL    HW256046   8.282   0.324   6.887 -0.5591 -1.3027 -0.3113
14798SOL     OW56047   8.585   2.366   5.418 -0.1364  0.0502 -0.5047
14798SOL    HW156048   8.638   2.306   5.478 -0.8147 -0.7100 -0.6462
14798SOL    HW256049   8.645   2.404   5.347  0.1754 -0.9906 -0.8088
14799SOL     OW56050   0.110   7.473   1.867  0.1061  0.9830 -0.5040
14799SOL    HW156051   0.168   7.412   1.921 -1.7383 -1.0534 -0.7656
14799SOL    HW256052   0.015   7.461   1.894 -0.5097  2.2503 -2.0287
14800SOL     OW56053   1.827   8.383   0.353 -0.0098 -0.3389 -0.2038
14800SOL    HW156054   1.852   8.467   0.402  0.4864 -0.3715 -0.4042
14800SOL    HW256055   1.899   8.315   0.364 -1.3317 -1.4840  1.6927
14801SOL     OW56056   3.479   9.538   2.789 -0.7523 -0.0773 -0.8769
14801SOL    HW156057   3.513   9.451   2.752 -1.2041 -0.5693 -0.1531
14801SOL    HW256058   3.451   9.525   2.884 -2.6922  0.3583 -1.3546
14802SOL     OW56059   7.762   8.221   2.243 -0.0100  0.3459  0.4367
14802SOL    HW156060   7.672   8.177   2.250  0.7986 -1.6227 -0.9420
14802SOL    HW256061   7.754   8.302   2.184 -0.9545  0.3816  0.6028
14803SOL     OW56062   3.254   5.525   1.494 -0.3010 -0.0763  0.8218
14803SOL    HW156063   3.259   5.426   1.490 -1.6372 -0.1456  0.5968
14803SOL    HW256064   3.202   5.553   1.575  0.0622  0.4326  0.8822
14804SOL     OW56065   9.690   5.126   3.370 -0.2137 -0.5637  0.0527
14804SOL    HW156066   9.609   5.140   3.313 -1.1794 -0.0958  1.5287
14804SOL    HW256067   9.698   5.029   3.393 -0.4126 -0.5890  0.0142
14805SOL     OW56068   5.460   0.329   1.442 -0.1611  0.3227 -0.1903
14805SOL    HW156069   5.520   0.250   1.453  0.2855  0.9671  2.3166
14805SOL    HW256070   5.477   0.372   1.354  0.4803 -1.6251 -1.0443
14806SOL     OW56071   8.058   9.544   2.706 -0.0313 -0.3940 -0.5802
14806SOL    HW156072   8.019   9.463   2.750 -1.1555  0.7888  0.6506
14806SOL    HW256073   7.995   9.578   2.636  0.3593 -0.4820 -0.9757
14807SOL     OW56074   5.672   3.317   8.075 -0.3657 -0.8045 -0.0588
14807SOL    HW156075   5.719   3.229   8.068  0.3637 -0.4676  0.6475
14807SOL    HW256076   5.615   3.318   8.157 -1.2697 -1.0420 -0.6733
14808SOL     OW56077   7.374   1.466   5.878 -0.3193  0.4899  0.0463
14808SOL    HW156078   7.426   1.523   5.814 -0.0100  0.0881 -0.0619
14808SOL    HW256079   7.341   1.522   5.954 -0.0109  0.8096 -0.0585
14809SOL     OW56080   9.645   2.114   6.558 -0.2777  0.4831  0.6247
14809SOL    HW156081   9.721   2.170   6.591 -0.7952  1.6082 -0.0581
14809SOL    HW256082   9.559   2.163   6.572 -0.4564  1.3776 -3.1065
14810SOL     OW56083   9.213   1.118   2.691  0.1014  0.4265 -0.0240
14810SOL    HW156084   9.279   1.070   2.633 -1.1924 -1.4577 -0.0029
14810SOL    HW256085   9.162   1.184   2.636  0.7876  0.6280 -0.4254
14811SOL     OW56086   1.112   8.831   4.727 -0.3396  0.2248  0.0005
14811SOL    HW156087   1.157   8.920   4.723  0.1586  0.0262  0.9827
14811SOL    HW256088   1.095   8.798   4.634  2.3651 -0.1174 -0.4159
14812SOL     OW56089   9.971   2.516   5.797  0.4153  0.2632  0.2574
14812SOL    HW156090  10.046   2.452   5.780 -0.0645 -0.3732  0.5268
14812SOL    HW256091   9.891   2.488   5.745  0.4265  1.0591 -0.1865
14813SOL     OW56092   3.348   5.728   0.453  0.0233 -0.1043  0.1230
14813SOL    HW156093   3.335   5.748   0.550  1.7805 -1.5675  0.7033
14813SOL    HW256094   3.423   5.784   0.418  0.0345 -0.2829 -0.1382
14814SOL     OW56095   8.927   2.251   2.028 -0.4850 -0.0041  0.0284
14814SOL    HW156096   8.910   2.206   2.116  0.9368 -0.3934  0.1086
14814SOL    HW256097   8.981   2.333   2.043  0.4754 -0.5202 -0.5657
14815SOL     OW56098   9.160   4.521   0.943 -0.0284 -0.2737 -0.3900
14815SOL    HW156099   9.096   4.520   0.865 -1.0182  1.3655  0.3754
14815SOL    HW256100   9.155   4.434   0.991 -1.4012 -0.3263 -0.5963
14816SOL     OW56101   9.291   2.846   3.118 -0.4160 -0.0223 -0.3252
14816SOL    HW156102   9.321   2.753   3.096 -0.5807  0.0645 -0.9199
14816SOL    HW256103   9.201   2.843   3.160  0.1786 -0.2423  0.9831
14817SOL     OW56104   2.559   5.279   4.276 -0.6110 -0.1945  0.0461
14817SOL    HW156105   2.539   5.325   4.190 -3.7432  0.6226  1.1381
14817SOL    HW256106   2.517   5.189   4.277 -1.4981  0.2248  1.1268
14818SOL     OW56107   3.042   3.654   1.211 -0.2345  0.5022 -0.3652
14818SOL    HW156108   3.074   3.613   1.296  2.2132  2.3438 -0.3477
14818SOL    HW256109   2.965   3.714   1.230  0.1835  0.7643  0.5322
14819SOL     OW56110   4.099   8.739   2.923 -0.2817  0.0325 -0.1912
14819SOL    HW156111   4.153   8.746   3.007  0.3087 -0.8548 -0.4782
14819SOL    HW256112   4.053   8.826   2.904  1.9163  1.1694 -0.5057
14820SOL     OW56113   2.226   3.606   7.014  0.2610  0.9897  0.1277
14820SOL    HW156114   2.211   3.563   7.103 -0.3774  2.7539  0.9040
14820SOL    HW256115   2.148   3.664   6.992  0.7674  1.1744 -1.2224
14821SOL     OW56116   8.689   5.500   4.126 -0.2428 -0.1144  0.7457
14821SOL    HW156117   8.665   5.405   4.110  0.6880 -0.6665  2.4652
14821SOL    HW256118   8.758   5.505   4.198 -1.2933  1.9540  1.6489
14822SOL     OW56119   8.271   5.364   6.226 -0.4539 -0.3842 -0.2915
14822SOL    HW156120   8.322   5.354   6.140 -1.8518  0.8842 -1.2960
14822SOL    HW256121   8.217   5.448   6.223  0.9307  0.6823  2.6116
14823SOL     OW56122   6.318   4.197   7.803 -0.3391 -0.2457  0.4346
14823SOL    HW156123   6.230   4.206   7.756  0.2571 -0.3602 -0.7269
14823SOL    HW256124   6.360   4.287   7.812  0.8766 -0.5478 -1.8850
14824SOL     OW56125   1.290   0.969   6.887 -0.4180 -0.0479  0.1059
14824SOL    HW156126   1.275   1.063   6.919 -2.6669 -0.1318 -0.6820
14824SOL    HW256127   1.235   0.906   6.941 -0.4204 -0.7229 -0.6758
14825SOL     OW56128   3.420   3.865   0.831  0.4359  0.5066 -0.0384
14825SOL    HW156129   3.488   3.906   0.771 -0.1259  1.9631  0.2956
14825SOL    HW256130   3.418   3.766   0.818  2.6402  0.4476 -0.0249
14826SOL     OW56131   3.047   3.487   4.157  0.0702  0.2897  0.0419
14826SOL    HW156132   3.031   3.440   4.070 -1.5343 -1.0250  1.0079
14826SOL    HW256133   3.136   3.461   4.193 -0.5054 -1.5040  0.2184
14827SOL     OW56134   2.933   2.572   7.454  0.2824 -0.4695  0.0540
14827SOL    HW156135   2.953   2.497   7.390  0.0920 -0.7426  0.3107
14827SOL    HW256136   2.949   2.660   7.409  0.0204 -0.6610 -0.4099
14828SOL     OW56137   1.754   7.530   4.018  0.0369 -0.1245 -0.0755
14828SOL    HW156138   1.668   7.520   4.068 -0.5534  1.8358 -0.6738
14828SOL    HW256139   1.812   7.597   4.065  1.6372 -2.0970  0.8311
14829SOL     OW56140   4.901   3.709   0.897 -0.1332  0.0931  0.4951
14829SOL    HW156141   4.900   3.738   0.992 -0.3250  1.7135  0.0124
14829SOL    HW256142   4.888   3.788   0.837 -0.6015 -0.9748 -0.8639
14830SOL     OW56143   2.034   6.697   5.523  0.4872 -0.4589 -0.3911
14830SOL    HW156144   2.076   6.786   5.538  1.8473 -1.0003 -0.8823
14830SOL    HW256145   2.029   6.678   5.425  0.0608 -0.8644 -0.2977
14831SOL     OW56146   4.083   3.125   5.702  0.0675  0.7025 -0.4150
14831SOL    HW156147   4.035   3.152   5.785  0.3819  0.4194 -0.1385
14831SOL    HW256148   4.165   3.073   5.726  0.7206  1.5077 -0.8754
14832SOL     OW56149   4.503   4.173   3.904  0.0870 -0.4461  0.3607
14832SOL    HW156150   4.585   4.182   3.847 -1.0396 -0.4070 -1.2978
14832SOL    HW256151   4.426   4.146   3.846 -1.3383  0.7070  1.7118
14833SOL     OW56152   3.537   5.146   5.869 -0.3540  0.0564  0.1886
14833SOL    HW156153   3.522   5.098   5.783 -0.6992 -0.5375  0.5723
14833SOL    HW256154   3.462   5.125   5.932  0.8322 -0.9572  1.2696
14834SOL     OW56155   3.770   2.258   3.399  0.2149  0.7768  0.4495
14834SOL    HW156156   3.781   2.186   3.467  0.8118 -0.6877 -1.1841
14834SOL    HW256157   3.673   2.268   3.377  0.0889  0.7785  0.9940
14835SOL     OW56158   4.303   4.891   7.788  0.1499  0.4336  0.8893
14835SOL    HW156159   4.364   4.833   7.842  0.3530 -1.3647 -1.2074
14835SOL    HW256160   4.234   4.834   7.743 -0.1091  1.9008 -0.6145
14836SOL     OW56161   9.618   2.965   6.778  0.0306 -0.0462 -0.3199
14836SOL    HW156162   9.644   2.929   6.868  0.3295  1.9092  0.4082
14836SOL    HW256163   9.519   2.980   6.776  0.1680  0.9299  0.0734
14837SOL     OW56164   0.836   6.458   3.503 -0.0808  0.4212  0.1857
14837SOL    HW156165   0.923   6.476   3.549 -0.2711  2.8200 -0.3486
14837SOL    HW256166   0.782   6.394   3.559  1.0405  0.7288  1.6598
14838SOL     OW56167   4.836   0.407   2.469  0.7136 -0.8193  0.2825
14838SOL    HW156168   4.906   0.415   2.398  0.4147  3.0084  0.3419
14838SOL    HW256169   4.751   0.372   2.429  1.6433 -2.3101 -0.4340
14839SOL     OW56170   0.144   3.409   4.715  0.2200  0.0748  0.0970
14839SOL    HW156171   0.054   3.448   4.695  0.2999 -0.1668 -0.7249
14839SOL    HW256172   0.206   3.483   4.742  0.5948  0.6307 -2.2493
14840SOL     OW56173   9.732   4.298   3.353 -0.2632 -0.6304  0.0216
14840SOL    HW156174   9.692   4.281   3.263  0.5697  0.4746 -0.5777
14840SOL    HW256175   9.776   4.388   3.353  1.5698 -1.5019  0.8830
14841SOL     OW56176   9.801   0.766   5.007 -0.1922 -0.4814 -0.5513
14841SOL    HW156177   9.851   0.736   4.925 -0.5283 -1.8520 -0.2669
14841SOL    HW256178   9.739   0.693   5.036 -1.3661  0.6880 -0.1043
14842SOL     OW56179   8.597   2.654   3.090 -0.3662 -0.3077  0.2603
14842SOL    HW156180   8.499   2.661   3.072 -0.5567 -2.0235  0.5199
14842SOL    HW256181   8.631   2.741   3.125 -1.1095  1.3439 -2.9444
14843SOL     OW56182   1.850   0.374   6.150 -0.1575  0.4083 -0.0823
14843SOL    HW156183   1.792   0.370   6.231  0.3513  0.4396  0.2892
14843SOL    HW256184   1.802   0.334   6.072 -1.1053  1.4282 -0.0396
14844SOL     OW56185   7.612   2.739   0.970 -0.1397 -0.1692 -0.0871
14844SOL    HW156186   7.600   2.695   0.881  0.3300 -0.8106  0.1689
14844SOL    HW256187   7.571   2.682   1.041 -0.7603  0.4750  0.0791
14845SOL     OW56188   9.134   2.963   7.986 -0.5306  0.6058 -0.0455
14845SOL    HW156189   9.103   3.055   7.959  2.0001  1.8217  1.0234
14845SOL    HW256190   9.201   2.929   7.921 -1.1705 -0.3335 -0.2228
14846SOL     OW56191   2.909   8.239   0.505 -0.0575  0.9320  0.5115
14846SOL    HW156192   2.965   8.197   0.434 -0.6571  1.0508 -0.0404
14846SOL    HW256193   2.937   8.204   0.595 -0.4447 -0.5491  0.0826
14847SOL     OW56194   0.417   9.753   3.385 -0.1798  0.1507 -0.5982
14847SOL    HW156195   0.412   9.841   3.432  0.3891 -0.6719  1.0247
14847SOL    HW256196   0.499   9.705   3.414 -1.8938 -2.1134  0.6094
14848SOL     OW56197   4.100   8.885   6.493 -0.6293 -0.0019 -0.2785
14848SOL    HW156198   4.076   8.811   6.555 -0.0192  0.4860  0.5613
14848SOL    HW256199   4.017   8.923   6.452 -1.0846 -0.0363  0.5878
14849SOL     OW56200   2.125   8.381   4.501 -0.3197 -0.3426 -0.1938
14849SOL    HW156201   2.028   8.357   4.492 -0.0031 -2.0918  0.9771
14849SOL    HW256202   2.133   8.474   4.537 -1.5607 -0.2621 -0.1142
14850SOL     OW56203   3.029   4.517   5.819 -0.0564  0.3953 -0.0049
14850SOL    HW156204   2.945   4.553   5.859  0.9040  1.7587  0.8037
14850SOL    HW256205   3.030   4.535   5.720 -0.8571  0.0936 -0.0660
14851SOL     OW56206   8.392   6.320   3.542 -0.2888  0.1376  0.2088
14851SOL    HW156207   8.474   6.372   3.565 -0.6135  0.4473  0.6716
14851SOL    HW256208   8.340   6.301   3.625  0.4606 -2.0134  0.2317
14852SOL     OW56209   0.715   3.273   6.631  0.5926 -0.5972  0.0771
14852SOL    HW156210   0.753   3.322   6.709 -0.6413  1.9121 -0.8443
14852SOL    HW256211   0.632   3.226   6.659 -0.7242  1.5972 -0.0486
14853SOL     OW56212   8.820   8.503   2.664 -0.5434 -0.0478  0.1805
14853SOL    HW156213   8.756   8.432   2.636 -1.2629  0.8033 -0.3507
14853SOL    HW256214   8.782   8.554   2.742  0.1971 -0.5682  0.8961
14854SOL     OW56215   0.434   6.790   5.702 -0.4790 -0.2642 -0.3390
14854SOL    HW156216   0.495   6.714   5.726 -0.6635 -0.3286 -0.0684
14854SOL    HW256217   0.484   6.876   5.708 -0.7109 -0.2104  0.9960
14855SOL     OW56218   5.263   1.243   3.595  0.3246 -0.3112  0.2174
14855SOL    HW156219   5.359   1.218   3.592  0.9690  1.6133  2.6932
14855SOL    HW256220   5.233   1.274   3.505  1.3665 -3.1320 -1.1188
14856SOL     OW56221   7.698   2.512   6.002 -0.0509  0.2248 -0.3408
14856SOL    HW156222   7.791   2.549   6.004  1.0412 -2.3241 -1.8306
14856SOL    HW256223   7.694   2.430   6.059 -1.3836  0.2832 -0.3471
14857SOL     OW56224   4.944   1.351   0.243 -0.4714 -0.6415 -0.0067
14857SOL    HW156225   4.872   1.377   0.307 -0.1871  0.0853  0.0178
14857SOL    HW256226   5.012   1.424   0.237  0.5473 -1.5469  0.3813
14858SOL     OW56227   2.414   1.507   5.376  0.4310  0.1540 -0.4020
14858SOL    HW156228   2.464   1.428   5.412  2.9629  2.4968  1.5093
14858SOL    HW256229   2.473   1.556   5.311 -1.0237  0.6236 -1.3942
14859SOL     OW56230   2.862   1.726   3.148  0.1229 -0.0423 -0.0691
14859SOL    HW156231   2.887   1.711   3.052  0.1027 -0.7091  0.0268
14859SOL    HW256232   2.825   1.641   3.187  0.3185  0.1643  0.5831
14860SOL     OW56233   0.377   1.588   1.632  0.5046 -0.5762 -0.4353
14860SOL    HW156234   0.375   1.488   1.633 -0.6723 -0.5533 -0.3221
14860SOL    HW256235   0.319   1.623   1.559  0.1636  0.0453  0.1235
14861SOL     OW56236   7.708   2.563   4.535  0.1775  0.3726 -0.3506
14861SOL    HW156237   7.673   2.492   4.474  1.3310  0.4970 -1.1798
14861SOL    HW256238   7.806   2.575   4.518  0.2812  1.1450  0.8009
14862SOL     OW56239   4.284   1.318   3.209  0.0982  0.4010  0.0164
14862SOL    HW156240   4.315   1.409   3.239 -0.5468  0.1721  1.4358
14862SOL    HW256241   4.357   1.252   3.223 -0.0700  0.3658  0.7577
14863SOL     OW56242   9.207   0.968   0.641  0.1391 -0.3406 -0.2764
14863SOL    HW156243   9.267   1.021   0.701  0.9085 -1.2490 -0.2345
14863SOL    HW256244   9.189   1.021   0.558  1.2856 -0.1950 -0.4425
14864SOL     OW56245   7.223   6.018   6.570 -0.5576 -0.1053 -0.3583
14864SOL    HW156246   7.139   6.009   6.624  0.0653  1.5167  0.9467
14864SOL    HW256247   7.276   5.934   6.578 -1.7534 -0.8994 -0.6610
14865SOL     OW56248   9.356   2.593   2.032 -0.2517 -0.4256  0.1890
14865SOL    HW156249   9.427   2.609   1.964 -1.5402 -1.7061 -1.4815
14865SOL    HW256250   9.367   2.659   2.107  1.2834  0.8990 -1.1519
14866SOL     OW56251   0.926   4.226   4.715 -0.3056 -0.2857  0.4792
14866SOL    HW156252   0.974   4.313   4.712  2.7954 -1.7084  3.6798
14866SOL    HW256253   0.887   4.213   4.806 -1.9393 -1.6457 -0.3913
14867SOL     OW56254   8.223   6.577   1.560  0.1571  0.1051  0.4943
14867SOL    HW156255   8.319   6.551   1.569  0.4087  0.8317  0.0382
14867SOL    HW256256   8.177   6.514   1.497  0.9775  1.2642 -1.3088
14868SOL     OW56257   1.392   5.407   5.729 -0.1061 -0.0177 -0.0794
14868SOL    HW156258   1.484   5.444   5.740  0.2153 -1.2131  1.4507
14868SOL    HW256259   1.326   5.482   5.728  0.7448  0.7494  0.4741
14869SOL     OW56260   0.748   4.061   3.093 -0.0862  0.0427  0.6574
14869SOL    HW156261   0.745   4.153   3.130 -0.0411 -0.2290  1.3432
14869SOL    HW256262   0.716   4.062   2.998 -0.0737  0.7596  0.6589
14870SOL     OW56263   0.987   4.517   4.922 -0.1259  0.6017 -0.4083
14870SOL    HW156264   1.061   4.574   4.888  0.0774  2.4526  2.8559
14870SOL    HW256265   1.025   4.435   4.965 -0.0279  0.7847 -0.1365
14871SOL     OW56266   2.319   3.583   7.619 -0.9895 -0.1623 -0.2101
14871SOL    HW156267   2.361   3.550   7.703  0.8128 -0.3998 -1.1952
14871SOL    HW256268   2.322   3.683   7.618 -0.9923 -0.1586 -0.0152
14872SOL     OW56269   9.295   8.006   4.465 -0.1090 -0.0972  0.1465
14872SOL    HW156270   9.366   8.075   4.478 -0.9000  0.6004  0.7397
14872SOL    HW256271   9.333   7.930   4.412  1.3463 -0.1552  1.2387
14873SOL     OW56272   4.256   4.165   5.384  0.6680  0.5805 -0.0236
14873SOL    HW156273   4.328   4.138   5.320 -0.0791  0.4249 -0.7908
14873SOL    HW256274   4.280   4.252   5.426  1.6595  0.1807  0.2704
14874SOL     OW56275   3.073   9.456   3.647  0.0254 -0.1295 -0.1276
14874SOL    HW156276   3.047   9.546   3.613  1.2182 -0.1050 -0.9972
14874SOL    HW256277   3.103   9.464   3.743 -0.5517  0.2770  0.0186
14875SOL     OW56278   8.806   3.710   2.370  0.3188 -0.2255  0.5215
14875SOL    HW156279   8.708   3.716   2.349  0.8887  0.4391 -2.1936
14875SOL    HW256280   8.838   3.799   2.403  0.2294 -0.1266  0.3430
14876SOL     OW56281   1.874   3.085   5.399 -0.0651 -0.0554  0.1773
14876SOL    HW156282   1.823   3.002   5.376 -0.0405 -0.0750  0.1934
14876SOL    HW256283   1.956   3.060   5.451 -0.2208  0.0032  0.4551
14877SOL     OW56284   0.607   7.586   1.008 -0.1889  0.5600  0.4984
14877SOL    HW156285   0.707   7.578   0.996 -0.3163  1.2147 -1.1939
14877SOL    HW256286   0.574   7.663   0.955 -1.6368  0.2165  0.8985
14878SOL     OW56287   3.547   0.705   3.299 -0.3540 -0.1136  0.3704
14878SOL    HW156288   3.519   0.651   3.378  1.7766 -1.9141 -0.0804
14878SOL    HW256289   3.642   0.733   3.308 -0.0490 -0.4209 -1.6009
14879SOL     OW56290   1.127   2.943   2.445 -0.7731  0.0657  0.4650
14879SOL    HW156291   1.039   2.982   2.419 -0.2249  2.0352  1.4748
14879SOL    HW256292   1.126   2.844   2.429 -2.7700  0.2342 -0.5614
14880SOL     OW56293   1.901   0.123   4.358  0.3186 -0.5301 -0.2365
14880SOL    HW156294   1.937   0.109   4.266  0.6682 -1.6300  0.0650
14880SOL    HW256295   1.922   0.217   4.388  1.7082 -0.7129 -0.6085
14881SOL     OW56296   8.023   6.537   7.414  0.3390  0.3887  0.3886
14881SOL    HW156297   8.018   6.582   7.325  1.7408  1.0219  0.6214
14881SOL    HW256298   8.075   6.594   7.477  2.0437 -1.4857  0.7297
14882SOL     OW56299   6.871   7.200   7.783 -0.2955  0.1090 -0.1079
14882SOL    HW156300   6.850   7.137   7.708 -2.2758  1.9594 -1.1556
14882SOL    HW256301   6.839   7.161   7.870  1.1528 -1.6193 -0.3248
14883SOL     OW56302   5.810   0.899   3.869  0.1307 -0.8745  0.1421
14883SOL    HW156303   5.741   0.968   3.846 -0.5735 -1.6018  0.0699
14883SOL    HW256304   5.849   0.861   3.785 -0.3763 -1.4611  0.1725
14884SOL     OW56305   3.650   0.297   0.170 -0.2762  0.5840 -0.4842
14884SOL    HW156306   3.726   0.356   0.199  0.4008 -0.1352 -0.7817
14884SOL    HW256307   3.674   0.252   0.084 -0.3021 -1.0414  0.3430
14885SOL     OW56308   5.161   8.500   5.920 -0.0588  0.0358  0.1497
14885SOL    HW156309   5.171   8.444   5.838 -1.8319 -0.6214  0.3684
14885SOL    HW256310   5.244   8.555   5.932  2.0837 -3.1308  0.4207
14886SOL     OW56311   2.408   6.329   7.808 -0.4815  0.1054 -0.6972
14886SOL    HW156312   2.323   6.377   7.787 -0.1066  1.2130  0.2211
14886SOL    HW256313   2.421   6.326   7.907 -0.1032 -1.2286 -0.7737
14887SOL     OW56314   5.321   9.653   5.067 -0.5654 -0.1416  0.6250
14887SOL    HW156315   5.413   9.615   5.078 -0.3949  0.0701 -0.0166
14887SOL    HW256316   5.253   9.583   5.088 -0.2593 -0.0164  2.0400
14888SOL     OW56317   1.350   6.065   4.308  0.3039 -0.0135 -0.0862
14888SOL    HW156318   1.274   6.130   4.316 -0.5204 -0.9678 -0.0250
14888SOL    HW256319   1.407   6.070   4.389  1.9063  2.6901 -1.3468
14889SOL     OW56320   6.218   1.847   5.375  0.2171  0.0440 -0.1348
14889SOL    HW156321   6.204   1.765   5.431  0.3444  0.0648 -0.0721
14889SOL    HW256322   6.208   1.928   5.432 -0.1136  0.0760 -0.2419
14890SOL     OW56323   1.384   0.856   4.933  0.2332  0.1587  0.9124
14890SOL    HW156324   1.381   0.782   4.865  0.2172 -1.5496  2.7139
14890SOL    HW256325   1.328   0.831   5.012  0.5593  1.9268  1.7232
14891SOL     OW56326   4.512   2.401   7.484  0.4142 -0.6254 -0.0604
14891SOL    HW156327   4.526   2.435   7.577 -0.7281  1.4898 -0.6378
14891SOL    HW256328   4.440   2.332   7.484  0.0874 -0.2880  0.5527
14892SOL     OW56329   3.368   4.409   0.769  0.3656 -0.0521  0.1864
14892SOL    HW156330   3.435   4.453   0.829 -1.5194  0.3560  2.0245
14892SOL    HW256331   3.285   4.464   0.765 -0.6296 -1.5563 -0.4665
14893SOL     OW56332   1.158   6.771   7.169 -0.5655  0.2463  0.2607
14893SOL    HW156333   1.108   6.735   7.090 -0.7170 -0.2310  0.5753
14893SOL    HW256334   1.111   6.853   7.202 -0.3943  0.5615 -0.2601
14894SOL     OW56335   1.632   7.001   3.278  0.1773 -0.0186 -0.3803
14894SOL    HW156336   1.593   7.011   3.370 -1.0075  2.4020 -1.0988
14894SOL    HW256337   1.600   6.916   3.238 -0.1667 -0.5769  1.0455
14895SOL     OW56338   2.020   5.588   3.095 -0.7101  0.3262  0.3856
14895SOL    HW156339   1.992   5.532   3.018 -2.0252  0.3776  0.8002
14895SOL    HW256340   2.111   5.627   3.078  0.0463 -1.5941 -0.0650
14896SOL     OW56341   9.550   6.356   1.807 -0.0804 -0.3132 -0.6524
14896SOL    HW156342   9.520   6.265   1.778 -1.2956 -0.3170  0.5859
14896SOL    HW256343   9.485   6.393   1.873  1.2099  0.8364 -0.0111
14897SOL     OW56344   7.756   3.293   1.457  0.2478 -0.4471 -0.3348
14897SOL    HW156345   7.740   3.238   1.375  2.2424 -1.2107 -0.2291
14897SOL    HW256346   7.827   3.361   1.438 -0.4175  0.4306  0.2936
14898SOL     OW56347   8.930   3.497   7.421 -0.6943  0.1359 -0.1106
14898SOL    HW156348   8.999   3.430   7.449 -0.1928  0.6149 -0.1717
14898SOL    HW256349   8.873   3.521   7.500 -1.0301 -0.5401 -0.1472
14899SOL     OW56350   0.014   5.408   1.157 -0.3564 -0.0673 -0.4402
14899SOL    HW156351  -0.017   5.390   1.251  0.8669  3.1730  0.6725
14899SOL    HW256352   0.060   5.326   1.121 -2.1843 -1.8714  1.1805
14900SOL     OW56353   7.672   1.826   2.998  0.1620  0.0802 -0.2114
14900SOL    HW156354   7.639   1.916   2.967 -0.0887 -0.4087 -1.3640
14900SOL    HW256355   7.646   1.756   2.932 -1.0455 -1.0979  1.4684
14901SOL     OW56356   1.021   3.503   1.026  0.2286 -0.2730  0.1664
14901SOL    HW156357   1.014   3.446   0.944 -1.0730  1.4464 -0.9844
14901SOL    HW256358   1.113   3.540   1.033  0.3741 -0.5033 -0.4882
14902SOL     OW56359   0.194   3.104   5.036  0.0801  0.1261  0.4924
14902SOL    HW156360   0.191   3.004   5.042  1.7250 -0.1239 -2.1010
14902SOL    HW256361   0.138   3.135   4.959  1.1185  1.0665  0.1037
14903SOL     OW56362   2.381   2.182   8.125  0.1675  0.0101  0.0397
14903SOL    HW156363   2.402   2.121   8.201  0.5201  0.2206  0.1157
14903SOL    HW256364   2.466   2.208   8.079  0.4415  3.1556  2.1200
14904SOL     OW56365   0.366   0.482   5.269  0.7060  0.1959  0.5376
14904SOL    HW156366   0.333   0.494   5.363  1.2992  1.3943  0.6026
14904SOL    HW256367   0.344   0.563   5.215  0.0738 -0.6321 -0.4483
14905SOL     OW56368   4.595   4.435   3.649 -0.3271 -1.1099 -0.2982
14905SOL    HW156369   4.576   4.338   3.632 -2.6854 -0.3836 -2.1089
14905SOL    HW256370   4.550   4.490   3.579 -0.0045  1.3805  1.4035
14906SOL     OW56371   4.943   2.505   4.440  0.1211  0.2548 -0.4894
14906SOL    HW156372   5.024   2.452   4.467  0.8737  0.8566 -1.5674
14906SOL    HW256373   4.971   2.593   4.402 -1.0119  0.1892 -1.4992
14907SOL     OW56374   5.625   0.624   2.270  0.0580  0.0113 -0.6251
14907SOL    HW156375   5.612   0.545   2.330 -0.4038  0.8391  0.3766
14907SOL    HW256376   5.712   0.614   2.222  0.1116 -1.0003 -0.3446
14908SOL     OW56377   8.151   9.561   7.047 -0.1416 -0.2282 -0.2997
14908SOL    HW156378   8.251   9.559   7.036 -0.0993  0.2356 -0.0092
14908SOL    HW256379   8.109   9.590   6.961 -0.0155 -0.2097 -0.3559
14909SOL     OW56380   7.468   5.662   1.484  0.0708 -0.0212  0.4638
14909SOL    HW156381   7.433   5.582   1.436 -0.1652  0.2367  0.2043
14909SOL    HW256382   7.567   5.652   1.498  0.8460  1.4775 -3.2646
14910SOL     OW56383   6.612   4.786   0.017  0.6179  0.1971  0.1587
14910SOL    HW156384   6.709   4.803  -0.003  0.1891  0.2866 -1.9175
14910SOL    HW256385   6.555   4.825  -0.056 -1.0049  0.3121  1.4537
14911SOL     OW56386   4.450   3.457   4.078 -0.4916 -0.2907 -0.0831
14911SOL    HW156387   4.352   3.447   4.060 -0.4752 -0.5984 -0.0175
14911SOL    HW256388   4.474   3.403   4.159 -0.6382  1.3846  1.0942
14912SOL     OW56389   6.083   1.425   3.068  0.1383  0.6260  0.2623
14912SOL    HW156390   6.166   1.463   3.108  1.0034  0.6484 -1.4933
14912SOL    HW256391   6.107   1.346   3.011 -1.0180  0.7006 -0.3417
14913SOL     OW56392   1.742   7.827   2.716  0.0552 -0.4633  0.3091
14913SOL    HW156393   1.830   7.785   2.692  1.0023  1.3404  0.5398
14913SOL    HW256394   1.755   7.925   2.732 -2.3476  0.1905 -1.4987
14914SOL     OW56395   2.294   5.909   0.703  0.5734 -0.8525 -0.0252
14914SOL    HW156396   2.229   5.837   0.727 -1.0769  1.0309  1.3567
14914SOL    HW256397   2.385   5.884   0.736 -0.1731 -1.8817  1.3328
14915SOL     OW56398   3.124   5.169   3.489  0.2421 -0.7030 -0.5446
14915SOL    HW156399   3.135   5.114   3.407  1.1617 -0.2385 -0.7333
14915SOL    HW256400   3.213   5.188   3.530  0.0363  1.3246 -0.9435
14916SOL     OW56401   3.964   9.603   8.058 -0.3597 -0.0861  0.2629
14916SOL    HW156402   3.937   9.589   7.963  0.3205  0.4840 -0.0232
14916SOL    HW256403   4.064   9.599   8.065 -0.1633  3.2897  0.3444
14917SOL     OW56404   8.097   5.041   5.635  0.0883 -0.1237 -0.0273
14917SOL    HW156405   8.005   5.073   5.658 -0.2235  0.1458 -1.5740
14917SOL    HW256406   8.164   5.112   5.654  0.0497 -0.4734  1.5145
14918SOL     OW56407   7.870   3.572   0.356  0.0021  0.6838 -0.1381
14918SOL    HW156408   7.832   3.634   0.287 -1.8176  1.4113  1.4705
14918SOL    HW256409   7.859   3.477   0.326 -1.4246  0.9673 -0.5221
14919SOL     OW56410   4.830   1.279   4.816  0.4640  0.5273 -0.5318
14919SOL    HW156411   4.788   1.238   4.735 -1.9096  0.7731  0.5543
14919SOL    HW256412   4.809   1.377   4.819  0.0583  0.4060  0.6887
14920SOL     OW56413   5.173   9.181   5.005  0.7021  0.3625 -0.2086
14920SOL    HW156414   5.084   9.136   5.007  0.7636  0.2657  1.6850
14920SOL    HW256415   5.241   9.119   4.967  0.3636 -0.3717  0.3612
14921SOL     OW56416   0.937   9.244   5.400  0.4449  0.1971  0.3002
14921SOL    HW156417   0.974   9.165   5.448 -0.9551  0.6292  2.1331
14921SOL    HW256418   0.852   9.219   5.354  0.7722  0.2665 -0.3449
14922SOL     OW56419   9.148   2.304   7.161  0.2761  0.0925 -0.4842
14922SOL    HW156420   9.147   2.324   7.259  0.1604 -1.4484 -0.1597
14922SOL    HW256421   9.054   2.299   7.127  0.2807 -0.8284 -0.3645
14923SOL     OW56422   0.877   0.454   2.008 -0.0760 -0.3312  0.3164
14923SOL    HW156423   0.828   0.391   1.948 -1.3803 -0.2187  1.2274
14923SOL    HW256424   0.811   0.512   2.056  1.0088  0.4294  0.9039
14924SOL     OW56425   0.931   8.198   4.232 -0.3288 -0.1835  0.4129
14924SOL    HW156426   0.950   8.129   4.302  1.4648 -0.6137 -0.4724
14924SOL    HW256427   0.964   8.166   4.144  0.5828  1.8204 -0.0049
14925SOL     OW56428   7.668   2.633   5.766  0.4428 -0.2919 -0.1112
14925SOL    HW156429   7.688   2.580   5.849  0.4003 -0.2724 -0.0885
14925SOL    HW256430   7.689   2.577   5.686  0.8271 -0.1840 -0.0900
14926SOL     OW56431   4.026   0.141   6.988 -0.0498  0.1313  0.2051
14926SOL    HW156432   3.983   0.230   6.970  0.7207  0.2112 -1.2845
14926SOL    HW256433   3.956   0.070   6.993 -0.5359  0.5887 -0.1193
14927SOL     OW56434   0.534   6.241   5.456 -0.0633 -0.2750 -0.2819
14927SOL    HW156435   0.561   6.336   5.470  0.4931 -0.7128  1.7638
14927SOL    HW256436   0.580   6.205   5.375  0.8689  0.7774 -0.2366
14928SOL     OW56437   9.193   8.211   5.341  0.1813  0.0152  0.1901
14928SOL    HW156438   9.224   8.236   5.433 -1.7739  0.3144  0.7823
14928SOL    HW256439   9.232   8.122   5.316 -1.1341 -1.1832  2.2568
14929SOL     OW56440   5.013   1.710   0.595  0.1835  0.4049  0.0772
14929SOL    HW156441   5.102   1.726   0.552  1.2881 -1.7812  1.4842
14929SOL    HW256442   5.007   1.763   0.679  0.9536 -0.9261  0.9870
14930SOL     OW56443   7.522   5.196   1.721  0.1470 -0.4256  0.4897
14930SOL    HW156444   7.578   5.125   1.678  0.5560 -0.3517  0.8931
14930SOL    HW256445   7.582   5.267   1.758 -0.3333  1.4346 -2.1424
14931SOL     OW56446   8.479   5.986   2.932  0.4403  0.0996  0.2623
14931SOL    HW156447   8.433   5.909   2.888 -1.5658  1.8261 -0.7770
14931SOL    HW256448   8.578   5.970   2.933  0.1515 -1.9497 -0.9212
14932SOL     OW56449   8.355   8.574   2.980  0.2593 -0.6867  0.8787
14932SOL    HW156450   8.323   8.557   3.074  0.1946 -0.9233  0.8128
14932SOL    HW256451   8.354   8.672   2.963 -0.5921 -0.6975  0.8254
14933SOL     OW56452   6.806   0.563   2.159 -0.6069 -0.7673 -0.0370
14933SOL    HW156453   6.736   0.540   2.227 -0.5274 -1.3336 -0.1467
14933SOL    HW256454   6.886   0.601   2.206 -0.6459 -0.9315  0.1649
14934SOL     OW56455   6.656   6.991   6.194 -0.7067 -0.0533  0.0780
14934SOL    HW156456   6.640   7.019   6.099  0.6780 -0.0639 -0.1590
14934SOL    HW256457   6.568   6.987   6.242 -1.1918  2.2072 -0.5750
14935SOL     OW56458   4.062   1.875   4.270  0.6182 -0.0776  0.2682
14935SOL    HW156459   4.009   1.811   4.214  0.5123 -0.2283  0.5416
14935SOL    HW256460   4.135   1.826   4.317  0.3358 -0.0558  0.7325
14936SOL     OW56461   1.923   9.991   1.352  0.2748 -0.4143  0.5161
14936SOL    HW156462   1.826   9.968   1.351  0.0524  0.5010  0.1614
14936SOL    HW256463   1.977   9.907   1.355 -0.5256 -0.9382  0.4665
14937SOL     OW56464   2.502   0.753   5.794  0.6524 -0.4869 -0.1169
14937SOL    HW156465   2.494   0.771   5.696  0.2321 -1.3111 -0.2381
14937SOL    HW256466   2.456   0.667   5.816 -1.3451  0.8537  1.1841
14938SOL     OW56467   4.606   6.172   1.806  0.1032 -0.0196  0.0445
14938SOL    HW156468   4.592   6.245   1.739 -0.2093 -0.5554 -0.4897
14938SOL    HW256469   4.615   6.211   1.897  1.2112  0.7757 -0.3922
14939SOL     OW56470   2.712   5.672   6.633 -0.0862  0.3526  1.2655
14939SOL    HW156471   2.749   5.579   6.630  0.6094  0.6673 -0.5551
14939SOL    HW256472   2.613   5.668   6.643 -0.3667 -0.6595 -1.4869
14940SOL     OW56473   1.492   0.816   3.943  0.6383  0.1488  0.2785
14940SOL    HW156474   1.544   0.745   3.990  0.1682 -0.2243  0.2333
14940SOL    HW256475   1.416   0.846   4.001 -0.8211 -1.3463 -0.8323
14941SOL     OW56476   9.776   3.667   7.426 -0.5854 -0.0830 -0.2053
14941SOL    HW156477   9.825   3.748   7.457 -2.3902  0.9735 -0.0160
14941SOL    HW256478   9.812   3.637   7.338  0.8417  0.2385  0.2536
14942SOL     OW56479   1.347   8.695   5.988 -0.2258  0.0349  1.0077
14942SOL    HW156480   1.369   8.599   5.969 -1.9274  0.1654 -2.0210
14942SOL    HW256481   1.320   8.705   6.084 -0.1138 -2.5412  1.3389
14943SOL     OW56482   8.493   5.334   3.876 -0.0677  0.1765 -0.1224
14943SOL    HW156483   8.538   5.418   3.848 -0.9646  0.7950  0.2746
14943SOL    HW256484   8.395   5.350   3.888  0.0313 -0.4413  1.7728
14944SOL     OW56485   5.540   0.403   5.251  0.3802 -0.4523  0.0109
14944SOL    HW156486   5.585   0.484   5.288  0.5107  0.3803 -1.9401
14944SOL    HW256487   5.444   0.423   5.234  0.8730  0.0060 -2.4746
14945SOL     OW56488   3.275   3.381   5.150  0.5319  0.3323 -0.0892
14945SOL    HW156489   3.246   3.298   5.103  0.4184  0.8146 -0.8885
14945SOL    HW256490   3.313   3.357   5.240  1.3675 -0.6704 -0.6933
14946SOL     OW56491   1.762   0.627   5.646 -0.7323 -0.5280 -0.5456
14946SOL    HW156492   1.719   0.537   5.649 -1.1225 -0.3350 -0.2268
14946SOL    HW256493   1.695   0.695   5.616 -0.4857 -0.3183 -0.6251
14947SOL     OW56494   2.714   0.779   3.122 -0.2363 -0.0085 -0.0374
14947SOL    HW156495   2.771   0.720   3.179 -1.3997 -1.5779 -0.4653
14947SOL    HW256496   2.633   0.806   3.173 -0.3994  0.0540 -0.3289
14948SOL     OW56497   4.875   0.188   6.005 -0.2481  0.4451 -0.8401
14948SOL    HW156498   4.912   0.274   6.039  2.0207 -0.4471 -0.9653
14948SOL    HW256499   4.860   0.126   6.082  0.7887 -0.0320 -1.0111
14949SOL     OW56500   0.725   8.645   0.174 -0.6265 -0.1832 -0.8668
14949SOL    HW156501   0.669   8.568   0.207  0.0417 -0.5760 -0.6540
14949SOL    HW256502   0.818   8.635   0.207 -0.3232  0.2457 -1.5928
14950SOL     OW56503   9.330   4.635   5.575 -0.1648 -0.0509  0.1151
14950SOL    HW156504   9.390   4.648   5.496 -1.9280 -1.1918 -1.4497
14950SOL    HW256505   9.324   4.721   5.627  0.5100  0.8795 -1.3260
14951SOL     OW56506   6.799   0.547   2.531 -0.4606 -0.6939  0.1340
14951SOL    HW156507   6.761   0.574   2.619 -0.9675  1.1119 -0.6096
14951SOL    HW256508   6.729   0.557   2.460  0.8102  0.8263 -0.9495
14952SOL     OW56509   5.770   1.230   4.688 -0.2212  0.4431 -0.0552
14952SOL    HW156510   5.680   1.261   4.657  0.3560  1.5454 -0.6348
14952SOL    HW256511   5.839   1.297   4.664  0.8343 -0.5877  0.0334
14953SOL     OW56512   2.777   7.029   4.189  1.4346 -0.0499  0.1543
14953SOL    HW156513   2.783   7.006   4.092  1.4056 -2.3661  0.6783
14953SOL    HW256514   2.860   7.000   4.235  0.3766 -1.3245  1.2844
14954SOL     OW56515   9.119   0.496   2.161 -0.2254 -0.0492 -0.0944
14954SOL    HW156516   9.212   0.471   2.134  1.4242  2.3441  2.8850
14954SOL    HW256517   9.078   0.421   2.212 -0.0626 -1.2510 -1.7102
14955SOL     OW56518   3.379   1.280   5.116  0.5396  0.0419 -0.4392
14955SOL    HW156519   3.380   1.226   5.032  0.5859  0.4755 -0.7203
14955SOL    HW256520   3.362   1.376   5.093  0.7674  0.1935  0.0261
14956SOL     OW56521   4.247   3.791   6.194 -0.2849 -0.2323 -0.3711
14956SOL    HW156522   4.150   3.789   6.170 -0.3201  0.6907 -0.3144
14956SOL    HW256523   4.282   3.884   6.185  0.2113 -0.2482  1.1625
14957SOL     OW56524   8.713   9.252   5.425 -0.1438  0.0008  1.1144
14957SOL    HW156525   8.662   9.167   5.412  0.3592 -0.4675  2.1615
14957SOL    HW256526   8.808   9.239   5.397 -0.3403  0.5616  0.1758
14958SOL     OW56527   2.443   8.303   2.562 -0.2239  0.2188  0.1544
14958SOL    HW156528   2.473   8.319   2.656 -0.0138  1.7724 -0.1668
14958SOL    HW256529   2.394   8.383   2.528 -1.7350 -0.9446 -0.5192
14959SOL     OW56530   6.937   9.106   6.584 -0.4655 -0.3111  0.3284
14959SOL    HW156531   6.942   9.041   6.508  0.9322  1.4076 -1.1061
14959SOL    HW256532   6.854   9.161   6.576 -0.5696 -0.4751  0.3052
14960SOL     OW56533   8.161   4.784   3.187 -0.3259  0.2401  0.9545
14960SOL    HW156534   8.136   4.865   3.239 -0.4569  0.9962 -0.2782
14960SOL    HW256535   8.110   4.782   3.101  0.4031 -0.6391  0.5314
14961SOL     OW56536   6.906   1.776   4.128  0.0804 -0.1455  0.1351
14961SOL    HW156537   6.963   1.769   4.210  0.2297 -0.1166  0.0331
14961SOL    HW256538   6.819   1.820   4.152  0.0779 -0.2392  0.3011
14962SOL     OW56539   0.994   9.002   7.265  0.3734 -0.0178 -0.3166
14962SOL    HW156540   0.950   9.023   7.352 -0.3929  0.3193 -0.7794
14962SOL    HW256541   0.927   8.963   7.202  0.8230  0.1554 -0.9088
14963SOL     OW56542   9.262   7.071   2.515  0.0736  0.3561 -0.2692
14963SOL    HW156543   9.168   7.071   2.482  0.3951  1.2589 -1.2112
14963SOL    HW256544   9.299   6.978   2.514 -0.5016  0.1346 -0.7612
14964SOL     OW56545   4.319   9.465   2.217 -0.5012 -0.6826  0.4669
14964SOL    HW156546   4.293   9.405   2.293 -1.9743 -0.5494  0.0751
14964SOL    HW256547   4.415   9.491   2.227 -1.1752  0.9047  3.3496
14965SOL     OW56548   2.396   2.426   6.850  0.0520  0.4795 -0.4601
14965SOL    HW156549   2.352   2.393   6.767 -0.1353 -1.0047  0.2083
14965SOL    HW256550   2.389   2.525   6.855 -0.7130  0.4934 -1.7710
14966SOL     OW56551   6.532   2.794   0.035  0.6389 -0.2466 -0.5041
14966SOL    HW156552   6.527   2.838   0.125  0.8956 -0.3638 -0.4302
14966SOL    HW256553   6.628   2.779   0.011  0.6095  0.8615 -1.3392
14967SOL     OW56554   9.733   0.602   0.512 -0.2656 -0.0464  0.1636
14967SOL    HW156555   9.825   0.601   0.552 -1.4351  0.2282  2.9348
14967SOL    HW256556   9.704   0.508   0.494 -0.0508 -0.2164  0.6975
14968SOL     OW56557   5.182   2.978   0.844 -0.3213 -0.3131  0.6478
14968SOL    HW156558   5.211   2.922   0.922 -0.6528  0.5935  1.4164
14968SOL    HW256559   5.251   3.049   0.827 -0.3881 -0.3337  0.2807
14969SOL     OW56560   8.248   5.954   1.253  0.2779  0.1710 -0.3757
14969SOL    HW156561   8.294   5.897   1.184 -1.9717 -1.1543 -0.8293
14969SOL    HW256562   8.236   6.046   1.217  1.9776  0.3473 -0.5076
14970SOL     OW56563   3.274   7.684   3.289  0.0751 -0.0101 -0.2557
14970SOL    HW156564   3.325   7.736   3.358 -0.4083 -1.0355  0.9047
14970SOL    HW256565   3.281   7.586   3.310 -0.8706 -0.2655 -1.1261
14971SOL     OW56566   3.072   5.800   4.116 -0.8230  0.1731 -0.5718
14971SOL    HW156567   3.022   5.803   4.030  1.6582  1.9079 -2.0243
14971SOL    HW256568   3.118   5.712   4.125  0.7451  0.8133 -2.1367
14972SOL     OW56569   7.415   4.832   1.867  0.6620  0.0269 -0.3057
14972SOL    HW156570   7.440   4.893   1.941  1.3555 -0.2399 -0.3099
14972SOL    HW256571   7.498   4.790   1.830  0.4577  1.1414 -2.0874
14973SOL     OW56572   1.093   2.825   0.630  0.2137 -0.3242 -0.3070
14973SOL    HW156573   1.117   2.851   0.537 -1.1802 -0.8750 -0.8214
14973SOL    HW256574   1.172   2.780   0.673  0.7927 -0.2507 -1.2821
14974SOL     OW56575   4.971   1.274   7.414 -0.1245  0.0297  0.0680
14974SOL    HW156576   4.947   1.342   7.345 -0.0078  1.2975  1.2563
14974SOL    HW256577   4.891   1.216   7.434 -0.0290 -0.6263 -1.4281
14975SOL     OW56578   0.547   2.588   2.257 -0.3082 -0.4065 -0.0188
14975SOL    HW156579   0.531   2.585   2.159  0.4717  0.8362 -0.1837
14975SOL    HW256580   0.595   2.504   2.285 -0.9217 -0.9650 -0.6081
14976SOL     OW56581   8.745   3.093   6.324  0.1487  0.4179 -0.4168
14976SOL    HW156582   8.798   3.044   6.255  1.4507  1.3032 -0.0666
14976SOL    HW256583   8.647   3.085   6.304  0.3582 -1.9386 -0.6045
14977SOL     OW56584   9.888   9.990   1.049 -0.1984  0.3499  0.2047
14977SOL    HW156585   9.983   9.965   1.066 -0.6708 -0.3372  1.9805
14977SOL    HW256586   9.841   9.915   1.003  0.0857  0.6639 -0.6107
14978SOL     OW56587   4.523   7.054   3.079  0.6627 -0.1630  0.0521
14978SOL    HW156588   4.615   7.090   3.095  1.1254 -2.0156  1.8122
14978SOL    HW256589   4.456   7.126   3.095  1.6785  0.5763  1.1101
14979SOL     OW56590   2.440   8.519   7.472 -0.4399 -0.2817  0.3213
14979SOL    HW156591   2.533   8.483   7.459 -0.4318 -0.3521  0.5614
14979SOL    HW256592   2.440   8.584   7.548 -0.5776 -0.2380  0.2845
14980SOL     OW56593   0.914   1.351   4.060 -0.7287  0.0241  0.2237
14980SOL    HW156594   0.884   1.267   4.105  0.9201  0.2123  1.7083
14980SOL    HW256595   0.879   1.430   4.111 -1.3316  0.2498 -0.5298
14981SOL     OW56596   3.101   0.206   5.753  0.6972 -0.6679  0.1761
14981SOL    HW156597   3.052   0.275   5.700  3.0470  0.5159 -0.5416
14981SOL    HW256598   3.100   0.119   5.703 -1.1303 -0.8034  0.4434
14982SOL     OW56599   9.291   6.782   3.578 -0.2756 -0.5029  0.0060
14982SOL    HW156600   9.381   6.797   3.535 -0.0677 -1.0429  0.2508
14982SOL    HW256601   9.221   6.781   3.507 -0.0430 -0.4599 -0.2292
14983SOL     OW56602   4.682   2.313   4.425 -0.3906 -0.3278  0.0825
14983SOL    HW156603   4.609   2.352   4.369  0.0637 -1.4875 -1.3442
14983SOL    HW256604   4.746   2.386   4.450 -0.7286  0.2494 -0.7015
14984SOL     OW56605   8.447   4.491   6.964  0.0460 -0.5480  0.1760
14984SOL    HW156606   8.530   4.434   6.961  1.0603  0.9589 -1.6912
14984SOL    HW256607   8.383   4.453   7.030  0.8269 -3.6883 -0.7656
14985SOL     OW56608   8.061   3.586   2.217 -0.1096 -0.4240 -0.0159
14985SOL    HW156609   8.105   3.631   2.295 -0.3004 -0.6866  0.2447
14985SOL    HW256610   7.970   3.625   2.203 -0.4988 -1.1187  0.5637
14986SOL     OW56611   6.522   0.107   3.029 -0.9847  0.1904 -0.6385
14986SOL    HW156612   6.525   0.207   3.029 -0.1582  0.1814 -2.1664
14986SOL    HW256613   6.515   0.073   3.123  1.6391  1.5973  0.0978
14987SOL     OW56614   0.935   5.853   6.642 -0.2705 -0.4072  0.1995
14987SOL    HW156615   0.933   5.755   6.663  0.5607 -0.6383 -0.7153
14987SOL    HW256616   0.842   5.888   6.636 -0.6402 -1.5670 -1.3080
14988SOL     OW56617   7.737   4.273   3.752  0.6720 -0.1781  0.0553
14988SOL    HW156618   7.705   4.311   3.665  1.8093 -1.4344 -0.9406
14988SOL    HW256619   7.759   4.347   3.815 -2.7983  0.7227  0.2778
14989SOL     OW56620   0.531   5.021   1.422 -0.0050  0.5504 -0.2132
14989SOL    HW156621   0.608   5.002   1.361  0.3242  0.6694  0.1633
14989SOL    HW256622   0.477   5.097   1.386 -1.1041 -0.8296 -1.5282
14990SOL     OW56623   5.776   0.326   4.141  0.4114 -0.0606  0.1707
14990SOL    HW156624   5.701   0.391   4.126  1.4327  1.1913  0.4341
14990SOL    HW256625   5.771   0.289   4.234  0.5349  0.5395  0.4124
14991SOL     OW56626   7.520   6.817   5.095 -0.5059 -0.7079 -0.1578
14991SOL    HW156627   7.518   6.727   5.140  1.5545 -1.0459 -0.7059
14991SOL    HW256628   7.567   6.883   5.153  0.7752 -0.7640 -1.1133
14992SOL     OW56629   0.950   3.210   7.066  0.1204  0.2759 -0.8750
14992SOL    HW156630   0.968   3.293   7.012  1.6077 -0.7927 -2.0898
14992SOL    HW256631   0.921   3.136   7.005 -1.0185 -0.1545  0.1748
14993SOL     OW56632   9.281   9.517   4.980 -0.1920 -0.1443 -0.4931
14993SOL    HW156633   9.318   9.510   5.073 -2.7268  1.1320  0.6777
14993SOL    HW256634   9.269   9.426   4.942 -0.2315 -0.7359  0.9104
14994SOL     OW56635   3.685   8.018   4.315 -0.2974 -0.4794 -0.4619
14994SOL    HW156636   3.693   8.005   4.216  3.0416  0.8375 -0.4273
14994SOL    HW256637   3.696   8.114   4.338 -0.7603 -0.8046  1.2316
14995SOL     OW56638   2.363   7.044   2.879  0.0805  0.3480 -0.0221
14995SOL    HW156639   2.277   7.007   2.915 -0.8146  0.7003 -1.7566
14995SOL    HW256640   2.426   6.969   2.858  0.0143  0.0656  0.7652
14996SOL     OW56641   3.290   4.985   3.018  0.1222  0.1078 -0.2810
14996SOL    HW156642   3.243   4.898   3.030 -0.7111  0.7456  1.1937
14996SOL    HW256643   3.241   5.040   2.951 -0.3397  0.1167  0.0559
14997SOL     OW56644   6.453   9.386   5.209  0.1231 -0.1802  0.0144
14997SOL    HW156645   6.520   9.418   5.142  1.7625  0.1258  1.7478
14997SOL    HW256646   6.415   9.299   5.178  1.3737 -0.3985 -0.9911
14998SOL     OW56647   8.540   3.589   4.085 -0.2912  0.3453  0.3335
14998SOL    HW156648   8.571   3.675   4.044  1.7649 -0.2207  0.6707
14998SOL    HW256649   8.469   3.609   4.152 -1.5247  1.5580 -1.2762
14999SOL     OW56650   2.814   3.573   2.352  0.1966  0.0844  0.2468
14999SOL    HW156651   2.742   3.504   2.351  0.9348 -0.7194  0.9987
14999SOL    HW256652   2.776   3.662   2.328 -0.8330 -0.5183 -0.3954
15000SOL     OW56653   4.649   0.032   7.975 -0.0055 -0.2494 -0.3585
15000SOL    HW156654   4.633   0.103   7.907 -1.9553  1.1811  1.5058
15000SOL    HW256655   4.561  -0.006   8.004  0.8629 -1.5467  0.6231
15001SOL     OW56656   3.027   6.458   1.043  0.2571  0.1077 -0.0593
15001SOL    HW156657   3.119   6.454   1.004  0.1920  1.0992 -0.3438
15001SOL    HW256658   2.996   6.553   1.044 -1.3698 -0.3818 -1.3714
15002SOL     OW56659   6.640   0.441   0.638  0.0373 -0.0872 -0.0438
15002SOL    HW156660   6.604   0.352   0.610  0.9504 -0.4215 -0.1900
15002SOL    HW256661   6.699   0.477   0.565 -0.2734  0.6014  0.0462
15003SOL     OW56662   2.377   6.590   6.497 -0.1333 -0.0080 -0.5176
15003SOL    HW156663   2.323   6.593   6.413 -1.2342  2.2495  0.2219
15003SOL    HW256664   2.320   6.557   6.572  1.1422 -3.0675 -0.7935
15004SOL     OW56665   7.705   0.219   4.782 -0.5143  0.1443  0.1343
15004SOL    HW156666   7.700   0.250   4.688  0.5692  0.6668  0.2411
15004SOL    HW256667   7.728   0.295   4.842  0.0485 -0.4279  0.6618
15005SOL     OW56668   9.763   0.152   7.430 -0.1165 -0.4751 -0.4342
15005SOL    HW156669   9.817   0.082   7.476  0.4514 -0.4080 -0.9819
15005SOL    HW256670   9.750   0.230   7.492 -0.3127 -0.8507 -0.0035
15006SOL     OW56671   9.885   4.035   0.871  0.1262  0.0620  0.3615
15006SOL    HW156672   9.980   4.068   0.866 -0.1014  0.7023  0.2418
15006SOL    HW256673   9.875   3.977   0.951  0.3746  0.8124  0.9451
15007SOL     OW56674   5.624   6.635   1.326  0.3745 -0.4154  0.4919
15007SOL    HW156675   5.648   6.668   1.235 -0.4492  0.6476  0.6415
15007SOL    HW256676   5.524   6.625   1.332  0.4742 -1.1129  1.0703
15008SOL     OW56677   2.106   4.707   6.056 -0.3962  0.1817  0.6716
15008SOL    HW156678   2.100   4.651   6.139  0.6515  1.5408  1.6992
15008SOL    HW256679   2.164   4.661   5.989 -0.4709 -0.4908  1.0670
15009SOL     OW56680   4.151   0.332   6.478  0.5726  0.2776 -0.4028
15009SOL    HW156681   4.213   0.369   6.547 -1.3991  1.0479  0.9781
15009SOL    HW256682   4.079   0.278   6.522 -0.3261  0.2337 -1.8857
15010SOL     OW56683   8.472   4.603   7.719 -0.1002  0.0133  0.2059
15010SOL    HW156684   8.434   4.640   7.634  0.2682  0.5522  0.2752
15010SOL    HW256685   8.417   4.632   7.796 -0.5569 -0.6479  0.1356
15011SOL     OW56686   1.638   0.621   4.679  0.2165  0.0757  0.6801
15011SOL    HW156687   1.664   0.531   4.715  1.2036 -0.8019 -2.0714
15011SOL    HW256688   1.707   0.689   4.704  0.8530 -0.4979  0.4922
15012SOL     OW56689   3.142   2.872   5.165  0.5257 -0.5526  1.0550
15012SOL    HW156690   3.050   2.838   5.144 -0.0664  1.8403 -0.4874
15012SOL    HW256691   3.210   2.806   5.134 -0.6338 -1.6727  0.8206
15013SOL     OW56692   8.580   7.781   2.147  0.0000 -0.1298  0.1091
15013SOL    HW156693   8.541   7.864   2.186  0.0400  0.0283 -0.1849
15013SOL    HW256694   8.607   7.798   2.052 -1.0577 -0.7933 -0.3353
15014SOL     OW56695   0.451   8.522   0.058 -0.0305 -0.2255 -0.4251
15014SOL    HW156696   0.448   8.588  -0.018  0.2764 -0.1797 -0.3983
15014SOL    HW256697   0.461   8.571   0.144  1.7541 -0.3791 -0.5353
15015SOL     OW56698   3.968   3.771   2.423 -0.1690 -0.0079  0.1560
15015SOL    HW156699   3.880   3.726   2.404  0.3174 -1.5744  1.4650
15015SOL    HW256700   3.971   3.795   2.520  1.3950 -1.2075  0.4159
15016SOL     OW56701   8.576   9.199   2.756  0.6746 -0.1970  0.4001
15016SOL    HW156702   8.575   9.167   2.661  0.2911 -0.0092  0.3360
15016SOL    HW256703   8.639   9.144   2.810 -1.6562 -2.5470  0.8192
15017SOL     OW56704   1.631   8.525   0.603  0.2019  0.2025 -0.4091
15017SOL    HW156705   1.665   8.613   0.637  1.3088 -0.6304  0.6586
15017SOL    HW256706   1.656   8.452   0.666 -1.5255 -0.7778 -0.8093
15018SOL     OW56707   6.778   7.337   7.024  0.2638 -0.4801  0.2355
15018SOL    HW156708   6.710   7.307   6.957  1.2847  0.0140 -1.0208
15018SOL    HW256709   6.847   7.393   6.980  1.0806 -0.3317  1.6612
15019SOL     OW56710   4.939   2.363   5.159  0.5628 -0.4246  0.6287
15019SOL    HW156711   4.921   2.328   5.067  0.2278 -0.6856  0.7946
15019SOL    HW256712   4.909   2.296   5.226  3.6637 -1.6454  0.8892
15020SOL     OW56713   6.202   7.833   5.438 -0.3122  0.0883  0.5591
15020SOL    HW156714   6.276   7.767   5.430 -0.4922  0.1077 -1.3730
15020SOL    HW256715   6.147   7.813   5.520  0.1671 -1.5807  0.4769
15021SOL     OW56716   9.902   2.030   0.240 -0.2255  0.1092 -0.3311
15021SOL    HW156717   9.852   2.093   0.180 -1.1148 -0.5251 -0.2657
15021SOL    HW256718   9.981   2.077   0.280 -0.8033  1.1337 -0.3885
15022SOL     OW56719   4.685   2.750   0.696  0.3532  0.2100 -0.1052
15022SOL    HW156720   4.647   2.712   0.780  0.0034  1.5364  0.3520
15022SOL    HW256721   4.713   2.845   0.712  0.0414  0.5629 -1.5486
15023SOL     OW56722   6.006   9.825   6.329  0.3047 -0.2231 -0.1160
15023SOL    HW156723   6.003   9.894   6.401  0.4452  0.4468 -0.7549
15023SOL    HW256724   5.916   9.782   6.320 -0.3278  1.3056 -1.1188
15024SOL     OW56725   9.311   0.282   0.658 -0.5487 -0.2636  0.1779
15024SOL    HW156726   9.223   0.328   0.669  0.2784  0.9704  1.9088
15024SOL    HW256727   9.304   0.187   0.689 -0.3775  0.8538  3.7874
15025SOL     OW56728   2.451   0.280   3.291  0.4117 -0.2151 -0.0451
15025SOL    HW156729   2.368   0.244   3.333  0.0461 -0.3863 -0.9089
15025SOL    HW256730   2.459   0.245   3.198  1.3367 -0.0223 -0.0420
15026SOL     OW56731   4.214   3.152   6.228 -0.5441 -0.2920 -0.1936
15026SOL    HW156732   4.250   3.226   6.284 -1.0126 -0.8222  0.8233
15026SOL    HW256733   4.286   3.117   6.168 -0.3073  0.9341 -0.6281
15027SOL     OW56734   9.131   1.599   0.081  0.6317 -0.1861 -0.0279
15027SOL    HW156735   9.203   1.540   0.118 -0.7425 -1.8815  0.0281
15027SOL    HW256736   9.131   1.686   0.130  1.8952 -0.6087  0.7530
15028SOL     OW56737   4.244   1.097   6.229  0.1605 -0.6328  0.3643
15028SOL    HW156738   4.167   1.082   6.166 -0.4114 -1.1511  1.1792
15028SOL    HW256739   4.330   1.083   6.180 -0.2703 -0.7380 -0.3775
15029SOL     OW56740   1.907   8.612   1.572  0.3160  0.2402 -0.0261
15029SOL    HW156741   1.841   8.635   1.644 -1.3370  1.7970 -1.9742
15029SOL    HW256742   1.918   8.691   1.511  1.3454 -1.1838 -1.7304
15030SOL     OW56743   0.210   5.263   1.792  0.2309 -0.7186  0.2500
15030SOL    HW156744   0.300   5.278   1.752  0.1600 -1.2491 -0.1128
15030SOL    HW256745   0.160   5.196   1.738 -0.6623  0.1157  0.0282
15031SOL     OW56746   1.572   4.787   3.136  0.2154 -0.3779 -0.7603
15031SOL    HW156747   1.476   4.816   3.128  0.7922  1.9458  0.2966
15031SOL    HW256748   1.632   4.865   3.119  1.8398 -0.7618  2.7195
15032SOL     OW56749   8.453   1.252   5.264  0.4768  0.1114  0.3860
15032SOL    HW156750   8.548   1.259   5.294  0.3935 -0.6099  0.8579
15032SOL    HW256751   8.392   1.270   5.342  0.2179  1.4260 -0.1156
15033SOL     OW56752   1.168   8.103   2.176  0.9797  0.4266  0.0930
15033SOL    HW156753   1.247   8.042   2.181  1.4540  0.9622 -0.8780
15033SOL    HW256754   1.096   8.068   2.236  0.8555 -1.6734 -1.2279
15034SOL     OW56755   8.314   5.080   7.426  0.0489 -0.0069  0.2179
15034SOL    HW156756   8.383   5.101   7.357  0.6933 -0.2584  0.7724
15034SOL    HW256757   8.330   5.137   7.507  0.7897 -1.4163  1.0847
15035SOL     OW56758   8.367   7.952   2.244  0.0558 -0.1184 -0.1043
15035SOL    HW156759   8.329   7.859   2.245 -0.7083  0.1966  0.9440
15035SOL    HW256760   8.301   8.014   2.200 -0.9095  0.5203  2.1509
15036SOL     OW56761   8.330   4.336   5.314  0.6587  0.5182 -0.5729
15036SOL    HW156762   8.256   4.343   5.247  0.8945 -0.0108 -0.8802
15036SOL    HW256763   8.291   4.320   5.405  0.5564 -3.9925 -1.3253
15037SOL     OW56764   2.502   4.675   2.114  0.0809 -0.2152 -0.2542
15037SOL    HW156765   2.597   4.706   2.101 -0.2011  0.1452 -1.6234
15037SOL    HW256766   2.472   4.627   2.031 -1.2424  0.5324 -0.2169
15038SOL     OW56767   4.420   2.166   1.535 -0.1433 -0.4225  0.0532
15038SOL    HW156768   4.391   2.072   1.519  0.0363 -0.2933 -1.1111
15038SOL    HW256769   4.478   2.170   1.616 -1.8264 -0.9806  1.3064
15039SOL     OW56770   4.459   4.134   6.076  0.7991 -0.3214  0.2836
15039SOL    HW156771   4.538   4.152   6.135  0.8755  0.2956  0.0028
15039SOL    HW256772   4.375   4.133   6.131  1.0173 -1.0664  0.5946
15040SOL     OW56773   0.520   0.630   6.233 -0.2583  0.2060  0.1885
15040SOL    HW156774   0.609   0.662   6.267 -1.1239 -0.8119  3.6755
15040SOL    HW256775   0.471   0.707   6.191  1.8058  1.0381 -0.7522
15041SOL     OW56776   6.406   0.669   2.062  0.3998 -0.2583 -0.2812
15041SOL    HW156777   6.309   0.684   2.040  0.2481 -0.5771  0.1733
15041SOL    HW256778   6.431   0.576   2.037  1.2194  0.5601 -2.6549
15042SOL     OW56779   2.042   8.606   4.630 -0.4131 -0.2290  0.0928
15042SOL    HW156780   2.012   8.598   4.725 -1.0541  0.6495 -0.0271
15042SOL    HW256781   2.093   8.691   4.619 -3.7098  1.6703 -1.1970
15043SOL     OW56782   2.635   3.821   5.965  0.1500 -0.5599  0.1459
15043SOL    HW156783   2.693   3.890   5.921 -0.1564 -1.0717 -1.0820
15043SOL    HW256784   2.539   3.846   5.951  0.0623 -0.1420  1.4762
15044SOL     OW56785   4.261   9.884   5.235  0.0658  0.2878 -0.1362
15044SOL    HW156786   4.321   9.846   5.306 -0.2365  1.3368  0.6802
15044SOL    HW256787   4.294   9.975   5.209  0.5234 -0.3320 -1.7748
15045SOL     OW56788   8.398   0.121   0.272  0.1343 -0.0746 -0.5392
15045SOL    HW156789   8.368   0.084   0.184  0.2079 -1.9416  0.2114
15045SOL    HW256790   8.340   0.087   0.345  2.0958 -1.2381  0.5390
15046SOL     OW56791   2.272   2.280   6.283  0.3929 -0.0461  0.1960
15046SOL    HW156792   2.214   2.199   6.271  0.4691  0.1726 -1.7704
15046SOL    HW256793   2.356   2.254   6.330  0.2368 -1.0222 -0.0495
15047SOL     OW56794   1.378   6.108   2.104  0.5384  0.3516  0.0565
15047SOL    HW156795   1.369   6.022   2.054  0.7781  0.3392  0.0354
15047SOL    HW256796   1.326   6.102   2.190  1.3563 -0.1723  0.5230
15048SOL     OW56797   3.428   1.792   1.985 -0.3442  0.1994  0.5707
15048SOL    HW156798   3.458   1.752   2.071 -1.2292 -0.4941  0.5656
15048SOL    HW256799   3.400   1.719   1.922 -0.1835  0.7265 -0.1124
15049SOL     OW56800   0.966   4.758   0.629  0.3371  0.2474 -0.2561
15049SOL    HW156801   0.918   4.677   0.662  1.4653 -0.9367 -1.4756
15049SOL    HW256802   0.899   4.826   0.598 -0.6009 -0.4245  0.2861
15050SOL     OW56803   2.681   7.691   0.094 -0.3892  0.3208 -0.2256
15050SOL    HW156804   2.633   7.697   0.182 -1.0139 -0.4395 -0.5049
15050SOL    HW256805   2.623   7.643   0.028 -0.7953  2.7821 -1.6960
15051SOL     OW56806   4.241   2.956   4.589  0.6606 -0.1898  0.0949
15051SOL    HW156807   4.218   2.983   4.496 -0.6097  1.4342  0.8606
15051SOL    HW256808   4.329   2.997   4.615 -0.5514  2.0362  0.7353
15052SOL     OW56809   4.052   8.438   5.262  0.2345  0.1177  0.0762
15052SOL    HW156810   4.106   8.363   5.301  0.4468 -0.0437 -0.5137
15052SOL    HW256811   3.959   8.405   5.242  0.7330 -0.4106 -1.4987
15053SOL     OW56812   2.622   7.649   6.171 -0.3843 -0.1252 -0.0623
15053SOL    HW156813   2.599   7.566   6.223  1.0933  0.2830  1.2607
15053SOL    HW256814   2.700   7.630   6.112  0.0310  0.3433  0.3306
15054SOL     OW56815   1.302   3.435   4.387 -0.3262 -0.0142  0.0207
15054SOL    HW156816   1.259   3.518   4.422  0.4644  0.0831  0.7876
15054SOL    HW256817   1.232   3.370   4.358 -0.9743  0.3843  0.6840
15055SOL     OW56818   1.716   4.070   0.365  0.0875  0.6272  0.4409
15055SOL    HW156819   1.746   3.982   0.326  2.4081  1.8086 -0.5492
15055SOL    HW256820   1.673   4.054   0.454  1.7444 -1.4038  0.9247
15056SOL     OW56821   7.251   7.817   3.003 -0.2618  0.0299 -0.0654
15056SOL    HW156822   7.153   7.832   2.992 -0.5989 -0.8753  1.5664
15056SOL    HW256823   7.296   7.905   3.018 -0.6257  0.5967 -2.1437
15057SOL     OW56824   0.792   6.425   3.225  0.0255  0.1212 -0.2229
15057SOL    HW156825   0.807   6.513   3.180  1.6359  0.1971  0.4159
15057SOL    HW256826   0.843   6.423   3.311  0.8611 -1.8281 -0.7371
15058SOL     OW56827   6.279   2.470   5.029  0.0513  0.1913 -0.2692
15058SOL    HW156828   6.374   2.481   4.999 -0.4241  1.2892 -1.4117
15058SOL    HW256829   6.271   2.499   5.125  0.7110  0.9131 -0.4247
15059SOL     OW56830   7.652   5.461   7.788  0.2290  0.3474  0.0905
15059SOL    HW156831   7.748   5.443   7.808  0.6249  0.2559 -1.7767
15059SOL    HW256832   7.636   5.560   7.788  0.7332  0.4353 -1.3578
15060SOL     OW56833   0.887   5.684   4.551 -0.4667  0.4277  0.0721
15060SOL    HW156834   0.841   5.616   4.493  0.2347  0.4412 -0.4962
15060SOL    HW256835   0.824   5.760   4.569 -0.9130  0.1053 -0.1014
15061SOL     OW56836   9.929   9.350   0.731 -0.3591 -0.2740 -0.1991
15061SOL    HW156837   9.939   9.295   0.813  1.7225  0.9206  0.3914
15061SOL    HW256838   9.843   9.400   0.735  0.0243  0.2863  1.5980
15062SOL     OW56839   3.691   9.327   2.081 -0.3765 -0.1669 -0.1200
15062SOL    HW156840   3.717   9.242   2.036 -2.4433 -1.5515  1.1539
15062SOL    HW256841   3.649   9.305   2.169 -1.3113  2.1702  0.0390
15063SOL     OW56842   7.648   3.287   8.135 -0.1401 -0.0453  0.2334
15063SOL    HW156843   7.668   3.242   8.048 -0.5042 -0.3003  0.2782
15063SOL    HW256844   7.563   3.250   8.172  0.3454 -0.3864  1.0041
15064SOL     OW56845   0.329   1.814   6.401 -0.2726 -0.2529  0.2023
15064SOL    HW156846   0.305   1.890   6.461  1.2873  0.5613 -0.1769
15064SOL    HW256847   0.425   1.821   6.375 -0.4557 -1.6194 -0.9149
15065SOL     OW56848   8.835   8.949   7.863  0.0392 -0.1826 -0.3951
15065SOL    HW156849   8.892   9.030   7.876  0.1164 -0.4860  1.3150
15065SOL    HW256850   8.827   8.929   7.765  0.6744  1.4090 -0.7893
15066SOL     OW56851   7.614   0.229   1.275  0.1411 -0.0402 -0.1838
15066SOL    HW156852   7.684   0.268   1.335  0.6719  0.0542 -0.8626
15066SOL    HW256853   7.527   0.224   1.324  0.6916 -0.4394  0.7628
15067SOL     OW56854   9.054   5.099   6.337  0.1027 -0.1973  0.0363
15067SOL    HW156855   8.976   5.083   6.399  0.3632  0.3137  0.5031
15067SOL    HW256856   9.077   5.196   6.337  1.2575 -0.4648  0.5202
15068SOL     OW56857   3.020   8.863   0.140  0.5736 -0.1970  0.2743
15068SOL    HW156858   2.946   8.882   0.075  0.7273  0.3639  0.2539
15068SOL    HW256859   2.988   8.801   0.211  0.4707 -1.0120 -0.4766
15069SOL     OW56860   7.123   7.730   6.828 -0.6329 -0.3009  0.0709
15069SOL    HW156861   7.177   7.695   6.752  0.8537  0.1654  0.8997
15069SOL    HW256862   7.051   7.664   6.851  0.4982 -1.6045 -0.0857
15070SOL     OW56863   1.155   7.988   2.484  0.2424  0.4083  0.4391
15070SOL    HW156864   1.150   8.085   2.506  1.8548  0.2785  1.4787
15070SOL    HW256865   1.251   7.963   2.467 -0.1760 -0.9631  0.0224
15071SOL     OW56866   0.807   2.656   3.346  0.0193 -0.0102 -0.1658
15071SOL    HW156867   0.759   2.569   3.346 -1.8099  0.9741  0.5812
15071SOL    HW256868   0.746   2.728   3.314  1.2012  1.1761  0.1699
15072SOL     OW56869   1.545   4.198   6.304  0.3430  0.5697 -0.0954
15072SOL    HW156870   1.548   4.181   6.205 -2.5760  2.7117 -0.6066
15072SOL    HW256871   1.623   4.255   6.330  0.7650  0.5590 -1.2861
15073SOL     OW56872   7.861   2.154   3.836  0.2900 -0.1664  0.6178
15073SOL    HW156873   7.955   2.130   3.813  1.1128  0.5313  3.0779
15073SOL    HW256874   7.850   2.253   3.828 -0.6124 -0.3646 -0.8521
15074SOL     OW56875   3.999   5.105   2.009 -0.5292  0.1643  0.2942
15074SOL    HW156876   3.957   5.164   2.078  0.2140  0.6065  0.3690
15074SOL    HW256877   4.086   5.071   2.043 -0.4785 -0.1635 -0.1632
15075SOL     OW56878   3.499   1.737   6.594 -0.1807 -0.0927  0.7122
15075SOL    HW156879   3.598   1.730   6.580  0.1604 -0.4517  3.0962
15075SOL    HW256880   3.480   1.772   6.686 -2.2739 -0.4816  0.4591
15076SOL     OW56881   0.036   1.410   6.360 -0.3185  0.5849 -0.1519
15076SOL    HW156882   0.112   1.346   6.370 -0.9198 -0.4342 -1.9365
15076SOL    HW256883  -0.049   1.359   6.347 -0.8857  1.7403 -1.0228
15077SOL     OW56884   0.856   9.315   2.913  0.3136  0.5689  0.1011
15077SOL    HW156885   0.913   9.267   2.847 -0.6509 -0.2727 -0.1373
15077SOL    HW256886   0.846   9.258   2.995  1.0618  1.3727  0.7644
15078SOL     OW56887   3.583   9.780   1.864 -0.0840  0.3739 -0.4305
15078SOL    HW156888   3.571   9.756   1.961  0.9335  0.0319 -0.3802
15078SOL    HW256889   3.501   9.756   1.813 -0.6768  0.6602  0.3729
15079SOL     OW56890   9.955   7.658   0.871  0.1259  0.0221 -0.1843
15079SOL    HW156891   9.937   7.576   0.924  1.5223  0.5251  1.1165
15079SOL    HW256892  10.047   7.654   0.834  0.8704  1.7540  1.3811
15080SOL     OW56893   9.278   8.655   2.375  0.3537  0.3124  0.3068
15080SOL    HW156894   9.346   8.596   2.419  0.2490 -0.3340 -0.3781
15080SOL    HW256895   9.308   8.675   2.281 -0.8835 -0.8249 -0.3502
15081SOL     OW56896   8.949   1.904   2.024  0.0259 -0.0046 -0.1483
15081SOL    HW156897   9.016   1.979   2.026 -1.4368  1.3186  1.7087
15081SOL    HW256898   8.857   1.943   2.019 -0.6499 -1.7768 -1.6098
15082SOL     OW56899   5.105   0.990   1.175  0.5234 -0.4790  0.2291
15082SOL    HW156900   5.072   0.999   1.081  1.9013 -2.3617 -0.4550
15082SOL    HW256901   5.029   1.006   1.238 -0.7686 -0.7537 -1.2335
15083SOL     OW56902   8.940   0.410   4.194  0.2201 -0.1365 -0.4042
15083SOL    HW156903   8.927   0.336   4.261  1.4151 -0.1531 -0.1808
15083SOL    HW256904   8.892   0.387   4.110  0.1838 -0.9533 -0.1675
15084SOL     OW56905   1.950   5.630   0.335 -0.0118 -0.2676  0.3287
15084SOL    HW156906   1.965   5.726   0.357  0.4275 -0.6151  1.6078
15084SOL    HW256907   1.884   5.622   0.260 -0.8713  0.9850  0.9435
15085SOL     OW56908   9.721   6.638   2.132 -0.2053 -0.5156 -0.5030
15085SOL    HW156909   9.723   6.715   2.195  0.4833 -0.3654 -0.7007
15085SOL    HW256910   9.776   6.562   2.169 -0.5855 -0.7783 -0.4741
15086SOL     OW56911   0.089   0.731   6.273  0.3408 -0.5121 -0.7461
15086SOL    HW156912   0.114   0.667   6.346 -2.1348  1.3616  1.8514
15086SOL    HW256913   0.171   0.778   6.241  1.3861 -0.8281  1.3592
15087SOL     OW56914   3.521   4.289   5.699 -0.0734 -0.9044  0.0086
15087SOL    HW156915   3.509   4.363   5.632  0.7000 -0.8987 -0.1360
15087SOL    HW256916   3.613   4.294   5.737 -0.3414 -1.2216  0.7040
15088SOL     OW56917   9.131   8.362   4.204  0.7622 -0.6021  0.1899
15088SOL    HW156918   9.162   8.377   4.298  0.2545  0.8212  0.1431
15088SOL    HW256919   9.047   8.415   4.188  1.1137 -0.4536 -1.2171
15089SOL     OW56920   0.571   1.056   3.121  0.3592  0.3347  0.7367
15089SOL    HW156921   0.571   1.156   3.112  2.3783  0.5606  2.8499
15089SOL    HW256922   0.577   1.015   3.030 -0.3568  2.1365 -0.1524
15090SOL     OW56923   9.554   3.371   2.560 -0.3390 -0.3352  0.0198
15090SOL    HW156924   9.495   3.335   2.632  0.4441  2.5589  2.2283
15090SOL    HW256925   9.507   3.446   2.513  0.6645  0.4708  0.2671
15091SOL     OW56926   2.997   5.795   2.088 -0.2786 -0.0449  0.0412
15091SOL    HW156927   3.094   5.775   2.078  0.1493  1.9730 -0.0046
15091SOL    HW256928   2.952   5.720   2.136  2.1793  0.9997  4.1908
15092SOL     OW56929   0.667   4.532   8.053 -0.1578  0.4416 -0.4041
15092SOL    HW156930   0.648   4.436   8.035  1.1000  0.2299 -0.6414
15092SOL    HW256931   0.756   4.557   8.013 -1.2445  2.1278 -1.8401
15093SOL     OW56932   9.738   6.863   3.585  0.4470 -0.4695 -0.2007
15093SOL    HW156933   9.808   6.813   3.635  1.7405  0.7550 -0.7419
15093SOL    HW256934   9.781   6.934   3.529 -1.2381  0.4618 -0.3658
15094SOL     OW56935   1.746   1.049   2.644  0.0399 -0.4350  0.0927
15094SOL    HW156936   1.806   1.012   2.573  1.0672  0.3689  0.5232
15094SOL    HW256937   1.659   1.076   2.604  0.1650 -1.1040 -0.6455
15095SOL     OW56938   4.701   0.493   0.463  0.4341 -0.0173  0.0509
15095SOL    HW156939   4.778   0.555   0.481 -0.8366  1.3340  1.0055
15095SOL    HW256940   4.677   0.445   0.547  1.2014 -1.5893 -0.6131
15096SOL     OW56941   9.456   9.126   1.338 -0.1365  0.3347  0.3667
15096SOL    HW156942   9.410   9.195   1.394 -1.8962  0.9076 -1.6957
15096SOL    HW256943   9.400   9.043   1.334  0.1881  0.1362 -0.1597
15097SOL     OW56944   4.764   2.143   0.761 -0.1801 -0.5755  0.2605
15097SOL    HW156945   4.789   2.186   0.674 -0.1703  0.6536  0.8629
15097SOL    HW256946   4.834   2.163   0.829  0.0030 -1.8547  0.4619
15098SOL     OW56947   3.330   3.773   1.164 -0.2077 -0.5266  0.0321
15098SOL    HW156948   3.267   3.703   1.131 -2.2264  1.3977 -0.3303
15098SOL    HW256949   3.293   3.814   1.248  1.0107  0.0041  0.3186
15099SOL     OW56950   4.492   0.665   0.353 -0.1757 -0.3034  0.1779
15099SOL    HW156951   4.551   0.605   0.407 -1.2580 -1.7797 -0.2644
15099SOL    HW256952   4.417   0.612   0.314  1.4769  0.3467 -4.1860
15100SOL     OW56953   6.683   9.330   5.711  0.7444  0.2483 -0.6983
15100SOL    HW156954   6.656   9.260   5.777  2.3652 -1.7791 -2.1427
15100SOL    HW256955   6.608   9.347   5.647  0.2169  0.1319 -0.1208
15101SOL     OW56956   7.132   7.134   6.417  0.1580 -0.2040 -1.0468
15101SOL    HW156957   7.032   7.132   6.419  0.1839 -2.0497  1.9784
15101SOL    HW256958   7.165   7.195   6.489  1.2288 -0.3957 -1.3694
15102SOL     OW56959   3.365   0.210   0.716 -0.1145  0.7484  0.1908
15102SOL    HW156960   3.287   0.163   0.674  0.0170 -1.1729  1.9684
15102SOL    HW256961   3.449   0.183   0.669 -0.1565 -0.0504  0.5507
15103SOL     OW56962   8.968   9.977   5.044  0.3044  0.3760 -0.0806
15103SOL    HW156963   8.963  10.076   5.050  0.7616  0.4257 -0.4557
15103SOL    HW256964   9.001   9.951   4.952  1.0687 -0.0892  0.3152
15104SOL     OW56965   3.344   4.735   1.933 -0.4115  0.1028  0.2351
15104SOL    HW156966   3.334   4.763   2.028  0.5758  0.5642  0.2039
15104SOL    HW256967   3.382   4.642   1.930  1.8735  1.0001  0.2850
15105SOL     OW56968   4.029   9.661   5.921  0.2761  0.0041 -0.2087
15105SOL    HW156969   4.058   9.686   6.013 -0.8655  0.2274  0.0873
15105SOL    HW256970   3.938   9.698   5.903 -0.0457 -1.1426 -0.9588
15106SOL     OW56971   2.086   8.874   6.441  0.5798 -0.3459  0.3557
15106SOL    HW156972   2.073   8.774   6.442  1.0340 -0.4745 -2.4769
15106SOL    HW256973   2.121   8.902   6.352 -1.1479  2.5678  0.5173
15107SOL     OW56974   0.460   8.592   6.065 -0.1864 -0.0241  0.0405
15107SOL    HW156975   0.475   8.658   5.991  0.7512 -1.6112 -1.2054
15107SOL    HW256976   0.374   8.543   6.050 -0.4970  0.3424  0.5631
15108SOL     OW56977   8.944   9.813   1.667 -0.1416 -0.2430  0.4528
15108SOL    HW156978   8.914   9.763   1.586 -0.0562  2.5620 -1.3631
15108SOL    HW256979   8.868   9.822   1.731 -1.2872  0.7841 -1.0183
15109SOL     OW56980   2.909   1.390   4.473  0.6584  0.0004  0.3243
15109SOL    HW156981   3.006   1.373   4.491  0.2691 -0.9154  1.5764
15109SOL    HW256982   2.872   1.450   4.543 -0.3444 -1.8641  1.3976
15110SOL     OW56983   0.374   7.101   2.506  0.7611  0.1756 -0.0557
15110SOL    HW156984   0.419   7.013   2.491  2.3176  0.9938 -0.2921
15110SOL    HW256985   0.316   7.095   2.587  1.0820 -0.9817  0.1025
15111SOL     OW56986   0.539   1.492   7.287 -0.0307  0.0841  0.1608
15111SOL    HW156987   0.578   1.582   7.266 -1.4258  0.5471 -0.5266
15111SOL    HW256988   0.556   1.470   7.383  1.1695  0.6382  0.0840
15112SOL     OW56989   4.700   7.463   3.740  0.2446 -0.4015  0.1743
15112SOL    HW156990   4.699   7.553   3.698  0.6760  0.0703  1.1629
15112SOL    HW256991   4.620   7.452   3.799 -0.7633 -1.3441 -1.3137
15113SOL     OW56992   3.518   8.274   8.152 -0.0099  0.6034  0.2019
15113SOL    HW156993   3.420   8.270   8.136 -0.3839  0.8012  2.2951
15113SOL    HW256994   3.562   8.193   8.113 -1.3849 -0.9022  1.7150
15114SOL     OW56995   0.705   2.717   5.177  0.2912 -0.5658 -0.2991
15114SOL    HW156996   0.613   2.703   5.142  0.2009  2.7164 -1.5660
15114SOL    HW256997   0.761   2.763   5.108  1.8299  0.7277  1.7123
15115SOL     OW56998   9.826   5.926   0.544  0.1275  0.2416  0.6829
15115SOL    HW156999   9.809   5.844   0.599  0.9016  0.3171  1.0470
15115SOL    HW257000   9.915   5.918   0.499  0.9769  1.6014  2.0631
15116SOL     OW57001   0.710   2.004   2.293 -0.2576  0.2388 -0.4054
15116SOL    HW157002   0.656   2.045   2.367  1.9147 -0.8582  1.8728
15116SOL    HW257003   0.693   1.906   2.290 -1.4594  0.4898 -2.3833
15117SOL     OW57004   1.521   0.739   4.441  0.1335 -0.1236 -0.4737
15117SOL    HW157005   1.543   0.722   4.537  1.2642  0.7783 -0.5577
15117SOL    HW257006   1.510   0.652   4.394 -1.2061 -0.5823  0.6347
15118SOL     OW57007   8.920   5.655   6.780 -0.0683  0.3815 -0.4974
15118SOL    HW157008   8.848   5.659   6.711  0.9734 -0.9570 -1.6907
15118SOL    HW257009   8.895   5.588   6.850 -0.7257  1.1162 -0.0127
15119SOL     OW57010   9.231   2.189   2.325 -0.2741 -0.0069  0.0408
15119SOL    HW157011   9.318   2.141   2.321 -0.5476 -0.3931 -1.4878
15119SOL    HW257012   9.195   2.186   2.418 -0.6114 -3.3368 -0.1469
15120SOL     OW57013   6.794   8.574   5.308 -0.0111 -0.2281 -0.1875
15120SOL    HW157014   6.699   8.606   5.307  0.2270  0.5747  1.1684
15120SOL    HW257015   6.817   8.536   5.218 -2.1142 -1.9509 -0.0563
15121SOL     OW57016   9.309   1.744   3.779  0.3235  0.1975  0.4471
15121SOL    HW157017   9.355   1.795   3.851  2.7152  0.7289 -1.4160
15121SOL    HW257018   9.294   1.803   3.700  0.1163 -1.0718 -0.4846
15122SOL     OW57019   7.857   1.498   3.132 -0.4338 -0.6468  0.0226
15122SOL    HW157020   7.793   1.494   3.209 -0.8880 -0.0516 -0.3227
15122SOL    HW257021   7.885   1.406   3.107 -1.0251 -0.8974  0.2852
15123SOL     OW57022   8.379   8.741   8.160 -0.0905 -0.2085  0.1092
15123SOL    HW157023   8.411   8.716   8.069  0.3112  1.6703 -0.2963
15123SOL    HW257024   8.336   8.831   8.156  1.9973  0.9416  2.1997
15124SOL     OW57025   0.563   6.184   6.144 -0.7170  0.4022 -0.1017
15124SOL    HW157026   0.552   6.103   6.201 -0.4710 -0.9280 -1.8966
15124SOL    HW257027   0.660   6.198   6.125 -0.5953  2.2222  1.7298
15125SOL     OW57028   0.774   7.799   7.475 -0.5541 -0.2330 -0.1745
15125SOL    HW157029   0.815   7.790   7.384 -1.0529 -0.3747 -0.3858
15125SOL    HW257030   0.704   7.871   7.472 -0.5376 -0.2060  0.1109
15126SOL     OW57031   9.259   2.752   1.781  0.0590  0.4226  0.7547
15126SOL    HW157032   9.196   2.818   1.741 -1.2484 -1.2373  0.0038
15126SOL    HW257033   9.207   2.679   1.825  1.4516 -0.9098  0.2341
15127SOL     OW57034   2.157   2.642   4.137 -0.2887  0.1187 -0.0856
15127SOL    HW157035   2.132   2.646   4.040  1.5587  1.5725 -0.5416
15127SOL    HW257036   2.235   2.580   4.148 -0.0377  0.5087  0.3415
15128SOL     OW57037   3.402   8.674   3.267 -0.5223  0.2376  0.2388
15128SOL    HW157038   3.447   8.752   3.309 -1.9384  0.2319  1.7975
15128SOL    HW257039   3.318   8.704   3.221 -0.6147 -0.2385  0.0920
15129SOL     OW57040   6.335   2.032   8.049 -0.5487  0.2625  0.1774
15129SOL    HW157041   6.399   2.061   7.978  1.2402 -0.3847  1.4949
15129SOL    HW257042   6.316   2.109   8.111 -0.6891  0.3271  0.0542
15130SOL     OW57043   3.895   4.973   7.234  0.3424 -0.9587 -0.0753
15130SOL    HW157044   3.847   4.914   7.299  0.6918 -1.1177  0.0370
15130SOL    HW257045   3.971   4.923   7.193  2.1978  0.1896  1.8842
15131SOL     OW57046   1.769   2.908   4.436 -0.2551 -0.2805  0.6806
15131SOL    HW157047   1.769   2.940   4.531 -2.6112 -0.0879  0.6409
15131SOL    HW257048   1.677   2.879   4.411 -0.3485  2.4965 -2.5057
15132SOL     OW57049   9.221   6.471   7.943 -0.1572 -0.6077  0.1836
15132SOL    HW157050   9.223   6.500   8.038 -0.0607  0.9541 -0.2775
15132SOL    HW257051   9.301   6.414   7.923  0.5855  0.2587  0.6655
15133SOL     OW57052   9.385   1.623   5.948  0.0520 -0.4125 -0.1614
15133SOL    HW157053   9.465   1.586   5.901  1.1160  1.0466  0.4496
15133SOL    HW257054   9.387   1.593   6.044 -0.8472 -1.4447 -0.4548
15134SOL     OW57055   0.170   9.711   2.532 -0.2509 -0.2897  0.1081
15134SOL    HW157056   0.090   9.709   2.592  0.4356 -0.1295  1.0439
15134SOL    HW257057   0.219   9.624   2.540 -0.9984 -0.8653 -1.3982
15135SOL     OW57058   6.779   8.517   4.355  0.0221 -0.2068 -0.5503
15135SOL    HW157059   6.766   8.610   4.320 -1.6292  0.2738  1.1941
15135SOL    HW257060   6.853   8.517   4.422 -1.2612  0.2801  0.8930
15136SOL     OW57061   4.598   4.922   7.390  0.2369 -0.4385  0.1509
15136SOL    HW157062   4.533   4.974   7.446 -0.4267  0.2786 -1.2441
15136SOL    HW257063   4.588   4.825   7.409 -0.2096 -0.2272  1.0339
15137SOL     OW57064   8.977   4.118   0.904  1.1490 -0.6707  0.2234
15137SOL    HW157065   8.898   4.179   0.908  2.4246  1.4569 -3.9765
15137SOL    HW257066   8.951   4.028   0.938 -2.7599  0.2646 -0.0250
15138SOL     OW57067   8.103   8.201   6.641 -0.5957 -0.6364 -0.9447
15138SOL    HW157068   8.143   8.153   6.563 -1.2816 -0.5634 -1.3505
15138SOL    HW257069   8.082   8.134   6.713  2.4573 -0.3565  0.2559
15139SOL     OW57070   7.606   3.098   7.447 -0.1997  0.1519  0.2493
15139SOL    HW157071   7.667   3.054   7.512 -0.9309  0.3734  1.0884
15139SOL    HW257072   7.624   3.196   7.444  0.1220  0.0818 -0.2004
15140SOL     OW57073   4.312   8.391   3.957 -0.0391 -0.1606 -0.0810
15140SOL    HW157074   4.304   8.483   3.994 -0.8844 -0.4741  0.5509
15140SOL    HW257075   4.408   8.363   3.957  0.0815  0.2380  0.9247
15141SOL     OW57076   7.353   7.394   6.848 -0.5004 -0.5161  0.0572
15141SOL    HW157077   7.271   7.363   6.897 -0.4634 -1.8293 -0.6856
15141SOL    HW257078   7.426   7.326   6.859 -0.7764 -1.2921 -2.5543
15142SOL     OW57079   3.051   6.335   0.184 -0.0723 -0.3517  0.0607
15142SOL    HW157080   3.118   6.271   0.222 -0.0786 -0.7355 -0.5584
15142SOL    HW257081   3.039   6.316   0.086  0.6888  1.2351 -0.3705
15143SOL     OW57082   3.837   1.768   1.851  0.3773 -0.1139  0.2280
15143SOL    HW157083   3.862   1.718   1.934  1.6759  0.6978  0.3327
15143SOL    HW257084   3.844   1.867   1.868  0.8744  0.0587 -0.9115
15144SOL     OW57085   5.855   9.282   3.186 -0.5706 -0.0367  0.2141
15144SOL    HW157086   5.840   9.381   3.188  1.1922  0.2272  0.7880
15144SOL    HW257087   5.895   9.252   3.273  1.1174 -0.8924 -0.8358
15145SOL     OW57088   2.735   7.146   0.435 -0.4967  0.2397  0.0694
15145SOL    HW157089   2.660   7.126   0.373 -0.5073  0.4271  0.0200
15145SOL    HW257090   2.813   7.182   0.383 -0.6288  0.7294  0.2022
15146SOL     OW57091   6.865   5.601   8.010 -0.4808  0.1002 -0.4878
15146SOL    HW157092   6.884   5.695   8.041  1.5057 -0.5637  0.4041
15146SOL    HW257093   6.946   5.544   8.026 -2.1498 -2.1131  0.3290
15147SOL     OW57094   3.708   8.749   0.458  0.1049 -0.5786  0.0301
15147SOL    HW157095   3.806   8.758   0.478  0.5472 -1.0915 -1.7715
15147SOL    HW257096   3.696   8.735   0.359 -1.9030  1.3458 -0.0244
15148SOL     OW57097   3.255   9.778   6.746 -0.1967  0.2583  0.4561
15148SOL    HW157098   3.315   9.853   6.774  0.6801 -0.5222  0.6933
15148SOL    HW257099   3.183   9.813   6.686  1.0658  1.0461 -0.6216
15149SOL     OW57100   0.738   9.802   0.221  0.4465 -0.0442  0.2645
15149SOL    HW157101   0.655   9.763   0.260  0.9511  0.5698  1.9544
15149SOL    HW257102   0.816   9.742   0.240  0.6824  0.2118  0.1258
15150SOL     OW57103   1.869   1.983   2.438  0.1560 -0.1168  0.0712
15150SOL    HW157104   1.919   2.045   2.377 -0.8131  1.3797  0.7606
15150SOL    HW257105   1.771   1.997   2.427 -0.1076 -2.2449 -0.4557
15151SOL     OW57106   8.748   5.757   0.586  0.0713  0.0978 -0.3765
15151SOL    HW157107   8.700   5.837   0.623  1.0806  0.9791 -0.9391
15151SOL    HW257108   8.687   5.706   0.526 -0.8199  0.0197  0.5906
15152SOL     OW57109   2.512   7.028   4.275  0.0276 -0.1297  0.0368
15152SOL    HW157110   2.483   7.121   4.300 -0.0834  0.0843 -0.8640
15152SOL    HW257111   2.612   7.024   4.274  0.0340  0.0349 -0.1053
15153SOL     OW57112   4.007   1.058   6.102 -0.1411 -0.0869  0.3145
15153SOL    HW157113   4.016   1.038   6.004  0.4285 -0.2096  0.3917
15153SOL    HW257114   3.920   1.104   6.118  0.9800  2.4695 -0.6502
15154SOL     OW57115   4.499   6.656   0.941  0.1729  0.5679  0.0327
15154SOL    HW157116   4.533   6.651   1.035 -0.1665  1.3650  0.2000
15154SOL    HW257117   4.469   6.565   0.911 -1.0640  0.5997  1.1833
15155SOL     OW57118   3.153   8.957   1.543 -0.1623 -0.1290 -0.3465
15155SOL    HW157119   3.170   8.977   1.640 -0.1437  0.4696 -0.4666
15155SOL    HW257120   3.224   9.001   1.488 -0.1991 -0.4332 -0.6363
15156SOL     OW57121   6.246   9.952   2.913 -0.3164  0.3867 -0.3479
15156SOL    HW157122   6.345   9.967   2.912  0.0371 -1.5449  1.8621
15156SOL    HW257123   6.202  10.022   2.970  0.1867 -0.7057  1.4390
15157SOL     OW57124   1.187   2.981   1.474  0.1312 -0.0551  0.0148
15157SOL    HW157125   1.194   2.994   1.573 -0.6639  0.6325 -0.0099
15157SOL    HW257126   1.238   3.054   1.427 -1.0669  0.7158 -0.0960
15158SOL     OW57127   9.708   4.335   4.845  0.4482  0.2547  0.2166
15158SOL    HW157128   9.796   4.329   4.798  0.9278  1.2671  0.9819
15158SOL    HW257129   9.640   4.282   4.794  0.8752  1.5875 -1.7795
15159SOL     OW57130   1.614   2.042   2.344  0.5906 -0.7266 -0.1037
15159SOL    HW157131   1.535   2.025   2.285  1.3134 -2.6740 -0.5567
15159SOL    HW257132   1.583   2.067   2.435 -0.5467 -1.4247 -0.2949
15160SOL     OW57133   6.267   1.044   5.252 -0.1033 -0.3791 -0.3852
15160SOL    HW157134   6.171   1.064   5.236  0.2727  1.4370 -0.4124
15160SOL    HW257135   6.287   0.951   5.219 -1.6726 -0.5148 -1.0064
15161SOL     OW57136   1.770   1.457   4.463 -0.3608 -0.5889  0.0709
15161SOL    HW157137   1.807   1.544   4.495 -1.7200 -0.4405  1.3146
15161SOL    HW257138   1.724   1.410   4.539 -1.0499 -1.6244 -0.9640
15162SOL     OW57139   9.162   9.128   3.055  0.2111  0.0643  0.0536
15162SOL    HW157140   9.202   9.039   3.035  0.0767 -0.2510  1.1752
15162SOL    HW257141   9.093   9.150   2.986 -0.8924 -1.4238  0.6737
15163SOL     OW57142   9.723   7.062   1.489  0.3830  0.0880 -0.3126
15163SOL    HW157143   9.699   6.971   1.522  1.6800 -0.1369  0.0490
15163SOL    HW257144   9.785   7.106   1.554  1.7603  0.2368 -1.6775
15164SOL     OW57145   7.455   2.994   1.111  0.5745  0.5117  0.2101
15164SOL    HW157146   7.360   3.019   1.092  1.0938  0.9327 -1.9958
15164SOL    HW257147   7.478   2.911   1.061  0.6336 -1.0873  2.7987
15165SOL     OW57148   2.269   9.299   0.380  0.3614 -0.0074  0.0694
15165SOL    HW157149   2.298   9.244   0.302 -2.0163  0.1535 -0.9553
15165SOL    HW257150   2.331   9.283   0.457  2.6082 -0.3299 -1.7593
15166SOL     OW57151   4.674   9.736   3.565  0.1154  0.3557  0.7464
15166SOL    HW157152   4.614   9.758   3.642 -0.4099 -1.5904  0.9285
15166SOL    HW257153   4.758   9.693   3.600 -1.0020 -2.4117  0.1613
15167SOL     OW57154   4.266   9.934   1.091 -0.3613 -0.3596  0.1297
15167SOL    HW157155   4.310   9.954   1.179  1.6312 -3.1239 -0.1746
15167SOL    HW257156   4.214   9.849   1.098  0.3750 -0.9640 -1.5210
15168SOL     OW57157   4.717   7.421   5.235 -0.1585  0.0292 -0.2751
15168SOL    HW157158   4.778   7.387   5.164 -1.1589 -0.6721 -0.8168
15168SOL    HW257159   4.758   7.406   5.325  0.5584 -0.2268 -0.6424
15169SOL     OW57160   4.366   9.826   2.978  0.1393 -0.1464  0.2000
15169SOL    HW157161   4.307   9.899   3.013  0.3929 -0.5622  1.5476
15169SOL    HW257162   4.353   9.816   2.880  1.0323  2.5708 -0.2379
15170SOL     OW57163   0.784   2.385   0.382 -0.8583 -0.2459  0.0515
15170SOL    HW157164   0.697   2.337   0.378 -1.2603  0.3747  1.2136
15170SOL    HW257165   0.789   2.439   0.466  0.4297  0.1347 -0.2546
15171SOL     OW57166   8.117   8.382   4.844  0.1637 -0.4266 -0.0242
15171SOL    HW157167   8.036   8.337   4.881  0.3366  0.3757  1.3532
15171SOL    HW257168   8.192   8.373   4.909  1.0429 -0.7306 -1.0749
15172SOL     OW57169   7.740   7.456   0.089 -0.0802  0.4085 -0.5543
15172SOL    HW157170   7.760   7.444  -0.008  0.1763 -2.0143 -0.2324
15172SOL    HW257171   7.653   7.412   0.112  0.3726  0.0183  0.4975
15173SOL     OW57172   4.074   4.781   7.635 -0.4735  0.6453 -0.5038
15173SOL    HW157173   3.979   4.762   7.610  0.2701  0.0706 -3.0929
15173SOL    HW257174   4.135   4.725   7.579  1.4303  2.1414  0.0227
15174SOL     OW57175   9.969   1.917   4.589 -0.3710 -0.6671 -0.0678
15174SOL    HW157176   9.990   1.895   4.494  0.0692 -1.0316  0.1139
15174SOL    HW257177   9.985   1.837   4.647 -1.7499 -0.8033  0.1540
15175SOL     OW57178   7.864   2.557   2.490  0.4764  0.0683  0.1801
15175SOL    HW157179   7.865   2.562   2.390 -0.7718  2.0831  0.2376
15175SOL    HW257180   7.947   2.599   2.526  1.3631 -1.4787 -0.0099
15176SOL     OW57181   1.684   3.295   4.330 -0.2441 -0.1164  0.0636
15176SOL    HW157182   1.623   3.359   4.282 -1.0241 -0.1545  0.9915
15176SOL    HW257183   1.711   3.334   4.418  2.4101  0.6144 -1.0253
15177SOL     OW57184   3.379   1.359   1.756 -0.7668 -0.1566 -0.0760
15177SOL    HW157185   3.337   1.313   1.677 -1.0115 -1.4990  0.8162
15177SOL    HW257186   3.453   1.301   1.792 -0.3452  0.6696  0.3864
15178SOL     OW57187   2.414   2.502   4.124 -0.4258  0.6290  0.0072
15178SOL    HW157188   2.467   2.448   4.190 -0.3129 -0.4921 -0.9687
15178SOL    HW257189   2.421   2.459   4.034  0.2612  2.7012 -0.9563
15179SOL     OW57190   2.724   3.629   7.623 -0.1620  0.2763  1.0550
15179SOL    HW157191   2.645   3.594   7.574  0.0079  1.4587 -0.1073
15179SOL    HW257192   2.706   3.723   7.653  1.2547  1.0232 -0.3561
15180SOL     OW57193   6.302   4.019   8.002  0.9250 -0.1788  0.3040
15180SOL    HW157194   6.215   3.969   8.003  0.5182  0.5256  0.1547
15180SOL    HW257195   6.300   4.087   7.929  1.5550 -0.0659  0.3926
15181SOL     OW57196   2.413   3.119   5.113  0.2466  0.0008 -0.0755
15181SOL    HW157197   2.484   3.176   5.154  0.1972 -0.5369  0.7629
15181SOL    HW257198   2.394   3.042   5.173 -1.0088  0.1124 -0.3292
15182SOL     OW57199   9.891   1.608   6.519 -0.6725 -0.7717 -0.1966
15182SOL    HW157200   9.921   1.690   6.469 -0.4267  0.1924  1.4925
15182SOL    HW257201   9.946   1.530   6.489 -0.3912 -0.1780 -1.2841
15183SOL     OW57202   7.741   3.930   1.823  0.3097  0.1458 -0.2636
15183SOL    HW157203   7.680   3.954   1.748 -0.7258 -0.2381  0.4356
15183SOL    HW257204   7.739   3.831   1.837  1.6889  0.0495 -0.7314
15184SOL     OW57205   6.533   3.728   1.915 -0.0506  0.1744 -0.0372
15184SOL    HW157206   6.494   3.769   1.997  1.3605 -0.3434  0.9252
15184SOL    HW257207   6.618   3.775   1.891  0.4724 -0.7994 -0.1464
15185SOL     OW57208   5.114   1.897   3.735 -0.3810 -0.6055  0.6074
15185SOL    HW157209   5.138   1.807   3.697 -0.8636 -0.4449 -0.0960
15185SOL    HW257210   5.083   1.957   3.661  0.2746  0.2546  1.0232
15186SOL     OW57211   3.230   2.900   4.722  0.0961 -0.4512 -0.2687
15186SOL    HW157212   3.184   2.987   4.708  2.3435  0.7870 -0.2260
15186SOL    HW257213   3.171   2.838   4.773 -1.5859  0.9956 -0.4378
15187SOL     OW57214   0.366   1.525   6.913  0.2614 -0.0717  0.6589
15187SOL    HW157215   0.395   1.439   6.956  0.8953  1.0214  2.5142
15187SOL    HW257216   0.270   1.542   6.934  0.6455  0.6013  1.9279
15188SOL     OW57217   6.074   7.328   5.987  0.4703 -0.4244  0.5224
15188SOL    HW157218   6.091   7.234   5.959 -0.5921 -0.8063  1.1428
15188SOL    HW257219   6.081   7.388   5.907  0.1429 -1.1625 -0.0619
15189SOL     OW57220   8.302   3.477   7.278  0.1370 -0.3204  0.1444
15189SOL    HW157221   8.280   3.566   7.317 -0.0369 -0.0227 -0.6296
15189SOL    HW257222   8.395   3.478   7.242 -0.1910 -0.1546 -0.7108
15190SOL     OW57223   7.677   3.526   7.889 -0.0123 -0.3318 -0.0327
15190SOL    HW157224   7.617   3.605   7.887 -2.3913 -2.0913 -0.3330
15190SOL    HW257225   7.696   3.500   7.984 -3.0206 -2.1406  0.1271
15191SOL     OW57226   2.006   4.371   2.799  0.5061 -0.0167  0.1390
15191SOL    HW157227   1.964   4.394   2.711  1.9370  1.1402 -0.2836
15191SOL    HW257228   2.082   4.308   2.784  1.2007  0.7324  0.4443
15192SOL     OW57229   0.724   6.786   6.354 -0.6552 -0.1284  0.8377
15192SOL    HW157230   0.654   6.858   6.352  1.0422  1.5487 -0.0433
15192SOL    HW257231   0.743   6.760   6.449  0.1898  2.1229  1.3184
15193SOL     OW57232   7.926   4.261   7.069  0.3465  0.1856  0.0651
15193SOL    HW157233   8.013   4.275   7.117  0.0714 -2.0603  1.2860
15193SOL    HW257234   7.886   4.350   7.047  2.2118  1.2527  0.8395
15194SOL     OW57235   1.032   9.785   0.967  0.0730  0.0995 -0.0899
15194SOL    HW157236   1.126   9.818   0.965  0.0165  0.2869  0.3421
15194SOL    HW257237   0.995   9.785   0.874  0.2589  0.7265 -0.1684
15195SOL     OW57238   2.156   9.886   4.111 -0.7407 -0.2861  0.2814
15195SOL    HW157239   2.180   9.853   4.020  3.5510 -0.9054  1.5334
15195SOL    HW257240   2.127   9.982   4.105 -0.0737 -0.1765 -1.6836
15196SOL     OW57241   1.674   1.179   6.602 -0.0070 -0.1443  0.6678
15196SOL    HW157242   1.744   1.131   6.653  0.1456  2.2797  2.8324
15196SOL    HW257243   1.617   1.232   6.664  1.8445  5.0540 -1.7695
15197SOL     OW57244   2.269   1.778   4.779 -0.5412 -0.1776 -0.9468
15197SOL    HW157245   2.345   1.712   4.789 -1.4997 -1.5210 -2.3274
15197SOL    HW257246   2.220   1.784   4.865  0.2511 -0.4074 -0.4661
15198SOL     OW57247   9.550   2.111   1.940 -0.2538 -0.3127  0.0316
15198SOL    HW157248   9.643   2.096   1.974 -0.8181 -1.1491  1.2425
15198SOL    HW257249   9.540   2.069   1.850  0.3745 -0.7208  0.1544
15199SOL     OW57250   8.519   9.417   8.021 -0.8183 -0.8468  0.0329
15199SOL    HW157251   8.574   9.357   7.962  0.6337  0.8200 -0.3586
15199SOL    HW257252   8.577   9.453   8.094 -1.9314 -0.6911  0.8389
15200SOL     OW57253   2.308   9.139   3.335 -0.0911 -0.1278  0.2851
15200SOL    HW157254   2.340   9.196   3.411 -1.2715 -0.8570  1.3361
15200SOL    HW257255   2.381   9.077   3.307  0.0917 -0.3957  1.3458
15201SOL     OW57256   6.639   0.991   5.639 -0.2284 -0.0042  0.0214
15201SOL    HW157257   6.611   0.989   5.544  0.0652  1.5761 -0.1154
15201SOL    HW257258   6.632   1.084   5.674 -3.5788 -1.1261  2.5558
15202SOL     OW57259   2.025   0.145   0.140  0.3385 -0.2472 -0.2540
15202SOL    HW157260   2.051   0.147   0.043  0.4421  1.0007 -0.2079
15202SOL    HW257261   2.076   0.072   0.186  1.6879  0.3503 -0.7529
15203SOL     OW57262   8.535   9.086   6.030 -0.2869 -0.1172 -0.2963
15203SOL    HW157263   8.504   9.113   6.121  0.4276  1.0344 -0.3783
15203SOL    HW257264   8.477   9.014   5.994 -0.2225 -0.9948  1.3258
15204SOL     OW57265   8.000   3.445   5.322  0.1375 -0.0740  0.2132
15204SOL    HW157266   7.959   3.460   5.232 -2.2209  2.4109  1.6311
15204SOL    HW257267   7.980   3.353   5.353 -2.3762  0.3268 -0.1533
15205SOL     OW57268   2.390   6.171   4.335 -0.0431  0.1375 -0.1135
15205SOL    HW157269   2.406   6.140   4.429 -1.2137  1.5600  0.5831
15205SOL    HW257270   2.453   6.245   4.313  0.0182  0.0177 -0.3467
15206SOL     OW57271   8.099   0.995   0.481 -0.0341 -0.1630  0.1393
15206SOL    HW157272   8.025   0.933   0.507 -1.2311  0.6141 -1.3863
15206SOL    HW257273   8.116   0.987   0.383  0.9007  0.7583  0.2191
15207SOL     OW57274   2.613   2.701   8.033 -0.3270 -0.1332 -0.4277
15207SOL    HW157275   2.529   2.739   7.995 -0.3285 -1.0279 -1.3239
15207SOL    HW257276   2.678   2.681   7.959  0.1147 -0.8069  0.1280
15208SOL     OW57277   4.851   3.618   5.438  0.1355  0.5230  0.0035
15208SOL    HW157278   4.865   3.597   5.342  2.2278  0.5527  0.2680
15208SOL    HW257279   4.814   3.538   5.485  0.3209  0.0927 -0.5856
15209SOL     OW57280   9.494   0.707   0.771  0.2700  0.3390 -0.6478
15209SOL    HW157281   9.406   0.714   0.818  1.2529 -0.7466  1.4190
15209SOL    HW257282   9.495   0.624   0.715  0.5768 -0.5738  0.6777
15210SOL     OW57283   3.244   3.139   5.062  0.2426  0.1298  0.1607
15210SOL    HW157284   3.317   3.085   5.021  0.6162 -0.0655  1.0893
15210SOL    HW257285   3.178   3.079   5.107 -0.9712  0.2362 -1.4186
15211SOL     OW57286   4.825   9.014   3.587 -0.0565  0.0776 -0.6265
15211SOL    HW157287   4.856   9.050   3.675 -0.7528 -0.2334 -0.2499
15211SOL    HW257288   4.849   9.078   3.515 -2.1132  1.7618  0.1469
15212SOL     OW57289   2.973   0.252   0.025 -0.4042  0.2147  0.3463
15212SOL    HW157290   2.975   0.160   0.064  0.8948 -0.9714 -2.3433
15212SOL    HW257291   3.045   0.308   0.066 -1.1822  0.0529  1.9690
15213SOL     OW57292   5.229   8.360   4.157 -0.0833  0.1588 -0.3132
15213SOL    HW157293   5.239   8.307   4.242 -2.9653 -0.4853 -0.3203
15213SOL    HW257294   5.217   8.457   4.180  1.4159  0.3102 -0.1175
15214SOL     OW57295   9.554   1.652   4.062  0.0664 -0.0794 -0.4076
15214SOL    HW157296   9.500   1.600   4.129  1.5045 -0.5237  0.4289
15214SOL    HW257297   9.608   1.588   4.007  1.2050  0.4734  0.0608
15215SOL     OW57298   9.755   9.573   0.332 -0.0795  0.2256  0.5260
15215SOL    HW157299   9.724   9.659   0.292 -1.6667 -0.0956  1.0192
15215SOL    HW257300   9.678   9.527   0.375  1.2619 -0.2747  2.4307
15216SOL     OW57301   7.705   2.208   2.792 -0.0351  0.3163  0.3126
15216SOL    HW157302   7.707   2.240   2.698 -0.8448  1.1246  0.5642
15216SOL    HW257303   7.753   2.273   2.851 -1.1846  0.7875  0.7394
15217SOL     OW57304   8.269   4.981   1.039  0.8050  0.2247 -0.9709
15217SOL    HW157305   8.367   4.993   1.025  1.1772 -1.6269 -0.0751
15217SOL    HW257306   8.243   4.887   1.018 -0.4602  0.2157  0.5215
15218SOL     OW57307   9.758   3.870   0.685  0.3597  0.5036 -0.4902
15218SOL    HW157308   9.785   3.894   0.778 -0.1425 -0.2196 -0.1492
15218SOL    HW257309   9.819   3.915   0.620 -0.3359  2.3626  0.1278
15219SOL     OW57310   8.760   3.270   2.381 -0.0991 -0.5325 -0.1303
15219SOL    HW157311   8.749   3.212   2.461 -0.3543  0.5281  0.6173
15219SOL    HW257312   8.820   3.347   2.404 -0.2088 -0.2032 -0.9411
15220SOL     OW57313   4.286   1.518   5.976  0.3713  0.0485  0.6556
15220SOL    HW157314   4.339   1.445   6.020 -1.1496 -0.9646  0.8601
15220SOL    HW257315   4.339   1.558   5.903  1.9323 -0.0421  1.7245
15221SOL     OW57316   2.532   4.537   2.351 -0.0630  0.3074  0.1471
15221SOL    HW157317   2.443   4.544   2.394 -0.9578 -1.3928 -1.3227
15221SOL    HW257318   2.528   4.577   2.259  0.9501  1.0354  0.4043
15222SOL     OW57319   5.178   5.052   0.991  0.2266  0.2498  0.2408
15222SOL    HW157320   5.115   5.020   0.920  0.6423 -0.1523  0.0505
15222SOL    HW257321   5.236   4.976   1.021 -0.4886  0.2299  1.5837
15223SOL     OW57322   8.054   7.746   5.273 -0.4087  0.2450  0.0909
15223SOL    HW157323   7.987   7.686   5.317 -1.1768  1.1729  0.2065
15223SOL    HW257324   8.107   7.694   5.206 -1.1055 -0.5343  0.1409
15224SOL     OW57325   1.862   9.132   6.216  0.0371  0.2200 -0.3280
15224SOL    HW157326   1.848   9.076   6.298 -2.0646 -0.3937 -1.0841
15224SOL    HW257327   1.831   9.225   6.234 -0.0524  0.1861 -0.3058
15225SOL     OW57328   9.534   6.251   4.471  0.2237 -0.4418 -0.1208
15225SOL    HW157329   9.494   6.213   4.554 -0.0646 -1.2484 -0.6176
15225SOL    HW257330   9.483   6.332   4.443  0.2256 -0.2614  0.4016
15226SOL     OW57331   0.487   0.592   2.655  0.5997 -0.3774  0.0883
15226SOL    HW157332   0.552   0.613   2.727 -0.6536  2.7741  0.3998
15226SOL    HW257333   0.427   0.517   2.685  1.5855 -0.6913  1.3238
15227SOL     OW57334   2.799   7.883   0.411  0.6734  0.4345  0.1200
15227SOL    HW157335   2.703   7.890   0.383  0.9230  0.3606 -0.7717
15227SOL    HW257336   2.807   7.819   0.487  0.3421 -1.5196 -1.4434
15228SOL     OW57337   9.307   0.809   2.398  0.1160 -0.3479  0.6439
15228SOL    HW157338   9.357   0.865   2.464 -0.8330  1.1153  0.1393
15228SOL    HW257339   9.364   0.794   2.318  0.7903 -1.0640  1.2393
15229SOL     OW57340   1.233   6.707   7.891 -0.1560  0.5376 -0.3377
15229SOL    HW157341   1.305   6.768   7.859 -0.1967  0.9521  0.3287
15229SOL    HW257342   1.209   6.642   7.819  1.1049  0.1831 -0.4510
15230SOL     OW57343   9.481   9.860   1.800 -0.5266 -0.0476 -0.2526
15230SOL    HW157344   9.422   9.905   1.732  2.4575  0.9663 -2.2548
15230SOL    HW257345   9.511   9.772   1.765  1.7412  0.8624 -0.7010
15231SOL     OW57346   8.917   2.533   2.606  0.2727 -0.0221 -0.5077
15231SOL    HW157347   8.965   2.513   2.520  0.8832 -1.9882  0.2641
15231SOL    HW257348   8.819   2.522   2.593  0.3384 -0.0052 -1.0261
15232SOL     OW57349   8.077   0.196   3.358 -0.4269 -0.5862  0.1988
15232SOL    HW157350   8.115   0.144   3.281  1.4874  2.2655 -0.8703
15232SOL    HW257351   8.023   0.272   3.323  1.5301  1.5221  1.6212
15233SOL     OW57352   0.006   9.097   5.514 -0.3428  0.5405 -0.9639
15233SOL    HW157353   0.005   9.080   5.416  0.5912  2.1030 -1.2669
15233SOL    HW257354   0.003   9.195   5.531  2.7368  0.4695  0.4428
15234SOL     OW57355   8.265   7.066   6.546 -0.3523 -0.1998 -0.3605
15234SOL    HW157356   8.183   7.070   6.488 -1.2264  1.3183  0.9374
15234SOL    HW257357   8.239   7.039   6.639  0.9756 -2.1336 -0.5114
15235SOL     OW57358   7.623   8.969   4.684 -0.0750  0.1509 -0.3234
15235SOL    HW157359   7.611   8.875   4.717  1.2273 -0.2868 -1.0391
15235SOL    HW257360   7.637   9.030   4.762 -1.2213 -0.1913  0.1656
15236SOL     OW57361   8.674   5.572   2.936 -0.8422  0.0963 -0.2132
15236SOL    HW157362   8.747   5.521   2.890 -0.7456  0.0155  0.0276
15236SOL    HW257363   8.708   5.606   3.024 -0.8020  0.8457 -0.5107
15237SOL     OW57364   7.018   1.957   5.467  0.5820  0.3554 -0.4894
15237SOL    HW157365   7.070   2.025   5.519  1.1435 -1.3055  1.1498
15237SOL    HW257366   6.920   1.965   5.490  0.1747  2.8385 -2.8552
15238SOL     OW57367   8.451   9.565   1.080 -0.5211  0.3185  0.2757
15238SOL    HW157368   8.549   9.553   1.065 -1.0996 -3.0967 -1.4112
15238SOL    HW257369   8.405   9.579   0.991 -1.9327 -1.6825  0.6488
15239SOL     OW57370   7.510   0.025   4.770 -0.3032 -0.1051 -0.2132
15239SOL    HW157371   7.571   0.104   4.777 -0.0856 -0.3661  0.9131
15239SOL    HW257372   7.419   0.056   4.743  0.5642  0.1704 -2.9129
15240SOL     OW57373   3.471   9.801   7.644 -0.3400 -0.5835  0.5661
15240SOL    HW157374   3.409   9.861   7.595  0.3590  0.7271  1.2670
15240SOL    HW257375   3.552   9.782   7.588  0.3223  0.6786  1.0726
15241SOL     OW57376   7.384   1.148   7.452  0.7260  0.5356 -0.5974
15241SOL    HW157377   7.322   1.176   7.525 -3.6351 -1.4839 -3.2966
15241SOL    HW257378   7.401   1.225   7.392  0.8331  1.1207  0.1758
15242SOL     OW57379   4.914   2.362   3.843  0.2141 -0.3271 -0.6834
15242SOL    HW157380   4.827   2.411   3.837  0.0356 -0.2259  2.0294
15242SOL    HW257381   4.896   2.264   3.849  0.3367 -0.3708 -1.0114
15243SOL     OW57382   9.780   3.587   6.321  0.3998  0.4185 -0.4146
15243SOL    HW157383   9.778   3.590   6.221 -0.5719  0.9349 -0.3877
15243SOL    HW257384   9.690   3.610   6.357 -0.0620 -2.5579  0.5116
15244SOL     OW57385   8.530   6.737   5.000 -0.4487 -0.0991 -0.4088
15244SOL    HW157386   8.531   6.700   5.093  1.9233 -0.7647 -0.6754
15244SOL    HW257387   8.519   6.837   5.005  2.0311  0.1584  0.7245
15245SOL     OW57388   9.312   1.164   1.576  0.3863  0.1989  0.5679
15245SOL    HW157389   9.237   1.203   1.523 -0.4425 -0.2242  1.4357
15245SOL    HW257390   9.347   1.232   1.640 -2.4983 -1.0730  3.6442
15246SOL     OW57391   1.809   3.059   1.902  0.0638  0.1414  0.5545
15246SOL    HW157392   1.761   2.972   1.892 -0.8756  0.8256 -0.9988
15246SOL    HW257393   1.822   3.078   1.999 -1.2417 -0.9029  0.9545
15247SOL     OW57394   0.464   1.824   0.572  0.2859 -0.1043  0.1980
15247SOL    HW157395   0.536   1.841   0.505 -0.4580  1.9990 -0.0938
15247SOL    HW257396   0.386   1.883   0.553 -1.1278 -1.6302  1.1273
15248SOL     OW57397   0.118   9.576   2.184 -0.4762  0.4976 -0.5012
15248SOL    HW157398   0.044   9.589   2.250 -1.3659 -1.6543 -1.0288
15248SOL    HW257399   0.183   9.651   2.192 -1.1270  0.8494  2.0676
15249SOL     OW57400   3.506   5.101   5.128 -0.5640 -0.0631 -0.7698
15249SOL    HW157401   3.518   5.191   5.087  1.0875 -0.3560 -0.9599
15249SOL    HW257402   3.422   5.100   5.182  1.1364  2.6804  2.1009
15250SOL     OW57403   3.280   2.687   4.238 -0.2173  0.2842 -0.1249
15250SOL    HW157404   3.286   2.783   4.266  1.6356 -0.4548  2.2177
15250SOL    HW257405   3.309   2.629   4.314 -2.2112 -2.1912 -1.1895
15251SOL     OW57406   9.936   7.396   0.245  0.4759  0.1857  0.1916
15251SOL    HW157407   9.949   7.340   0.327  1.2240 -1.4006 -0.9843
15251SOL    HW257408   9.968   7.489   0.263  1.2843 -0.3244  1.4778
15252SOL     OW57409   2.971   6.350   8.091 -0.5981 -0.1867 -0.3213
15252SOL    HW157410   2.928   6.259   8.084  0.2402 -0.5224 -1.0917
15252SOL    HW257411   2.900   6.420   8.084 -1.2456 -0.7708  0.2128
15253SOL     OW57412   7.270   1.024   5.777  0.5079  0.1393  0.1633
15253SOL    HW157413   7.252   1.104   5.835 -0.7178  1.3300 -1.8026
15253SOL    HW257414   7.196   0.958   5.787  1.4378 -0.6970  1.6610
15254SOL     OW57415   3.391   3.661   1.703 -0.2026 -0.0961 -0.7296
15254SOL    HW157416   3.388   3.607   1.786 -1.4763 -0.5920 -1.0854
15254SOL    HW257417   3.310   3.721   1.699  1.6817  2.6227  0.1780
15255SOL     OW57418   7.836   9.738   4.321 -0.2490 -0.0983 -0.2605
15255SOL    HW157419   7.744   9.776   4.319 -0.5931 -0.9575 -1.0902
15255SOL    HW257420   7.832   9.643   4.355  0.4597  0.2101  0.7147
15256SOL     OW57421   7.293   5.909   0.240  0.1231 -0.6929  0.2922
15256SOL    HW157422   7.208   5.959   0.249  0.3050 -0.5559  1.2880
15256SOL    HW257423   7.290   5.851   0.158  0.1337  1.3503 -1.1697
15257SOL     OW57424   0.683   1.389   5.484  0.3223 -0.2315  0.1362
15257SOL    HW157425   0.632   1.305   5.463  0.9926 -0.5947 -0.0452
15257SOL    HW257426   0.643   1.432   5.565  0.3352 -1.0335  0.5763
15258SOL     OW57427   8.041   5.575   6.141 -0.4723 -0.0635  0.0520
15258SOL    HW157428   7.956   5.610   6.182 -0.4566 -1.9343  1.7799
15258SOL    HW257429   8.108   5.649   6.135 -1.7253  1.0936  0.0410
15259SOL     OW57430   3.731   8.909   3.804  0.3752 -0.2281 -0.3579
15259SOL    HW157431   3.648   8.897   3.749 -0.5575 -1.2619  1.2513
15259SOL    HW257432   3.776   8.821   3.816 -1.0649 -0.5650  3.0478
15260SOL     OW57433   7.280   3.337   3.462 -0.0172 -0.4712  0.3080
15260SOL    HW157434   7.378   3.356   3.469  0.0567 -0.2166 -1.2283
15260SOL    HW257435   7.239   3.399   3.395 -1.1048 -1.0280  0.4495
15261SOL     OW57436   2.050   6.678   6.875  0.1618 -0.5689 -0.7496
15261SOL    HW157437   2.118   6.619   6.919  0.5614 -1.4926 -2.5745
15261SOL    HW257438   2.063   6.772   6.905  0.1669 -1.2408  1.4185
15262SOL     OW57439   4.272   3.502   0.740 -0.2025 -0.0212 -0.1857
15262SOL    HW157440   4.272   3.406   0.768  0.2468  0.4236  1.3650
15262SOL    HW257441   4.178   3.536   0.738 -0.4397 -0.7022 -1.5377
15263SOL     OW57442   3.692   2.430   4.756  0.2335  0.3216 -0.4720
15263SOL    HW157443   3.633   2.373   4.699  0.7867 -0.7804  0.0416
15263SOL    HW257444   3.692   2.395   4.849  0.3092  1.3765 -0.0638
15264SOL     OW57445   3.201   4.682   6.923  0.0071 -0.2831  0.2958
15264SOL    HW157446   3.169   4.756   6.863 -1.2025 -0.0780  1.1846
15264SOL    HW257447   3.247   4.721   7.002 -0.4407 -0.4755  0.6554
15265SOL     OW57448   3.614   9.781   1.152  0.8736  0.0748 -0.1185
15265SOL    HW157449   3.590   9.787   1.055  1.9939 -1.5360 -0.5088
15265SOL    HW257450   3.530   9.783   1.207  0.2559  1.3860 -1.0905
15266SOL     OW57451   0.532   8.813   4.106 -0.1259  0.2131 -0.0595
15266SOL    HW157452   0.594   8.881   4.067 -0.3481  1.4720  1.7469
15266SOL    HW257453   0.524   8.827   4.204 -0.8568 -1.8995  0.2107
15267SOL     OW57454   6.455   0.426   3.923  0.0760 -0.5859 -0.1394
15267SOL    HW157455   6.357   0.425   3.943  0.2916 -1.2142  0.9547
15267SOL    HW257456   6.471   0.392   3.831 -0.6803 -1.3427 -0.0001
15268SOL     OW57457   5.037   4.450   1.565  0.2851 -0.2883 -0.0556
15268SOL    HW157458   5.124   4.485   1.530  0.3312  0.8320  1.1370
15268SOL    HW257459   5.052   4.362   1.609  0.8659  0.0135  0.3595
15269SOL     OW57460   0.891   4.504   0.729 -0.1297  0.0155 -0.4425
15269SOL    HW157461   0.794   4.526   0.731 -0.2847 -0.7207  0.3531
15269SOL    HW257462   0.903   4.405   0.733  0.6796  0.1544  1.1069
15270SOL     OW57463   3.698   8.235   6.723 -0.6722  0.0205 -0.2398
15270SOL    HW157464   3.707   8.175   6.644  1.7242 -1.5066  1.1376
15270SOL    HW257465   3.625   8.202   6.782 -0.5337 -0.5274 -0.3727
15271SOL     OW57466   8.565   1.501   4.825 -0.3969  0.2687  0.1719
15271SOL    HW157467   8.494   1.566   4.853 -1.7007 -0.4408 -1.4292
15271SOL    HW257468   8.522   1.421   4.785  1.2578 -1.0498  0.9900
15272SOL     OW57469   0.959   3.358   4.137  0.3186 -0.6175 -0.2301
15272SOL    HW157470   0.882   3.382   4.196  0.6567  1.0848 -0.4489
15272SOL    HW257471   0.927   3.299   4.063 -0.3361 -1.7856  0.9758
15273SOL     OW57472   4.045   4.421   2.068 -0.3703  0.3643  0.4632
15273SOL    HW157473   4.035   4.383   2.160 -0.5511 -1.6321 -0.3582
15273SOL    HW257474   3.955   4.447   2.033 -0.2578  1.4996  0.9816
15274SOL     OW57475   9.240   6.761   2.251  0.4439 -0.0688 -0.8134
15274SOL    HW157476   9.149   6.786   2.284  1.4341  2.1622  0.3528
15274SOL    HW257477   9.264   6.819   2.173  0.8580 -0.6448 -1.1175
15275SOL     OW57478   1.945   8.645   5.663 -0.0085 -0.3023 -0.2174
15275SOL    HW157479   1.869   8.631   5.600 -0.3764  0.8247 -0.0382
15275SOL    HW257480   1.933   8.732   5.711  1.4988 -0.0163 -0.3325
15276SOL     OW57481   7.048   3.213   0.839  0.1081 -0.6396 -0.1835
15276SOL    HW157482   7.080   3.295   0.791  0.6889 -0.5166  0.4026
15276SOL    HW257483   7.043   3.137   0.775  2.7226 -0.9611 -0.0740
15277SOL     OW57484   2.227   8.795   6.869  0.2387 -0.5347 -0.3325
15277SOL    HW157485   2.261   8.874   6.817  0.9008 -0.2617  0.4886
15277SOL    HW257486   2.294   8.721   6.864  0.0862 -0.6747 -0.2751
15278SOL     OW57487   1.871   4.206   2.425  0.1911  0.1935 -0.1805
15278SOL    HW157488   1.959   4.175   2.390  0.8731  4.1197 -2.1838
15278SOL    HW257489   1.799   4.147   2.389  1.5316  0.0015 -2.6894
15279SOL     OW57490   7.023   8.587   3.573  0.3997 -0.1908 -0.3888
15279SOL    HW157491   7.020   8.499   3.526  0.4206  0.3047 -1.3179
15279SOL    HW257492   7.118   8.618   3.577  0.5592 -0.8025  1.0630
15280SOL     OW57493   7.566   4.617   7.352 -0.0109  0.0727 -0.0148
15280SOL    HW157494   7.497   4.643   7.420  1.3534  2.1815  0.6175
15280SOL    HW257495   7.574   4.689   7.284  0.1083 -1.1028 -1.2555
15281SOL     OW57496   4.522   3.031   3.758 -0.1411 -0.0197  0.3175
15281SOL    HW157497   4.573   3.016   3.843 -0.0861  1.5092  0.5760
15281SOL    HW257498   4.540   2.957   3.694  1.1312 -0.3244  1.0115
15282SOL     OW57499   2.519   7.762   2.185 -0.3232  0.4688  0.5566
15282SOL    HW157500   2.458   7.832   2.146 -0.2273  0.4314  0.3388
15282SOL    HW257501   2.555   7.705   2.111 -0.0156  0.4950  0.6870
15283SOL     OW57502   7.965   3.379   8.064 -0.5950  0.0891 -0.3830
15283SOL    HW157503   7.938   3.389   8.159  0.1635 -0.2759 -0.1259
15283SOL    HW257504   7.915   3.303   8.023 -1.5364  0.7669 -0.5170
15284SOL     OW57505   7.179   5.335   7.844  0.2659 -0.6315  0.3792
15284SOL    HW157506   7.084   5.318   7.821 -0.0461  1.2658  0.1965
15284SOL    HW257507   7.230   5.358   7.761  0.4442  0.3080  0.7443
15285SOL     OW57508   8.499   7.441   7.556  0.2634  0.1255  0.3777
15285SOL    HW157509   8.510   7.494   7.640  0.1033  1.1549 -0.2427
15285SOL    HW257510   8.475   7.502   7.481  0.7265 -0.7414 -0.4915
15286SOL     OW57511   2.978   3.800   2.729  0.7716  0.2068 -0.1451
15286SOL    HW157512   2.894   3.745   2.722  0.2190  0.7760  1.6918
15286SOL    HW257513   2.988   3.855   2.646 -2.1182  2.0713  0.6294
15287SOL     OW57514   7.430   7.968   2.708  0.4660  0.3509  0.1525
15287SOL    HW157515   7.487   7.893   2.741  0.8752  0.8086  0.5005
15287SOL    HW257516   7.420   7.961   2.609 -0.8009 -1.0542  0.3626
15288SOL     OW57517   1.894   4.114   6.288 -0.7463 -0.1512  0.1635
15288SOL    HW157518   1.857   4.111   6.195 -0.9237  0.5111  0.2135
15288SOL    HW257519   1.909   4.020   6.320  1.4455 -0.3514 -1.3761
15289SOL     OW57520   0.478   2.994   2.213 -0.2629 -0.3251 -0.0036
15289SOL    HW157521   0.389   2.998   2.168 -0.6978  0.8425  0.9083
15289SOL    HW257522   0.550   2.983   2.144 -0.7635  3.1347 -1.2050
15290SOL     OW57523   5.666   0.991   3.395  0.3158 -0.6928  0.0486
15290SOL    HW157524   5.589   0.946   3.350  0.4485 -0.3483 -0.5316
15290SOL    HW257525   5.722   1.037   3.326 -0.0647  0.7304  0.6809
15291SOL     OW57526   8.434   7.497   6.873  0.1414 -0.7967 -0.0877
15291SOL    HW157527   8.449   7.572   6.937  0.4907  0.1327 -1.2518
15291SOL    HW257528   8.345   7.508   6.828 -0.2139 -1.5835  0.3984
15292SOL     OW57529   7.284   9.992   1.148  0.6402 -0.3367  0.3952
15292SOL    HW157530   7.290  10.090   1.131 -3.0393 -0.3963 -1.7180
15292SOL    HW257531   7.229   9.976   1.231 -0.3061 -0.6373 -0.2815
15293SOL     OW57532   8.891   7.311   7.653 -0.2674  0.0011 -0.5759
15293SOL    HW157533   8.899   7.214   7.631 -1.3900  0.2106 -1.9262
15293SOL    HW257534   8.812   7.326   7.712  0.3215  0.0205  0.2337
15294SOL     OW57535   3.187   8.672   5.746 -0.3328  0.9564 -0.1777
15294SOL    HW157536   3.215   8.739   5.814 -0.2708 -1.8810  2.7244
15294SOL    HW257537   3.263   8.652   5.685 -0.0331  2.6824 -0.3929
15295SOL     OW57538   7.834   3.410   5.079 -0.4741 -0.4663 -0.4408
15295SOL    HW157539   7.836   3.396   4.980 -3.1229  3.5482 -1.2047
15295SOL    HW257540   7.740   3.402   5.112 -0.1887  1.8356  1.0877
15296SOL     OW57541   0.081   7.608   3.043  0.1294  0.0589 -0.1704
15296SOL    HW157542   0.021   7.536   3.077  0.3896 -0.9093 -1.7388
15296SOL    HW257543   0.044   7.697   3.070 -0.8061 -0.6066  0.7936
15297SOL     OW57544   9.697   7.585   6.312 -0.7487  0.1814 -0.0405
15297SOL    HW157545   9.709   7.486   6.304 -0.3360  0.0064  2.4354
15297SOL    HW257546   9.742   7.630   6.235  0.0870 -1.4828 -0.5543
15298SOL     OW57547   8.523   7.568   6.513 -0.0950  0.0971 -0.0538
15298SOL    HW157548   8.604   7.534   6.561  0.0627 -2.2320 -1.8855
15298SOL    HW257549   8.550   7.602   6.423 -1.0967 -0.4696 -0.5762
15299SOL     OW57550   8.790   1.839   7.688 -0.5320 -0.3563  0.7876
15299SOL    HW157551   8.868   1.779   7.670 -1.6205 -1.5055 -0.1988
15299SOL    HW257552   8.747   1.863   7.602 -1.0738  0.5412  1.3088
15300SOL     OW57553   7.836   1.468   5.955  0.3133 -0.4588  0.3555
15300SOL    HW157554   7.811   1.518   6.038  0.8154  1.6564 -0.7331
15300SOL    HW257555   7.763   1.403   5.932 -0.7649  0.4074  1.2984
15301SOL     OW57556   1.612   9.823   6.485  0.1969 -0.0767 -0.3181
15301SOL    HW157557   1.701   9.853   6.519  0.9315 -0.9509 -1.4413
15301SOL    HW257558   1.566   9.899   6.440  1.0025  0.0052 -1.0122
15302SOL     OW57559   9.473   5.437   2.765 -0.1034  0.1918 -1.2344
15302SOL    HW157560   9.530   5.517   2.782  0.3302 -0.1244 -1.1974
15302SOL    HW257561   9.424   5.450   2.678  1.8739 -0.5697 -2.5065
15303SOL     OW57562   0.771   2.052   0.592 -0.4609 -0.1303  0.2150
15303SOL    HW157563   0.697   2.119   0.587  0.6407  1.1455  0.8106
15303SOL    HW257564   0.756   1.981   0.523 -1.2471  1.1099 -0.9187
15304SOL     OW57565   2.372   0.815   6.062  0.1401  0.1039 -0.3709
15304SOL    HW157566   2.407   0.907   6.076 -0.6944  0.1354  1.7919
15304SOL    HW257567   2.286   0.819   6.012  0.4024  0.4572 -0.7954
15305SOL     OW57568   2.029   9.102   6.014 -0.0320 -0.8705 -0.0519
15305SOL    HW157569   1.972   9.104   6.097  2.5493 -1.7841  1.8080
15305SOL    HW257570   2.014   9.186   5.962 -1.2023  0.0426  1.6949
15306SOL     OW57571   0.728   3.643   1.098  0.3336  0.2865 -0.3079
15306SOL    HW157572   0.819   3.603   1.104 -0.4180 -1.5273 -0.7278
15306SOL    HW257573   0.669   3.585   1.042 -0.9934  1.6154 -0.3344
15307SOL     OW57574   1.787   3.850   4.389  0.0804 -0.4393  0.0695
15307SOL    HW157575   1.828   3.940   4.370  0.5363 -0.5843  0.3776
15307SOL    HW257576   1.853   3.778   4.369 -0.8061 -0.7994 -1.7210
15308SOL     OW57577   7.599   7.503   2.289 -0.3708 -0.6828 -0.3308
15308SOL    HW157578   7.615   7.516   2.387 -0.1603 -2.1992 -0.1496
15308SOL    HW257579   7.668   7.552   2.237 -0.5631  0.2376  0.2813
15309SOL     OW57580   5.958   1.752   5.466  0.0015  0.3350  0.4335
15309SOL    HW157581   5.996   1.841   5.440  0.8208  0.1473  0.9830
15309SOL    HW257582   5.957   1.744   5.565 -0.5453 -0.0668  0.3944
15310SOL     OW57583   6.221   8.848   5.606 -0.4610 -0.0232 -0.1407
15310SOL    HW157584   6.220   8.854   5.506  0.5450  2.0802 -0.0726
15310SOL    HW257585   6.227   8.941   5.644  1.0034 -0.8869  1.8157
15311SOL     OW57586   8.961   9.209   5.328  0.4609  0.9117  0.2132
15311SOL    HW157587   9.058   9.187   5.330  0.3601  0.4381  0.0381
15311SOL    HW257588   8.922   9.180   5.241  0.0755  0.7338  0.4451
15312SOL     OW57589   1.869   8.431   8.178  0.0066  0.7357  0.2182
15312SOL    HW157590   1.873   8.357   8.110  0.3842 -0.0603  1.1063
15312SOL    HW257591   1.919   8.404   8.260 -0.6489  1.6040  0.9106
15313SOL     OW57592   3.477   9.248   0.418 -0.2510  0.5736  0.4799
15313SOL    HW157593   3.412   9.274   0.490 -0.3191 -1.4635  1.1844
15313SOL    HW257594   3.435   9.179   0.360  1.3760 -0.9899  1.1268
15314SOL     OW57595   3.949   8.187   3.949 -0.0921 -0.2343 -0.0649
15314SOL    HW157596   4.020   8.227   4.008  0.2379 -0.8779 -0.0172
15314SOL    HW257597   3.992   8.138   3.874 -0.4988 -0.3149 -0.2470
15315SOL     OW57598   4.046   7.851   4.040 -0.3584  0.0695 -0.6379
15315SOL    HW157599   4.139   7.824   4.066 -0.6077 -1.1758 -1.0341
15315SOL    HW257600   4.015   7.925   4.101 -0.0487 -1.1990  1.1056
15316SOL     OW57601   3.036   7.277   4.242 -0.1224 -0.1864  0.0651
15316SOL    HW157602   2.937   7.261   4.247 -0.2079  0.2045 -0.3267
15316SOL    HW257603   3.076   7.218   4.172 -0.1127 -0.1793  0.0645
15317SOL     OW57604   1.208   4.525   1.895 -0.6004 -0.1722  0.4185
15317SOL    HW157605   1.266   4.582   1.837 -2.6944  1.1462 -0.4431
15317SOL    HW257606   1.162   4.582   1.963 -2.2454 -0.9218 -0.0559
15318SOL     OW57607   1.754   2.180   4.000  0.2191  0.5413  0.1432
15318SOL    HW157608   1.778   2.128   4.082 -0.9129 -0.1092  0.0729
15318SOL    HW257609   1.672   2.235   4.019  0.1054  0.5838 -0.4819
15319SOL     OW57610   5.562   4.540   8.057 -0.2751 -0.1007 -0.4288
15319SOL    HW157611   5.508   4.483   8.120  0.2655 -0.3872 -0.2234
15319SOL    HW257612   5.500   4.585   7.992 -0.5625 -2.4054 -1.7949
15320SOL     OW57613   1.362   8.204   5.279  0.7874  0.2606  0.4482
15320SOL    HW157614   1.322   8.254   5.202  0.0118 -1.2202 -0.1237
15320SOL    HW257615   1.460   8.193   5.264  0.2742 -2.0451 -1.4934
15321SOL     OW57616   8.797   2.528   5.175 -0.3388 -0.1957  0.1245
15321SOL    HW157617   8.856   2.604   5.148 -1.2364  0.8901  1.1066
15321SOL    HW257618   8.716   2.527   5.116 -0.9204  0.3910  0.9019
15322SOL     OW57619   3.084   0.295   6.770 -0.2865 -0.3568  0.2408
15322SOL    HW157620   3.076   0.195   6.769  1.3332 -0.5105  0.5024
15322SOL    HW257621   3.138   0.324   6.691 -1.9352  0.4486 -0.6175
15323SOL     OW57622   6.669   8.752   6.260 -0.0726 -0.2374 -0.1985
15323SOL    HW157623   6.662   8.786   6.354  0.7084  0.1100 -0.2535
15323SOL    HW257624   6.762   8.718   6.244 -0.7424 -2.0675 -0.2672
15324SOL     OW57625   0.482   4.562   4.512 -0.2469  0.1809 -0.0707
15324SOL    HW157626   0.427   4.637   4.475  0.7364  0.4806 -0.9551
15324SOL    HW257627   0.422   4.493   4.552 -1.4012 -0.4600 -2.7750
15325SOL     OW57628   9.648   5.865   6.945 -0.1569  0.1520 -0.6711
15325SOL    HW157629   9.629   5.768   6.964  0.2399  0.2032 -0.0243
15325SOL    HW257630   9.618   5.886   6.852 -1.0296 -0.3846 -0.5259
15326SOL     OW57631   8.481   2.815   1.550  1.1463  0.6534  0.6654
15326SOL    HW157632   8.483   2.908   1.588  0.5585  0.9699 -0.0773
15326SOL    HW257633   8.508   2.818   1.454  0.6352  0.1167  0.5065
15327SOL     OW57634   3.619   7.017   3.916 -0.0117 -0.0624 -0.2755
15327SOL    HW157635   3.644   7.096   3.860  0.4215 -0.6125 -0.8631
15327SOL    HW257636   3.550   7.044   3.983 -0.2457  0.6840 -0.8191
15328SOL     OW57637   9.061   6.267   1.834 -0.4831 -0.3344  0.5721
15328SOL    HW157638   9.031   6.192   1.775  1.2974 -1.4460  1.0567
15328SOL    HW257639   9.026   6.252   1.927  0.2627 -0.8394  0.7807
15329SOL     OW57640   9.899   4.687   7.539 -0.0712  0.0463  0.0506
15329SOL    HW157641   9.917   4.624   7.463  1.4187  0.5389 -0.0277
15329SOL    HW257642   9.891   4.635   7.624 -2.1008 -0.5425 -0.4719
15330SOL     OW57643   5.784   8.264   4.513 -0.2239 -0.3121  0.7539
15330SOL    HW157644   5.721   8.192   4.541 -0.1651 -0.7805 -0.2975
15330SOL    HW257645   5.743   8.354   4.530 -1.8445 -0.6205 -1.4312
15331SOL     OW57646   3.719   9.620   7.464  0.0902  0.5969  0.2614
15331SOL    HW157647   3.670   9.694   7.420 -0.5185  0.8096  1.2841
15331SOL    HW257648   3.655   9.550   7.495  0.6814 -0.5302 -0.9938
15332SOL     OW57649   0.988   8.593   2.412  0.2384  0.1774  0.2124
15332SOL    HW157650   0.987   8.690   2.387 -1.0532  0.3373  0.8574
15332SOL    HW257651   0.998   8.538   2.329 -3.4556  0.7143 -0.6736
15333SOL     OW57652   2.184   3.156   4.902 -0.5964 -0.0336 -0.7998
15333SOL    HW157653   2.258   3.148   4.970  2.1300 -1.2583 -3.7688
15333SOL    HW257654   2.110   3.094   4.928 -0.1453  0.3760  1.6634
15334SOL     OW57655   0.287   8.729   1.338 -0.0780  0.3025  0.1877
15334SOL    HW157656   0.380   8.751   1.308  0.2835 -1.1014  0.2702
15334SOL    HW257657   0.223   8.794   1.296  0.7203  0.0594 -1.4515
15335SOL     OW57658   6.928   7.081   6.696  0.1575  0.0465 -0.2660
15335SOL    HW157659   6.885   7.028   6.623 -0.2634 -0.0752  0.0683
15335SOL    HW257660   6.993   7.024   6.745 -1.6996 -0.7451  1.3324
15336SOL     OW57661   4.061   2.011   0.913  0.3375  0.1283  0.2385
15336SOL    HW157662   4.130   1.999   0.841  1.0158  3.1329  0.2933
15336SOL    HW257663   4.096   1.974   0.999  0.3766 -1.6364 -0.5317
15337SOL     OW57664   6.549   1.012   7.387 -0.2350 -0.1645  0.5015
15337SOL    HW157665   6.624   1.074   7.365 -0.6823  0.4931  0.8204
15337SOL    HW257666   6.579   0.945   7.455  0.6629 -1.1841 -0.8633
15338SOL     OW57667   8.868   4.160   1.346  0.2171 -0.2112  0.2441
15338SOL    HW157668   8.787   4.134   1.398 -0.4738 -0.8528 -1.1262
15338SOL    HW257669   8.901   4.081   1.294 -0.1567  0.8533 -1.6666
15339SOL     OW57670   3.156   3.163   4.766 -0.2748  0.0983 -0.2346
15339SOL    HW157671   3.123   3.254   4.791 -0.6589 -0.0010 -0.3758
15339SOL    HW257672   3.229   3.135   4.829 -0.0290  0.5793 -0.3020
15340SOL     OW57673   4.485   1.105   3.222  0.0364 -0.1860 -0.4542
15340SOL    HW157674   4.509   1.009   3.239 -1.3487 -0.6390 -0.9667
15340SOL    HW257675   4.564   1.153   3.185  0.7626 -1.1164 -0.1375
15341SOL     OW57676   6.454   9.732   6.409  0.4561  0.2247 -0.1101
15341SOL    HW157677   6.502   9.671   6.472 -1.9518  1.6781  3.2816
15341SOL    HW257678   6.485   9.826   6.426 -0.1686  0.6216 -1.1772
15342SOL     OW57679   3.757   7.697   5.142  0.3976  0.6043  0.0461
15342SOL    HW157680   3.755   7.745   5.229 -1.0191 -0.1828  0.4711
15342SOL    HW257681   3.801   7.754   5.073  1.0547  1.4429  1.1463
15343SOL     OW57682   3.117   8.617   2.973  0.7827  0.4303  0.1567
15343SOL    HW157683   3.053   8.634   2.898 -0.7815 -1.8141  0.9160
15343SOL    HW257684   3.152   8.523   2.965 -0.7757 -0.4594  3.1729
15344SOL     OW57685   8.804   2.869   0.121  0.1188 -0.2741 -0.2878
15344SOL    HW157686   8.748   2.934   0.070  1.4319 -0.5315 -2.1359
15344SOL    HW257687   8.819   2.903   0.214  0.8441  2.1414 -1.2434
15345SOL     OW57688   0.225   0.713   5.154  0.0513 -0.0520  0.4238
15345SOL    HW157689   0.131   0.736   5.182  0.5493  1.6505  0.7080
15345SOL    HW257690   0.231   0.715   5.055  0.0119  0.7374  0.4352
15346SOL     OW57691   3.410   1.785   6.301  0.1722  0.0456  0.2273
15346SOL    HW157692   3.406   1.740   6.391 -1.5003  1.0479  0.6737
15346SOL    HW257693   3.368   1.727   6.232 -3.2889  1.4060  1.0533
15347SOL     OW57694   4.605   8.131   2.692  0.0810 -0.5889  0.0930
15347SOL    HW157695   4.544   8.141   2.613 -0.3388  0.2305  0.5191
15347SOL    HW257696   4.599   8.212   2.750 -1.3544 -2.1356  2.1898
15348SOL     OW57697   4.454   2.852   7.466 -0.7147 -0.8679  0.8415
15348SOL    HW157698   4.467   2.765   7.420 -0.9030  0.3132 -1.4965
15348SOL    HW257699   4.357   2.866   7.484 -0.8737 -0.3349 -0.4112
15349SOL     OW57700   0.933   7.761   0.875 -0.1451 -0.3345 -0.1122
15349SOL    HW157701   0.840   7.788   0.851 -0.8845 -1.9472  0.8268
15349SOL    HW257702   0.930   7.676   0.928  1.8330 -0.1567  0.3179
15350SOL     OW57703   7.565   8.312   6.446 -0.6910  0.1248 -0.0955
15350SOL    HW157704   7.599   8.228   6.404  0.1054  0.4993 -0.2145
15350SOL    HW257705   7.623   8.337   6.523  0.6194  1.9025 -1.5893
15351SOL     OW57706   0.505   2.191   6.253  0.1276 -0.4266 -0.0895
15351SOL    HW157707   0.446   2.228   6.326  0.8869 -0.7440  0.6957
15351SOL    HW257708   0.493   2.245   6.170 -0.8901 -0.1721  0.2192
15352SOL     OW57709   5.183   7.952   4.967  0.1732  0.1483  0.4054
15352SOL    HW157710   5.204   7.855   4.958 -2.0305 -0.5461  2.1346
15352SOL    HW257711   5.100   7.973   4.914 -0.3836  0.6645  1.4678
15353SOL     OW57712   7.855   3.777   5.548  0.1941 -0.4666 -0.0683
15353SOL    HW157713   7.863   3.799   5.451 -1.4727 -0.8128 -0.3010
15353SOL    HW257714   7.935   3.726   5.578  0.3297 -1.0834 -1.4657
15354SOL     OW57715   5.131   1.518   7.371  0.0981 -0.1212  0.0349
15354SOL    HW157716   5.135   1.422   7.344  0.9774 -0.0499 -0.0861
15354SOL    HW257717   5.171   1.575   7.299  1.8169  0.1325  1.1722
15355SOL     OW57718   6.633   8.746   2.872 -0.1605  0.2175 -1.0771
15355SOL    HW157719   6.679   8.730   2.960 -1.2224  0.3630 -0.4805
15355SOL    HW257720   6.569   8.823   2.882 -0.7874 -0.2051 -1.7859
15356SOL     OW57721   3.192   9.147   3.561  0.1788 -0.2700  0.3875
15356SOL    HW157722   3.256   9.123   3.633 -1.6051 -0.0266  2.0967
15356SOL    HW257723   3.183   9.246   3.556 -0.3384 -0.3139  0.4134
15357SOL     OW57724   3.498   8.480   6.628 -0.1071 -0.1502 -0.3138
15357SOL    HW157725   3.533   8.536   6.703  0.2937 -2.9694  1.6741
15357SOL    HW257726   3.567   8.413   6.601 -0.6395  0.1675 -2.5327
15358SOL     OW57727   8.792   3.530   0.496 -0.4330  0.2235  0.1942
15358SOL    HW157728   8.751   3.481   0.572 -1.5856 -0.0992 -0.6152
15358SOL    HW257729   8.887   3.553   0.517 -0.3750 -0.9561  1.2170
15359SOL     OW57730   3.996   8.761   7.719 -0.5048  0.2961  0.8088
15359SOL    HW157731   4.092   8.770   7.744 -0.6445  0.6665  1.2150
15359SOL    HW257732   3.942   8.738   7.800 -0.3552 -2.9099  0.0694
15360SOL     OW57733   0.267   6.274   0.007 -0.0498 -0.0027 -0.5524
15360SOL    HW157734   0.171   6.283   0.034 -0.2546 -0.3209 -1.1832
15360SOL    HW257735   0.318   6.354   0.041 -0.4966  0.0803 -0.0638
15361SOL     OW57736   4.541   9.372   1.479 -0.2602  0.1307 -0.0353
15361SOL    HW157737   4.531   9.445   1.546  0.9102  0.1032  0.1774
15361SOL    HW257738   4.514   9.405   1.389 -2.6149 -0.0612  0.5667
15362SOL     OW57739   7.391   6.501   7.155 -0.1205  0.8218  0.5844
15362SOL    HW157740   7.391   6.440   7.076  0.5513  0.5750  0.7668
15362SOL    HW257741   7.297   6.521   7.182 -0.3596  1.9800 -1.0981
15363SOL     OW57742   5.596   1.292   7.249 -0.1071 -0.2989 -0.2161
15363SOL    HW157743   5.541   1.225   7.299  2.8875 -3.6568 -1.2298
15363SOL    HW257744   5.561   1.302   7.156 -0.1794 -0.9305 -0.2580
15364SOL     OW57745   2.760   3.202   6.753  0.2330 -0.5372 -0.3598
15364SOL    HW157746   2.722   3.222   6.662  0.6762  0.7907 -0.2615
15364SOL    HW257747   2.703   3.245   6.823  1.5732  1.0138 -0.1825
15365SOL     OW57748   5.105   9.184   5.939 -0.5672  0.3010 -0.1602
15365SOL    HW157749   5.191   9.132   5.931 -0.5164  0.2599  0.6656
15365SOL    HW257750   5.056   9.156   6.021 -0.6389  1.4151  0.1831
15366SOL     OW57751   7.089   0.460   3.624 -0.1762 -0.0613  0.1229
15366SOL    HW157752   7.090   0.550   3.666 -0.5859  0.1004 -0.2032
15366SOL    HW257753   6.998   0.443   3.585 -0.0192 -0.5010 -0.0524
15367SOL     OW57754   1.868   7.612   3.210 -0.3915  0.0309  0.0904
15367SOL    HW157755   1.824   7.693   3.170  2.5472  2.3550  1.3050
15367SOL    HW257756   1.906   7.555   3.137  1.5201  2.2026 -0.6944
15368SOL     OW57757   8.650   2.116   2.324 -0.4720  0.2806  0.2829
15368SOL    HW157758   8.621   2.141   2.416 -1.7376  1.4426 -0.4157
15368SOL    HW257759   8.721   2.179   2.293 -1.9505  1.5613 -0.5520
15369SOL     OW57760   5.228   8.760   4.521 -0.2538  0.0626  0.6213
15369SOL    HW157761   5.147   8.805   4.483 -1.2599 -2.5356 -0.4282
15369SOL    HW257762   5.230   8.772   4.620 -0.8814  1.7501  0.4494
15370SOL     OW57763   0.715   1.411   3.452  0.0972  0.2277 -0.0647
15370SOL    HW157764   0.636   1.470   3.467  0.9889  1.2382  0.7473
15370SOL    HW257765   0.711   1.373   3.359 -2.1618 -1.0086  0.5165
15371SOL     OW57766   1.755   2.375   7.717 -0.1560 -0.1702 -0.5516
15371SOL    HW157767   1.816   2.418   7.784  0.2474  1.4333 -1.9224
15371SOL    HW257768   1.809   2.327   7.648 -0.5376 -0.6542 -0.5203
15372SOL     OW57769   4.581   5.099   7.163  0.6177  0.3774 -0.3829
15372SOL    HW157770   4.613   5.023   7.220  2.0644  0.3978 -1.1573
15372SOL    HW257771   4.490   5.077   7.127  0.7763 -0.7330 -0.1310
15373SOL     OW57772   5.096   9.013   7.289 -0.3104  0.3191  0.2557
15373SOL    HW157773   5.190   8.996   7.318 -0.3556 -1.1264 -0.3800
15373SOL    HW257774   5.056   9.086   7.344  0.2140 -1.0841  2.5788
15374SOL     OW57775   6.623   8.963   4.563 -0.2813  0.5164 -0.4381
15374SOL    HW157776   6.586   8.997   4.477 -0.4524 -0.6160 -0.8200
15374SOL    HW257777   6.557   8.902   4.606 -0.4934  1.6167  0.8565
15375SOL     OW57778   8.905   8.233   5.322  0.0176  0.2490 -0.2841
15375SOL    HW157779   9.002   8.209   5.333  0.1843  0.6193 -0.9374
15375SOL    HW257780   8.851   8.150   5.313  0.4631  0.0665 -1.4268
15376SOL     OW57781   3.104   5.982   6.635 -0.0412  0.3493  0.0120
15376SOL    HW157782   3.191   6.031   6.640  0.3892 -0.3064 -0.7961
15376SOL    HW257783   3.108   5.902   6.695  0.7088 -0.8573 -1.6047
15377SOL     OW57784   1.027   4.747   4.061  0.3261 -0.2273 -0.0875
15377SOL    HW157785   0.994   4.653   4.069 -0.7603  0.0338 -1.2408
15377SOL    HW257786   0.951   4.807   4.037  0.9071  1.0396  1.1447
15378SOL     OW57787   2.715   1.295   4.762  0.4270 -0.0420  0.4423
15378SOL    HW157788   2.755   1.383   4.735 -0.0453  0.1859  0.4835
15378SOL    HW257789   2.785   1.223   4.756  0.8755  0.3792  0.6433
15379SOL     OW57790   8.381   9.965   1.659 -0.0267  0.0614  0.1653
15379SOL    HW157791   8.403  10.063   1.650  0.1004 -0.0409 -0.7312
15379SOL    HW257792   8.307   9.942   1.595 -0.4059 -0.3241  0.7417
15380SOL     OW57793   6.390   7.485   4.905 -0.4631  0.1176 -0.2385
15380SOL    HW157794   6.438   7.429   4.973 -1.4878  0.7484  1.0228
15380SOL    HW257795   6.296   7.499   4.934 -1.5591 -1.3925 -2.8663
15381SOL     OW57796   0.654   1.003   1.266 -0.0515 -0.2176 -0.0468
15381SOL    HW157797   0.624   0.960   1.180  1.5073  0.2890 -0.8517
15381SOL    HW257798   0.753   0.992   1.277 -0.2208 -0.2201  1.6667
15382SOL     OW57799   2.886   2.774   5.129 -0.4462  0.8034 -0.3179
15382SOL    HW157800   2.854   2.693   5.178  1.2527  1.2524  1.6245
15382SOL    HW257801   2.835   2.855   5.159  0.8134  1.1309  0.9895
15383SOL     OW57802   2.422   9.138   3.641 -0.2410  0.0771 -0.2338
15383SOL    HW157803   2.514   9.168   3.664  0.4939  0.3855 -3.3122
15383SOL    HW257804   2.402   9.052   3.687  0.6823  1.1800  2.2904
15384SOL     OW57805   6.316   9.778   1.746  0.1326  0.1166 -1.0060
15384SOL    HW157806   6.245   9.723   1.703 -0.4996  0.5033 -0.4741
15384SOL    HW257807   6.273   9.845   1.807  1.0314 -0.7737  0.6181
15385SOL     OW57808   7.737   7.480   6.171  0.2982 -0.5984  0.1000
15385SOL    HW157809   7.743   7.385   6.140 -2.5651 -0.6238 -0.5088
15385SOL    HW257810   7.809   7.533   6.128  1.0769 -2.2103 -0.6504
15386SOL     OW57811   1.043   7.272   2.441 -0.3044 -0.1592 -0.2867
15386SOL    HW157812   1.045   7.176   2.413 -0.5050 -0.2101 -0.1331
15386SOL    HW257813   1.090   7.328   2.373  2.3606 -0.7132  1.0265
15387SOL     OW57814   1.165   5.103   5.307 -0.1672 -0.5633  0.2247
15387SOL    HW157815   1.226   5.030   5.277 -1.0554 -0.7396 -1.2042
15387SOL    HW257816   1.193   5.135   5.398  0.8188 -1.9961  0.4429
15388SOL     OW57817   5.568   1.682   0.058 -0.3308 -0.5188 -0.3958
15388SOL    HW157818   5.618   1.729   0.131 -3.4892  0.1602  1.4097
15388SOL    HW257819   5.566   1.584   0.077 -0.2313 -0.4704 -0.1288
15389SOL     OW57820   8.954   1.861   4.895  0.1086  0.1099  0.2691
15389SOL    HW157821   8.856   1.866   4.877  0.4014  1.1780 -1.1329
15389SOL    HW257822   9.002   1.833   4.812  0.7391 -3.6267  1.7761
15390SOL     OW57823   3.928   6.910   2.384  0.3397  0.0018 -0.3675
15390SOL    HW157824   3.992   6.939   2.455 -0.7232 -0.8188  0.9379
15390SOL    HW257825   3.837   6.897   2.423 -0.0851 -1.2298 -1.7076
15391SOL     OW57826   0.537   6.075   0.942 -0.3034 -0.2901 -0.1746
15391SOL    HW157827   0.476   6.107   0.869 -0.7201  1.2890  0.8423
15391SOL    HW257828   0.585   6.153   0.983 -1.4160 -0.9081  2.4303
15392SOL     OW57829   6.099   9.550   4.762 -0.8137  0.3585  0.1905
15392SOL    HW157830   6.019   9.494   4.785 -0.9338  1.0723  1.5953
15392SOL    HW257831   6.179   9.517   4.813 -0.5974  0.6625  0.0508
15393SOL     OW57832   2.182   7.347   4.218 -0.4359  0.3158  0.2969
15393SOL    HW157833   2.154   7.267   4.165 -0.5550  0.5885 -0.0592
15393SOL    HW257834   2.248   7.320   4.288  0.7700  0.1740 -0.8781
15394SOL     OW57835   1.330   2.676   0.703  0.6485 -0.5883  0.0339
15394SOL    HW157836   1.380   2.747   0.654 -1.8677  0.3864 -1.2049
15394SOL    HW257837   1.362   2.586   0.672  2.6948 -0.0131  0.4079
15395SOL     OW57838   8.602   9.691   7.850  0.8703  0.0027  0.3853
15395SOL    HW157839   8.585   9.762   7.919 -1.0039  1.1956 -1.2720
15395SOL    HW257840   8.550   9.609   7.872  1.3412 -0.1062  1.1152
15396SOL     OW57841   7.963   9.922   3.776 -0.0774  0.1487 -0.3786
15396SOL    HW157842   8.019   9.932   3.695 -0.3017  1.3855 -0.3893
15396SOL    HW257843   7.871   9.891   3.750 -0.3080  1.0457 -0.6562
15397SOL     OW57844   9.338   8.507   5.731  0.5294  0.1868 -0.8034
15397SOL    HW157845   9.381   8.510   5.641 -0.2938  1.0177 -1.1737
15397SOL    HW257846   9.239   8.494   5.720  0.6828 -2.0431  0.0413
15398SOL     OW57847   1.588   1.367   4.264  0.2766 -0.1533  0.2360
15398SOL    HW157848   1.614   1.277   4.229 -2.2809 -0.4496 -1.0085
15398SOL    HW257849   1.660   1.401   4.325  1.4832 -2.8243  0.3782
15399SOL     OW57850   0.640   6.281   1.100 -0.6593 -0.4013 -0.1143
15399SOL    HW157851   0.588   6.248   1.179 -0.3246 -1.6032 -0.3799
15399SOL    HW257852   0.714   6.341   1.130 -1.8295  0.8394  0.3155
15400SOL     OW57853   9.478   0.853   1.498  0.1339 -0.1899  0.1215
15400SOL    HW157854   9.401   0.891   1.549  1.7571  0.8371  1.8890
15400SOL    HW257855   9.522   0.782   1.552  1.0162 -0.1019 -0.4629
15401SOL     OW57856   5.411   9.915   6.412  0.2814  0.1541  0.4416
15401SOL    HW157857   5.344   9.988   6.427  0.4436  0.7837 -1.6847
15401SOL    HW257858   5.371   9.828   6.439 -2.3680  0.1674 -2.9759
15402SOL     OW57859   1.106   2.861   2.112 -0.1627 -0.9151 -0.4262
15402SOL    HW157860   1.127   2.784   2.173 -0.0926 -1.2418 -0.8615
15402SOL    HW257861   1.170   2.862   2.036 -0.7715 -1.0063 -0.9452
15403SOL     OW57862   1.089   1.080   4.568 -0.4660  0.0573 -0.1670
15403SOL    HW157863   1.061   1.130   4.650 -0.2251  1.3158 -0.8483
15403SOL    HW257864   1.170   1.025   4.589  0.1300  1.0652  0.2203
15404SOL     OW57865   2.524   7.561   8.119  0.5489  0.0810  0.4430
15404SOL    HW157866   2.447   7.586   8.060 -1.5536 -0.8031  2.7300
15404SOL    HW257867   2.566   7.476   8.085 -0.5472 -0.3460  0.1453
15405SOL     OW57868   0.313   2.866   2.576  0.4936  0.2586  0.5870
15405SOL    HW157869   0.344   2.950   2.530  0.1151 -0.2780 -0.6795
15405SOL    HW257870   0.216   2.875   2.599  0.9055  0.8790  2.1034
15406SOL     OW57871   8.836   7.026   3.789  0.1589  0.0409 -0.5188
15406SOL    HW157872   8.847   7.038   3.690  0.3099 -2.4990 -0.8586
15406SOL    HW257873   8.863   6.933   3.814 -0.6961  0.3835  1.7997
15407SOL     OW57874   7.546   3.995   5.876 -0.1352 -0.1287  0.5482
15407SOL    HW157875   7.624   4.032   5.825  0.8715 -0.9725  1.4662
15407SOL    HW257876   7.562   3.899   5.897 -1.6649 -0.4564  0.3084
15408SOL     OW57877   2.308   3.942   6.225  0.5652  0.8847  0.4733
15408SOL    HW157878   2.323   3.872   6.294  0.3710 -0.0313 -0.4015
15408SOL    HW257879   2.251   4.015   6.263 -0.9883 -0.4498  0.7604
15409SOL     OW57880   3.594   6.583   2.703 -0.1289  0.0171  0.4910
15409SOL    HW157881   3.534   6.658   2.677  0.5796  0.4216 -0.0134
15409SOL    HW257882   3.667   6.618   2.763 -0.2063 -0.4030  0.8350
15410SOL     OW57883   1.254   8.317   5.499 -0.3667 -0.3736  0.2671
15410SOL    HW157884   1.270   8.251   5.426 -0.2876 -0.4596  0.3612
15410SOL    HW257885   1.250   8.409   5.461  0.9379 -0.2927  0.3223
15411SOL     OW57886   1.675   4.309   0.670 -0.0784  0.0230 -0.1085
15411SOL    HW157887   1.627   4.279   0.752  0.7372  1.8062  1.0514
15411SOL    HW257888   1.761   4.258   0.662 -0.4856 -0.6529 -0.2663
15412SOL     OW57889   7.926   4.995   0.087 -0.4056 -0.3335  0.3808
15412SOL    HW157890   7.918   4.925   0.017 -0.5732 -1.1652  1.2203
15412SOL    HW257891   7.958   4.954   0.172  1.8422  1.0194  0.2226
15413SOL     OW57892   0.433   9.748   7.294 -0.4901 -0.3875  0.2197
15413SOL    HW157893   0.479   9.833   7.318 -1.2666  0.3099 -0.7219
15413SOL    HW257894   0.479   9.671   7.339  0.5971  0.4620  0.5727
15414SOL     OW57895   9.611   0.984   6.220 -0.0861  0.1466 -0.0727
15414SOL    HW157896   9.707   0.957   6.209  0.1962  0.9587  0.3683
15414SOL    HW257897   9.568   0.996   6.131  0.5273  0.8551 -0.2731
15415SOL     OW57898   9.208   2.357   2.069 -0.0067 -0.6182  0.2540
15415SOL    HW157899   9.209   2.305   2.155 -0.0804  0.6051  1.0041
15415SOL    HW257900   9.282   2.424   2.070  1.8089 -2.5137 -1.8534
15416SOL     OW57901   7.155   1.318   5.767  0.2746  0.2061 -0.5108
15416SOL    HW157902   7.246   1.359   5.763  0.5773 -0.1331  2.0813
15416SOL    HW257903   7.117   1.330   5.858 -2.0980 -0.1041 -1.4231
15417SOL     OW57904   3.234   1.117   7.200  0.4249  0.1773  0.2448
15417SOL    HW157905   3.210   1.212   7.182 -0.5483  0.1945  1.5485
15417SOL    HW257906   3.154   1.068   7.234  1.2352 -0.8071  0.7678
15418SOL     OW57907   2.067   1.990   3.142 -0.2821  0.4362 -0.4037
15418SOL    HW157908   1.977   2.007   3.183 -0.6619 -2.1237 -0.0855
15418SOL    HW257909   2.055   1.934   3.060  1.0477 -0.0860 -0.2473
15419SOL     OW57910   6.405   8.910   2.904 -0.2837 -0.7476  0.5339
15419SOL    HW157911   6.414   8.973   2.827  0.8349  0.1171  1.3640
15419SOL    HW257912   6.341   8.948   2.971  0.0383 -0.7024  0.8192
15420SOL     OW57913   4.101   6.971   2.566 -0.1938 -0.0740 -0.3971
15420SOL    HW157914   4.058   7.019   2.642 -0.1278 -0.0504 -0.3746
15420SOL    HW257915   4.196   6.950   2.589  0.5030  1.8951 -1.3239
15421SOL     OW57916   8.154   1.880   4.551  0.0307 -0.1725 -0.5886
15421SOL    HW157917   8.236   1.849   4.600  0.0036  2.6117  1.3507
15421SOL    HW257918   8.123   1.809   4.489  3.2341 -1.7459 -0.4746
15422SOL     OW57919   0.772   3.591   6.588 -0.3183  0.0517  0.2998
15422SOL    HW157920   0.794   3.532   6.667 -0.1616  0.6704  0.7205
15422SOL    HW257921   0.705   3.660   6.617 -0.4570  0.1184 -0.1836
15423SOL     OW57922   0.700   4.353   1.616  0.0098  0.2752 -0.1596
15423SOL    HW157923   0.709   4.445   1.655 -2.2435  0.1488  0.7324
15423SOL    HW257924   0.660   4.360   1.525 -0.5911  0.1654  0.0917
15424SOL     OW57925   5.850   7.763   3.417 -0.2696 -0.0992 -0.0465
15424SOL    HW157926   5.824   7.796   3.326  1.0716  1.0772 -0.0344
15424SOL    HW257927   5.934   7.708   3.409 -0.8823 -1.0866  0.3129
15425SOL     OW57928   6.885   1.186   4.551 -0.0111  1.0828 -0.0929
15425SOL    HW157929   6.910   1.093   4.577  0.4697  1.3523  0.4121
15425SOL    HW257930   6.789   1.188   4.524  0.4621  0.0732 -1.9063
15426SOL     OW57931   2.016   6.149   6.274  0.0031 -0.0542  0.0944
15426SOL    HW157932   2.011   6.166   6.176 -0.7216  0.7471  0.2691
15426SOL    HW257933   2.108   6.172   6.307 -0.1592  0.9744 -0.1568
15427SOL     OW57934   9.199   7.359   7.978  0.0613 -0.4087 -0.4087
15427SOL    HW157935   9.106   7.396   7.983 -1.1617 -3.3483 -0.0171
15427SOL    HW257936   9.198   7.275   7.923  2.4766 -0.5254 -0.3218
15428SOL     OW57937   7.594   0.144   3.826  0.3586  0.1922 -0.4603
15428SOL    HW157938   7.505   0.109   3.800  1.4560 -2.3246 -0.9189
15428SOL    HW257939   7.605   0.139   3.925  0.7469 -1.3996 -0.5733
15429SOL     OW57940   2.319   8.409   5.472  0.0989  0.3175  0.5152
15429SOL    HW157941   2.252   8.435   5.402 -0.1587 -1.1276  0.2085
15429SOL    HW257942   2.387   8.348   5.431  0.8901  0.7775  1.1305
15430SOL     OW57943   0.511   0.198   1.514  0.0681  0.1254 -1.3672
15430SOL    HW157944   0.586   0.141   1.480  0.8402  0.5378 -0.3658
15430SOL    HW257945   0.517   0.288   1.471 -0.7867 -0.3317 -2.4758
15431SOL     OW57946   8.808   9.857   2.392  0.2921 -0.2620  0.0557
15431SOL    HW157947   8.755   9.855   2.477  0.4198 -0.4922  0.1313
15431SOL    HW257948   8.853   9.769   2.380  0.9584  0.0607  0.1802
15432SOL     OW57949   0.780   3.192   3.952 -0.1838 -0.3841  0.1698
15432SOL    HW157950   0.718   3.145   4.015 -0.9521  1.4729  0.8383
15432SOL    HW257951   0.750   3.287   3.940  1.2898 -0.0644 -1.1970
15433SOL     OW57952   0.128   6.591   7.492  0.0030 -0.4018  0.2330
15433SOL    HW157953   0.156   6.558   7.402  1.0936 -1.7923  1.0612
15433SOL    HW257954   0.198   6.652   7.528  0.4947 -1.3788  0.9537
15434SOL     OW57955   1.191   7.776   6.891 -0.0509  0.3124  0.3944
15434SOL    HW157956   1.284   7.784   6.856  0.7168 -1.2513  2.0269
15434SOL    HW257957   1.178   7.836   6.969 -0.3487  0.3638  0.3073
15435SOL     OW57958   1.604   3.848   0.072 -0.1962 -0.4747 -0.1654
15435SOL    HW157959   1.529   3.912   0.091 -0.2242 -0.6826  0.4466
15435SOL    HW257960   1.606   3.827  -0.025 -1.6655 -1.3788 -0.0111
15436SOL     OW57961   3.175   3.425   1.700 -0.3679  0.4812 -0.2411
15436SOL    HW157962   3.118   3.345   1.719 -0.8835  0.9431  0.1788
15436SOL    HW257963   3.204   3.467   1.786  1.2515 -0.1907 -0.4466
15437SOL     OW57964   2.711   0.490   1.376  0.1218 -0.3534  0.0823
15437SOL    HW157965   2.764   0.574   1.360 -0.0243 -0.3954 -0.6008
15437SOL    HW257966   2.698   0.442   1.290  1.1164 -1.6277  0.6205
15438SOL     OW57967   9.073   1.645   6.906  0.7319 -0.2852 -0.5003
15438SOL    HW157968   9.064   1.744   6.905 -0.0550 -0.3513 -0.0922
15438SOL    HW257969   9.149   1.619   6.966 -0.2074 -0.0170  0.8152
15439SOL     OW57970   7.793   9.355   8.157  0.0232 -0.1492  0.7543
15439SOL    HW157971   7.703   9.323   8.128  0.5679 -0.7430 -0.3255
15439SOL    HW257972   7.856   9.352   8.079  0.6438  1.5278  1.1692
15440SOL     OW57973   4.387   6.614   3.904 -0.4433 -0.9582  0.3019
15440SOL    HW157974   4.350   6.521   3.893 -2.9424 -0.0097  0.5285
15440SOL    HW257975   4.457   6.612   3.976 -1.1893 -2.4850  1.0350
15441SOL     OW57976   8.515   6.985   4.328 -0.7272 -0.2716  0.0535
15441SOL    HW157977   8.437   6.992   4.265 -0.0088  1.4567 -0.6732
15441SOL    HW257978   8.521   7.069   4.382  1.7536  0.4066 -1.2262
15442SOL     OW57979   6.364   7.984   4.611 -0.4970  0.3122  0.5231
15442SOL    HW157980   6.346   7.915   4.681 -0.4364  1.8362  2.0688
15442SOL    HW257981   6.463   7.989   4.595 -0.5855 -0.7750 -0.4678
15443SOL     OW57982   5.228   0.334   1.197 -0.4988 -0.4339 -0.2466
15443SOL    HW157983   5.229   0.255   1.258  2.7752 -1.4901 -1.5779
15443SOL    HW257984   5.322   0.361   1.175 -1.5789  0.9781 -3.4255
15444SOL     OW57985   2.491   1.623   3.154  1.2107  0.2954 -0.4483
15444SOL    HW157986   2.523   1.717   3.140 -0.2304  0.4654 -2.8996
15444SOL    HW257987   2.529   1.563   3.084 -0.9722 -0.1624 -1.2953
15445SOL     OW57988   1.549   1.398   6.750 -0.2287  0.1647  0.0407
15445SOL    HW157989   1.469   1.425   6.696 -0.6057  0.2602  0.6364
15445SOL    HW257990   1.600   1.480   6.778 -0.0312  0.1153 -0.1722
15446SOL     OW57991   8.287   3.425   1.202 -0.3663  0.1844  0.5972
15446SOL    HW157992   8.319   3.401   1.294  0.6498  0.0462  0.2153
15446SOL    HW257993   8.272   3.523   1.197  2.5528  0.6661  0.0407
15447SOL     OW57994   1.483   6.673   3.471  0.6141 -0.4499 -0.0933
15447SOL    HW157995   1.487   6.610   3.394 -0.5412 -3.7560  2.4508
15447SOL    HW257996   1.555   6.650   3.537 -0.5327  0.1594  1.3980
15448SOL     OW57997   2.131   1.780   3.579 -0.1563 -0.2402 -0.3874
15448SOL    HW157998   2.108   1.857   3.638 -0.1914  0.2290 -1.0164
15448SOL    HW257999   2.215   1.737   3.613 -1.1676 -1.1017  1.0818
15449SOL     OW58000   0.136   8.012   7.836 -0.3719 -0.1908  0.3447
15449SOL    HW158001   0.124   7.915   7.856 -1.2694 -0.1384  0.0963
15449SOL    HW258002   0.046   8.054   7.824  0.0450  0.4568 -0.5388
15450SOL     OW58003   7.462   9.138   2.820  0.1725  0.1789  0.2470
15450SOL    HW158004   7.409   9.076   2.762  0.7590  0.2601 -0.3806
15450SOL    HW258005   7.466   9.228   2.777  2.1690 -0.2437 -0.5018
15451SOL     OW58006   2.172   6.795   5.169  0.6242 -0.7737  0.7603
15451SOL    HW158007   2.082   6.775   5.208 -0.1469  0.2756 -0.4604
15451SOL    HW258008   2.196   6.723   5.104 -0.1608 -0.0977 -0.2889
15452SOL     OW58009   3.090   5.637   6.209 -0.1961 -0.4416  0.0204
15452SOL    HW158010   3.157   5.612   6.139  0.0240  1.5764 -0.4899
15452SOL    HW258011   3.003   5.661   6.166 -0.2632  0.1504  0.4836
15453SOL     OW58012   8.065   2.125   4.710 -0.7878 -0.6820  0.3645
15453SOL    HW158013   8.092   2.036   4.675 -0.8627 -0.1594 -1.0337
15453SOL    HW258014   8.124   2.150   4.787  0.8765 -0.8369 -0.8300
15454SOL     OW58015   3.494   6.848   6.301  0.1663  0.0027 -0.2144
15454SOL    HW158016   3.396   6.848   6.324  0.3371  0.1848  0.5457
15454SOL    HW258017   3.537   6.768   6.343  0.5882  0.6325  0.5741
15455SOL     OW58018   3.924   2.203   6.045  0.5586  0.0152 -0.2567
15455SOL    HW158019   3.903   2.211   6.142  0.4579  0.6641 -0.3266
15455SOL    HW258020   3.869   2.268   5.993 -0.5260 -1.4126 -0.9220
15456SOL     OW58021   0.700   6.240   3.031  0.8324  0.2344 -0.9346
15456SOL    HW158022   0.749   6.299   3.095  0.2065  0.9918 -1.1438
15456SOL    HW258023   0.660   6.163   3.080 -1.3320  1.8580 -0.0629
15457SOL     OW58024   0.241   1.282   1.643 -0.3797  0.4939  0.3711
15457SOL    HW158025   0.267   1.217   1.715 -0.4303 -0.1425 -0.1828
15457SOL    HW258026   0.323   1.311   1.593 -0.4686  0.1603  0.0327
15458SOL     OW58027   2.255   6.066   3.931 -0.4881 -0.0221  0.5264
15458SOL    HW158028   2.345   6.109   3.925 -0.0403 -0.9071  0.8266
15458SOL    HW258029   2.208   6.097   4.013 -0.5182  0.5432  0.3017
15459SOL     OW58030   3.691   7.546   3.068 -0.2754  0.3729 -0.0079
15459SOL    HW158031   3.680   7.636   3.111  0.4159  0.1571  0.6329
15459SOL    HW258032   3.782   7.510   3.089 -0.1070  0.0441 -1.2570
15460SOL     OW58033   9.021   9.736   0.386 -0.7002  0.2736  0.1685
15460SOL    HW158034   9.021   9.766   0.291 -0.6412  0.8972  0.3691
15460SOL    HW258035   9.034   9.636   0.389  1.9223  0.5626 -0.3836
15461SOL     OW58036   8.612   1.062   1.434 -0.5712  0.2392 -0.3078
15461SOL    HW158037   8.617   1.066   1.335  0.5640 -0.0091 -0.2692
15461SOL    HW258038   8.523   1.095   1.465 -0.1159  2.4266 -1.2806
15462SOL     OW58039   5.107   1.680   0.987 -0.0009 -0.2211 -0.5743
15462SOL    HW158040   5.165   1.749   0.943 -1.8406  1.8598  0.1908
15462SOL    HW258041   5.126   1.679   1.086 -2.1585  1.4740 -0.0843
15463SOL     OW58042   9.956   1.904   6.605  0.4887  0.5910 -0.5525
15463SOL    HW158043  10.028   1.848   6.563 -0.5747 -1.3076  0.1129
15463SOL    HW258044   9.875   1.903   6.547  0.7999  2.3132 -1.0480
15464SOL     OW58045   9.265   3.607   2.033 -0.1951 -0.1941 -0.1068
15464SOL    HW158046   9.283   3.687   1.976  2.4950 -1.5218 -1.1757
15464SOL    HW258047   9.308   3.619   2.122  0.3021 -0.4957 -0.3060
15465SOL     OW58048   0.304   9.153   0.020 -0.2217 -0.5388  0.0320
15465SOL    HW158049   0.369   9.092  -0.025 -1.1873 -0.1860 -1.8792
15465SOL    HW258050   0.210   9.125  -0.002 -0.7031  0.1480  1.1449
15466SOL     OW58051   1.406   4.446   6.243 -0.2670  0.3112 -0.2685
15466SOL    HW158052   1.463   4.528   6.241 -0.7656  0.7311  1.5003
15466SOL    HW258053   1.463   4.365   6.258  0.2077  0.3237 -1.8523
15467SOL     OW58054   4.194   9.768   5.723  0.4024 -0.9397 -0.6083
15467SOL    HW158055   4.131   9.735   5.794  3.8608  0.4374  3.2632
15467SOL    HW258056   4.169   9.861   5.697  0.1646 -0.8094  0.0817
15468SOL     OW58057   4.778   0.642   4.768  0.2127  0.4194  0.3337
15468SOL    HW158058   4.711   0.603   4.706  1.1426 -0.7411  0.0448
15468SOL    HW258059   4.752   0.736   4.790 -0.4382  0.6457 -1.3419
15469SOL     OW58060   2.084   0.735   2.007  0.2951  0.1773 -0.5701
15469SOL    HW158061   2.097   0.831   1.983 -0.3232  0.6374  0.8633
15469SOL    HW258062   2.171   0.686   1.999  1.3729  1.6128  1.9009
15470SOL     OW58063   6.031   1.118   4.465 -0.2644  0.0016  0.5788
15470SOL    HW158064   6.055   1.214   4.476  1.2265 -0.3598  0.6435
15470SOL    HW258065   6.013   1.077   4.554 -2.5210  0.6145  0.4172
15471SOL     OW58066   1.122   6.883   5.436  0.4758 -0.3716  0.3898
15471SOL    HW158067   1.088   6.921   5.521  0.6491 -0.1546  0.3638
15471SOL    HW258068   1.106   6.784   5.435  0.0342 -0.3035  0.4614
15472SOL     OW58069   1.434   8.530   7.077  0.0137  0.7113 -0.1719
15472SOL    HW158070   1.485   8.478   7.008  1.4503  1.5147  0.2747
15472SOL    HW258071   1.365   8.587   7.031 -0.5265 -0.4009 -0.7710
15473SOL     OW58072   7.193   6.941   4.454  0.3624 -0.0372  0.3398
15473SOL    HW158073   7.222   6.858   4.405 -0.1805  0.1801 -0.3523
15473SOL    HW258074   7.171   6.917   4.548  1.1028 -0.5178  0.3963
15474SOL     OW58075   5.087   2.798   1.090  0.1497 -0.2247  0.2928
15474SOL    HW158076   5.049   2.736   1.158 -1.5223 -0.4402 -0.8196
15474SOL    HW258077   5.026   2.877   1.079  0.2372 -0.3468 -1.1848
15475SOL     OW58078   2.022   2.044   5.020  0.1994 -0.2622 -0.6884
15475SOL    HW158079   1.926   2.021   5.030  0.4784 -0.7308  1.2543
15475SOL    HW258080   2.031   2.128   4.966 -1.3832  0.5355  0.2510
15476SOL     OW58081   1.341   2.580   1.975  0.0388  0.1679 -0.3387
15476SOL    HW158082   1.271   2.515   2.006  0.4749 -0.1987 -0.1113
15476SOL    HW258083   1.430   2.554   2.013  0.4708  0.0802 -1.3854
15477SOL     OW58084   2.521   1.642   4.572  0.1469  0.2800 -0.2409
15477SOL    HW158085   2.497   1.624   4.667 -0.7728 -0.7334 -0.6426
15477SOL    HW258086   2.437   1.649   4.517  0.6417  1.7589 -0.8212
15478SOL     OW58087   0.370   7.552   7.648 -0.2330  0.1400 -0.6172
15478SOL    HW158088   0.310   7.517   7.720 -0.5289  1.4186 -0.2304
15478SOL    HW258089   0.455   7.500   7.647 -0.7725 -0.7546 -0.2209
15479SOL     OW58090   5.122   6.454   1.196  0.3943 -0.3469  0.3761
15479SOL    HW158091   5.091   6.549   1.204 -0.5393 -0.6447  0.3627
15479SOL    HW258092   5.048   6.393   1.224  0.5012 -1.1150 -1.0103
15480SOL     OW58093   6.329   4.410   0.817 -0.3646  0.0260  0.2901
15480SOL    HW158094   6.342   4.316   0.849 -1.9101  0.0244  0.9694
15480SOL    HW258095   6.322   4.471   0.896 -1.0051  0.4793 -0.1105
15481SOL     OW58096   8.397   1.434   1.091  0.4183 -0.3444 -0.0705
15481SOL    HW158097   8.400   1.386   1.004  0.3100  1.0496 -0.8478
15481SOL    HW258098   8.365   1.528   1.077  3.1525  0.8162  1.0580
15482SOL     OW58099   8.147   2.872   3.054  0.7107 -0.1057  0.4283
15482SOL    HW158100   8.179   2.893   3.146 -1.6659  1.6222  0.9126
15482SOL    HW258101   8.125   2.958   3.006 -1.3676 -1.1352 -0.5105
15483SOL     OW58102   2.261   9.807   0.980  0.0952  0.1868 -0.7698
15483SOL    HW158103   2.220   9.727   1.025  1.6148  0.3961  1.0653
15483SOL    HW258104   2.328   9.776   0.913 -1.1692 -0.1093 -1.9053
15484SOL     OW58105   4.449   5.316   2.966  0.0601  0.3152  0.2813
15484SOL    HW158106   4.469   5.234   3.020 -0.4742  0.9427  1.4512
15484SOL    HW258107   4.517   5.325   2.893  2.2198  0.7192  2.2792
15485SOL     OW58108   0.480   0.676   1.177  0.1093 -0.6382 -0.6503
15485SOL    HW158109   0.384   0.687   1.202  0.0885 -2.1214 -0.0285
15485SOL    HW258110   0.497   0.582   1.148  1.9431 -1.2197  2.0037
15486SOL     OW58111   8.673   7.349   2.112 -0.0392  0.2763 -0.0271
15486SOL    HW158112   8.690   7.365   2.014 -1.3485  2.6386  0.0894
15486SOL    HW258113   8.707   7.427   2.165 -0.4135 -0.4391  1.2906
15487SOL     OW58114   7.003   1.721   4.783 -0.1929 -0.0646  0.0085
15487SOL    HW158115   7.040   1.778   4.857 -1.0217 -1.0747  1.2194
15487SOL    HW258116   6.963   1.638   4.821 -0.5421 -0.6555 -1.5943
15488SOL     OW58117   2.969   0.078   4.449 -0.5840 -0.5054 -0.5617
15488SOL    HW158118   2.930   0.107   4.536 -0.5792 -1.7166 -0.1372
15488SOL    HW258119   2.896   0.057   4.384 -0.5766  2.5953 -1.6275
15489SOL     OW58120   5.396   0.773   3.865  0.1124  0.8866  0.3741
15489SOL    HW158121   5.311   0.806   3.908 -1.0888 -2.4614  0.6720
15489SOL    HW258122   5.473   0.794   3.924 -0.5897  3.0048  0.6117
15490SOL     OW58123   1.130   7.819   8.180  0.2215 -0.9082  0.6470
15490SOL    HW158124   1.116   7.727   8.217  2.3297 -1.2401  0.6825
15490SOL    HW258125   1.199   7.866   8.235 -2.1007  1.3550  1.6994
15491SOL     OW58126   0.479   6.995   5.967 -0.1844  0.1418 -0.2020
15491SOL    HW158127   0.387   7.030   5.946 -0.6979 -2.1807 -2.0145
15491SOL    HW258128   0.472   6.916   6.028  0.4733 -1.0495 -1.6338
15492SOL     OW58129   2.181   2.007   8.028 -0.5296 -0.0654 -0.1565
15492SOL    HW158130   2.238   1.925   8.024 -1.8002 -1.0680  1.2623
15492SOL    HW258131   2.235   2.085   8.060  0.3134 -0.7361  0.0688
15493SOL     OW58132   8.692   2.247   4.207 -0.0825  0.0468  0.2031
15493SOL    HW158133   8.780   2.206   4.185 -0.4441 -0.8442  0.4323
15493SOL    HW258134   8.681   2.251   4.306  0.2375  1.3151  0.2078
15494SOL     OW58135   9.687   4.009   3.280 -0.2460 -0.0878  0.6653
15494SOL    HW158136   9.719   4.103   3.275  0.3217 -0.2530  1.1613
15494SOL    HW258137   9.673   3.983   3.375 -1.2673 -0.2196  0.4846
15495SOL     OW58138   3.994   5.461   3.697  0.4772 -0.0250 -0.1842
15495SOL    HW158139   4.009   5.506   3.784 -2.0648  0.5394  0.0023
15495SOL    HW258140   4.056   5.499   3.628  0.1385  1.9844  0.5763
15496SOL     OW58141   8.536   8.238   1.369  0.4077 -0.0219 -0.3993
15496SOL    HW158142   8.589   8.164   1.412  0.4233  0.5831  0.6353
15496SOL    HW258143   8.596   8.316   1.351  0.2091  0.0610 -0.6970
15497SOL     OW58144   9.575   8.509   0.399  0.0536  0.3031 -0.3684
15497SOL    HW158145   9.628   8.426   0.382  1.0605  0.6577  0.9562
15497SOL    HW258146   9.638   8.584   0.421 -0.9954  0.7175  1.2721
15498SOL     OW58147   7.205   3.064   1.049 -0.0669  0.0842 -0.4130
15498SOL    HW158148   7.164   2.994   1.107 -1.7749  0.7173 -0.8471
15498SOL    HW258149   7.139   3.095   0.981  0.8961  1.6064 -0.6870
15499SOL     OW58150   0.999   1.559   4.238  0.3285  0.1223  0.0848
15499SOL    HW158151   0.984   1.489   4.309 -2.5471  0.0986 -0.4664
15499SOL    HW258152   1.054   1.634   4.276 -0.1879 -0.4368  1.9959
15500SOL     OW58153   3.746   4.180   6.136  0.1242 -0.0860  0.0202
15500SOL    HW158154   3.669   4.233   6.099  1.2548  0.7645 -1.1705
15500SOL    HW258155   3.785   4.228   6.215  1.1015  0.8596 -1.0139
15501SOL     OW58156   7.836   3.251   0.153 -0.3153 -0.2315  0.6891
15501SOL    HW158157   7.786   3.253   0.067  1.0210 -0.3934 -0.0989
15501SOL    HW258158   7.785   3.198   0.221 -2.2306  1.3899  0.5466
15502SOL     OW58159   6.790   7.289   6.013  0.0791  0.3498 -0.2791
15502SOL    HW158160   6.703   7.293   6.064 -0.0147  0.2630 -0.4312
15502SOL    HW258161   6.831   7.199   6.024  0.4435  0.5783  0.2730
15503SOL     OW58162   3.223   8.689   4.772 -0.0364 -0.1777  0.8444
15503SOL    HW158163   3.224   8.603   4.721  0.6313 -0.0405  0.6237
15503SOL    HW258164   3.129   8.714   4.794 -0.3367 -0.1129 -0.5083
15504SOL     OW58165   2.009   7.182   5.131  0.3201  0.2210  0.0452
15504SOL    HW158166   2.094   7.154   5.087  0.4169  0.2611  0.2083
15504SOL    HW258167   2.019   7.178   5.230  0.8981  2.4162  0.1114
15505SOL     OW58168   3.457   5.684   3.120  0.3740 -0.3439  0.2675
15505SOL    HW158169   3.454   5.617   3.194  0.7600  0.4257  0.9963
15505SOL    HW258170   3.546   5.679   3.075  0.5429 -0.0762  0.5646
15506SOL     OW58171   2.213   8.731   1.878  0.2559  0.1913 -0.1900
15506SOL    HW158172   2.172   8.821   1.870 -1.5645 -0.7704 -2.0401
15506SOL    HW258173   2.293   8.736   1.939 -0.4326  2.8021  0.5533
15507SOL     OW58174   3.454   7.015   4.134 -0.3998  0.5812  0.5490
15507SOL    HW158175   3.442   6.918   4.154  2.9658  0.5355  2.8059
15507SOL    HW258176   3.420   7.069   4.211 -1.5824  1.1885 -0.3818
15508SOL     OW58177   3.278   8.022   5.712 -0.0654 -0.6216 -0.3891
15508SOL    HW158178   3.254   8.107   5.665 -0.1136 -0.0943  0.5703
15508SOL    HW258179   3.239   8.023   5.804  0.6278 -1.3268 -0.0851
15509SOL     OW58180   2.252   0.215   7.834  0.6146 -0.0906 -0.4107
15509SOL    HW158181   2.348   0.192   7.850  0.8703  0.6656 -0.8501
15509SOL    HW258182   2.236   0.311   7.855 -0.0762 -0.2385 -0.2269
15510SOL     OW58183   9.896   2.174   7.858 -0.5530 -0.3991  0.1206
15510SOL    HW158184   9.922   2.260   7.902 -1.9185 -0.2652  0.7013
15510SOL    HW258185   9.798   2.174   7.839 -0.2831 -1.1855 -1.3413
15511SOL     OW58186   1.622   4.609   0.764  1.1093 -0.5262  0.0875
15511SOL    HW158187   1.607   4.571   0.673  1.6381  0.3780 -0.3920
15511SOL    HW258188   1.534   4.630   0.806  0.8838  0.1820 -0.7111
15512SOL     OW58189   8.114   3.559   0.802  0.0820 -0.1049 -0.0131
15512SOL    HW158190   8.109   3.637   0.741 -0.7983  0.3499  0.6305
15512SOL    HW258191   8.209   3.526   0.808  0.4536  0.9273 -0.2525
15513SOL     OW58192   2.635   9.863   7.862 -0.1846 -0.6359  0.3080
15513SOL    HW158193   2.682   9.875   7.950  0.5960  0.1689 -0.2027
15513SOL    HW258194   2.685   9.914   7.791 -2.4664  1.2009 -0.0441
15514SOL     OW58195   2.988   3.114   6.876 -0.2812  0.2812 -0.5189
15514SOL    HW158196   2.900   3.125   6.830 -0.9315 -0.4094  0.5364
15514SOL    HW258197   2.991   3.172   6.957  0.0310 -0.0994 -0.2596
15515SOL     OW58198   7.910   6.028   0.449  0.0753  0.7816 -0.0472
15515SOL    HW158199   7.902   6.000   0.353  1.6924  0.5446 -0.1286
15515SOL    HW258200   7.889   6.125   0.458 -0.0921  0.7993 -0.6406
15516SOL     OW58201   2.576   1.302   5.484  0.0684 -0.3239 -0.3876
15516SOL    HW158202   2.676   1.304   5.493  0.0231 -0.5623  0.1587
15516SOL    HW258203   2.540   1.220   5.529 -0.1996 -1.2526 -2.2523
15517SOL     OW58204   1.010   0.741   3.994  0.3942 -0.4840  0.0068
15517SOL    HW158205   1.084   0.741   3.926  0.7879  1.7393  0.3699
15517SOL    HW258206   0.936   0.800   3.962  1.0037  1.3714  1.9057
15518SOL     OW58207   4.412   0.174   1.010  0.2946 -0.1565  0.1114
15518SOL    HW158208   4.436   0.209   1.101  0.3602 -0.2207  0.1184
15518SOL    HW258209   4.355   0.093   1.019  0.1696 -0.0716  0.0948
15519SOL     OW58210   2.150   5.752   4.251 -0.4298  0.2896 -0.3625
15519SOL    HW158211   2.156   5.778   4.347  0.4122 -0.7545 -0.1245
15519SOL    HW258212   2.063   5.705   4.235  0.2231 -1.1673  0.3005
15520SOL     OW58213   4.221   3.075   1.909  0.3162  0.2408  0.5316
15520SOL    HW158214   4.127   3.085   1.876  0.4971  0.1595 -0.0142
15520SOL    HW258215   4.282   3.127   1.849  0.5104  1.0622  1.4334
15521SOL     OW58216   0.674   5.984   0.496 -0.4179  0.0162  0.6332
15521SOL    HW158217   0.592   5.981   0.553 -0.6238  2.5825  0.4885
15521SOL    HW258218   0.652   6.024   0.407  1.1805  1.6612  0.9509
15522SOL     OW58219   9.729   7.035   6.974  0.2806  0.0117  0.3885
15522SOL    HW158220   9.652   7.075   7.023 -0.4269 -0.9702  0.1079
15522SOL    HW258221   9.752   6.946   7.014 -1.1757 -1.4180 -1.8363
15523SOL     OW58222   8.877   8.085   6.441  0.0251  0.1042  0.1021
15523SOL    HW158223   8.893   8.170   6.391  1.0960 -0.4959 -0.6010
15523SOL    HW258224   8.894   8.098   6.538 -0.7133  0.9225  0.1268
15524SOL     OW58225   1.811   9.443   3.001 -0.2259 -0.0215 -0.6742
15524SOL    HW158226   1.715   9.429   3.022  0.2868 -0.2411  1.6396
15524SOL    HW258227   1.820   9.514   2.931 -2.0337  0.6653 -0.2292
15525SOL     OW58228   3.836   7.839   4.498 -0.1777  0.2975  0.4317
15525SOL    HW158229   3.843   7.918   4.558 -0.2138  0.0269  0.7926
15525SOL    HW258230   3.808   7.869   4.407  1.9020  0.9506 -0.0045
15526SOL     OW58231   0.748   8.873   5.798  0.2610 -0.4963 -0.5845
15526SOL    HW158232   0.759   8.863   5.897  0.5500  0.7233 -0.4849
15526SOL    HW258233   0.761   8.969   5.773  0.3947 -0.8356 -1.8295
15527SOL     OW58234   5.275   9.266   4.647  0.8678 -0.1336 -0.2789
15527SOL    HW158235   5.330   9.324   4.586 -0.0043 -0.1573 -1.0945
15527SOL    HW258236   5.222   9.324   4.709  0.4505 -0.0757 -0.6920
15528SOL     OW58237   8.724   2.045   2.016 -0.0233 -0.0064 -0.2356
15528SOL    HW158238   8.624   2.045   2.029  0.1210  0.7005  0.9736
15528SOL    HW258239   8.752   2.135   1.982  0.0615 -0.6352 -1.9072
15529SOL     OW58240   0.681   4.437   6.805  0.7138 -0.2721 -0.1075
15529SOL    HW158241   0.612   4.489   6.854  0.8341  0.8052 -1.0807
15529SOL    HW258242   0.772   4.464   6.837  0.8006  0.6077 -1.1072
15530SOL     OW58243   5.171   8.588   6.299  0.0871 -0.2082  0.2025
15530SOL    HW158244   5.199   8.539   6.381 -0.7920 -1.0379  0.0197
15530SOL    HW258245   5.136   8.523   6.231 -0.2860  0.5805 -0.3747
15531SOL     OW58246   9.246   6.846   6.458 -0.2295 -0.1104 -0.3383
15531SOL    HW158247   9.294   6.777   6.511  0.7194  2.0894  1.7723
15531SOL    HW258248   9.153   6.815   6.438  1.1559 -3.2828 -2.1858
15532SOL     OW58249   1.376   3.431   8.076 -0.2360 -0.0608 -0.4335
15532SOL    HW158250   1.371   3.509   8.139 -1.8260 -0.0423 -0.5496
15532SOL    HW258251   1.471   3.418   8.046  0.6110 -0.3146  2.2580
15533SOL     OW58252   0.206   7.522   0.501  0.3272  0.4246  0.2064
15533SOL    HW158253   0.277   7.549   0.436  0.1753  0.3275 -0.0006
15533SOL    HW258254   0.152   7.447   0.462  0.4104  0.1772  0.5561
15534SOL     OW58255   3.284   5.577   6.025  0.2443  0.0460 -0.0698
15534SOL    HW158256   3.366   5.589   6.080  0.7169 -0.5014 -0.6539
15534SOL    HW258257   3.307   5.529   5.940 -0.6201  0.1609 -0.3743
15535SOL     OW58258   7.786   0.218   3.617  0.2792 -0.0194  0.0725
15535SOL    HW158259   7.865   0.230   3.678  1.3696  1.3551 -1.5517
15535SOL    HW258260   7.707   0.191   3.670  1.2956  0.8179  2.0712
15536SOL     OW58261   1.509   3.669   3.086  0.3588 -0.2673  0.4344
15536SOL    HW158262   1.563   3.735   3.138 -3.9159  1.8105  2.4204
15536SOL    HW258263   1.519   3.688   2.988  3.2876 -0.0656  0.7244
15537SOL     OW58264   8.361   2.522   4.392 -0.5958 -0.0621  0.3959
15537SOL    HW158265   8.327   2.432   4.419 -0.4603 -1.1564 -2.8424
15537SOL    HW258266   8.459   2.517   4.375 -0.6683  0.5958 -0.2198
15538SOL     OW58267   9.565   8.063   1.302 -0.0697  0.1660 -0.3469
15538SOL    HW158268   9.561   7.979   1.248 -2.1205  0.6823 -1.0282
15538SOL    HW258269   9.626   8.049   1.380 -0.1779 -1.8658 -0.5970
15539SOL     OW58270   6.960   0.926   0.693 -0.2016 -0.1028  0.4221
15539SOL    HW158271   7.041   0.923   0.751 -0.0742 -0.7328  0.2219
15539SOL    HW258272   6.880   0.898   0.746 -0.4026  1.1588  0.7968
15540SOL     OW58273   1.368   0.728   0.991  0.6737  0.7038 -0.3339
15540SOL    HW158274   1.291   0.772   1.038  0.9952 -1.8058  2.6758
15540SOL    HW258275   1.450   0.785   1.000  0.7489  0.2458  2.2935
15541SOL     OW58276   2.230   3.369   0.660 -0.4333 -0.4639  0.1400
15541SOL    HW158277   2.301   3.436   0.636  0.5196 -0.7733  1.9800
15541SOL    HW258278   2.224   3.300   0.589  1.1016 -0.4104 -0.0561
15542SOL     OW58279   7.355   9.575   3.198 -0.6201 -0.5294  0.3529
15542SOL    HW158280   7.394   9.667   3.190  1.1932 -1.2734  0.6366
15542SOL    HW258281   7.332   9.541   3.106  0.3801 -0.5105  0.0926
15543SOL     OW58282   5.554   7.530   4.730 -0.4239  0.4190 -0.8416
15543SOL    HW158283   5.588   7.444   4.767 -2.1528  0.4762  0.9551
15543SOL    HW258284   5.521   7.588   4.805  2.5666  3.5203 -1.7785
15544SOL     OW58285   3.837   2.836   1.756 -0.7355  0.2766  0.1508
15544SOL    HW158286   3.828   2.897   1.677  0.2614  2.1306  1.4366
15544SOL    HW258287   3.830   2.741   1.725 -0.5127  0.9743 -2.1536
15545SOL     OW58288   1.530   9.245   5.205  0.3109  0.0946  0.3092
15545SOL    HW158289   1.456   9.201   5.256  0.9146  1.3572  2.3190
15545SOL    HW258290   1.514   9.233   5.107 -2.5695  0.3960  0.7057
15546SOL     OW58291   3.249   6.128   8.146  0.2220 -0.9018  0.5069
15546SOL    HW158292   3.315   6.086   8.084 -1.0792 -0.0685 -1.5041
15546SOL    HW258293   3.290   6.208   8.189  1.0951 -1.3896  0.5723
15547SOL     OW58294   9.940   7.819   6.570 -0.6460  0.2596 -0.5592
15547SOL    HW158295  10.031   7.777   6.566 -0.3629  0.5740  1.8681
15547SOL    HW258296   9.921   7.866   6.484  1.3295 -0.1196 -1.2309
15548SOL     OW58297   1.423   1.799   0.862 -0.7221  0.1207  0.6367
15548SOL    HW158298   1.388   1.775   0.953 -2.7809  1.1418  0.1286
15548SOL    HW258299   1.419   1.719   0.803  0.0154 -0.3761  1.2442
15549SOL     OW58300   8.875   7.500   1.030  0.1166 -0.3736  0.4704
15549SOL    HW158301   8.792   7.448   1.009  1.0875 -1.2775 -1.2061
15549SOL    HW258302   8.882   7.514   1.129 -1.6030 -0.9976  0.6914
15550SOL     OW58303   3.356   8.757   5.157  0.5576  0.2049  0.3477
15550SOL    HW158304   3.448   8.746   5.119  1.0391 -1.9487  2.0262
15550SOL    HW258305   3.322   8.668   5.187 -1.4406  1.2298  1.2115
15551SOL     OW58306   2.109   7.448   3.754  0.0398 -0.3016  0.3015
15551SOL    HW158307   2.149   7.470   3.843  0.7456  1.1202 -0.3494
15551SOL    HW258308   2.165   7.379   3.708  0.4156 -0.0693  0.4096
15552SOL     OW58309   5.214   9.708   3.581 -0.3644  0.5643  0.3092
15552SOL    HW158310   5.199   9.782   3.516  2.6643 -0.1456 -1.2446
15552SOL    HW258311   5.267   9.741   3.659  0.2446  0.2511  0.0322
15553SOL     OW58312   6.933   8.667   3.806 -0.7561  0.1815  0.2615
15553SOL    HW158313   6.996   8.660   3.729 -0.1855  1.3677  0.6056
15553SOL    HW258314   6.849   8.617   3.785  0.4698 -1.8008 -0.0139
15554SOL     OW58315   0.652   7.691   5.575 -0.1514  0.1992  0.2721
15554SOL    HW158316   0.610   7.752   5.507  1.2445  0.6923 -0.1611
15554SOL    HW258317   0.706   7.621   5.527  0.2290  0.0929  0.8531
15555SOL     OW58318   8.403   4.508   0.720  0.4319 -0.3393 -0.1135
15555SOL    HW158319   8.372   4.481   0.810  0.7938  0.4278  0.2470
15555SOL    HW258320   8.434   4.428   0.670  0.4090 -0.7416  0.5166
15556SOL     OW58321   8.292   3.503   5.331 -0.2712 -0.6866 -0.2279
15556SOL    HW158322   8.194   3.489   5.345 -0.3133 -0.0308  0.1670
15556SOL    HW258323   8.332   3.544   5.414  0.7053 -2.7506  0.3503
15557SOL     OW58324   4.929   6.054   1.875  0.1052 -0.0591 -0.5990
15557SOL    HW158325   4.972   5.971   1.840  0.3161 -0.1813 -0.0497
15557SOL    HW258326   4.940   6.059   1.974  1.0050  1.1626 -0.7527
15558SOL     OW58327   9.550   8.389   5.904 -0.0221  0.4556 -0.3598
15558SOL    HW158328   9.471   8.418   5.851  0.4878  2.0976 -0.2572
15558SOL    HW258329   9.622   8.358   5.842 -0.1592  0.4729 -0.5295
15559SOL     OW58330   1.202   7.116   4.884  0.4907 -0.9509  0.2063
15559SOL    HW158331   1.276   7.146   4.943 -0.0255 -0.7567  0.7653
15559SOL    HW258332   1.222   7.141   4.789  0.1041  1.0972  0.6474
15560SOL     OW58333   2.101   8.116   6.211  0.0456  0.1354 -0.1422
15560SOL    HW158334   2.141   8.029   6.185  1.0823  0.4595  0.3455
15560SOL    HW258335   2.049   8.105   6.296  1.0786  0.2139  0.5116
15561SOL     OW58336   0.841   0.950   3.866  0.1207  0.5369  0.1000
15561SOL    HW158337   0.750   0.990   3.866  0.4478  1.2863 -1.2237
15561SOL    HW258338   0.905   1.011   3.819  1.2666 -0.0748  0.8367
15562SOL     OW58339   1.104   2.053   0.413  0.2885 -0.2503 -0.5635
15562SOL    HW158340   1.081   2.066   0.510  0.9248 -0.3928 -0.3915
15562SOL    HW258341   1.033   2.095   0.357  0.4481  0.7657 -0.0244
15563SOL     OW58342   2.422   6.002   3.391  0.3710  0.3803  0.6919
15563SOL    HW158343   2.375   6.069   3.448 -1.5577 -0.2282 -0.1563
15563SOL    HW258344   2.520   6.006   3.410  0.3769  3.7069  0.4123
15564SOL     OW58345   7.749   8.444   6.598 -0.5645 -0.1474  0.1893
15564SOL    HW158346   7.673   8.508   6.592 -0.2497  0.6960  3.9439
15564SOL    HW258347   7.834   8.491   6.573 -0.8426 -0.3010 -1.1209
15565SOL     OW58348   1.072   9.522   0.868  0.5687  0.0638  0.1332
15565SOL    HW158349   1.092   9.536   0.771  1.6323 -0.0581  0.3316
15565SOL    HW258350   1.069   9.610   0.914  2.0793  0.0088  0.3714
15566SOL     OW58351   4.855   5.755   2.636  0.2844 -0.3928 -0.0377
15566SOL    HW158352   4.868   5.764   2.734 -0.4275 -0.8059  0.0943
15566SOL    HW258353   4.891   5.837   2.590  2.1626 -0.9394  0.4118
15567SOL     OW58354   0.012   5.546   0.674 -0.1343 -0.0593 -0.9731
15567SOL    HW158355  -0.044   5.465   0.657  1.1119 -0.9459 -0.9373
15567SOL    HW258356   0.077   5.559   0.599  0.5541  0.1421 -0.3513
15568SOL     OW58357   4.648   9.071   4.287 -0.6692  0.1474 -0.0696
15568SOL    HW158358   4.687   9.002   4.348 -0.9370  0.7277  0.7616
15568SOL    HW258359   4.575   9.121   4.335 -0.1789  1.3030 -0.5139
15569SOL     OW58360   3.820   6.043   4.023 -0.3194 -0.3024 -0.5425
15569SOL    HW158361   3.906   6.043   4.073  1.0429 -0.0404 -2.8210
15569SOL    HW258362   3.813   6.127   3.968 -1.4333 -0.9198 -1.3669
15570SOL     OW58363   5.434   7.253   5.041 -0.0174 -0.1332 -0.1039
15570SOL    HW158364   5.507   7.294   5.095 -0.6442  1.0482 -0.1490
15570SOL    HW258365   5.472   7.217   4.956  0.9256 -1.7563  0.9585
15571SOL     OW58366   1.146   8.803   3.455  0.5777 -0.3048  0.3625
15571SOL    HW158367   1.214   8.873   3.435 -0.7883  1.9051  3.0673
15571SOL    HW258368   1.181   8.741   3.526 -0.1734  0.7839  1.6978
15572SOL     OW58369   6.743   7.621   3.593 -0.5053 -0.3531  0.5145
15572SOL    HW158370   6.739   7.579   3.502 -0.8848 -0.5559  0.6258
15572SOL    HW258371   6.719   7.717   3.586  3.0561  0.5775 -0.1896
15573SOL     OW58372   4.618   3.141   0.844 -0.4747  0.7245  0.5794
15573SOL    HW158373   4.600   3.165   0.939 -0.9624  1.8209  0.2220
15573SOL    HW258374   4.704   3.091   0.837 -1.5232 -1.2843  1.8626
15574SOL     OW58375   9.595   9.339   3.705 -0.0836  0.1007 -0.4845
15574SOL    HW158376   9.597   9.320   3.607 -1.9484  4.9233 -1.6184
15574SOL    HW258377   9.501   9.336   3.738  0.2202  1.2255  0.5251
15575SOL     OW58378   5.178   0.299   4.280  0.2255 -0.4129 -0.0780
15575SOL    HW158379   5.114   0.332   4.209  0.1563  0.3522  0.3291
15575SOL    HW258380   5.254   0.252   4.236  0.6608  0.8695 -0.7376
15576SOL     OW58381   4.418   6.621   2.287  0.0936  0.4760  0.5164
15576SOL    HW158382   4.462   6.572   2.362  0.0354  1.0215  0.9097
15576SOL    HW258383   4.324   6.588   2.276  1.0727 -1.8425 -1.3817
15577SOL     OW58384   0.675   9.601   3.385  0.1667  0.4595  0.1656
15577SOL    HW158385   0.670   9.615   3.286 -1.1939  0.1458  0.1762
15577SOL    HW258386   0.762   9.558   3.408  0.1138 -0.2965 -1.0033
15578SOL     OW58387   0.133   1.191   5.340 -0.1141 -0.6036 -0.3542
15578SOL    HW158388   0.034   1.195   5.327 -0.0901 -0.4543 -0.4856
15578SOL    HW258389   0.165   1.278   5.379 -0.0230 -0.6199 -0.3929
15579SOL     OW58390   1.760   8.212   1.896  0.0089  0.3023 -1.0288
15579SOL    HW158391   1.828   8.166   1.953  0.9988  2.0227 -0.7652
15579SOL    HW258392   1.795   8.222   1.803 -1.4477 -2.1501 -1.8955
15580SOL     OW58393   2.300   2.519   4.563 -0.2544  0.4242  0.9810
15580SOL    HW158394   2.373   2.465   4.607 -2.2810  0.2713  4.3209
15580SOL    HW258395   2.318   2.617   4.577  0.9339  0.5276 -0.9997
15581SOL     OW58396   2.568   5.786   5.299  0.3094  0.1347 -0.3320
15581SOL    HW158397   2.641   5.750   5.241  1.2033  0.0013  0.8562
15581SOL    HW258398   2.482   5.782   5.250  0.8149 -1.2888 -1.1368
15582SOL     OW58399   4.525   2.237   1.783 -0.5966 -0.6029  0.2620
15582SOL    HW158400   4.590   2.184   1.838  1.0537  1.3708  0.2781
15582SOL    HW258401   4.441   2.250   1.836 -0.7172 -2.4597  0.5748
15583SOL     OW58402   8.540   2.926   1.854  0.5286  0.5294 -0.0545
15583SOL    HW158403   8.476   2.849   1.846  1.6417 -0.4639  0.4441
15583SOL    HW258404   8.490   3.007   1.884 -0.7665  0.1675 -1.1562
15584SOL     OW58405   8.604   0.185   3.439 -0.4555 -0.1214  0.3392
15584SOL    HW158406   8.508   0.185   3.464  0.1819 -0.1261  2.9362
15584SOL    HW258407   8.627   0.271   3.394 -1.1478  0.8834  1.8692
15585SOL     OW58408   4.099   1.703   7.909  0.4731  0.3949 -0.4636
15585SOL    HW158409   4.197   1.689   7.910  0.2588 -1.0820  0.8413
15585SOL    HW258410   4.071   1.755   7.990 -0.0498 -0.9327  0.2317
15586SOL     OW58411   7.836   4.833   0.625  0.1129  0.1636  0.4910
15586SOL    HW158412   7.772   4.839   0.548 -1.7645  0.4427  2.0169
15586SOL    HW258413   7.852   4.737   0.648 -0.1508  0.0986  0.4019
15587SOL     OW58414   6.236   8.680   3.784  0.8650  0.0639 -0.2197
15587SOL    HW158415   6.327   8.709   3.757  1.2031 -1.0755 -0.3099
15587SOL    HW258416   6.207   8.602   3.728  0.8149 -1.1160  1.4007
15588SOL     OW58417   9.414   8.800   6.164 -0.3669 -0.3718 -0.5422
15588SOL    HW158418   9.358   8.838   6.090 -0.0861  0.8543 -0.1434
15588SOL    HW258419   9.509   8.827   6.149 -0.1495 -1.0188 -0.3048
15589SOL     OW58420   9.475   3.471   6.538 -0.3269 -0.1966 -0.1881
15589SOL    HW158421   9.446   3.485   6.443 -0.5572  1.4936  0.1164
15589SOL    HW258422   9.434   3.542   6.596  1.1998 -0.1917  0.9062
15590SOL     OW58423   5.550   0.488   4.201  0.2897 -0.0548  0.3982
15590SOL    HW158424   5.489   0.492   4.281  0.1256  1.2274  0.2294
15590SOL    HW258425   5.518   0.417   4.139 -1.3016  0.8905  0.1118
15591SOL     OW58426   9.842   4.563   7.761  0.1093 -0.5149  0.1700
15591SOL    HW158427   9.762   4.503   7.754 -0.1234 -0.0700 -1.3245
15591SOL    HW258428   9.924   4.507   7.773 -0.3708 -0.9942  1.3265
15592SOL     OW58429   1.275   0.386   3.436 -0.3857 -0.5624  0.0961
15592SOL    HW158430   1.264   0.290   3.410 -1.9365 -0.8982  1.8228
15592SOL    HW258431   1.324   0.435   3.365  1.2860 -2.8565 -0.3858
15593SOL     OW58432   7.651   0.931   5.079 -0.0840  0.1028  0.1890
15593SOL    HW158433   7.631   0.860   5.011 -0.4860  0.0229  0.3894
15593SOL    HW258434   7.594   0.916   5.160 -0.4967  0.9326  0.0502
15594SOL     OW58435   3.379   7.662   6.220 -0.2884 -0.0932  0.2325
15594SOL    HW158436   3.400   7.631   6.313  0.0484  0.4865  0.3557
15594SOL    HW258437   3.446   7.732   6.192 -0.9082  0.3686 -0.1139
15595SOL     OW58438   1.155   7.236   3.521 -0.4001 -0.2482  0.0159
15595SOL    HW158439   1.215   7.249   3.600 -1.3683  0.8714  0.5667
15595SOL    HW258440   1.181   7.151   3.475  0.2004 -0.9074  1.5067
15596SOL     OW58441   9.428   7.054   0.729 -0.4062 -0.3110  0.3480
15596SOL    HW158442   9.368   6.998   0.786 -1.0536  0.7136  0.6917
15596SOL    HW258443   9.522   7.047   0.763 -0.5342 -0.9407  0.5791
15597SOL     OW58444   0.074   3.081   4.231 -0.1711  0.4199  0.2983
15597SOL    HW158445  -0.014   3.033   4.224 -0.2098  0.6329 -0.7162
15597SOL    HW258446   0.083   3.120   4.322 -0.5843 -0.6534  0.8079
15598SOL     OW58447   4.381   9.159   3.696  0.2959 -0.0847  0.1324
15598SOL    HW158448   4.411   9.234   3.637 -0.5644 -0.6528 -1.0683
15598SOL    HW258449   4.391   9.072   3.646 -0.1795 -0.6098  0.9361
15599SOL     OW58450   3.503   1.783   0.121 -0.4766  0.1398 -0.5363
15599SOL    HW158451   3.501   1.872   0.074 -0.4067 -0.5402 -1.8525
15599SOL    HW258452   3.584   1.732   0.093 -1.5202 -1.1275 -1.2835
15600SOL     OW58453   4.398   0.939   7.039 -0.0267 -0.1971  0.0050
15600SOL    HW158454   4.363   0.874   6.972 -2.2087 -0.6887  1.5566
15600SOL    HW258455   4.454   0.891   7.106 -0.5080 -0.2627  0.3643
15601SOL     OW58456   8.486   7.641   1.797  0.1126  0.0278  0.2139
15601SOL    HW158457   8.441   7.612   1.882 -0.6999 -0.8499 -0.5074
15601SOL    HW258458   8.418   7.648   1.724  0.7498  1.1277 -0.2928
15602SOL     OW58459   0.087   3.860   7.098  0.0884  0.6957 -0.6277
15602SOL    HW158460   0.029   3.884   7.021  0.2541 -0.8195 -1.2521
15602SOL    HW258461   0.157   3.930   7.111 -0.0605  1.0617 -1.7400
15603SOL     OW58462   1.186   5.114   2.095 -0.1902  0.1672 -0.6513
15603SOL    HW158463   1.126   5.034   2.089  1.4037 -1.1091 -0.0259
15603SOL    HW258464   1.135   5.191   2.132 -2.5409  0.2983 -3.9688
15604SOL     OW58465   8.195   2.118   3.167  0.1753 -0.0634 -0.3770
15604SOL    HW158466   8.222   2.043   3.107  0.1917 -0.8136  0.5561
15604SOL    HW258467   8.203   2.089   3.262 -1.1303  0.6570 -0.0338
15605SOL     OW58468   9.081   7.956   3.407 -0.1171  0.4881 -0.3101
15605SOL    HW158469   9.129   7.884   3.458 -0.8745 -0.0697 -0.3635
15605SOL    HW258470   9.019   8.005   3.468 -0.0770  0.6700 -0.4146
15606SOL     OW58471   8.950   5.326   7.593  0.2563 -0.4030  0.1930
15606SOL    HW158472   8.993   5.396   7.650  0.0911 -1.4775  1.6482
15606SOL    HW258473   9.009   5.305   7.515 -0.1326  2.0641 -0.8246
15607SOL     OW58474   6.885   9.037   6.973 -0.0607 -0.1127  0.2417
15607SOL    HW158475   6.876   9.028   7.072 -1.2300 -1.9462 -0.0164
15607SOL    HW258476   6.879   8.947   6.930  1.7258  0.5216 -1.4121
15608SOL     OW58477   2.076   1.751   4.584 -0.3978  0.2110  0.3898
15608SOL    HW158478   1.988   1.708   4.603 -1.1912  2.0245  1.0059
15608SOL    HW258479   2.121   1.775   4.671 -0.4684  1.5663  0.0600
15609SOL     OW58480   5.622   1.433   5.571  0.0227  0.1653 -0.3458
15609SOL    HW158481   5.630   1.376   5.489  2.4560 -0.0732  0.0227
15609SOL    HW258482   5.640   1.528   5.548  1.4638 -0.0096  0.0395
15610SOL     OW58483   9.631   7.337   4.500  0.0071 -0.3119 -0.1088
15610SOL    HW158484   9.657   7.241   4.511  0.0056 -0.4362 -1.0751
15610SOL    HW258485   9.594   7.350   4.408  1.0084  0.8441 -0.3578
15611SOL     OW58486   8.394   5.673   4.348 -0.4785  0.1642  0.4205
15611SOL    HW158487   8.318   5.654   4.411 -0.7592  1.3937  0.4776
15611SOL    HW258488   8.465   5.604   4.360 -1.3092 -0.6395  0.8235
15612SOL     OW58489   5.140   2.134   2.962 -0.0125  0.5377 -0.5080
15612SOL    HW158490   5.142   2.226   3.001 -1.2801 -0.4348  1.9873
15612SOL    HW258491   5.143   2.139   2.862  0.8706  3.2241 -0.3711
15613SOL     OW58492   1.115   2.178   6.515 -0.6464  0.9511 -0.8031
15613SOL    HW158493   1.080   2.115   6.586  0.3914 -0.0816 -1.1807
15613SOL    HW258494   1.189   2.232   6.554 -0.2774  0.5972 -1.0130
15614SOL     OW58495   0.504   9.296   3.752  0.0263  0.3028 -0.2949
15614SOL    HW158496   0.419   9.248   3.774  0.0176  0.7056  0.5967
15614SOL    HW258497   0.498   9.335   3.660  0.3014 -1.9685 -1.3162
15615SOL     OW58498   8.938   8.656   7.836  0.1822 -0.8479  0.0766
15615SOL    HW158499   9.024   8.685   7.795  0.7140 -1.2214  0.9178
15615SOL    HW258500   8.909   8.723   7.905 -0.6132 -0.3139 -0.7652
15616SOL     OW58501   3.560   2.498   7.293 -0.2628  0.0587 -0.4615
15616SOL    HW158502   3.586   2.577   7.348  1.3066  1.2614 -2.8228
15616SOL    HW258503   3.478   2.519   7.240 -0.9032 -0.5549  0.2782
15617SOL     OW58504   9.665   7.049   4.039 -0.1730  0.2428 -0.2573
15617SOL    HW158505   9.645   7.130   4.095 -2.1675  1.0375 -2.0229
15617SOL    HW258506   9.764   7.037   4.031  0.1460  0.8351  2.3528
15618SOL     OW58507   2.285   8.367   1.930 -0.0180  0.1213 -0.5941
15618SOL    HW158508   2.272   8.282   1.878 -0.3646  0.7914 -1.6267
15618SOL    HW258509   2.241   8.442   1.881  1.8626  1.2201 -0.6268
15619SOL     OW58510   1.520   4.913   3.399 -0.5250 -0.0244  0.0738
15619SOL    HW158511   1.586   4.847   3.433 -0.0102 -0.2515 -1.3222
15619SOL    HW258512   1.513   4.905   3.300 -1.3708  1.1773  0.0201
15620SOL     OW58513   3.898   2.066   6.900 -0.2846  0.1305 -0.2989
15620SOL    HW158514   3.815   2.021   6.931  0.0998 -0.7326 -0.5067
15620SOL    HW258515   3.876   2.156   6.862 -1.1201 -0.1207 -0.4041
15621SOL     OW58516   6.964   2.363   4.702 -0.6733  0.0368  0.1350
15621SOL    HW158517   7.012   2.433   4.756 -0.7549  0.4786 -0.3566
15621SOL    HW258518   6.888   2.405   4.654 -1.0126 -0.4915  0.2099
15622SOL     OW58519   9.916   3.631   4.568  0.2413 -0.0048  0.2632
15622SOL    HW158520   9.850   3.695   4.529 -0.2416 -0.0817  0.9514
15622SOL    HW258521   9.872   3.578   4.641  0.3222 -1.8681 -1.0099
15623SOL     OW58522   5.438   3.885   1.560 -0.0499 -0.0644  0.6972
15623SOL    HW158523   5.345   3.851   1.547  0.5065 -1.8796  1.4221
15623SOL    HW258524   5.454   3.901   1.658  0.9767 -1.4235  0.7544
15624SOL     OW58525   6.482   4.426   1.245  0.3211  0.3058  1.0359
15624SOL    HW158526   6.401   4.381   1.280  0.7155 -0.8688  0.4650
15624SOL    HW258527   6.543   4.449   1.320  0.3642 -0.6021  1.2791
15625SOL     OW58528   1.451   5.276   3.663 -0.1809  0.4084  0.7046
15625SOL    HW158529   1.452   5.275   3.563  0.7794  1.2465  0.6967
15625SOL    HW258530   1.415   5.190   3.697  1.9437 -0.9303 -0.3367
15626SOL     OW58531   3.475   3.021   4.890  0.1001  0.0091 -0.3335
15626SOL    HW158532   3.422   2.940   4.862  0.8501 -0.3208 -0.8295
15626SOL    HW258533   3.571   2.995   4.899  0.2446  0.7089  0.1296
15627SOL     OW58534   4.280   7.087   3.833 -0.1768  0.8547  0.4304
15627SOL    HW158535   4.294   7.128   3.743  0.3024 -1.2810 -0.4912
15627SOL    HW258536   4.269   6.988   3.824  1.5661  0.3807  2.8754
15628SOL     OW58537   2.446   4.580   4.344  0.1499  0.5421  0.4195
15628SOL    HW158538   2.540   4.557   4.320  0.0790 -0.2734  0.9302
15628SOL    HW258539   2.419   4.664   4.296  0.4214 -0.3942 -1.3815
15629SOL     OW58540   4.499   2.336   0.816  0.1104  0.0184 -0.0476
15629SOL    HW158541   4.563   2.408   0.840  0.8106 -0.1388 -1.4203
15629SOL    HW258542   4.546   2.263   0.767 -1.3058  0.4102 -2.0499
15630SOL     OW58543   3.095   8.741   5.487 -0.0384  0.3782  0.2673
15630SOL    HW158544   3.107   8.695   5.575  1.0405 -0.9187 -0.5262
15630SOL    HW258545   3.048   8.680   5.424 -2.0198  1.7948  0.3156
15631SOL     OW58546   1.492   4.179   2.345 -0.0350  0.0067  0.2338
15631SOL    HW158547   1.413   4.142   2.295 -0.6423 -0.6653  1.6597
15631SOL    HW258548   1.461   4.254   2.404  0.6497  0.7015 -0.2781
15632SOL     OW58549   4.944   6.794   1.765  0.0834  0.2236 -0.1622
15632SOL    HW158550   4.852   6.834   1.762  0.3392  0.8224 -0.1772
15632SOL    HW258551   4.944   6.712   1.822 -0.3260  0.5711  0.3381
15633SOL     OW58552   3.982   5.052   0.976  0.3716  0.1253 -0.2849
15633SOL    HW158553   3.946   4.967   1.015 -0.5275 -0.5761 -2.5942
15633SOL    HW258554   4.075   5.036   0.941  0.7203  0.4490  0.4838
15634SOL     OW58555   7.887   3.701   5.273 -0.0848 -0.2814  0.9449
15634SOL    HW158556   7.885   3.610   5.314 -1.0598 -0.4210  0.6036
15634SOL    HW258557   7.862   3.695   5.177  0.7707  0.2336  0.6777
15635SOL     OW58558   8.055   4.007   4.227  0.2089  0.1629 -0.5593
15635SOL    HW158559   7.955   4.004   4.233  0.3046 -0.5519  0.9016
15635SOL    HW258560   8.082   4.023   4.132 -1.2895 -0.1403 -1.0535
15636SOL     OW58561   0.996   3.216   2.663 -0.0819  0.7119  0.1185
15636SOL    HW158562   1.001   3.256   2.754 -0.6873  0.1952  0.3817
15636SOL    HW258563   1.089   3.196   2.630  0.0712 -0.4174  1.2047
15637SOL     OW58564   1.471   1.551   4.095 -0.3290  0.1091 -0.6319
15637SOL    HW158565   1.509   1.466   4.133  0.2966 -0.1854 -1.8599
15637SOL    HW258566   1.540   1.623   4.101 -1.5214  1.0896  2.1854
15638SOL     OW58567   2.958   2.367   7.263  0.5505  0.0208 -0.2287
15638SOL    HW158568   3.034   2.302   7.265  0.7011  0.1442 -1.5024
15638SOL    HW258569   2.875   2.320   7.232 -0.0038 -0.2138  1.5544
15639SOL     OW58570   5.123   2.121   0.107  0.3187 -0.0007 -0.0951
15639SOL    HW158571   5.210   2.074   0.114  0.8918  1.0753  0.1249
15639SOL    HW258572   5.138   2.220   0.103 -0.9539  0.2792  1.4075
15640SOL     OW58573   5.085   3.455   1.483  0.2673  0.1280 -0.0569
15640SOL    HW158574   4.992   3.493   1.490  0.8042  1.1376  1.9472
15640SOL    HW258575   5.145   3.522   1.439  0.3954  0.0592  0.0138
15641SOL     OW58576   5.878   0.004   1.621  0.3845  0.1970 -0.1139
15641SOL    HW158577   5.889   0.074   1.551  1.8458 -0.2958 -0.3833
15641SOL    HW258578   5.960  -0.001   1.678 -0.8041  0.6179  1.6712
15642SOL     OW58579   9.166   3.961   4.226 -0.1109  0.3407  0.0950
15642SOL    HW158580   9.074   3.996   4.208  0.9779  2.3985 -1.7654
15642SOL    HW258581   9.231   4.038   4.229  1.4605 -1.0051  2.0836
15643SOL     OW58582   1.869   6.183   5.194 -0.2321  0.1126  0.9055
15643SOL    HW158583   1.936   6.148   5.259  1.5570 -0.7468 -1.3359
15643SOL    HW258584   1.915   6.239   5.125 -1.2542 -2.9498 -2.4328
15644SOL     OW58585   8.852   2.619   3.664  0.4063 -0.1577 -0.1468
15644SOL    HW158586   8.766   2.588   3.622 -0.0486  0.5031  0.2857
15644SOL    HW258587   8.847   2.717   3.683  1.3703 -0.0554 -0.3812
15645SOL     OW58588   1.535   6.027   6.434  0.8043  0.4231 -0.5207
15645SOL    HW158589   1.569   5.974   6.356 -2.1006  1.7093 -2.7441
15645SOL    HW258590   1.530   6.123   6.408 -1.8118  0.6343  0.6742
15646SOL     OW58591   5.936   5.076   0.240  0.7219 -0.2445 -0.4615
15646SOL    HW158592   5.964   5.167   0.211  3.2283 -1.5152 -2.2575
15646SOL    HW258593   5.935   5.072   0.340 -1.5443  2.3252 -0.3358
15647SOL     OW58594   0.936   5.116   2.663 -0.3153  0.0380 -0.1065
15647SOL    HW158595   0.965   5.180   2.733 -1.1685 -0.7151  0.9486
15647SOL    HW258596   0.850   5.073   2.690 -0.4792 -0.5216 -1.4487
15648SOL     OW58597   8.088   2.253   2.826 -0.3373  0.4117  0.3285
15648SOL    HW158598   8.063   2.189   2.754  1.5571  0.0402 -0.0276
15648SOL    HW258599   8.014   2.259   2.893 -1.1316 -1.0237 -0.4030
15649SOL     OW58600   8.058   4.358   5.153 -1.0916 -0.3518 -0.2250
15649SOL    HW158601   8.012   4.412   5.224 -0.3459  1.0510 -0.7874
15649SOL    HW258602   8.014   4.375   5.065 -0.2617  0.0678 -0.5630
15650SOL     OW58603   0.951   0.210   0.219  1.5277 -0.4077 -0.8452
15650SOL    HW158604   0.869   0.258   0.187 -0.1598 -0.9556  2.3687
15650SOL    HW258605   0.971   0.134   0.157 -0.1969 -0.0632 -1.8688
15651SOL     OW58606   2.644   7.462   5.613  0.1633  0.3877  0.1378
15651SOL    HW158607   2.621   7.371   5.646 -0.2921  0.7329  0.7863
15651SOL    HW258608   2.639   7.464   5.513 -0.4827 -0.1129  0.1607
15652SOL     OW58609   8.346   3.169   8.150  0.4204 -0.0811  0.0259
15652SOL    HW158610   8.276   3.172   8.222  1.0242 -0.7269  0.6451
15652SOL    HW258611   8.390   3.259   8.143  1.6848 -0.5283  1.7978
15653SOL     OW58612   6.686   6.275   5.957 -0.3997  0.2963 -0.5749
15653SOL    HW158613   6.690   6.183   5.995 -1.5426 -0.3847 -2.0600
15653SOL    HW258614   6.679   6.270   5.857 -2.1863  1.9365 -0.5709
15654SOL     OW58615   2.456   5.914   5.689 -0.4227 -0.4156  0.1327
15654SOL    HW158616   2.438   5.815   5.688  0.2035 -0.5248 -1.1651
15654SOL    HW258617   2.377   5.962   5.728 -1.0335 -1.3705  0.0884
15655SOL     OW58618   7.808   7.920   1.765  0.5006  0.1418  0.1313
15655SOL    HW158619   7.874   7.907   1.690 -1.2578  1.1422 -1.6454
15655SOL    HW258620   7.848   7.982   1.833  1.5784  0.3987 -0.7062
15656SOL     OW58621   0.062   5.147   1.998  0.0644  0.2352 -0.3816
15656SOL    HW158622  -0.025   5.168   1.953 -0.5208 -0.4617  0.4239
15656SOL    HW258623   0.136   5.188   1.945 -0.7597  1.0209 -0.9643
15657SOL     OW58624   4.670   0.987   6.841 -0.4626  0.1005 -0.7246
15657SOL    HW158625   4.671   1.025   6.933 -2.4673 -0.8482 -0.2705
15657SOL    HW258626   4.730   1.041   6.782  1.3460  0.3411  1.2578
15658SOL     OW58627   4.957   2.371   8.146 -0.7691  0.3025 -0.6030
15658SOL    HW158628   4.996   2.344   8.058 -1.6227 -1.1485 -0.5551
15658SOL    HW258629   4.862   2.340   8.151 -1.1609  1.6020  0.2748
15659SOL     OW58630   5.932   2.689   4.964  0.1937 -0.5106 -0.2027
15659SOL    HW158631   5.861   2.752   4.933  0.9315  0.9025  0.8953
15659SOL    HW258632   5.903   2.595   4.948 -1.2561  0.0891 -1.1730
15660SOL     OW58633   0.504   4.146   6.187 -0.1915 -0.1157  0.2317
15660SOL    HW158634   0.489   4.234   6.143 -2.0950 -0.3853  0.2877
15660SOL    HW258635   0.523   4.077   6.118 -0.5266 -0.0159  0.0385
15661SOL     OW58636   1.618   9.198   2.205 -0.3611 -0.0863  0.4152
15661SOL    HW158637   1.633   9.195   2.106  1.3619  3.1113  0.4764
15661SOL    HW258638   1.701   9.233   2.249 -2.1743  1.5754  2.6401
15662SOL     OW58639   7.489   2.706   4.915 -0.4047 -0.1737  0.0568
15662SOL    HW158640   7.518   2.627   4.862  0.7880  0.5733 -0.4336
15662SOL    HW258641   7.494   2.788   4.858  0.2832  0.5444  1.1255
15663SOL     OW58642   0.254   9.632   1.439 -0.3906 -0.3351  0.1051
15663SOL    HW158643   0.192   9.710   1.447 -0.7495 -0.5502 -0.4979
15663SOL    HW258644   0.269   9.592   1.529  0.1437  0.6952  0.4826
15664SOL     OW58645   5.943   1.970   3.703  0.2051  0.2470 -0.2158
15664SOL    HW158646   5.892   1.912   3.639 -1.3598  0.3547  0.9288
15664SOL    HW258647   5.880   2.015   3.766  1.6930  0.5598  1.0885
15665SOL     OW58648   4.058   4.703   4.096  0.0851 -0.1290 -0.8226
15665SOL    HW158649   4.115   4.713   4.177 -1.5527  1.3852  0.1856
15665SOL    HW258650   3.965   4.732   4.117 -1.1660 -2.8471 -2.3266
15666SOL     OW58651   9.443   0.170   3.573 -0.0588 -0.4426  0.1029
15666SOL    HW158652   9.528   0.176   3.625  0.8639  1.4684 -1.5354
15666SOL    HW258653   9.464   0.163   3.475 -1.7795 -1.3113 -0.2322
15667SOL     OW58654   4.411   5.089   4.043  0.0806  0.1806 -0.6160
15667SOL    HW158655   4.345   5.053   4.109  0.2409  0.5621 -0.2399
15667SOL    HW258656   4.495   5.035   4.047  0.2226  0.4216 -0.2461
15668SOL     OW58657   1.728   0.017   4.557 -0.1046  0.5297 -0.5849
15668SOL    HW158658   1.734   0.032   4.656  1.9337 -1.4855 -0.3377
15668SOL    HW258659   1.787   0.082   4.510  0.1026  0.5214 -0.3412
15669SOL     OW58660   7.721   0.530   5.195 -0.1141 -0.1100  0.3181
15669SOL    HW158661   7.751   0.611   5.247  0.3047 -0.6487  0.9253
15669SOL    HW258662   7.699   0.456   5.258  1.8099 -1.2574 -0.2996
15670SOL     OW58663   6.536   0.382   3.065 -0.0517 -0.4037  0.3143
15670SOL    HW158664   6.597   0.409   3.139 -0.1009  0.0059  0.2060
15670SOL    HW258665   6.461   0.448   3.057  0.6637  0.2705 -0.9570
15671SOL     OW58666   8.486   4.584   2.937 -0.3317  0.2992  0.5472
15671SOL    HW158667   8.471   4.666   2.881  1.7745  0.2690 -0.1089
15671SOL    HW258668   8.438   4.594   3.024 -0.2371  2.1712  0.4088
15672SOL     OW58669   0.147   0.461   3.392 -0.1292 -0.2060  0.1058
15672SOL    HW158670   0.115   0.427   3.480  2.2996 -1.1422  0.6377
15672SOL    HW258671   0.180   0.555   3.402 -0.5956 -0.0264  0.0040
15673SOL     OW58672   9.686   7.446   7.186 -0.2302  0.1093 -0.8892
15673SOL    HW158673   9.598   7.400   7.177  0.2931 -1.3061  0.9002
15673SOL    HW258674   9.746   7.420   7.110 -1.0339  0.3771 -1.6232
15674SOL     OW58675   7.314   8.282   4.987 -0.4743  0.6597  0.2894
15674SOL    HW158676   7.246   8.295   5.059 -1.9381 -0.4975 -0.8629
15674SOL    HW258677   7.292   8.200   4.935  2.6157 -0.5427  0.7784
15675SOL     OW58678   2.933   1.472   7.647 -0.6170  0.2022 -0.2677
15675SOL    HW158679   2.900   1.552   7.698  0.1264  0.4409 -0.1502
15675SOL    HW258680   3.032   1.479   7.636 -0.6344 -0.3980 -0.7981
15676SOL     OW58681   4.105   1.094   4.084  0.1747 -0.5432 -0.1030
15676SOL    HW158682   4.082   1.175   4.138 -0.3618 -0.6011 -0.2390
15676SOL    HW258683   4.121   1.121   3.989  1.4114 -0.3989  0.1343
15677SOL     OW58684   1.569   9.603   5.651  0.1662  0.1217 -0.6634
15677SOL    HW158685   1.486   9.595   5.597 -0.6347 -0.2139  0.5830
15677SOL    HW258686   1.576   9.695   5.689 -0.3517 -0.2414  0.3362
15678SOL     OW58687   7.859   0.317   2.293 -0.0519 -0.0791 -0.3185
15678SOL    HW158688   7.826   0.401   2.250 -0.2322  0.1916  0.3319
15678SOL    HW258689   7.917   0.340   2.371  1.4147 -0.5572 -1.2577
15679SOL     OW58690   1.312   2.365   5.630  0.2704  0.5216  0.1546
15679SOL    HW158691   1.235   2.429   5.633 -0.5395 -0.4257  0.1172
15679SOL    HW258692   1.277   2.271   5.630  1.4560  0.0670  0.8687
15680SOL     OW58693   4.419   9.261   4.846 -0.2543 -0.8393 -0.6249
15680SOL    HW158694   4.411   9.178   4.900 -0.5531 -0.9355 -0.8125
15680SOL    HW258695   4.513   9.296   4.850 -0.3366 -0.7026  0.1668
15681SOL     OW58696   6.437   7.663   5.350 -0.2036 -0.4629 -0.6036
15681SOL    HW158697   6.490   7.579   5.340 -0.0325 -0.1196 -2.6280
15681SOL    HW258698   6.495   7.742   5.331 -1.1079 -0.0183 -1.5340
15682SOL     OW58699   2.482   6.939   7.934  0.1400  0.3761 -0.6488
15682SOL    HW158700   2.415   6.961   8.005  0.5155  1.2563 -0.5580
15682SOL    HW258701   2.560   6.891   7.975 -0.0201  0.1575 -0.6023
15683SOL     OW58702   3.862   4.023   6.347 -0.4571  0.4529 -0.2296
15683SOL    HW158703   3.804   4.057   6.273 -1.1477 -1.1760 -0.4406
15683SOL    HW258704   3.890   3.929   6.327  1.1483  0.7548  0.5233
15684SOL     OW58705   0.654   1.656   1.479  0.2496  0.0983 -0.2763
15684SOL    HW158706   0.634   1.598   1.400 -0.0044 -1.1006  0.6630
15684SOL    HW258707   0.627   1.609   1.563  0.7364  1.2692  0.5473
15685SOL     OW58708   0.285   9.313   6.786 -0.5468  0.2685  0.6279
15685SOL    HW158709   0.187   9.329   6.797 -0.3286  0.9251  1.7017
15685SOL    HW258710   0.312   9.331   6.691 -1.7052 -1.2532 -0.0104
15686SOL     OW58711   3.152   6.561   7.653 -0.6321  0.1783 -0.2742
15686SOL    HW158712   3.208   6.643   7.637  1.1166 -1.1236 -0.9567
15686SOL    HW258713   3.071   6.565   7.595  0.5643  0.3709 -1.9594
15687SOL     OW58714   3.449   8.679   7.411 -0.6104  0.5300  0.2641
15687SOL    HW158715   3.393   8.597   7.405 -0.6524  0.4998  1.0812
15687SOL    HW258716   3.518   8.678   7.338 -0.8743 -0.0289  0.0256
15688SOL     OW58717   1.256   1.393   6.661  0.1894  0.2568 -0.3418
15688SOL    HW158718   1.221   1.312   6.613  0.7724  0.0630 -0.4357
15688SOL    HW258719   1.235   1.386   6.758  2.0433 -0.9874 -0.0020
15689SOL     OW58720   6.134   9.342   7.062  0.3548 -0.3660 -0.3457
15689SOL    HW158721   6.214   9.344   7.003  0.8986  1.7079  0.4119
15689SOL    HW258722   6.059   9.391   7.018 -0.2084 -1.4646 -0.6289
15690SOL     OW58723   2.994   8.080   1.080 -0.2766  0.2967  0.1044
15690SOL    HW158724   3.029   8.002   1.029 -0.1963 -0.3478  1.1335
15690SOL    HW258725   2.908   8.055   1.124 -0.3486  0.8554  0.2931
15691SOL     OW58726   4.803   0.400   4.298  0.1756 -0.3581  0.4823
15691SOL    HW158727   4.722   0.379   4.242 -0.0309 -0.5553  0.8575
15691SOL    HW258728   4.880   0.422   4.238 -0.7006  1.8934  0.1092
15692SOL     OW58729   9.972   4.283   5.821 -0.6702  0.2470  0.5135
15692SOL    HW158730   9.910   4.208   5.797 -1.8644  1.3365  0.1632
15692SOL    HW258731   9.920   4.368   5.827  0.5755  0.9399  1.5298
15693SOL     OW58732   3.016   5.994   8.076  0.1132 -0.2755  0.2675
15693SOL    HW158733   3.098   6.038   8.112 -1.5025  0.6416  2.9626
15693SOL    HW258734   3.029   5.895   8.074  0.6559 -0.2762  2.4597
15694SOL     OW58735   0.060   4.662   2.258 -0.1272  0.2409 -0.5075
15694SOL    HW158736   0.088   4.755   2.235 -2.6656  1.3659  0.7817
15694SOL    HW258737   0.138   4.600   2.249  2.5100  3.0446  1.9520
15695SOL     OW58738   8.904   2.875   0.622 -0.0368  0.1790 -0.5964
15695SOL    HW158739   8.897   2.940   0.698  1.6385  1.1099 -1.2028
15695SOL    HW258740   8.851   2.793   0.643 -0.7981  1.0411  0.9317
15696SOL     OW58741   4.485   4.668   0.309  0.2139 -0.5520  0.4458
15696SOL    HW158742   4.525   4.617   0.232 -1.2208 -0.7368 -0.1854
15696SOL    HW258743   4.460   4.605   0.382 -0.8154 -0.6689 -0.0039
15697SOL     OW58744   9.123   8.744   4.154  0.2696  0.4969 -0.2814
15697SOL    HW158745   9.090   8.826   4.107 -1.1259  0.4897  0.6627
15697SOL    HW258746   9.094   8.663   4.104  1.1165  0.5509 -0.8748
15698SOL     OW58747   3.362   6.003   1.126 -0.3358 -0.5079 -0.0272
15698SOL    HW158748   3.349   5.971   1.220  0.9996  1.6634  0.9505
15698SOL    HW258749   3.441   6.064   1.122  0.9143 -2.2136 -3.0051
15699SOL     OW58750   9.921   7.061   6.552 -0.0826  0.4655 -0.1460
15699SOL    HW158751   9.903   6.964   6.570 -0.5728 -0.0776 -3.3084
15699SOL    HW258752   9.835   7.111   6.552  0.0583  0.7125  0.3298
15700SOL     OW58753   0.589   8.952   1.515  0.4021  0.1173 -0.9818
15700SOL    HW158754   0.544   9.030   1.559 -1.4286 -1.0626 -0.7422
15700SOL    HW258755   0.678   8.981   1.480  1.3181  1.4482  2.2590
15701SOL     OW58756   0.974   3.443   3.789 -0.6502 -0.1612 -0.3309
15701SOL    HW158757   0.877   3.417   3.798 -0.9574  0.8370 -0.6584
15701SOL    HW258758   1.032   3.369   3.824 -1.4390 -2.0150 -2.8491
15702SOL     OW58759   8.498   9.863   0.913 -0.5298 -0.3246  0.3049
15702SOL    HW158760   8.520   9.956   0.883  0.2975 -0.2500  1.1060
15702SOL    HW258761   8.563   9.799   0.871 -1.1211 -0.5396 -0.2744
15703SOL     OW58762   0.318   0.112   1.318  0.1117 -0.2315 -0.3118
15703SOL    HW158763   0.396   0.124   1.379 -0.1620  0.7020 -0.1438
15703SOL    HW258764   0.249   0.181   1.337 -1.1100 -1.5304  0.0702
15704SOL     OW58765   0.045   0.557   1.917  0.7498 -0.2785 -0.0985
15704SOL    HW158766   0.039   0.633   1.852 -0.4234  0.4289  0.8175
15704SOL    HW258767   0.025   0.471   1.870  0.1032  0.2050 -0.7170
15705SOL     OW58768   2.204   1.825   6.988  0.0557  0.0131  0.2850
15705SOL    HW158769   2.244   1.884   6.918 -0.1874  1.6153  1.4772
15705SOL    HW258770   2.257   1.834   7.073  0.3407 -1.8969  0.3443
15706SOL     OW58771   4.687   9.586   3.322 -0.5502 -0.0396  0.0921
15706SOL    HW158772   4.628   9.633   3.257 -0.6800  2.2198  1.7518
15706SOL    HW258773   4.676   9.627   3.413  2.2272 -0.7600  0.8181
15707SOL     OW58774   4.770   8.656   7.096 -0.2173  0.5404  0.5087
15707SOL    HW158775   4.685   8.630   7.050  1.5210 -2.2574 -1.3311
15707SOL    HW258776   4.844   8.662   7.028  1.5058  0.6819  2.3575
15708SOL     OW58777   8.150   7.311   0.070  0.1717 -0.3173  0.1366
15708SOL    HW158778   8.106   7.355   0.148 -0.7455 -0.0824 -0.4989
15708SOL    HW258779   8.248   7.300   0.088  0.2817  1.3140  0.6123
15709SOL     OW58780   0.021   9.771   6.685  0.7262 -0.2092 -0.1630
15709SOL    HW158781   0.031   9.858   6.732  0.5388 -0.4722  0.3694
15709SOL    HW258782   0.017   9.697   6.752  0.1106 -0.5538 -0.5790
15710SOL     OW58783   0.035   5.236   7.107  0.4157  0.3059  0.1954
15710SOL    HW158784   0.062   5.318   7.157  0.6535 -0.1053  0.7461
15710SOL    HW258785   0.092   5.159   7.135  1.2493  0.2858 -1.4592
15711SOL     OW58786   3.372   4.307   7.795  0.3803 -0.0435  0.1185
15711SOL    HW158787   3.354   4.385   7.855 -1.0478  1.5146 -2.2896
15711SOL    HW258788   3.422   4.337   7.714  0.9419 -1.8592 -0.2382
15712SOL     OW58789   9.628   4.048   4.249  0.4334  0.0644 -0.9089
15712SOL    HW158790   9.571   3.966   4.240  0.2036  0.3707 -2.4218
15712SOL    HW258791   9.722   4.025   4.225  0.4785  0.1126 -0.7760
15713SOL     OW58792   1.541   0.284   6.722 -0.1363  0.4695  0.2081
15713SOL    HW158793   1.533   0.353   6.794 -0.3454  0.8395 -0.1682
15713SOL    HW258794   1.637   0.275   6.696 -0.1189  0.6876  0.1928
15714SOL     OW58795   9.496   7.615   2.273 -0.0491  0.2445 -0.0047
15714SOL    HW158796   9.465   7.595   2.181 -0.8909  0.9942  0.1094
15714SOL    HW258797   9.592   7.643   2.270  0.3267 -1.0754 -0.4789
15715SOL     OW58798   0.923   4.745   1.065 -0.0329  0.0909  0.0707
15715SOL    HW158799   0.884   4.666   1.113  0.0570  2.8859  5.0508
15715SOL    HW258800   1.023   4.741   1.071 -0.0150  0.2522 -0.1400
15716SOL     OW58801   0.633   3.035   1.972 -0.5543  0.1412  0.8336
15716SOL    HW158802   0.733   3.028   1.977 -0.5711 -0.2562  0.6351
15716SOL    HW258803   0.601   2.998   1.885 -0.9165 -0.1758  1.0977
15717SOL     OW58804   0.150   6.946   6.432  0.2791 -0.0171  0.4052
15717SOL    HW158805   0.143   7.030   6.486  0.3153  0.8530 -0.9264
15717SOL    HW258806   0.059   6.916   6.406  0.3558  0.6644 -0.6983
15718SOL     OW58807   3.961   7.564   3.311  0.2333  0.1317  0.3669
15718SOL    HW158808   3.932   7.525   3.398 -1.6621  0.9351  0.1438
15718SOL    HW258809   3.955   7.494   3.239  1.9169 -0.5629  0.8875
15719SOL     OW58810   1.209   8.332   4.053  0.2734 -0.0421 -0.4097
15719SOL    HW158811   1.205   8.236   4.027  1.8160  0.0863 -1.1763
15719SOL    HW258812   1.300   8.369   4.032 -0.5989  1.8294 -1.0304
15720SOL     OW58813   4.430   9.134   1.519  0.2310 -0.2600  0.3819
15720SOL    HW158814   4.466   9.227   1.521  0.0388 -0.1964  1.3850
15720SOL    HW258815   4.331   9.137   1.534  0.2332 -0.6244  0.4700
15721SOL     OW58816   6.163   1.946   3.392 -0.3938  0.2392 -0.4175
15721SOL    HW158817   6.179   2.010   3.468 -1.3819  0.8072 -0.6903
15721SOL    HW258818   6.217   1.974   3.313  0.8127 -0.4791  0.1263
15722SOL     OW58819   1.450   1.212   3.942 -0.5305 -0.0726  0.4363
15722SOL    HW158820   1.368   1.258   3.977  0.3451 -0.2592  2.8050
15722SOL    HW258821   1.486   1.264   3.865  0.1518  3.0399  2.7123
15723SOL     OW58822   1.957   2.308   4.430  0.0924 -0.1647  0.3666
15723SOL    HW158823   1.924   2.394   4.392  0.4894 -0.4276 -0.5857
15723SOL    HW258824   2.055   2.298   4.408 -0.0976 -1.1434 -0.0605
15724SOL     OW58825   5.560   3.874   1.320  0.0046 -0.3505  0.1219
15724SOL    HW158826   5.654   3.859   1.352 -0.2187 -1.7294  0.1676
15724SOL    HW258827   5.497   3.863   1.397 -0.3509 -1.3907 -0.3091
15725SOL     OW58828   0.742   7.464   0.043 -0.6109 -0.5326 -0.4578
15725SOL    HW158829   0.660   7.453   0.100 -0.8200  0.6002 -0.5200
15725SOL    HW258830   0.823   7.447   0.098 -0.8797 -1.4582 -0.3401
15726SOL     OW58831   3.310   9.160   7.865  0.1312 -0.1647 -0.0043
15726SOL    HW158832   3.316   9.147   7.964  1.0295  3.2750  0.4857
15726SOL    HW258833   3.218   9.190   7.841  0.0221 -0.6160 -0.1371
15727SOL     OW58834   9.545   0.892   6.681  0.3320 -0.1679  0.4172
15727SOL    HW158835   9.499   0.861   6.598 -0.8112  0.4786  0.7976
15727SOL    HW258836   9.635   0.928   6.659  0.1180 -0.2111 -0.5131
15728SOL     OW58837   4.757   0.051   6.804  0.4595  0.0967 -0.5502
15728SOL    HW158838   4.674   0.019   6.848 -1.8283  2.4382 -3.0058
15728SOL    HW258839   4.796   0.126   6.858  0.4816 -0.3982  0.1270
15729SOL     OW58840   8.249   9.248   3.516 -0.2303 -0.3116  0.5081
15729SOL    HW158841   8.302   9.274   3.435 -3.5879  0.7936 -1.4465
15729SOL    HW258842   8.208   9.158   3.502 -0.7509 -0.1592  1.0477
15730SOL     OW58843   6.014   7.608   6.363  0.5326  0.3862  0.2663
15730SOL    HW158844   5.989   7.704   6.349  2.0018  1.0372  1.9832
15730SOL    HW258845   5.934   7.551   6.346 -0.3721  1.8994 -0.7723
15731SOL     OW58846   9.048   3.560   0.989 -0.1185  1.1809 -0.3344
15731SOL    HW158847   9.037   3.514   0.901 -0.2143  1.0380 -0.2484
15731SOL    HW258848   9.093   3.498   1.053  1.0005  1.6831 -0.6190
15732SOL     OW58849   8.444   8.554   0.134 -0.1935 -0.2403 -0.5123
15732SOL    HW158850   8.416   8.638   0.088 -0.7041  0.2055  0.6270
15732SOL    HW258851   8.518   8.511   0.082 -1.3888 -0.2304 -2.2805
15733SOL     OW58852   8.872   4.338   3.845 -0.2416 -0.0444 -0.0682
15733SOL    HW158853   8.800   4.398   3.810  0.9648 -0.4606 -3.4258
15733SOL    HW258854   8.835   4.245   3.855 -0.7082  0.1677  0.2269
15734SOL     OW58855   5.700   9.642   2.558  0.2957 -0.6177  0.4023
15734SOL    HW158856   5.713   9.653   2.656 -1.5844  1.5361  0.4477
15734SOL    HW258857   5.676   9.548   2.538  1.3079 -1.2216  1.9158
15735SOL     OW58858   5.415   8.843   1.850  0.0925 -0.2059  0.4140
15735SOL    HW158859   5.493   8.902   1.871  1.1331 -0.7247 -1.8665
15735SOL    HW258860   5.332   8.883   1.890  1.1069  1.6657  0.7418
15736SOL     OW58861   1.278   2.834   4.172  0.3104  0.0679  0.1674
15736SOL    HW158862   1.229   2.894   4.235  1.1593  0.3811  0.5504
15736SOL    HW258863   1.232   2.834   4.083  1.0846  2.4514 -0.2884
15737SOL     OW58864   0.930   2.244   4.515  0.2243 -0.2088 -0.0340
15737SOL    HW158865   0.895   2.289   4.433 -0.2838 -0.6212 -0.0448
15737SOL    HW258866   0.904   2.147   4.513  0.4089 -0.2679  0.5004
15738SOL     OW58867   5.401   8.317   6.078 -0.1786  0.3365  0.1623
15738SOL    HW158868   5.373   8.385   6.011  1.6669 -0.8463 -1.8615
15738SOL    HW258869   5.352   8.232   6.062  0.6687 -0.1175 -0.0482
15739SOL     OW58870   1.609   3.597   5.030  0.1184  0.6122  0.0561
15739SOL    HW158871   1.666   3.546   5.094 -0.0379  0.6472  0.2267
15739SOL    HW258872   1.546   3.535   4.984 -0.2113  0.6765  0.4125
15740SOL     OW58873   8.786   3.956   6.912  0.1852 -0.0338  0.2880
15740SOL    HW158874   8.795   4.045   6.958 -0.1828  0.4310 -0.5233
15740SOL    HW258875   8.690   3.940   6.889  0.4128 -0.0569 -0.6991
15741SOL     OW58876   2.455   6.241   0.616  0.0544 -0.1772 -0.2672
15741SOL    HW158877   2.543   6.204   0.587 -0.5202 -1.5858 -0.2773
15741SOL    HW258878   2.395   6.250   0.537  0.4520  1.5390 -0.3799
15742SOL     OW58879   4.709   2.256   8.174  0.3013 -0.0023  0.2912
15742SOL    HW158880   4.700   2.190   8.100  0.0859 -1.3596  1.5109
15742SOL    HW258881   4.623   2.308   8.183  0.3038  0.1162 -0.3546
15743SOL     OW58882   7.246   7.937   7.047 -0.0963 -0.4995  0.1995
15743SOL    HW158883   7.206   7.870   6.985  1.0060 -1.0140  0.0258
15743SOL    HW258884   7.246   7.901   7.140  0.2091 -0.6101  0.1565
15744SOL     OW58885   2.173   0.594   6.331 -0.1480  0.9207  0.3085
15744SOL    HW158886   2.128   0.678   6.302  1.0021  1.5321  0.2779
15744SOL    HW258887   2.230   0.560   6.256 -0.7673  0.0000  0.2460
15745SOL     OW58888   3.628   9.639   0.330  0.2323  0.5298  0.1512
15745SOL    HW158889   3.552   9.576   0.311 -0.0831  1.0128 -0.2073
15745SOL    HW258890   3.608   9.692   0.412 -0.9622  2.4217 -1.3253
15746SOL     OW58891   1.273   5.831   6.033  0.6228  0.2486  0.0141
15746SOL    HW158892   1.372   5.838   6.023  0.6368  0.6128  0.3663
15746SOL    HW258893   1.251   5.789   6.121  0.4908 -2.0582 -1.0931
15747SOL     OW58894   2.654   0.030   2.418  0.1098 -0.2543  0.4161
15747SOL    HW158895   2.643  -0.055   2.366 -0.1664 -0.6181  1.0567
15747SOL    HW258896   2.751   0.048   2.432  0.1495 -1.8508  2.4865
15748SOL     OW58897   3.589   3.785   0.411  0.4442 -0.1721 -0.0591
15748SOL    HW158898   3.572   3.881   0.432  1.2189  0.6918 -3.1995
15748SOL    HW258899   3.503   3.739   0.391 -0.3339 -1.0408  4.7615
15749SOL     OW58900   7.995   6.896   1.502  0.1091 -0.1339 -0.1433
15749SOL    HW158901   7.952   6.975   1.458 -1.4014  0.2377  1.8944
15749SOL    HW258902   7.930   6.819   1.501  0.6839 -0.6199 -0.0260
15750SOL     OW58903   7.950   2.882   0.703  0.0372  0.1437 -0.1533
15750SOL    HW158904   7.938   2.849   0.609  0.3020  1.2867 -0.5927
15750SOL    HW258905   7.862   2.918   0.737  0.6178  2.4739 -1.0374
15751SOL     OW58906   4.287   8.369   2.698 -0.0495 -0.5787 -0.3809
15751SOL    HW158907   4.283   8.343   2.602  0.4704  0.9121 -0.8215
15751SOL    HW258908   4.381   8.396   2.721 -0.5495  0.8692  0.0363
15752SOL     OW58909   7.014   5.204   7.635 -0.0600  0.3673 -0.8231
15752SOL    HW158910   6.963   5.289   7.634 -0.3086  0.2560  0.8773
15752SOL    HW258911   6.976   5.141   7.567 -3.6664 -0.5639  1.9547
15753SOL     OW58912   2.356   0.731   2.662 -0.0505 -0.0705 -0.6138
15753SOL    HW158913   2.429   0.664   2.647  0.9325  1.3421 -2.2600
15753SOL    HW258914   2.391   0.806   2.717 -0.8334 -0.3371  0.2542
15754SOL     OW58915   1.945   8.622   2.216 -0.6356 -0.5017 -0.3835
15754SOL    HW158916   2.002   8.542   2.196 -0.2660  0.1014 -1.7953
15754SOL    HW258917   1.943   8.637   2.314  0.0970 -1.6638 -0.1765
15755SOL     OW58918   8.884   1.131   5.284  0.1888  0.4023 -0.0398
15755SOL    HW158919   8.946   1.145   5.362  0.5676 -0.0206 -0.2644
15755SOL    HW258920   8.868   1.034   5.271 -0.0354  0.4826 -0.3668
15756SOL     OW58921   2.423   3.467   0.406 -0.0172 -0.1249  0.1057
15756SOL    HW158922   2.439   3.396   0.337  1.2362  0.8506 -0.6311
15756SOL    HW258923   2.506   3.521   0.418 -0.6336  0.5523  1.4354
15757SOL     OW58924   3.193   4.895   4.630 -0.0192 -0.7988 -0.6744
15757SOL    HW158925   3.261   4.835   4.673  1.2798 -0.4937 -2.2590
15757SOL    HW258926   3.238   4.976   4.593 -1.0150 -1.1710 -2.8377
15758SOL     OW58927   4.296   8.256   5.813 -0.4224  0.3657 -0.0224
15758SOL    HW158928   4.291   8.308   5.898 -1.8100  1.1382 -0.5690
15758SOL    HW258929   4.283   8.159   5.832  0.6838  0.3694  0.8107
15759SOL     OW58930   2.443   7.656   6.629 -0.3565 -0.2173  0.2685
15759SOL    HW158931   2.373   7.624   6.564 -0.6132  2.4130 -0.7975
15759SOL    HW258932   2.534   7.631   6.594 -0.6213 -1.2033  0.2705
15760SOL     OW58933   2.013   5.012   6.719 -0.5552  0.1989 -0.4298
15760SOL    HW158934   1.982   5.105   6.701 -2.5351  0.0895  2.1502
15760SOL    HW258935   1.955   4.947   6.670 -0.9733  0.2256  0.0243
15761SOL     OW58936   2.865   7.318   6.557 -0.4028 -0.3187  0.0994
15761SOL    HW158937   2.801   7.258   6.510 -0.6883 -0.1810  0.3120
15761SOL    HW258938   2.920   7.367   6.490 -0.1033 -0.8897 -0.0713
15762SOL     OW58939   2.404   1.010   4.102  1.0122 -0.2948  0.0264
15762SOL    HW158940   2.321   1.050   4.138  0.5197 -0.2559 -1.1227
15762SOL    HW258941   2.381   0.947   4.027  2.0485  0.2853 -0.8022
15763SOL     OW58942   9.609   0.561   3.017 -0.7638 -0.4035 -0.3147
15763SOL    HW158943   9.621   0.496   3.092 -0.7904 -0.7313 -0.5946
15763SOL    HW258944   9.514   0.592   3.014 -0.7489 -0.3431 -0.1749
15764SOL     OW58945   2.462   1.610   4.850 -0.0537 -0.0670 -0.3374
15764SOL    HW158946   2.449   1.513   4.870  0.0650 -0.2272 -1.0419
15764SOL    HW258947   2.554   1.637   4.878  0.2479 -0.3844 -1.0084
15765SOL     OW58948   6.566   8.412   3.129  0.0483 -0.3986  0.1635
15765SOL    HW158949   6.557   8.426   3.030 -1.2527 -1.3397  0.1392
15765SOL    HW258950   6.501   8.470   3.177  1.4072  0.8446  0.5358
15766SOL     OW58951   0.107   0.762   7.782 -0.0491  0.2418 -0.2390
15766SOL    HW158952   0.128   0.792   7.875 -0.2060  0.3788 -0.2480
15766SOL    HW258953   0.076   0.840   7.728 -0.0528  0.1430 -0.3786
15767SOL     OW58954   9.105   3.546   0.355 -0.4283 -0.7424 -0.1013
15767SOL    HW158955   9.096   3.612   0.281 -0.0452 -0.2893  0.2538
15767SOL    HW258956   9.087   3.591   0.443  0.3938 -0.9774  0.1922
15768SOL     OW58957   8.319   9.024   0.611  0.0369  0.2208  0.0266
15768SOL    HW158958   8.298   8.998   0.705 -1.1107 -0.2999 -0.3740
15768SOL    HW258959   8.324   9.124   0.605  0.7565  0.2394  0.7646
15769SOL     OW58960   0.708   4.472   0.376 -0.0276 -0.1252  0.0492
15769SOL    HW158961   0.689   4.400   0.309 -2.2035  1.1514 -0.7488
15769SOL    HW258962   0.622   4.512   0.407  1.1242  1.5052  1.1943
15770SOL     OW58963   3.723   0.264   2.242 -0.2347  0.2078  0.1664
15770SOL    HW158964   3.743   0.335   2.174 -0.4526 -0.8859 -1.0589
15770SOL    HW258965   3.790   0.190   2.234  0.4906  0.6361  1.9978
15771SOL     OW58966   8.288   5.658   4.095  0.1638  0.0428  0.0723
15771SOL    HW158967   8.232   5.576   4.102  0.4398 -0.2691 -1.1157
15771SOL    HW258968   8.346   5.666   4.176 -1.1770  0.0650  1.0428
15772SOL     OW58969   9.161   7.749   1.472 -0.0688  0.3565 -0.0414
15772SOL    HW158970   9.237   7.708   1.523 -0.2681 -0.3251 -0.2914
15772SOL    HW258971   9.106   7.806   1.534  0.0635  0.0519  0.3601
15773SOL     OW58972   3.703   5.443   4.391  0.4709 -0.1104  0.4198
15773SOL    HW158973   3.756   5.398   4.320 -0.9380  0.4909 -1.0652
15773SOL    HW258974   3.608   5.412   4.386  0.1433  0.7205  1.3463
15774SOL     OW58975   8.601   8.584   3.722 -0.0047  0.0057 -0.3727
15774SOL    HW158976   8.529   8.566   3.790  0.3545  0.6010  0.1634
15774SOL    HW258977   8.586   8.674   3.681  0.6492  0.2903  0.0081
15775SOL     OW58978   9.229   1.799   1.859 -0.0318 -0.0355 -0.3558
15775SOL    HW158979   9.259   1.858   1.934 -0.1808  0.4000 -0.6320
15775SOL    HW258980   9.304   1.789   1.793 -0.4081  0.8551 -0.9250
15776SOL     OW58981   0.303   1.302   6.385 -0.2797 -0.9865  0.3981
15776SOL    HW158982   0.341   1.359   6.458  2.1061 -3.0096  0.7991
15776SOL    HW258983   0.330   1.341   6.297  1.6721 -1.6466  0.6711
15777SOL     OW58984   7.679   6.167   4.024 -0.2365  0.1475 -0.0047
15777SOL    HW158985   7.600   6.229   4.021 -0.4502 -0.1609 -0.7484
15777SOL    HW258986   7.723   6.164   3.935  0.1285 -0.3191  0.1881
15778SOL     OW58987   2.835   3.460   0.449  0.3928 -0.3801 -0.0003
15778SOL    HW158988   2.756   3.501   0.494  1.9069  1.3035  1.1712
15778SOL    HW258989   2.863   3.517   0.372  1.5496 -0.0230  0.6762
15779SOL     OW58990   7.639   4.702   6.752  0.6169 -0.0346 -0.2711
15779SOL    HW158991   7.654   4.730   6.657  1.0899 -0.0809 -0.2114
15779SOL    HW258992   7.718   4.728   6.807  0.5771 -0.5026  0.0065
15780SOL     OW58993   1.755   4.885   8.102  0.5496 -0.5023  0.2357
15780SOL    HW158994   1.681   4.835   8.057  0.1942 -0.2118  0.4872
15780SOL    HW258995   1.827   4.906   8.035  0.4903 -0.9496  0.0336
15781SOL     OW58996   5.841   0.847   5.082  0.0219 -0.2034  0.5887
15781SOL    HW158997   5.886   0.935   5.094 -1.2259  0.5483 -0.1401
15781SOL    HW258998   5.753   0.860   5.037  0.0952 -1.8942 -0.0823
15782SOL     OW58999   7.955   7.066   4.303  0.1283 -0.7855 -0.1926
15782SOL    HW159000   8.033   7.006   4.320  0.7773 -0.2430 -1.1228
15782SOL    HW259001   7.942   7.127   4.381  1.2115 -0.2870 -0.3768
15783SOL     OW59002   6.585   8.376   6.211  0.6488 -0.2125  0.9905
15783SOL    HW159003   6.663   8.436   6.190 -0.5673  0.8498 -0.5693
15783SOL    HW259004   6.586   8.297   6.149  0.9757 -0.6519  1.5514
15784SOL     OW59005   3.130   3.697   7.560  0.0804  0.1382 -0.2566
15784SOL    HW159006   3.137   3.763   7.486  1.5746  0.5125  0.1990
15784SOL    HW259007   3.055   3.634   7.542  0.1390  0.5159 -1.8531
15785SOL     OW59008   9.837   2.903   5.545  0.4376  0.5072  0.2901
15785SOL    HW159009   9.915   2.875   5.601 -0.3747 -2.6861 -0.1240
15785SOL    HW259010   9.762   2.931   5.604 -0.1937 -2.2318  0.8169
15786SOL     OW59011   2.936   1.286   3.297 -0.5334  0.1916  0.0002
15786SOL    HW159012   3.005   1.228   3.254  0.1131  1.7048 -1.0603
15786SOL    HW259013   2.954   1.293   3.395  0.0949 -0.4117 -0.0709
15787SOL     OW59014   0.171   2.578   4.611 -0.1476  0.3052  0.5021
15787SOL    HW159015   0.111   2.617   4.541 -0.3800  0.3057  0.7035
15787SOL    HW259016   0.215   2.651   4.662 -0.9153  0.3094  1.1666
15788SOL     OW59017   0.808   1.154   1.686  0.3457 -0.4536  0.2713
15788SOL    HW159018   0.905   1.136   1.700  1.0274  0.7517 -2.6355
15788SOL    HW259019   0.788   1.249   1.711  0.4443  0.0487 -1.5271
15789SOL     OW59020   0.664   5.096   1.656  0.4096 -0.1944 -0.5593
15789SOL    HW159021   0.612   5.091   1.572  1.0319 -0.8034 -0.9176
15789SOL    HW259022   0.669   5.005   1.698  2.0872 -0.3620 -1.0929
15790SOL     OW59023   2.428   7.138   4.747  0.2295 -0.3166  0.1068
15790SOL    HW159024   2.379   7.096   4.823  3.1036  0.1368  2.3159
15790SOL    HW259025   2.500   7.197   4.783  2.5501 -1.1421 -2.9683
15791SOL     OW59026   7.483   4.336   8.032 -0.0226 -0.1320 -0.5710
15791SOL    HW159027   7.464   4.400   7.958  0.1367  2.2155  1.3663
15791SOL    HW259028   7.572   4.292   8.017  0.4744  1.0996 -1.2488
15792SOL     OW59029   3.896   3.000   3.539  0.4902  0.4538 -0.2078
15792SOL    HW159030   3.916   2.902   3.547 -1.9338  0.0192  1.1088
15792SOL    HW259031   3.873   3.021   3.444  0.1010 -0.4496 -0.3249
15793SOL     OW59032   4.832   8.967   6.815 -0.4147 -0.1802  0.5769
15793SOL    HW159033   4.803   8.966   6.911  0.9820  0.4794  1.0149
15793SOL    HW259034   4.930   8.986   6.810 -0.3945 -0.6296 -0.9688
15794SOL     OW59035   2.065   3.891   0.704 -0.3801  0.3972  0.3556
15794SOL    HW159036   2.011   3.806   0.707 -0.0754  0.1881 -0.0416
15794SOL    HW259037   2.148   3.878   0.758  0.6416 -0.2442 -1.3348
15795SOL     OW59038   0.311   3.096   2.429 -0.4588 -0.2505  0.1064
15795SOL    HW159039   0.312   3.195   2.446  1.4036 -0.5126  1.6631
15795SOL    HW259040   0.392   3.071   2.376  0.2847 -1.2718  1.7081
15796SOL     OW59041   1.744   6.495   5.817 -0.1835 -0.1862  0.9170
15796SOL    HW159042   1.733   6.451   5.906 -0.0801 -1.3996  0.3323
15796SOL    HW259043   1.658   6.491   5.766 -0.1504  0.2133  0.8248
15797SOL     OW59044   3.583   8.969   8.161 -0.7027 -0.1716 -0.2207
15797SOL    HW159045   3.601   8.911   8.083  0.9684 -0.0293  0.0339
15797SOL    HW259046   3.652   8.953   8.232 -3.3006 -1.7480  2.0753
15798SOL     OW59047   4.011   8.446   6.464 -0.5324  0.4431  0.7186
15798SOL    HW159048   4.010   8.484   6.371 -0.7503  0.1169  0.5861
15798SOL    HW259049   3.927   8.472   6.511 -1.3314 -1.0330  0.1533
15799SOL     OW59050   2.132   4.586   4.985 -0.2567  0.2638 -0.5517
15799SOL    HW159051   2.185   4.510   4.946 -0.8736  0.1529 -1.1923
15799SOL    HW259052   2.080   4.553   5.064  0.0186  0.1875 -0.4022
15800SOL     OW59053   1.764   9.654   5.415  0.1068  0.2446 -0.5044
15800SOL    HW159054   1.822   9.607   5.481  0.7826  0.1201 -1.1816
15800SOL    HW259055   1.723   9.734   5.458  1.4919  0.8406 -0.2886
15801SOL     OW59056   0.250   7.390   2.699  0.6224  0.3332 -0.2029
15801SOL    HW159057   0.178   7.328   2.729 -0.6171  2.0715  0.5029
15801SOL    HW259058   0.228   7.427   2.609 -0.1405  2.0200  0.6575
15802SOL     OW59059   5.049   9.970   3.032  0.4515  0.8419 -0.3141
15802SOL    HW159060   5.014   9.877   3.029  0.8686  0.6634  0.3420
15802SOL    HW259061   4.987  10.028   3.084  0.7032  0.7020  0.1492
15803SOL     OW59062   3.864   0.232   3.912  0.0692  0.3479 -0.0686
15803SOL    HW159063   3.924   0.154   3.927  0.4073  0.9393  1.7761
15803SOL    HW259064   3.769   0.201   3.908  0.2835 -0.2746 -0.3701
15804SOL     OW59065   4.783   7.419   1.975 -0.2069 -0.2167  0.2853
15804SOL    HW159066   4.830   7.360   1.909  1.8709  0.9617  0.6709
15804SOL    HW259067   4.754   7.503   1.930 -0.0720 -0.0272  0.5550
15805SOL     OW59068   0.411   8.828   6.511  0.0970 -0.0038  0.0609
15805SOL    HW159069   0.486   8.895   6.508 -0.1734  0.4557  2.3379
15805SOL    HW259070   0.448   8.737   6.491  1.2116  0.2873  0.6911
15806SOL     OW59071   8.277   2.070   3.431 -0.1436  0.6381  0.3273
15806SOL    HW159072   8.243   1.992   3.484  0.4092 -1.3493 -2.1580
15806SOL    HW259073   8.374   2.058   3.412 -0.0618  1.9331 -0.1076
15807SOL     OW59074   5.590   5.093   1.703  0.4914 -0.4558  0.2262
15807SOL    HW159075   5.686   5.117   1.718  0.4457 -0.4400  0.4989
15807SOL    HW259076   5.550   5.060   1.789  0.7879 -2.3437 -0.3225
15808SOL     OW59077   1.877   1.174   5.086 -0.8007 -0.8088  0.2291
15808SOL    HW159078   1.949   1.221   5.034 -0.1158 -1.4578  0.5702
15808SOL    HW259079   1.804   1.238   5.108 -0.0680 -0.0042  0.3438
15809SOL     OW59080   3.097   9.895   5.907 -0.1558 -0.0943  0.0440
15809SOL    HW159081   3.080   9.920   5.812 -0.6309 -1.2497 -0.1777
15809SOL    HW259082   3.072   9.972   5.967 -0.0396  0.5588 -0.7398
15810SOL     OW59083   8.390   7.580   0.460  0.0232  0.1334 -0.2652
15810SOL    HW159084   8.464   7.528   0.416  0.1796 -2.4656  2.8303
15810SOL    HW259085   8.429   7.649   0.520 -0.0715 -0.1933  0.1761
15811SOL     OW59086   8.711   6.291   5.520  0.2376  0.6953 -0.6100
15811SOL    HW159087   8.652   6.254   5.592 -0.8555 -0.6572 -2.1432
15811SOL    HW259088   8.806   6.286   5.549 -0.0681 -1.2028  0.1608
15812SOL     OW59089   1.137   5.389   3.409  0.1359  0.0329 -0.5792
15812SOL    HW159090   1.158   5.386   3.507  1.9582  0.9523 -0.9192
15812SOL    HW259091   1.213   5.431   3.360 -0.9536 -0.0073 -2.3491
15813SOL     OW59092   1.069   7.840   1.092  0.2006 -0.2953  0.4154
15813SOL    HW159093   1.002   7.813   1.160  0.6112 -3.6555 -0.4275
15813SOL    HW259094   1.032   7.826   1.000  1.1678  0.1591 -0.0569
15814SOL     OW59095   1.986   6.896   4.734 -0.5907  0.3556 -0.2285
15814SOL    HW159096   1.951   6.989   4.741 -1.7678 -0.1722  1.0224
15814SOL    HW259097   1.917   6.831   4.766  0.7369 -0.8585  0.2382
15815SOL     OW59098   9.095   3.357   4.136  0.3655 -0.4686 -0.0236
15815SOL    HW159099   9.008   3.325   4.096  0.5520 -1.2489  0.1853
15815SOL    HW259100   9.171   3.319   4.084  0.6233 -2.0198  1.4393
15816SOL     OW59101   9.469   5.131   6.217  0.2839 -0.1750  0.3090
15816SOL    HW159102   9.394   5.193   6.239 -1.5503 -1.7937 -1.2147
15816SOL    HW259103   9.553   5.183   6.202 -1.0009  1.8322  0.0184
15817SOL     OW59104   3.946   9.500   6.378  0.0272 -0.3922 -0.3321
15817SOL    HW159105   4.039   9.481   6.411  0.3805 -1.2032 -1.7156
15817SOL    HW259106   3.946   9.587   6.328 -0.2510  0.2569  0.7915
15818SOL     OW59107   4.537   0.100   1.510 -0.2517 -0.1506  0.4197
15818SOL    HW159108   4.482   0.025   1.475 -1.8970  1.5998 -0.8550
15818SOL    HW259109   4.526   0.106   1.609 -0.4419 -1.3111  0.4768
15819SOL     OW59110   2.256   7.015   2.182 -0.1226 -0.4771  0.1220
15819SOL    HW159111   2.181   7.013   2.117 -0.6470 -1.8115  0.7605
15819SOL    HW259112   2.329   6.954   2.150  0.6265  0.6515 -0.3891
15820SOL     OW59113   3.972   6.256   2.691 -0.0849 -0.1227 -0.4356
15820SOL    HW159114   4.063   6.291   2.669 -0.0068  0.6199  0.9877
15820SOL    HW259115   3.950   6.278   2.786 -0.7732 -2.3550 -0.0276
15821SOL     OW59116   8.792   1.557   5.499 -0.2683  0.2084  0.0998
15821SOL    HW159117   8.852   1.574   5.420 -1.2361 -0.3577 -0.7554
15821SOL    HW259118   8.848   1.527   5.577  0.5415 -0.5027 -0.7486
15822SOL     OW59119   2.839   1.571   0.375  0.1520 -0.4819 -0.3622
15822SOL    HW159120   2.846   1.615   0.285  1.3263 -1.1593 -0.6052
15822SOL    HW259121   2.918   1.597   0.431 -1.2182  0.9778  0.9516
15823SOL     OW59122   1.470   3.133   7.624 -0.4224 -0.3632  0.6565
15823SOL    HW159123   1.445   3.212   7.679 -0.2045 -0.5898  1.0891
15823SOL    HW259124   1.496   3.162   7.532 -1.5688 -0.0626  0.4283
15824SOL     OW59125   9.278   3.353   3.708 -0.0183 -0.1660 -0.6279
15824SOL    HW159126   9.357   3.389   3.657  0.8526  1.6103  1.8794
15824SOL    HW259127   9.308   3.319   3.797 -2.3912  2.7641  1.3731
15825SOL     OW59128   9.963   2.032   4.991 -0.3153  0.0516  0.2005
15825SOL    HW159129  10.060   2.049   4.979 -0.6294  0.2550 -2.3628
15825SOL    HW259130   9.948   1.934   5.008  0.2476 -0.1566 -0.4815
15826SOL     OW59131   8.280   2.966   7.037 -0.1278 -0.7601 -0.1850
15826SOL    HW159132   8.268   3.063   7.061  1.1702 -0.4243 -0.8483
15826SOL    HW259133   8.248   2.952   6.943 -2.1872 -1.4051  0.5864
15827SOL     OW59134   3.182   1.706   8.034  0.4443 -0.6431 -0.1341
15827SOL    HW159135   3.260   1.740   7.983  0.9708 -1.6663 -0.0321
15827SOL    HW259136   3.145   1.778   8.093  1.3755 -0.1962 -0.1012
15828SOL     OW59137   5.089   3.690   0.133 -0.5058  0.5306  0.7002
15828SOL    HW159138   5.122   3.611   0.185 -0.4966  0.1095  0.0599
15828SOL    HW259139   5.128   3.774   0.172 -0.3257  0.2062  1.2347
15829SOL     OW59140   5.423   4.933   0.591 -0.5019  0.3646  0.1554
15829SOL    HW159141   5.385   4.950   0.500 -0.7841  0.8034  0.3519
15829SOL    HW259142   5.498   4.996   0.609 -0.2263  0.0568  0.0996
15830SOL     OW59143   2.695   6.864   6.101 -0.5706 -0.5630  0.4763
15830SOL    HW159144   2.598   6.841   6.099 -0.1978 -2.1462 -1.5124
15830SOL    HW259145   2.732   6.847   6.192 -1.5476 -2.7366  0.5059
15831SOL     OW59146   3.638   3.190   7.370 -0.0375 -0.3878  0.3353
15831SOL    HW159147   3.708   3.224   7.307 -1.7155 -1.8793 -2.4073
15831SOL    HW259148   3.678   3.182   7.461  2.6462  1.1848 -0.6201
15832SOL     OW59149   1.570   9.738   8.044  0.2756  0.1018  0.0393
15832SOL    HW159150   1.607   9.677   8.115 -0.5383 -0.0948  0.3029
15832SOL    HW259151   1.628   9.820   8.037 -0.3870  0.7533  1.8776
15833SOL     OW59152   4.702   0.589   7.450  0.1383 -0.1137 -0.2070
15833SOL    HW159153   4.654   0.675   7.459 -0.4235 -0.3325 -1.1172
15833SOL    HW259154   4.670   0.540   7.369 -0.3606 -1.6898  0.9159
15834SOL     OW59155   9.666   9.756   2.081 -0.3690  0.5870  0.7961
15834SOL    HW159156   9.661   9.755   2.181 -2.0967  0.0652  0.7198
15834SOL    HW259157   9.753   9.716   2.051  0.1637  0.7729  2.0877
15835SOL     OW59158   5.615   5.198   1.048  0.0101 -0.7979 -0.5062
15835SOL    HW159159   5.673   5.218   0.969  1.4465 -0.9139  0.4948
15835SOL    HW259160   5.550   5.272   1.061  1.3249  0.3574 -0.4034
15836SOL     OW59161   3.387   5.397   5.829 -0.2997  0.7936 -0.3415
15836SOL    HW159162   3.382   5.345   5.743 -1.9249  0.1969  0.0958
15836SOL    HW259163   3.450   5.350   5.892  0.5747  1.0070 -1.0406
15837SOL     OW59164   4.058   4.259   3.803  0.1812  0.0491  0.3648
15837SOL    HW159165   4.055   4.337   3.865 -0.2570 -0.8355  1.4885
15837SOL    HW259166   4.146   4.211   3.815 -0.2091 -0.5547  0.8618
15838SOL     OW59167   9.142   5.995   7.004 -0.3847 -0.1204  0.2979
15838SOL    HW159168   9.239   5.974   7.019 -0.2335 -0.4130 -1.0363
15838SOL    HW259169   9.087   5.951   7.074  0.5777  1.3582  2.0306
15839SOL     OW59170   1.741   7.135   1.284 -0.2976 -0.3017 -0.3043
15839SOL    HW159171   1.720   7.040   1.308  0.4866 -0.0551  1.4488
15839SOL    HW259172   1.700   7.196   1.352 -2.4317  0.7494 -2.4890
15840SOL     OW59173   8.789   5.436   0.200 -0.1663  0.0675  0.4231
15840SOL    HW159174   8.744   5.422   0.288  1.7273 -1.6860  1.1563
15840SOL    HW259175   8.883   5.402   0.204  0.2951  0.9061 -1.9705
15841SOL     OW59176   1.913   6.265   2.322 -0.2219 -0.2810 -0.1827
15841SOL    HW159177   1.907   6.239   2.226 -1.4902 -0.1600 -0.1465
15841SOL    HW259178   1.870   6.355   2.335 -0.7922 -0.6714  0.6335
15842SOL     OW59179   8.375   3.482   0.592 -0.0162  0.3895  0.4191
15842SOL    HW159180   8.296   3.447   0.541 -0.5832  1.8251  0.2846
15842SOL    HW259181   8.456   3.429   0.568 -1.0141 -1.3921  0.8859
15843SOL     OW59182   3.438   5.664   7.052 -0.3178  0.1618 -0.3906
15843SOL    HW159183   3.407   5.759   7.055 -1.7126 -0.3348  1.1160
15843SOL    HW259184   3.418   5.619   7.139  3.7190 -0.4868  0.3132
15844SOL     OW59185   1.476   4.005   6.934  0.2330 -0.1064  0.0113
15844SOL    HW159186   1.436   3.914   6.927 -0.5417  0.0633  1.8356
15844SOL    HW259187   1.402   4.073   6.942  0.8144  0.5603 -0.2582
15845SOL     OW59188   0.737   4.047   6.260  0.1600 -0.8187 -0.3190
15845SOL    HW159189   0.644   4.079   6.278 -0.3962 -1.6410 -1.5974
15845SOL    HW259190   0.739   3.947   6.262  1.2441 -0.7859  0.7418
15846SOL     OW59191   8.012   0.649   5.041 -0.9447 -0.1332 -0.0854
15846SOL    HW159192   7.952   0.645   5.120 -0.6862  0.8320  0.1614
15846SOL    HW259193   7.973   0.711   4.972 -0.0566  0.7913  0.2300
15847SOL     OW59194   7.606   0.821   0.228 -0.5059  0.0739 -0.2486
15847SOL    HW159195   7.620   0.916   0.257  0.1285  0.3451 -1.3823
15847SOL    HW259196   7.695   0.776   0.219 -0.7993 -0.5960  0.1718
15848SOL     OW59197   4.462   0.241   5.472  0.1311  0.0934  0.3618
15848SOL    HW159198   4.536   0.280   5.416  0.3242  0.5729  0.9425
15848SOL    HW259199   4.378   0.237   5.418 -0.6228  3.9467  1.1107
15849SOL     OW59200   7.859   8.098   1.940 -0.2023 -0.3420  0.4920
15849SOL    HW159201   7.889   8.184   1.898 -0.0613 -0.8955 -0.5690
15849SOL    HW259202   7.840   8.113   2.037  1.9768  0.3697  0.8354
15850SOL     OW59203   8.339   0.194   2.678 -0.0876  0.3280 -0.2376
15850SOL    HW159204   8.363   0.176   2.774 -0.8104  1.8078  0.2515
15850SOL    HW259205   8.257   0.142   2.654 -0.4685  0.6849  0.2617
15851SOL     OW59206   2.999   0.957   7.009  0.2263 -0.3705 -0.5359
15851SOL    HW159207   3.083   0.921   6.971  1.4573  1.6983  0.1652
15851SOL    HW259208   3.001   0.949   7.109 -0.9467 -1.4547 -0.5894
15852SOL     OW59209   2.939   6.708   1.048  0.8233  0.5086  0.0026
15852SOL    HW159210   2.906   6.711   1.143 -0.6636 -2.4020 -0.3659
15852SOL    HW259211   2.893   6.779   0.995 -2.5369 -1.3710  0.2511
15853SOL     OW59212   4.927   1.687   1.882  0.2115  0.6503 -0.5933
15853SOL    HW159213   4.875   1.734   1.953  1.2219 -0.5708  0.9965
15853SOL    HW259214   4.922   1.738   1.796 -0.8886  2.2292  0.4080
15854SOL     OW59215   2.454   1.064   2.722  0.0292  0.9104  0.1862
15854SOL    HW159216   2.495   1.050   2.813  1.4941 -1.0472 -0.7381
15854SOL    HW259217   2.354   1.069   2.732  0.2338  1.9575  2.0408
15855SOL     OW59218   4.558   4.361   5.264  0.3916 -0.4523  0.0400
15855SOL    HW159219   4.468   4.400   5.287  1.4148  0.7390  2.1465
15855SOL    HW259220   4.550   4.262   5.258 -0.7759 -0.4776  1.6402
15856SOL     OW59221   0.471   3.154   6.149  0.8432  0.1013 -0.2836
15856SOL    HW159222   0.534   3.132   6.074  0.3846  1.3854 -1.0590
15856SOL    HW259223   0.463   3.253   6.158 -0.1436 -0.0466  0.5990
15857SOL     OW59224   5.690   5.676   0.775 -0.0482  0.2195 -0.1274
15857SOL    HW159225   5.654   5.627   0.854  0.0008  0.0942 -0.1838
15857SOL    HW259226   5.630   5.662   0.696  0.2687 -0.2073 -0.2923
15858SOL     OW59227   6.111   8.911   2.832 -0.1811  0.0145  0.6683
15858SOL    HW159228   6.122   8.993   2.888 -1.9497  0.6527  0.1197
15858SOL    HW259229   6.146   8.928   2.740  0.2898 -0.1465  0.8190
15859SOL     OW59230   1.670   9.950   0.116  0.5604  0.2755 -0.4309
15859SOL    HW159231   1.581   9.907   0.125  0.0105  1.0221 -2.0638
15859SOL    HW259232   1.660  10.041   0.075  2.1565 -0.1101 -1.7379
15860SOL     OW59233   2.690   0.006   1.973  0.3257 -0.6102 -0.1145
15860SOL    HW159234   2.641  -0.082   1.976  0.6461 -0.8538 -1.6402
15860SOL    HW259235   2.720   0.024   1.880  0.7712  0.8595  0.3009
15861SOL     OW59236   0.170   7.560   5.395 -0.3718  0.3398  0.1886
15861SOL    HW159237   0.244   7.601   5.342  0.0803 -0.0406  0.5198
15861SOL    HW259238   0.159   7.464   5.368 -0.2649  0.1969  0.6538
15862SOL     OW59239   8.418   0.985   5.221 -0.6240 -0.0742 -0.5510
15862SOL    HW159240   8.452   1.079   5.215  0.1872 -0.4062 -1.3710
15862SOL    HW259241   8.384   0.956   5.131  2.2032 -1.6718 -1.2002
15863SOL     OW59242   9.784   6.732   1.879 -0.5651  0.1962 -0.0875
15863SOL    HW159243   9.731   6.692   1.954  0.9446  0.7142  1.3045
15863SOL    HW259244   9.794   6.831   1.895 -1.0850  0.4914 -1.5178
15864SOL     OW59245   4.398   1.264   1.297  0.2257  0.0383  0.2245
15864SOL    HW159246   4.380   1.359   1.273 -0.3325 -0.4513 -1.3651
15864SOL    HW259247   4.466   1.226   1.235 -1.4283 -1.3339 -0.7885
15865SOL     OW59248   4.189   3.622   5.393  0.0955 -0.4756  0.4551
15865SOL    HW159249   4.148   3.704   5.353  1.0908  0.5362  1.4795
15865SOL    HW259250   4.191   3.549   5.325 -0.4549  0.4648 -0.5815
15866SOL     OW59251   2.184   1.098   6.752 -0.2136 -0.5267 -0.1115
15866SOL    HW159252   2.256   1.167   6.754 -1.0690  0.3753 -0.4442
15866SOL    HW259253   2.206   1.029   6.684  1.2358 -1.2438  1.0540
15867SOL     OW59254   7.816   9.740   5.484  0.2123 -0.4308 -0.3057
15867SOL    HW159255   7.904   9.705   5.517 -0.3771 -1.6758 -0.0556
15867SOL    HW259256   7.742   9.704   5.540 -0.3746  1.6284  0.2893
15868SOL     OW59257   3.625   7.426   1.163  0.1065  1.2947 -0.1808
15868SOL    HW159258   3.693   7.359   1.190 -0.7580  0.9619  1.2214
15868SOL    HW259259   3.564   7.386   1.094  0.4902  1.1358 -0.4290
15869SOL     OW59260   3.073   6.983   7.834 -0.0115  0.2514 -0.2277
15869SOL    HW159261   3.023   7.044   7.773  0.5843  1.8122  0.8104
15869SOL    HW259262   3.159   6.955   7.791  0.6522  1.7614  0.0910
15870SOL     OW59263   9.624   0.459   7.878 -0.1252  0.5036 -1.1689
15870SOL    HW159264   9.657   0.366   7.890 -1.3551  0.4164  2.1374
15870SOL    HW259265   9.526   0.458   7.859 -0.4650  1.1676  0.4919
15871SOL     OW59266   7.941   5.852   1.756 -0.4255  0.1028 -0.0868
15871SOL    HW159267   7.926   5.814   1.847 -1.2625 -3.1627 -1.5424
15871SOL    HW259268   7.878   5.928   1.741 -0.5254  0.4426  1.8917
15872SOL     OW59269   6.201   8.856   4.349 -0.1396 -0.0826  0.2577
15872SOL    HW159270   6.108   8.820   4.348  0.5284 -1.8865 -2.6611
15872SOL    HW259271   6.244   8.834   4.436 -1.3901 -2.0676  0.4003
15873SOL     OW59272   9.762   9.863   3.041 -0.1802  0.3330 -0.2424
15873SOL    HW159273   9.666   9.862   3.011  0.1916  1.6740 -1.5283
15873SOL    HW259274   9.803   9.774   3.021 -1.3298 -0.4905  0.9502
15874SOL     OW59275   6.006   2.035   5.245  0.3930  0.1257 -0.7028
15874SOL    HW159276   5.966   1.991   5.165  0.8714  0.8024 -1.3095
15874SOL    HW259277   6.022   2.132   5.226  0.7470  0.2322  0.1202
15875SOL     OW59278   1.109   8.798   5.846  0.7818 -0.2939  0.3364
15875SOL    HW159279   1.055   8.808   5.930 -0.0004  0.1291 -0.2065
15875SOL    HW259280   1.192   8.746   5.866  1.1130  0.6890  1.5875
15876SOL     OW59281   9.834   8.040   5.174  0.0363 -0.2963  0.2015
15876SOL    HW159282   9.751   8.032   5.119  1.6712  1.3087 -2.6197
15876SOL    HW259283   9.849   8.136   5.199  1.7391 -0.3585 -0.4861
15877SOL     OW59284   2.700   5.700   3.416  0.2013  0.2086  0.7048
15877SOL    HW159285   2.725   5.647   3.497  1.1764 -1.3489 -0.5661
15877SOL    HW259286   2.683   5.637   3.340 -2.3155  1.5552  0.1189
15878SOL     OW59287   5.606   0.932   4.294  0.2959 -0.0223  0.0181
15878SOL    HW159288   5.646   0.930   4.386 -0.5354  1.4210  0.4223
15878SOL    HW259289   5.630   0.848   4.246  0.5684 -0.8890  1.6252
15879SOL     OW59290   3.009   9.754   1.127  0.1094 -0.1321  0.3659
15879SOL    HW159291   2.956   9.704   1.196 -1.3589  0.2146 -0.5161
15879SOL    HW259292   3.030   9.693   1.051  2.9842 -0.9484  1.7078
15880SOL     OW59293   5.716   8.957   3.010  0.2063 -0.7164  0.2073
15880SOL    HW159294   5.683   8.865   2.986  1.1656 -0.6532 -1.3706
15880SOL    HW259295   5.641   9.022   3.005 -0.2297 -1.2111  0.2432
15881SOL     OW59296   1.143   8.099   5.970  0.6734  0.1842 -0.0467
15881SOL    HW159297   1.172   8.123   5.878  1.4722  0.1287  0.1830
15881SOL    HW259298   1.158   8.177   6.031  2.0107 -0.4414  0.4325
15882SOL     OW59299   9.123   9.662   3.424  0.0686  0.0359 -0.3091
15882SOL    HW159300   9.165   9.574   3.445  1.2348  0.8617  0.9325
15882SOL    HW259301   9.048   9.679   3.488 -0.4143 -0.2334 -0.8030
15883SOL     OW59302   4.595   2.713   3.284 -0.1359 -0.0398 -0.0086
15883SOL    HW159303   4.600   2.622   3.244  3.1729  0.7703 -1.6669
15883SOL    HW259304   4.536   2.771   3.228  2.1803  0.2977 -2.1736
15884SOL     OW59305   3.921   4.687   1.965  0.2161  0.3816  0.4333
15884SOL    HW159306   3.860   4.750   2.012 -0.9837 -1.4908  1.4302
15884SOL    HW259307   3.929   4.714   1.869  0.8022  2.8219  1.1505
15885SOL     OW59308   2.524   7.861   6.280 -0.1690 -0.4527 -0.2954
15885SOL    HW159309   2.561   7.779   6.236 -0.2539 -1.1701  0.9367
15885SOL    HW259310   2.543   7.941   6.224  2.1288 -0.9821 -0.2891
15886SOL     OW59311   0.590   5.426   0.632  0.4864 -0.4177 -0.6520
15886SOL    HW159312   0.659   5.491   0.600  0.4073  0.6407  1.2540
15886SOL    HW259313   0.572   5.442   0.729 -1.7688 -1.2900 -0.9024
15887SOL     OW59314   8.236   4.649   1.564  0.0092 -0.0501 -0.4809
15887SOL    HW159315   8.161   4.584   1.555  0.0045 -0.0855 -0.1727
15887SOL    HW259316   8.310   4.608   1.618 -0.0682  0.2648 -0.1340
15888SOL     OW59317   8.962   6.252   4.400  0.3612  0.2622 -0.3743
15888SOL    HW159318   9.013   6.325   4.356 -1.2117  0.6457 -1.5885
15888SOL    HW259319   8.948   6.177   4.336  0.6600 -0.4772  0.4082
15889SOL     OW59320   1.058   2.955   4.424  0.2278  0.2137 -0.2232
15889SOL    HW159321   0.968   2.930   4.387  0.6706 -0.2110 -1.0344
15889SOL    HW259322   1.073   2.908   4.511 -0.2152  0.0540 -0.2306
15890SOL     OW59323   9.153   5.969   1.545 -0.1165 -0.6271 -0.0204
15890SOL    HW159324   9.079   5.961   1.478 -0.2358 -1.5845  0.2272
15890SOL    HW259325   9.208   6.049   1.523 -0.5169 -0.5875 -0.9103
15891SOL     OW59326   9.615   1.921   7.235  0.7212  0.0342  0.1099
15891SOL    HW159327   9.621   2.003   7.293 -2.8337 -0.7480  1.7088
15891SOL    HW259328   9.588   1.948   7.143  0.6391  0.7545  0.3367
15892SOL     OW59329   0.726   1.310   5.893  0.2215 -0.3665  0.2166
15892SOL    HW159330   0.737   1.211   5.882  1.1886 -0.1764 -0.5737
15892SOL    HW259331   0.786   1.342   5.965  0.6109 -0.2134 -0.1738
15893SOL     OW59332   9.598   9.405   3.116  0.0456 -0.2758 -0.1523
15893SOL    HW159333   9.657   9.370   3.043 -0.8759 -0.0261 -1.0284
15893SOL    HW259334   9.642   9.390   3.204  2.0782  1.2306 -0.8862
15894SOL     OW59335   0.368   1.293   0.108 -0.0242 -0.3651 -0.3928
15894SOL    HW159336   0.283   1.342   0.089 -0.2330 -0.9376 -0.9582
15894SOL    HW259337   0.444   1.338   0.061  0.3560  1.4056  1.8255
15895SOL     OW59338   2.682   9.172   0.857 -0.2898 -0.0088 -0.4039
15895SOL    HW159339   2.679   9.132   0.949 -1.2548 -0.4585 -0.6247
15895SOL    HW259340   2.718   9.265   0.862 -0.1523 -0.1025  0.4029
15896SOL     OW59341   2.932   0.749   8.143  0.4930 -0.2042  0.7610
15896SOL    HW159342   2.924   0.848   8.155  1.2162 -0.1351  0.6631
15896SOL    HW259343   2.847   0.713   8.103 -0.4776  0.1005  2.5285
15897SOL     OW59344   3.513   1.251   1.210 -0.1398 -0.5107 -0.0904
15897SOL    HW159345   3.573   1.319   1.251 -2.3179  1.4502 -0.0700
15897SOL    HW259346   3.568   1.176   1.173  2.1871  0.4080  1.3978
15898SOL     OW59347   8.234   2.769   4.246  0.1130 -0.4598  0.1208
15898SOL    HW159348   8.218   2.731   4.155 -1.6845 -0.3852  0.3895
15898SOL    HW259349   8.247   2.694   4.311  1.9022 -0.5055 -0.2698
15899SOL     OW59350   0.488   6.128   7.327  0.6253  0.2314  0.0350
15899SOL    HW159351   0.503   6.216   7.371  2.3764 -0.6855  1.3502
15899SOL    HW259352   0.556   6.062   7.360 -0.3001 -1.4640 -1.3383
15900SOL     OW59353   2.350   5.589   0.847 -0.4335 -0.4079  0.7180
15900SOL    HW159354   2.339   5.507   0.904 -0.0889 -1.4089 -0.6109
15900SOL    HW259355   2.420   5.572   0.778 -1.1352  0.6322 -0.2673
15901SOL     OW59356   1.077   3.788   0.490 -0.2978 -0.2065  0.9491
15901SOL    HW159357   1.107   3.736   0.410 -2.5648 -1.0678  0.6125
15901SOL    HW259358   1.049   3.725   0.562  0.2857  0.5714  1.8702
15902SOL     OW59359   0.108   0.726   2.174  0.3267  0.2937  0.4137
15902SOL    HW159360   0.117   0.679   2.086  0.4811 -0.8520  1.0354
15902SOL    HW259361   0.060   0.667   2.239  0.4231  1.0413  1.1768
15903SOL     OW59362   5.480   1.552   7.688  0.1847 -0.5707 -0.3277
15903SOL    HW159363   5.565   1.576   7.643  1.1239 -0.8395  1.2609
15903SOL    HW259364   5.459   1.620   7.758  0.1363 -1.5585  0.6282
15904SOL     OW59365   5.467   5.801   1.093  0.3691  0.2535 -0.0621
15904SOL    HW159366   5.451   5.889   1.049 -1.4591  0.0455  0.1440
15904SOL    HW259367   5.384   5.772   1.142  0.9703 -1.5291 -0.0465
15905SOL     OW59368   7.908   5.822   3.299 -0.1902  0.0634 -0.3079
15905SOL    HW159369   7.985   5.883   3.315 -0.5323  0.6554 -0.8867
15905SOL    HW259370   7.841   5.833   3.374 -0.2020  0.3209 -0.3563
15906SOL     OW59371   4.804   9.533   7.379  0.0255 -0.0922 -0.1180
15906SOL    HW159372   4.867   9.519   7.302 -0.8814 -0.2036 -0.8444
15906SOL    HW259373   4.782   9.631   7.386  1.4848  0.1701  1.1042
15907SOL     OW59374   3.766   1.987   4.890  0.1790 -0.1179  0.1774
15907SOL    HW159375   3.851   2.023   4.928  0.9122 -1.5395 -0.0838
15907SOL    HW259376   3.777   1.968   4.793 -0.9505  1.2219 -0.2306
15908SOL     OW59377   8.653   4.916   2.810 -0.0648  0.3223 -0.0192
15908SOL    HW159378   8.676   4.977   2.886 -0.9380 -0.5036  0.9164
15908SOL    HW259379   8.712   4.835   2.813  0.8797  0.9397 -1.0804
15909SOL     OW59380   4.090   1.399   6.220 -0.3386 -0.0914 -0.3856
15909SOL    HW159381   4.132   1.318   6.260  1.7984  1.4426  0.5822
15909SOL    HW259382   4.141   1.426   6.138 -2.5243 -1.1220 -2.1326
15910SOL     OW59383   8.085   3.962   3.938  0.1690  0.2334 -0.9256
15910SOL    HW159384   8.003   3.952   3.881 -1.5418  0.7863  1.3582
15910SOL    HW259385   8.162   3.916   3.894 -2.1862 -3.4922 -1.4172
15911SOL     OW59386   1.064   1.795   2.470  0.4649 -0.1195 -0.4056
15911SOL    HW159387   1.026   1.757   2.555 -0.7176 -0.6219 -1.1565
15911SOL    HW259388   1.093   1.720   2.411  0.3649  0.2082 -0.8673
15912SOL     OW59389   6.140   0.869   2.464  0.3838 -0.0002  0.3270
15912SOL    HW159390   6.225   0.822   2.487 -0.0776 -1.3486 -0.6526
15912SOL    HW259391   6.091   0.893   2.548 -0.0515 -2.5367  0.8144
15913SOL     OW59392   2.532   0.403   2.308  0.0259 -0.2412 -0.3144
15913SOL    HW159393   2.481   0.452   2.237 -1.9470 -2.3179 -0.3815
15913SOL    HW259394   2.480   0.323   2.337  2.3235 -1.2424  1.1592
15914SOL     OW59395   0.986   2.221   3.795 -0.2561  0.8103 -0.2715
15914SOL    HW159396   1.059   2.156   3.820 -1.3680 -0.0438  0.8273
15914SOL    HW259397   0.921   2.175   3.733 -1.2836  0.7184  0.8557
15915SOL     OW59398   3.247   3.026   6.820 -0.3297  0.1253 -0.1138
15915SOL    HW159399   3.276   3.013   6.725 -0.3614  0.9985 -0.2492
15915SOL    HW259400   3.167   3.087   6.822 -1.5285 -1.4286  0.3241
15916SOL     OW59401   8.837   0.135   6.040 -0.3107  0.6921 -0.0516
15916SOL    HW159402   8.819   0.071   5.965  0.9343 -1.3772  1.3616
15916SOL    HW259403   8.753   0.182   6.064 -1.8152 -2.0614  0.3283
15917SOL     OW59404   3.267   1.917   6.650 -0.2791  0.3051 -0.8467
15917SOL    HW159405   3.326   1.854   6.599  0.0709  0.9743 -1.2705
15917SOL    HW259406   3.171   1.891   6.637 -0.0936 -0.6365 -0.3574
15918SOL     OW59407   7.383   0.549   0.861 -0.1879 -0.5724  0.0203
15918SOL    HW159408   7.466   0.583   0.906  0.2973 -0.1601 -1.1871
15918SOL    HW259409   7.404   0.469   0.806 -0.5147 -0.2274 -0.6147
15919SOL     OW59410   0.398   7.776   1.909  0.2460  0.4017  0.5187
15919SOL    HW159411   0.310   7.772   1.956 -0.0181  1.6936  0.1589
15919SOL    HW259412   0.430   7.871   1.906  1.8008 -0.0997  0.9183
15920SOL     OW59413   4.456   0.212   4.283 -0.0523  0.6386  0.1343
15920SOL    HW159414   4.492   0.183   4.194 -0.0622  0.4544  0.1901
15920SOL    HW259415   4.397   0.291   4.270 -1.2895 -0.3282 -0.2213
15921SOL     OW59416   8.714   1.466   5.096 -0.2542  0.1518 -0.0913
15921SOL    HW159417   8.661   1.486   5.178 -0.1502  1.8615 -0.4188
15921SOL    HW259418   8.664   1.499   5.015  0.5592  0.3152 -0.5339
15922SOL     OW59419   2.529   7.563   3.631 -0.1422  0.0743  0.3715
15922SOL    HW159420   2.595   7.637   3.616  1.6821 -1.2378  1.7543
15922SOL    HW259421   2.441   7.603   3.657  1.0246  1.7691  1.8949
15923SOL     OW59422   9.650   8.923   6.841  0.0212 -0.5850 -0.0983
15923SOL    HW159423   9.654   8.903   6.743 -0.7340 -2.3055  0.1988
15923SOL    HW259424   9.634   8.838   6.892 -2.3226  0.6319  1.3154
15924SOL     OW59425   1.600   2.000   0.375 -0.2117  0.3382 -0.2134
15924SOL    HW159426   1.514   2.050   0.389 -0.7178 -0.9361  1.3006
15924SOL    HW259427   1.602   1.963   0.282 -0.8505  1.2129 -0.5811
15925SOL     OW59428   1.516   0.519   1.262 -0.6293  0.7228 -0.7832
15925SOL    HW159429   1.458   0.448   1.302 -1.2884  0.7737 -1.6457
15925SOL    HW259430   1.514   0.600   1.320  0.6768 -0.1971  0.5770
15926SOL     OW59431   1.155   2.922   7.157 -0.2087  0.0852 -0.5554
15926SOL    HW159432   1.228   2.987   7.138  0.5695 -0.5136  0.3504
15926SOL    HW259433   1.190   2.847   7.213 -2.2850  1.4748  2.7318
15927SOL     OW59434   7.491   7.994   4.684  0.8516 -0.2051 -0.0818
15927SOL    HW159435   7.589   8.012   4.696  0.1038  2.5376  2.5695
15927SOL    HW259436   7.457   8.046   4.606  1.0873  0.5620  0.3222
15928SOL     OW59437   6.958   8.399   4.793 -0.0506  0.0148  0.1965
15928SOL    HW159438   6.947   8.444   4.705  1.0065  0.4093  0.2566
15928SOL    HW259439   6.910   8.312   4.792 -0.3804  0.2003 -0.6326
15929SOL     OW59440   8.278   1.300   1.279 -0.3656  0.5427  0.2900
15929SOL    HW159441   8.344   1.331   1.211 -0.4700 -0.9762 -0.5345
15929SOL    HW259442   8.327   1.255   1.355 -0.4193 -0.4039 -0.2246
15930SOL     OW59443   9.369   8.070   0.776  0.1899 -0.0703 -0.3899
15930SOL    HW159444   9.362   7.985   0.725 -0.1263 -0.7455  0.7785
15930SOL    HW259445   9.434   8.059   0.851 -0.7238  0.3668  0.4706
15931SOL     OW59446   2.893   4.671   1.143 -0.3892 -0.0088 -0.2555
15931SOL    HW159447   2.935   4.762   1.138 -0.5516  0.1323  0.7586
15931SOL    HW259448   2.957   4.608   1.186 -0.1771 -0.4455 -1.1936
15932SOL     OW59449   1.208   0.757   4.525 -0.0165 -0.2688 -0.4190
15932SOL    HW159450   1.256   0.672   4.502 -1.1952 -0.9095 -0.5069
15932SOL    HW259451   1.179   0.803   4.441  0.7239  0.2950 -0.3769
15933SOL     OW59452   1.790   7.827   1.727 -0.2658  0.1694  0.1363
15933SOL    HW159453   1.819   7.811   1.822  1.9234 -0.4360 -0.6024
15933SOL    HW259454   1.739   7.748   1.694 -1.3198  0.5190  0.9125
15934SOL     OW59455   6.866   2.709   1.664  0.0029  0.0538  0.3601
15934SOL    HW159456   6.805   2.655   1.607  0.5821 -1.0541  0.7608
15934SOL    HW259457   6.818   2.790   1.698 -0.8810 -0.2127 -0.2345
15935SOL     OW59458   0.047   5.737   4.830  0.7406 -0.1534 -0.3625
15935SOL    HW159459  -0.029   5.784   4.876  1.1183  0.4270 -0.3337
15935SOL    HW259460   0.132   5.788   4.845  1.4824 -1.7869  1.1713
15936SOL     OW59461   4.473   9.551   7.221  0.1378  0.1688 -0.3051
15936SOL    HW159462   4.422   9.636   7.233  0.4363  0.0858  1.7780
15936SOL    HW259463   4.571   9.567   7.237  0.5619 -0.0296 -2.5514
15937SOL     OW59464   9.597   1.127   4.676 -0.0833  0.1970  0.0033
15937SOL    HW159465   9.585   1.030   4.657 -1.5116  0.7301 -1.9439
15937SOL    HW259466   9.512   1.164   4.713  0.7322  0.5375  1.5879
15938SOL     OW59467   2.730   2.138   7.658 -0.1592 -0.2194  0.6362
15938SOL    HW159468   2.805   2.183   7.609  0.1010  0.0929  1.3223
15938SOL    HW259469   2.743   2.149   7.756 -0.4406 -1.2420  0.7906
15939SOL     OW59470   9.193   7.549   6.296 -0.0134 -0.5890 -0.3065
15939SOL    HW159471   9.248   7.486   6.352  0.1317  0.3067  0.5687
15939SOL    HW259472   9.098   7.516   6.294  0.1630 -1.1104 -0.2732
15940SOL     OW59473   7.420   2.995   3.624  0.0893 -0.2067  0.0646
15940SOL    HW159474   7.402   3.013   3.721  1.8907 -1.8298  0.7300
15940SOL    HW259475   7.516   2.970   3.612  0.2306  1.3557 -2.3591
15941SOL     OW59476   4.577   4.745   2.594 -0.2115 -0.5311 -0.3317
15941SOL    HW159477   4.497   4.779   2.544  0.3030  0.3457 -0.5580
15941SOL    HW259478   4.556   4.654   2.631 -0.8464 -0.8854 -1.5265
15942SOL     OW59479   0.532   7.663   2.680 -0.3469  0.1980 -0.3662
15942SOL    HW159480   0.452   7.682   2.738 -0.4328  1.5639 -0.9065
15942SOL    HW259481   0.600   7.735   2.693  0.3004 -0.3352 -0.7945
15943SOL     OW59482   8.945   5.935   0.401  0.4407  0.5201 -0.3524
15943SOL    HW159483   8.985   5.936   0.309  1.6532 -0.7518  0.1209
15943SOL    HW259484   8.909   5.843   0.420  1.6858  0.2891  1.0271
15944SOL     OW59485   1.517   5.219   3.386 -0.0734 -0.1146  0.2264
15944SOL    HW159486   1.489   5.249   3.295  0.3915 -2.0983 -0.5931
15944SOL    HW259487   1.537   5.121   3.385  0.2761 -0.1078  2.3870
15945SOL     OW59488   9.908   8.970   2.142  0.5692  0.0913  0.5093
15945SOL    HW159489   9.939   8.886   2.187  0.6178 -0.1934 -0.0618
15945SOL    HW259490   9.842   8.948   2.071 -1.2055  0.7132  1.9136
15946SOL     OW59491   5.811   8.514   3.303 -0.9600 -0.5427 -0.5253
15946SOL    HW159492   5.802   8.538   3.206 -1.6477 -0.6330 -0.4891
15946SOL    HW259493   5.785   8.592   3.359 -1.0240 -0.6428 -0.4144
15947SOL     OW59494   2.001   3.163   4.567 -0.4776 -0.3589  0.1961
15947SOL    HW159495   1.939   3.099   4.611  1.4210 -1.0227  1.9723
15947SOL    HW259496   2.092   3.121   4.558  0.4348  1.5633  0.1326
15948SOL     OW59497   4.052   6.328   3.076 -0.4999  0.4133  0.9320
15948SOL    HW159498   4.065   6.231   3.099 -0.8719 -0.1116 -0.9869
15948SOL    HW259499   4.142   6.371   3.062 -0.3722 -0.0446  0.3017
15949SOL     OW59500   7.418   6.507   6.124 -0.2595 -0.0087 -0.4036
15949SOL    HW159501   7.516   6.525   6.117 -0.6315  1.7467 -1.2346
15949SOL    HW259502   7.371   6.539   6.042 -1.5545 -0.7519  0.0165
15950SOL     OW59503   1.651   3.455   7.954  0.5314 -0.5525  0.1769
15950SOL    HW159504   1.608   3.524   7.895  0.6090 -0.5955  0.0705
15950SOL    HW259505   1.750   3.461   7.946  0.6257  1.2150  2.3225
15951SOL     OW59506   2.869   9.952   5.741  0.1404 -0.1795 -0.2467
15951SOL    HW159507   2.803   9.975   5.671  0.2561 -0.8781 -0.5862
15951SOL    HW259508   2.856  10.011   5.821  0.5195  1.1541 -1.1556
15952SOL     OW59509   4.795   0.968   4.675  0.2693 -0.1777 -0.5347
15952SOL    HW159510   4.774   1.044   4.613  0.1577  0.0709 -0.1948
15952SOL    HW259511   4.890   0.975   4.705 -0.2918  0.9511  1.0421
15953SOL     OW59512   3.653   7.009   5.632  0.4276  0.2562 -0.2608
15953SOL    HW159513   3.636   7.033   5.727  0.7602  1.0461 -0.3959
15953SOL    HW259514   3.585   7.052   5.573 -0.0631 -0.6140 -0.3456
15954SOL     OW59515   3.277   8.323   6.695 -0.1537  0.3078  0.5480
15954SOL    HW159516   3.230   8.360   6.775 -1.0083 -1.0556  0.6876
15954SOL    HW259517   3.342   8.391   6.660 -0.2816  1.1734  1.9703
15955SOL     OW59518   8.818   3.199   6.031  0.6670 -0.8240  0.0717
15955SOL    HW159519   8.824   3.266   5.957 -1.0346 -1.1534 -0.3741
15955SOL    HW259520   8.906   3.195   6.079  0.9268  1.3932 -0.1667
15956SOL     OW59521   5.737   0.834   5.773  0.3441  0.2192  0.0045
15956SOL    HW159522   5.696   0.743   5.776  0.7216 -0.0361 -1.6684
15956SOL    HW259523   5.667   0.903   5.791 -0.3248 -0.3295 -0.4557
15957SOL     OW59524   5.117   0.153   6.237 -0.2132  0.0258  0.2753
15957SOL    HW159525   5.151   0.130   6.146 -1.0551  0.7382 -0.2285
15957SOL    HW259526   5.034   0.100   6.255 -1.0803  1.2255 -0.1203
15958SOL     OW59527   2.701   4.567   2.846  0.0626 -0.3408  0.1426
15958SOL    HW159528   2.607   4.567   2.880  0.2245  2.6767  0.7258
15958SOL    HW259529   2.763   4.596   2.919  1.1880 -0.0775 -0.8993
15959SOL     OW59530   4.251   9.978   6.978 -0.1733 -0.5194  0.1941
15959SOL    HW159531   4.219   9.908   6.914  1.7443 -1.3437  0.0884
15959SOL    HW259532   4.179  10.045   6.993 -0.6809 -0.3101 -2.8128
15960SOL     OW59533   8.522   4.091   3.325  0.1161  0.3846  0.1202
15960SOL    HW159534   8.603   4.149   3.336  0.1973  0.1342  0.9271
15960SOL    HW259535   8.442   4.137   3.364  0.0907  0.1675  0.3302
15961SOL     OW59536   5.778   5.541   0.390 -0.2109 -0.0592 -0.4651
15961SOL    HW159537   5.782   5.441   0.391  2.1372  0.0090 -0.0272
15961SOL    HW259538   5.812   5.575   0.303 -0.5769  0.3759 -0.4379
15962SOL     OW59539   2.698   9.561   6.089 -0.2041  0.1357 -0.4810
15962SOL    HW159540   2.649   9.642   6.120  0.3140 -0.1571  1.1405
15962SOL    HW259541   2.774   9.588   6.030  0.1650  0.8353  0.3178
15963SOL     OW59542   3.645   1.361   0.262  0.3032 -0.2893 -0.0191
15963SOL    HW159543   3.653   1.448   0.213 -0.2171 -0.7094 -0.8447
15963SOL    HW259544   3.676   1.286   0.203  0.4658 -0.7058  0.5842
15964SOL     OW59545   2.035   3.813   6.952 -0.0623  0.7715 -0.3846
15964SOL    HW159546   1.947   3.791   6.994 -0.9649  0.5606 -2.3081
15964SOL    HW259547   2.020   3.848   6.860  1.8034  2.0822 -0.2254
15965SOL     OW59548   4.758   5.723   1.965  0.1948 -0.0736  0.4399
15965SOL    HW159549   4.784   5.737   1.869  0.4923 -1.3173  0.3354
15965SOL    HW259550   4.840   5.710   2.020 -0.0295 -0.5266  0.6712
15966SOL     OW59551   5.371   4.848   1.798  0.0521  0.2635  0.2695
15966SOL    HW159552   5.334   4.775   1.856  1.6929 -0.0499  0.9391
15966SOL    HW259553   5.415   4.917   1.855  0.6398  0.5464 -0.5179
15967SOL     OW59554   3.733   4.851   7.969  0.1119  0.5965  0.3069
15967SOL    HW159555   3.725   4.940   8.013  1.1284  0.7581  0.1657
15967SOL    HW259556   3.681   4.851   7.883 -1.4609  0.4372  1.2349
15968SOL     OW59557   7.103   0.339   4.892  0.1407 -0.0038 -0.4638
15968SOL    HW159558   7.014   0.356   4.932  0.3047  2.6495 -1.1181
15968SOL    HW259559   7.175   0.368   4.955  0.4941  0.0425 -0.8803
15969SOL     OW59560   0.434   2.625   5.117 -0.3698 -0.5268 -0.2164
15969SOL    HW159561   0.408   2.590   5.027 -1.1550  0.4236 -0.3618
15969SOL    HW259562   0.357   2.615   5.181 -1.5198  3.2541 -0.9277
15970SOL     OW59563   9.997   5.469   6.670 -0.1529  0.1380  0.2884
15970SOL    HW159564   9.982   5.389   6.727 -2.1195  0.0276 -0.3706
15970SOL    HW259565   9.940   5.464   6.588  0.7392  1.5288 -0.4474
15971SOL     OW59566   5.277   0.057   4.129  0.2541 -0.4007  0.3695
15971SOL    HW159567   5.257   0.090   4.037 -0.5181  1.6412  1.2422
15971SOL    HW259568   5.211  -0.014   4.154  0.0092 -0.4308 -0.3541
15972SOL     OW59569   4.476   9.200   7.034  0.5493 -0.0861  0.0372
15972SOL    HW159570   4.497   9.298   7.032 -0.1673  0.0503 -0.7036
15972SOL    HW259571   4.559   9.148   7.014  0.5657  0.4189 -1.2628
15973SOL     OW59572   0.341   4.772   2.974 -0.1113 -0.4514  0.1927
15973SOL    HW159573   0.308   4.741   2.884 -1.2571  3.2403 -0.7352
15973SOL    HW259574   0.266   4.765   3.040  0.2975 -1.7668  0.5253
15974SOL     OW59575   7.139   0.469   3.964 -0.0391  0.0863  0.1740
15974SOL    HW159576   7.091   0.546   3.922  0.7688 -0.0939 -1.1217
15974SOL    HW259577   7.158   0.489   4.060  0.0464  1.4433 -0.1235
15975SOL     OW59578   0.201   7.226   2.331  0.1340 -0.4382 -0.5289
15975SOL    HW159579   0.271   7.183   2.389  0.0125 -0.9105 -0.7336
15975SOL    HW259580   0.164   7.306   2.378 -1.3170 -1.9087  0.8946
15976SOL     OW59581   4.334   0.375   7.468  0.1493  0.0381  0.4624
15976SOL    HW159582   4.259   0.366   7.401 -0.8129  1.4514  1.3191
15976SOL    HW259583   4.418   0.400   7.420  0.3398 -2.5488 -0.6326
15977SOL     OW59584   9.245   9.429   3.481  0.1932  0.2425  0.7033
15977SOL    HW159585   9.268   9.362   3.411 -0.1440  0.4025  0.4381
15977SOL    HW259586   9.247   9.385   3.571 -1.2276 -0.4369  0.4148
15978SOL     OW59587   8.487   5.401   2.246 -0.3781  0.3801 -0.1714
15978SOL    HW159588   8.397   5.361   2.260  0.7372 -1.4140  2.2882
15978SOL    HW259589   8.545   5.336   2.197 -0.5965  1.7912 -2.3416
15979SOL     OW59590   0.839   0.612   1.017  0.6081 -0.2356 -0.1029
15979SOL    HW159591   0.857   0.564   0.931 -3.4063 -2.0815 -0.0097
15979SOL    HW259592   0.844   0.711   1.002 -2.8986 -0.4239 -3.2588
15980SOL     OW59593   5.559   1.374   0.143 -0.4043  0.5278  0.1793
15980SOL    HW159594   5.480   1.328   0.184  0.2323 -1.5992 -0.9458
15980SOL    HW259595   5.643   1.341   0.186  0.0874  0.3628 -0.9050
15981SOL     OW59596   8.709   4.628   3.987 -0.9398 -0.4511 -0.0156
15981SOL    HW159597   8.667   4.716   3.966  2.3983  0.9039 -1.3599
15981SOL    HW259598   8.690   4.564   3.911  1.3410  0.8768 -1.7497
15982SOL     OW59599   8.653   0.061   0.387 -0.4327 -0.2221  0.2983
15982SOL    HW159600   8.569   0.091   0.342 -0.4252  0.3909  0.6831
15982SOL    HW259601   8.642   0.070   0.486  0.9138  2.1249  0.2776
15983SOL     OW59602   2.181   7.131   3.838 -0.3033  0.1940  0.2347
15983SOL    HW159603   2.272   7.114   3.876  0.1455 -2.2132 -1.8371
15983SOL    HW259604   2.121   7.164   3.911  1.6449 -0.2476  2.0956
15984SOL     OW59605   2.710   5.968   5.825 -0.3298 -0.0744 -0.4434
15984SOL    HW159606   2.647   5.935   5.754  1.1838  1.3939 -2.5492
15984SOL    HW259607   2.670   6.049   5.868 -0.6830 -0.1888 -0.5488
15985SOL     OW59608   9.808   9.346   1.840  0.1497 -0.0515  0.0786
15985SOL    HW159609   9.876   9.406   1.798  0.1690  0.8154  1.3075
15985SOL    HW259610   9.782   9.384   1.929 -2.8232  0.2593 -0.8970
15986SOL     OW59611   7.602   0.829   2.336 -0.0597  0.2466 -0.0967
15986SOL    HW159612   7.681   0.878   2.300  0.1482 -0.2938 -0.3626
15986SOL    HW259613   7.550   0.789   2.261  0.2917 -0.7499  0.1863
15987SOL     OW59614   8.593   9.032   3.532 -0.2874 -0.1088  0.1511
15987SOL    HW159615   8.690   9.053   3.537  0.0668 -1.8805  1.6914
15987SOL    HW259616   8.553   9.072   3.450  1.4768  1.6512  0.1317
15988SOL     OW59617   8.581   7.643   1.109  0.4769 -0.5643 -0.5292
15988SOL    HW159618   8.560   7.737   1.081  1.3890 -0.3284 -0.4354
15988SOL    HW259619   8.579   7.584   1.029 -0.2102 -0.4889 -0.5724
15989SOL     OW59620   8.694   4.139   1.575  0.5957  0.3150 -0.8152
15989SOL    HW159621   8.644   4.170   1.656 -0.2345  0.0192 -1.2164
15989SOL    HW259622   8.762   4.071   1.601  0.2073  0.0912 -0.3855
15990SOL     OW59623   0.629   8.564   2.685  1.0117  0.4274 -0.3253
15990SOL    HW159624   0.645   8.520   2.596  1.4594  0.0917 -0.0799
15990SOL    HW259625   0.549   8.622   2.679  1.4428  0.9461 -1.1475
15991SOL     OW59626   3.956   2.126   2.996  0.1010 -0.2057  0.4600
15991SOL    HW159627   3.957   2.161   2.903  0.6447 -0.7427  0.2624
15991SOL    HW259628   3.870   2.079   3.014  0.9346 -2.1349 -0.5286
15992SOL     OW59629   8.929   9.802   1.117  0.2918 -0.2352 -0.2826
15992SOL    HW159630   8.930   9.745   1.035  1.6007  0.7225 -0.9404
15992SOL    HW259631   8.865   9.878   1.104 -0.3984 -0.7466  0.0585
15993SOL     OW59632   2.633   4.770   5.184  0.2387  0.1060 -0.1529
15993SOL    HW159633   2.717   4.796   5.231  0.6471  0.0671 -0.8703
15993SOL    HW259634   2.629   4.814   5.094  0.4433 -1.4826 -0.9570
15994SOL     OW59635   4.522   1.381   6.044  0.0996  0.1731 -0.7760
15994SOL    HW159636   4.600   1.319   6.039  0.0192 -0.0551  0.7103
15994SOL    HW259637   4.522   1.428   6.132 -0.9356  0.8436 -1.1222
15995SOL     OW59638   4.576   1.902   1.796 -0.0747  0.2423 -0.9189
15995SOL    HW159639   4.484   1.922   1.830 -0.0977  0.1142 -0.9029
15995SOL    HW259640   4.573   1.819   1.740 -0.1214  0.7123 -1.6164
15996SOL     OW59641   8.444   5.103   0.817 -0.2264  0.2460  0.3973
15996SOL    HW159642   8.459   5.183   0.876  0.6560  1.8643 -1.9801
15996SOL    HW259643   8.349   5.103   0.785  0.1112  1.0610 -0.6224
15997SOL     OW59644   8.756   6.461   3.226  0.0504 -0.6142 -0.4940
15997SOL    HW159645   8.789   6.453   3.320  1.0525 -0.5170 -0.8318
15997SOL    HW259646   8.763   6.372   3.180  2.1256 -0.0835 -1.2916
15998SOL     OW59647   9.720   0.403   3.762 -0.4725  0.1791 -0.4712
15998SOL    HW159648   9.647   0.389   3.829 -0.2887 -0.3480 -0.3780
15998SOL    HW259649   9.704   0.345   3.682 -0.0647 -0.0700 -0.3736
15999SOL     OW59650   7.630   6.649   7.575  0.0541 -0.4803 -0.0875
15999SOL    HW159651   7.695   6.692   7.511 -2.1402  0.7297 -1.5657
15999SOL    HW259652   7.669   6.649   7.667  1.6253  1.3941 -0.7155
16000SOL     OW59653   0.864   1.445   0.049 -0.2244  0.8678  0.3984
16000SOL    HW159654   0.898   1.426  -0.043 -0.4729  0.1537  0.4480
16000SOL    HW259655   0.935   1.491   0.103  0.5330 -0.2831  0.3873
16001SOL     OW59656   0.715   6.495   5.260  0.0016 -0.3114 -0.3690
16001SOL    HW159657   0.770   6.413   5.252 -0.2672 -0.6526  1.0841
16001SOL    HW259658   0.647   6.483   5.332 -0.0401  1.1780 -0.1320
16002SOL     OW59659   7.959   7.568   5.540  0.7563 -0.1752  0.2181
16002SOL    HW159660   8.039   7.547   5.596  0.8985  0.9754  0.4650
16002SOL    HW259661   7.881   7.513   5.570  1.1342 -0.4088  0.7774
16003SOL     OW59662   4.551   8.859   7.828  0.7906  0.6721  0.4131
16003SOL    HW159663   4.547   8.884   7.731  2.1307 -0.3388  0.0868
16003SOL    HW259664   4.458   8.862   7.866  0.3381  1.7069 -0.7291
16004SOL     OW59665   7.839   9.330   2.037  0.2752 -0.1028  0.0201
16004SOL    HW159666   7.921   9.336   2.094 -0.3110  1.1493  0.7571
16004SOL    HW259667   7.766   9.384   2.079 -1.6060 -2.8932  0.5470
16005SOL     OW59668   1.529   1.058   3.558  0.2609 -0.1858  0.7204
16005SOL    HW159669   1.483   1.063   3.469  1.5651  0.3915  0.0544
16005SOL    HW259670   1.513   0.968   3.599  0.3667 -0.7803 -0.5091
16006SOL     OW59671   1.413   5.192   3.122  0.4779 -0.3375  0.5092
16006SOL    HW159672   1.401   5.182   3.023  0.8200 -0.7549  0.5075
16006SOL    HW259673   1.499   5.148   3.150  1.6543  1.9137  0.6120
16007SOL     OW59674   0.442  -0.000   4.818  0.0345 -0.1857 -0.3989
16007SOL    HW159675   0.471   0.014   4.913 -2.2064 -1.6959  0.5637
16007SOL    HW259676   0.347   0.030   4.807 -0.5633 -2.3596 -1.4897
16008SOL     OW59677   1.843   3.491   7.225  0.2132 -0.3580  0.5493
16008SOL    HW159678   1.887   3.436   7.154 -0.6539 -0.5884  0.1873
16008SOL    HW259679   1.775   3.436   7.273  2.1472 -0.7930  2.8810
16009SOL     OW59680   2.684   0.344   7.635 -0.7030 -0.1094  0.4500
16009SOL    HW159681   2.760   0.344   7.700 -1.5052  0.1249  1.4027
16009SOL    HW259682   2.685   0.259   7.583  0.8096  0.3292 -0.2501
16010SOL     OW59683   8.152   8.478   6.923 -0.0249 -0.1522 -0.0161
16010SOL    HW159684   8.067   8.430   6.947 -0.1154 -0.0685 -0.1772
16010SOL    HW259685   8.225   8.411   6.909 -0.2991 -0.2747 -0.8454
16011SOL     OW59686   4.368   2.211   5.344 -0.0552 -0.7332  0.2713
16011SOL    HW159687   4.289   2.154   5.367 -1.3251  0.4904 -1.0067
16011SOL    HW259688   4.347   2.267   5.264  1.4178  1.0492  1.0998
16012SOL     OW59689   7.876   0.062   0.687  0.6323 -0.4164 -0.1807
16012SOL    HW159690   7.814   0.001   0.637 -0.6958  1.0065 -0.3074
16012SOL    HW259691   7.831   0.092   0.772 -0.7376  4.1785 -2.3839
16013SOL     OW59692   2.142   5.725   0.806  0.3605 -0.4616  0.3035
16013SOL    HW159693   2.062   5.670   0.831  0.3922  0.0975  1.6726
16013SOL    HW259694   2.225   5.676   0.831  0.4320 -0.5946 -0.1847
16014SOL     OW59695   2.084   0.663   3.425  0.6465  0.5569 -0.2950
16014SOL    HW159696   2.088   0.583   3.365  2.6686  0.5145 -0.1503
16014SOL    HW259697   2.177   0.691   3.449 -0.0990  1.2513  1.9290
16015SOL     OW59698   4.115   3.265   5.992  0.0876  0.4022 -0.2248
16015SOL    HW159699   4.152   3.208   6.066  2.7242 -0.9640 -2.4860
16015SOL    HW259700   4.178   3.341   5.974 -1.6660  2.0470  0.3904
16016SOL     OW59701   4.749   5.433   8.098 -0.0374  0.0941 -0.1616
16016SOL    HW159702   4.781   5.481   8.180 -0.6073 -1.6589  1.1131
16016SOL    HW259703   4.678   5.486   8.053  0.3658  1.1298  0.4196
16017SOL     OW59704   7.753   2.201   7.705 -0.2707  1.0552  0.2280
16017SOL    HW159705   7.685   2.262   7.664 -0.1485  0.8580 -0.2797
16017SOL    HW259706   7.708   2.121   7.743 -0.1461 -0.0624 -1.9142
16018SOL     OW59707   0.038   3.565   2.026 -0.4124  0.5386  0.3633
16018SOL    HW159708   0.012   3.647   2.076  0.1518  0.8745  0.1142
16018SOL    HW259709   0.117   3.523   2.070 -0.6189  0.2048  0.4138
16019SOL     OW59710   4.903   3.958   0.779  0.7704 -0.3319 -0.7480
16019SOL    HW159711   4.828   3.961   0.714  0.5273  0.9497 -0.4177
16019SOL    HW259712   4.883   4.018   0.857  1.8293 -0.4975 -0.3307
16020SOL     OW59713   3.785   9.477   3.845 -0.4689  0.6535  0.0955
16020SOL    HW159714   3.796   9.525   3.932  0.0709 -0.2635  0.5433
16020SOL    HW259715   3.792   9.379   3.860  0.1620  0.5066 -1.0559
16021SOL     OW59716   7.297   7.976   6.248 -0.5704 -0.0203  0.8841
16021SOL    HW159717   7.318   7.954   6.343 -0.5944  0.7120  1.0581
16021SOL    HW259718   7.330   8.068   6.226 -0.1371 -0.3749  0.0461
16022SOL     OW59719   8.049   7.394   4.039 -0.4614  0.0962  0.8100
16022SOL    HW159720   8.131   7.350   4.076 -1.2482 -1.3145  0.9163
16022SOL    HW259721   7.974   7.385   4.104 -1.0049  0.3969  0.2335
16023SOL     OW59722   9.521   3.822   5.955  0.0839  0.7546 -0.2890
16023SOL    HW159723   9.479   3.842   6.044  0.2768 -1.7528  0.4024
16023SOL    HW259724   9.466   3.862   5.882 -1.2640  1.0002  0.8388
16024SOL     OW59725   0.554   7.503   2.022 -0.4421  0.0826 -0.0491
16024SOL    HW159726   0.651   7.486   2.003 -0.5484 -1.6020  0.8681
16024SOL    HW259727   0.507   7.523   1.936  0.6720  0.6946 -0.5264
16025SOL     OW59728   9.530   4.468   2.826 -0.4864  0.1318 -0.4356
16025SOL    HW159729   9.479   4.537   2.774 -0.8089  0.2181 -0.0120
16025SOL    HW259730   9.523   4.380   2.780 -1.4083  0.0411 -0.1475
16026SOL     OW59731   9.506   2.274   4.556  0.5125  0.4357 -0.1826
16026SOL    HW159732   9.491   2.373   4.565  2.5974  0.8124 -0.6872
16026SOL    HW259733   9.601   2.253   4.577  0.1265 -1.4592 -0.2762
16027SOL     OW59734   8.908   4.466   5.587 -1.0462 -0.0750  0.0872
16027SOL    HW159735   8.893   4.454   5.489 -0.2166 -0.0863 -0.0429
16027SOL    HW259736   8.858   4.546   5.619 -1.4083 -0.1376 -0.3225
16028SOL     OW59737   6.213   9.538   2.516  0.0367  0.6406 -0.0730
16028SOL    HW159738   6.294   9.591   2.489 -0.7065  1.4577 -0.7483
16028SOL    HW259739   6.155   9.594   2.575  0.0559 -0.0159  0.5733
16029SOL     OW59740   2.270   7.446   1.301 -0.0743  0.1783 -0.0485
16029SOL    HW159741   2.200   7.516   1.290  0.0261  0.4163  0.7433
16029SOL    HW259742   2.228   7.355   1.300 -0.2612  0.2732 -0.6300
16030SOL     OW59743   9.651   0.672   3.846 -0.3758 -0.3465  0.0274
16030SOL    HW159744   9.683   0.587   3.804  0.6648  1.0591 -2.1243
16030SOL    HW259745   9.551   0.675   3.841 -0.5807 -2.3239  1.9510
16031SOL     OW59746   8.872   3.196   4.031  0.2268  0.6064  0.3667
16031SOL    HW159747   8.816   3.139   4.091 -1.7171  2.7065  0.5877
16031SOL    HW259748   8.870   3.159   3.938  0.0486 -0.4085  0.7714
16032SOL     OW59749   1.909   6.365   3.192 -0.4099  0.3720 -0.2391
16032SOL    HW159750   1.906   6.448   3.249 -0.5037 -1.2906  2.2724
16032SOL    HW259751   1.980   6.375   3.123  1.6074  1.4150  1.8904
16033SOL     OW59752   1.433   5.081   0.050 -0.2089 -0.2545 -0.1320
16033SOL    HW159753   1.349   5.027   0.043 -0.3147 -0.1953  0.6366
16033SOL    HW259754   1.501   5.029   0.101  0.5462 -0.6875 -1.5471
16034SOL     OW59755   1.576   5.843   6.962  0.2735  0.4814  0.5797
16034SOL    HW159756   1.484   5.806   6.975  0.1006  0.8598  0.4587
16034SOL    HW259757   1.598   5.841   6.864  0.8770 -0.7358  0.7351
16035SOL     OW59758   9.022   0.231   7.146  0.0156  0.2303 -0.1368
16035SOL    HW159759   9.058   0.238   7.053 -0.3642 -1.3128 -0.4190
16035SOL    HW259760   8.940   0.174   7.145  1.0802 -1.3917  1.3983
16036SOL     OW59761   1.122   9.882   1.759 -0.8006 -0.1412 -0.9803
16036SOL    HW159762   1.128   9.969   1.709 -0.9549  0.3514 -0.1564
16036SOL    HW259763   1.027   9.866   1.786 -0.4496  0.5005  0.7173
16037SOL     OW59764   1.527   5.322   2.365 -0.1653  0.2685 -0.3107
16037SOL    HW159765   1.457   5.387   2.395  0.2147 -0.1145  1.4555
16037SOL    HW259766   1.581   5.363   2.292 -0.5264  1.5827  0.1470
16038SOL     OW59767   4.747   7.918   2.768  0.4077  0.0500 -0.0942
16038SOL    HW159768   4.704   8.008   2.763 -1.9024 -0.9070  1.3223
16038SOL    HW259769   4.846   7.927   2.771  0.1889  2.5193  0.0986
16039SOL     OW59770   9.669   5.792   1.922 -0.0002  0.8186  0.1072
16039SOL    HW159771   9.619   5.727   1.865  0.8098  0.2157  0.0753
16039SOL    HW259772   9.765   5.764   1.928 -0.2783  0.2716  2.6100
16040SOL     OW59773   6.503   5.207   7.724 -0.7399  0.4181 -0.1076
16040SOL    HW159774   6.438   5.150   7.774  0.1235 -0.4040  0.0984
16040SOL    HW259775   6.596   5.172   7.739 -0.2969  1.2991 -0.7646
16041SOL     OW59776   8.159   4.704   4.277  0.3917  0.5808 -0.1217
16041SOL    HW159777   8.254   4.734   4.284  0.9608 -1.3019  0.4713
16041SOL    HW259778   8.098   4.783   4.283  1.8312  1.5674  2.0021
16042SOL     OW59779   9.912   0.059   2.864  0.8511 -0.6307 -0.2388
16042SOL    HW159780   9.994   0.018   2.824  1.9801  0.4842  0.8972
16042SOL    HW259781   9.880   0.004   2.941  1.5534 -0.1457  0.4064
16043SOL     OW59782   2.586   7.001   0.027  0.0580 -0.2465 -0.1140
16043SOL    HW159783   2.503   7.041   0.066 -0.4616  0.1542 -1.5953
16043SOL    HW259784   2.645   6.968   0.101 -0.5390  1.2040  1.0399
16044SOL     OW59785   9.525   0.598   5.147  0.0792 -0.1332  0.0101
16044SOL    HW159786   9.459   0.561   5.213  0.4086  1.5052  1.2897
16044SOL    HW259787   9.595   0.530   5.129 -0.1979 -0.7316  1.1134
16045SOL     OW59788   3.217   1.724   6.875 -0.1908  0.0181 -0.3588
16045SOL    HW159789   3.263   1.716   6.964 -1.4492  0.0690  0.3015
16045SOL    HW259790   3.212   1.821   6.850 -0.0167  0.0195 -0.3898
16046SOL     OW59791   3.769   6.718   0.900 -0.9311 -0.2723 -0.1520
16046SOL    HW159792   3.704   6.647   0.925 -1.1391 -0.6035 -1.5991
16046SOL    HW259793   3.829   6.737   0.978 -0.7456 -2.1536  0.1871
16047SOL     OW59794   1.933   5.364   5.011 -0.3609 -0.1049  0.3233
16047SOL    HW159795   1.971   5.322   5.093 -1.2594  0.3030  0.9575
16047SOL    HW259796   1.888   5.293   4.956  0.7364 -0.4753 -0.1059
16048SOL     OW59797   7.355   1.796   1.454  0.3205 -0.7572  0.0739
16048SOL    HW159798   7.419   1.836   1.387  0.1432 -2.1403 -0.9467
16048SOL    HW259799   7.261   1.816   1.425  0.2315 -1.9316 -0.4660
16049SOL     OW59800   8.705   2.665   7.158 -0.7002 -0.4416  0.2360
16049SOL    HW159801   8.783   2.618   7.117 -0.6661 -0.4002  0.2541
16049SOL    HW259802   8.644   2.699   7.087 -0.0364  0.6683  0.1825
16050SOL     OW59803   7.882   2.702   4.902 -0.0613  0.8582  0.1229
16050SOL    HW159804   7.853   2.746   4.816  1.6322  0.3597 -0.7227
16050SOL    HW259805   7.980   2.683   4.898 -0.4997 -1.7868  1.0004
16051SOL     OW59806   6.872   9.506   5.349 -0.0333  0.0935  0.0146
16051SOL    HW159807   6.938   9.478   5.419 -0.9557  2.1411  1.7708
16051SOL    HW259808   6.918   9.562   5.280  0.4802 -0.2795  0.0489
16052SOL     OW59809   2.970   6.569   6.452  0.2987 -0.1577 -0.0048
16052SOL    HW159810   2.960   6.626   6.533 -0.0589  1.1233 -0.9431
16052SOL    HW259811   2.986   6.474   6.480  1.8297  0.5410  1.5692
16053SOL     OW59812   9.711   8.180   6.935 -0.1673  0.2158  0.3302
16053SOL    HW159813   9.783   8.127   6.981  0.0812 -0.0234 -0.3187
16053SOL    HW259814   9.656   8.118   6.879 -0.7593  0.4350  0.6721
16054SOL     OW59815   1.692   1.354   0.698  0.4219  0.1179  0.2581
16054SOL    HW159816   1.747   1.428   0.659  0.1321 -0.1798 -0.7112
16054SOL    HW259817   1.667   1.289   0.626  0.0488 -0.5339  0.9707
16055SOL     OW59818   9.428   4.523   1.783 -0.2634 -0.1166  0.1114
16055SOL    HW159819   9.505   4.482   1.734 -0.9295 -2.1512  0.7272
16055SOL    HW259820   9.399   4.462   1.857 -1.3015  1.4733  1.0538
16056SOL     OW59821   0.681   5.681   0.532 -0.1423  0.4283 -0.1623
16056SOL    HW159822   0.697   5.775   0.504 -0.7926  0.4476 -0.4731
16056SOL    HW259823   0.766   5.642   0.570 -0.4163  1.8085  1.9371
16057SOL     OW59824   5.015   9.121   2.456 -0.3352  0.0147  0.1145
16057SOL    HW159825   4.995   9.208   2.410 -0.2733 -0.3429 -0.6047
16057SOL    HW259826   4.929   9.074   2.478 -0.3599 -0.0411 -0.0931
16058SOL     OW59827   8.607   7.231   0.410  0.3102 -0.0508  0.3399
16058SOL    HW159828   8.676   7.288   0.453  0.4299  0.3735 -0.4058
16058SOL    HW259829   8.653   7.158   0.358  0.1842 -0.0465  0.2240
16059SOL     OW59830   4.388   8.173   3.471  0.3105  0.1772  0.0375
16059SOL    HW159831   4.462   8.159   3.404 -0.0545  0.7732 -0.4937
16059SOL    HW259832   4.300   8.152   3.428  0.3107 -2.5552  1.2786
16060SOL     OW59833   3.738   4.150   0.484  0.2007 -0.1369 -0.6792
16060SOL    HW159834   3.657   4.198   0.451  0.1360  1.1983  1.3464
16060SOL    HW259835   3.813   4.216   0.495  0.3501 -0.6440  1.3771
16061SOL     OW59836   3.155   7.907   3.547  0.4686  0.1870 -0.0118
16061SOL    HW159837   3.244   7.885   3.506  1.5766  2.1051  1.2951
16061SOL    HW259838   3.137   7.843   3.622 -0.5024 -1.8545 -1.8999
16062SOL     OW59839   3.931   7.638   4.667  0.4093 -0.1073  0.1555
16062SOL    HW159840   4.000   7.575   4.631 -0.4424 -0.1078 -1.5173
16062SOL    HW259841   3.935   7.724   4.617 -2.4464 -0.9853 -1.7072
16063SOL     OW59842   3.541   1.025   4.199 -0.3704  0.1697  0.7593
16063SOL    HW159843   3.451   1.014   4.158  0.2823 -0.7004 -0.4648
16063SOL    HW259844   3.544   0.977   4.286 -0.6942 -0.9018  0.1871
16064SOL     OW59845   2.536   8.371   2.945 -0.1843 -0.6801 -0.4145
16064SOL    HW159846   2.611   8.361   3.011 -1.3348  0.2696  1.0883
16064SOL    HW259847   2.516   8.282   2.904  1.8675 -0.9114 -0.9697
16065SOL     OW59848   1.981   7.445   0.673 -0.2101  0.5637  0.0552
16065SOL    HW159849   1.913   7.488   0.614 -0.1141  2.2962  1.1604
16065SOL    HW259850   1.935   7.394   0.746 -0.3271  0.3389 -0.1759
16066SOL     OW59851   1.838   4.872   1.193 -0.0128  0.1188 -0.1209
16066SOL    HW159852   1.935   4.863   1.172 -0.4204 -2.7961 -1.0107
16066SOL    HW259853   1.807   4.790   1.242 -1.7433  1.6084  1.3727
16067SOL     OW59854   0.385   2.201   6.766 -0.2577  0.1560 -0.0242
16067SOL    HW159855   0.292   2.196   6.801  0.3517  1.2066  1.8244
16067SOL    HW259856   0.443   2.138   6.818  0.1907 -0.0202 -0.7340
16068SOL     OW59857   9.886   0.943   2.133  0.2946 -0.2462 -0.1253
16068SOL    HW159858   9.958   0.945   2.063  0.6437 -0.3648  0.2279
16068SOL    HW259859   9.909   0.876   2.202 -0.5331 -0.8280 -0.4047
16069SOL     OW59860   1.748   4.079   2.910 -0.1527  0.2650 -0.0025
16069SOL    HW159861   1.821   4.144   2.930 -0.9025  0.5838  1.7425
16069SOL    HW259862   1.697   4.058   2.993 -0.6226 -1.7179 -0.7635
16070SOL     OW59863   0.560   7.090   7.052  0.0106  0.4030  0.1091
16070SOL    HW159864   0.492   7.046   7.111 -0.5898  0.5746 -0.4560
16070SOL    HW259865   0.581   7.030   6.975  0.8527  0.1479  0.5257
16071SOL     OW59866   1.224   0.636   7.269 -0.5441 -0.5916  0.4190
16071SOL    HW159867   1.220   0.556   7.329  1.3883  0.3185  1.8218
16071SOL    HW259868   1.291   0.701   7.305  0.0018  0.3889 -2.2408
16072SOL     OW59869   8.364   8.833   1.607  0.0744  0.1147  0.2349
16072SOL    HW159870   8.272   8.829   1.569 -0.0511 -1.8649  0.7269
16072SOL    HW259871   8.363   8.885   1.692 -0.3639  1.1461 -0.3921
16073SOL     OW59872   1.423   7.502   1.522 -0.0101 -0.3121 -0.4329
16073SOL    HW159873   1.388   7.553   1.443 -0.7285 -0.5947 -0.3030
16073SOL    HW259874   1.352   7.438   1.554  1.2323 -2.1165 -1.2139
16074SOL     OW59875   0.649   4.755   4.148  0.3540  0.0828 -0.1587
16074SOL    HW159876   0.696   4.820   4.088 -2.5405  0.8849 -1.6583
16074SOL    HW259877   0.668   4.777   4.243  1.3318  1.6301 -0.7011
16075SOL     OW59878   9.731   1.014   8.149  0.2018 -0.3250  0.4133
16075SOL    HW159879   9.686   0.996   8.236 -0.5432 -1.8620 -0.2614
16075SOL    HW259880   9.794   0.940   8.128 -0.8300 -0.8116 -1.0991
16076SOL     OW59881   1.810   9.169   5.156 -0.0197  0.0856 -0.3956
16076SOL    HW159882   1.719   9.206   5.174  0.1598  0.3599 -0.0225
16076SOL    HW259883   1.807   9.108   5.078 -0.3456  0.8218 -0.9661
16077SOL     OW59884   1.926   3.459   7.931  0.7445  0.0223  0.4520
16077SOL    HW159885   2.005   3.515   7.905  0.6455  0.3839  0.9445
16077SOL    HW259886   1.934   3.369   7.888  0.4398  0.7157 -1.0871
16078SOL     OW59887   9.440   5.699   5.788 -0.4210  0.0936  0.0019
16078SOL    HW159888   9.502   5.685   5.711 -0.7049 -1.0789 -0.0309
16078SOL    HW259889   9.444   5.794   5.818  2.2710 -0.2278  0.7698
16079SOL     OW59890   5.005   5.881   0.825  0.1901  0.0970  0.5066
16079SOL    HW159891   5.101   5.905   0.837  0.0492  0.9850 -0.0893
16079SOL    HW259892   4.955   5.960   0.789 -0.7695 -0.3436  0.8560
16080SOL     OW59893   8.352   5.997   2.534  0.6345 -0.2669 -0.2499
16080SOL    HW159894   8.334   5.930   2.607 -0.7353  1.1805  0.7764
16080SOL    HW259895   8.282   5.990   2.464 -0.5706  1.3117  0.7699
16081SOL     OW59896   1.083   2.614   1.531 -0.7793  0.2015 -0.9941
16081SOL    HW159897   1.172   2.624   1.574 -1.1996  1.8492 -0.4632
16081SOL    HW259898   1.019   2.573   1.596 -0.7910  0.4137 -0.8720
16082SOL     OW59899   9.655   0.707   3.497  0.1077 -0.3705 -0.7739
16082SOL    HW159900   9.679   0.616   3.464 -0.7927 -0.1608 -2.0407
16082SOL    HW259901   9.719   0.774   3.460  0.7585 -0.4862  0.1420
16083SOL     OW59902   1.617   5.211   7.228 -0.1396  0.1617  0.0903
16083SOL    HW159903   1.557   5.260   7.166 -0.6374  2.5923  2.3996
16083SOL    HW259904   1.712   5.221   7.197 -0.5595 -0.6119 -1.5160
16084SOL     OW59905   4.032   8.616   2.510 -0.3649  0.2449 -1.0466
16084SOL    HW159906   4.107   8.628   2.574 -0.1258 -1.4532 -0.9675
16084SOL    HW259907   4.046   8.673   2.430  1.0164 -0.0603 -1.0295
16085SOL     OW59908   4.961   5.925   1.592 -0.4100 -0.4594  0.2040
16085SOL    HW159909   5.013   5.844   1.619  0.0697  0.4383  1.9931
16085SOL    HW259910   4.870   5.922   1.634 -0.9194 -0.7847 -0.9061
16086SOL     OW59911   4.075   7.670   5.924  0.3849 -0.0244  0.0846
16086SOL    HW159912   4.074   7.684   5.825 -1.4788 -1.4223 -0.1280
16086SOL    HW259913   4.155   7.714   5.963  1.1653  0.5187 -2.0540
16087SOL     OW59914   0.602   1.815   4.079  0.7166 -0.0729 -0.7784
16087SOL    HW159915   0.649   1.879   4.018  1.1465 -0.5184 -0.9111
16087SOL    HW259916   0.648   1.727   4.078  1.8075  0.4282  1.5663
16088SOL     OW59917   8.743   1.440   0.196  0.0617 -0.1415 -0.1184
16088SOL    HW159918   8.658   1.439   0.144  0.2408 -2.0341 -0.4319
16088SOL    HW259919   8.740   1.367   0.265  1.0062  0.4519  0.5585
16089SOL     OW59920   9.413   2.114   4.367 -0.2400 -0.0208  0.0440
16089SOL    HW159921   9.461   2.177   4.430 -2.1709  0.6556  0.8748
16089SOL    HW259922   9.422   2.021   4.401 -1.5078  0.3723  1.5157
16090SOL     OW59923   2.998   9.293   1.969  0.3841  0.4057 -0.5319
16090SOL    HW159924   3.091   9.256   1.973 -0.0390 -0.7051 -0.9987
16090SOL    HW259925   2.997   9.373   1.909  1.1318  0.7015 -0.1570
16091SOL     OW59926   2.832   4.177   6.422  0.0939 -0.5485 -0.1862
16091SOL    HW159927   2.884   4.106   6.471 -0.6739 -0.6155  0.5573
16091SOL    HW259928   2.888   4.215   6.349  1.7403  0.4378  1.5554
16092SOL     OW59929   7.187   4.994   1.336  0.0160 -0.3526 -0.3590
16092SOL    HW159930   7.257   5.008   1.406 -0.4740  0.8165 -0.0858
16092SOL    HW259931   7.100   5.030   1.369  0.2050  2.0103 -2.3241
16093SOL     OW59932   6.568   4.462   0.660  0.2315  0.2922  0.4717
16093SOL    HW159933   6.616   4.491   0.743 -0.7420  0.4851  0.9683
16093SOL    HW259934   6.477   4.430   0.683  1.1307 -2.8086 -0.1332
16094SOL     OW59935   2.949   0.524   6.356 -0.3118 -0.4659 -0.5776
16094SOL    HW159936   2.906   0.495   6.270 -0.6684  2.3837 -1.4070
16094SOL    HW259937   2.881   0.529   6.428 -0.4413 -0.7002 -0.6845
16095SOL     OW59938   9.825   3.235   7.151  0.5513  0.2383 -0.0388
16095SOL    HW159939   9.732   3.273   7.157  0.9171  0.9757  1.1669
16095SOL    HW259940   9.820   3.136   7.142 -0.3583  0.2411  0.3635
16096SOL     OW59941   6.012   7.369   3.562  0.1944 -0.3896  0.1576
16096SOL    HW159942   5.956   7.452   3.553  3.6686  2.1851  1.0579
16096SOL    HW259943   6.042   7.360   3.657  3.6171 -0.0651 -0.8473
16097SOL     OW59944   9.037   1.246   2.525  0.4363 -0.0568  0.1358
16097SOL    HW159945   9.077   1.184   2.457 -0.1378 -0.7442  0.4264
16097SOL    HW259946   9.028   1.338   2.485  0.6409 -0.3193 -0.5210
16098SOL     OW59947   5.024   0.610   2.929  0.2186  0.2951  0.1137
16098SOL    HW159948   4.943   0.665   2.950  1.7794  2.5466  0.4519
16098SOL    HW259949   5.007   0.556   2.847 -1.6010  0.8106  0.1263
16099SOL     OW59950   2.697   8.695   3.877 -0.3556  0.3146  0.1762
16099SOL    HW159951   2.779   8.662   3.924  0.4988  0.7901 -0.9549
16099SOL    HW259952   2.623   8.629   3.890 -0.3794  0.8151  2.8416
16100SOL     OW59953   7.059   9.635   2.998  0.1295  0.1747 -0.0933
16100SOL    HW159954   7.130   9.666   2.935  2.0724 -1.6283  1.1269
16100SOL    HW259955   7.020   9.549   2.964  1.3394 -0.9248  1.2168
16101SOL     OW59956   2.249   1.174   5.838  0.2127  0.2127 -0.4183
16101SOL    HW159957   2.178   1.108   5.815  0.9757 -0.7224 -0.0951
16101SOL    HW259958   2.267   1.172   5.936 -0.6509  1.8070 -0.2139
16102SOL     OW59959   6.706   4.106   0.048  0.1358  0.9426  0.3835
16102SOL    HW159960   6.666   4.053  -0.026 -0.3282  1.4213  0.2893
16102SOL    HW259961   6.633   4.144   0.105  0.4924 -0.0682  1.5428
16103SOL     OW59962   0.291   0.786   3.829 -0.2196 -0.0287 -0.2076
16103SOL    HW159963   0.374   0.838   3.851 -1.4299  1.5294  0.8001
16103SOL    HW259964   0.216   0.850   3.812 -1.5511 -1.4408  0.3027
16104SOL     OW59965   4.031   7.669   1.942 -0.4666 -0.2102  0.4446
16104SOL    HW159966   4.005   7.740   1.876  0.1060  0.2679  0.7306
16104SOL    HW259967   3.974   7.678   2.024 -0.2448  0.0667  0.5714
16105SOL     OW59968   0.064   9.785   5.024 -0.2646  0.1737 -0.0004
16105SOL    HW159969   0.110   9.718   4.966 -0.5492  0.6780 -0.8114
16105SOL    HW259970   0.085   9.877   4.991 -0.7614  0.4511  0.4522
16106SOL     OW59971   0.831   9.082   3.569  0.0427  0.1479  0.0604
16106SOL    HW159972   0.878   9.000   3.600 -0.3131 -0.1960 -0.3194
16106SOL    HW259973   0.738   9.060   3.542  0.0978  0.5915 -0.4986
16107SOL     OW59974   4.573   3.202   6.298 -0.9058 -0.1624 -0.0425
16107SOL    HW159975   4.593   3.177   6.203  1.8328  2.2587 -0.1800
16107SOL    HW259976   4.613   3.134   6.360  0.9907  0.4399 -0.5617
16108SOL     OW59977   8.111   2.043   4.171  0.0317 -0.5803  0.2402
16108SOL    HW159978   8.084   2.035   4.267  1.3094 -0.0168  0.6563
16108SOL    HW259979   8.139   1.954   4.137  0.5564 -0.5938  0.6952
16109SOL     OW59980   3.417   2.718   3.491  0.3543  0.2572  0.0329
16109SOL    HW159981   3.506   2.672   3.490  0.6965  0.8109  2.2828
16109SOL    HW259982   3.345   2.652   3.473  1.3099  0.1145 -3.6008
16110SOL     OW59983   7.042   1.640   5.760 -0.0157 -0.3565  0.0642
16110SOL    HW159984   7.028   1.598   5.671 -1.9159  0.9497 -0.2776
16110SOL    HW259985   7.106   1.717   5.750 -0.3055 -0.1476 -0.1853
16111SOL     OW59986   9.241   6.729   4.837  0.0621 -0.3723 -0.3531
16111SOL    HW159987   9.243   6.631   4.854  1.4576 -0.1626  0.7377
16111SOL    HW259988   9.149   6.764   4.853 -0.9097 -1.8017 -2.5602
16112SOL     OW59989   2.642   4.825   3.922  0.0693 -0.1116  0.0303
16112SOL    HW159990   2.578   4.761   3.879  1.2428 -0.3709 -1.3717
16112SOL    HW259991   2.638   4.913   3.875  1.6947 -0.5389 -0.9802
16113SOL     OW59992   1.335   1.202   0.789  0.5336  0.0215 -0.2168
16113SOL    HW159993   1.373   1.129   0.846  1.3522 -0.1638 -0.9952
16113SOL    HW259994   1.292   1.271   0.848  0.0800 -0.8959  0.5373
16114SOL     OW59995   3.937   1.890   5.361 -0.0706  0.3477 -0.5697
16114SOL    HW159996   3.986   1.856   5.442  0.8620 -0.9214 -1.6504
16114SOL    HW259997   3.840   1.864   5.367  0.3551 -1.3311 -0.7142
16115SOL     OW59998   9.045   7.853   6.593  0.1905 -0.3189 -0.1740
16115SOL    HW159999   9.091   7.871   6.506 -1.3970  0.3416 -0.8925
16115SOL    HW260000   9.038   7.938   6.646  1.0875 -0.7039  0.5861
16116SOL     OW60001   0.857   2.563   4.527 -0.6340 -0.3655  0.0146
16116SOL    HW160002   0.952   2.551   4.556 -0.8217  1.1321  1.2634
16116SOL    HW260003   0.850   2.546   4.428  0.9954 -0.0945 -0.1575
16117SOL     OW60004   3.102   0.680   0.137 -0.4283 -0.1841 -0.1317
16117SOL    HW160005   3.045   0.704   0.058 -2.2885 -1.2319  0.8511
16117SOL    HW260006   3.146   0.592   0.121 -1.0421 -0.5378  0.1162
16118SOL     OW60007   7.783   6.142   5.468 -0.1198 -0.0182  0.2491
16118SOL    HW160008   7.809   6.092   5.550 -1.5256  0.1777  0.8266
16118SOL    HW260009   7.729   6.082   5.408  0.4339  0.0068 -0.2759
16119SOL     OW60010   0.498   9.332   6.190 -0.1657 -0.4387  0.0839
16119SOL    HW160011   0.420   9.270   6.187  1.4862 -2.6590  1.1605
16119SOL    HW260012   0.558   9.314   6.113  0.6241 -0.6040  0.7290
16120SOL     OW60013   5.608   9.954   6.178 -0.3157 -0.0337  0.0990
16120SOL    HW160014   5.571   9.976   6.087  1.9429  1.6255 -0.4668
16120SOL    HW260015   5.533   9.939   6.242 -1.9484 -1.5804 -2.1073
16121SOL     OW60016   9.371   0.196   2.138 -0.4817 -0.1981 -0.0654
16121SOL    HW160017   9.326   0.191   2.228 -0.3347 -0.3258  0.0012
16121SOL    HW260018   9.348   0.115   2.085  0.7724 -0.9346  0.4863
16122SOL     OW60019   8.286   6.181   6.555 -0.2601 -0.5124  0.5871
16122SOL    HW160020   8.256   6.111   6.620 -0.4163 -1.0534 -0.0581
16122SOL    HW260021   8.208   6.236   6.526 -0.0230  0.3645  1.6040
16123SOL     OW60022   6.753   8.728   4.184 -0.2284 -0.4451  0.2645
16123SOL    HW160023   6.812   8.741   4.104  0.7309 -1.7008  0.7476
16123SOL    HW260024   6.675   8.790   4.178  1.7349  2.1175  0.1998
16124SOL     OW60025   4.268   2.809   0.233  0.2783  0.0808 -0.2164
16124SOL    HW160026   4.305   2.829   0.324  0.8757 -0.5669 -0.3154
16124SOL    HW260027   4.295   2.881   0.169  1.2757 -0.3291 -0.2619
16125SOL     OW60028   6.606   1.466   2.511  0.1769  0.2419 -0.1790
16125SOL    HW160029   6.580   1.522   2.590 -0.5814 -1.7691  1.0375
16125SOL    HW260030   6.535   1.472   2.441 -2.1285 -2.6266  1.7755
16126SOL     OW60031   7.096   4.047   7.921 -0.0894  0.2799  0.4162
16126SOL    HW160032   7.016   3.991   7.945 -0.3786 -0.2600 -1.7305
16126SOL    HW260033   7.154   3.995   7.858 -0.1162  2.2073 -1.2254
16127SOL     OW60034   4.992   8.909   1.713  0.0962  0.1437  0.4754
16127SOL    HW160035   5.062   8.967   1.671  0.5292 -0.8556 -0.1995
16127SOL    HW260036   5.035   8.825   1.748 -0.8741 -0.8063 -0.5808
16128SOL     OW60037   9.697   7.686   8.001 -0.2147  0.0083 -0.0293
16128SOL    HW160038   9.714   7.760   7.935 -0.9451  0.3684  0.1797
16128SOL    HW260039   9.603   7.653   7.990  0.8297 -2.5374 -1.7516
16129SOL     OW60040   3.885   3.219   2.622  0.3979 -0.5983 -1.1977
16129SOL    HW160041   3.867   3.309   2.661 -0.4977  0.2109 -3.3754
16129SOL    HW260042   3.862   3.148   2.688 -1.2024  0.7131 -0.3288
16130SOL     OW60043   9.931   5.010   0.902 -0.1379  0.3887 -0.4548
16130SOL    HW160044   9.969   5.030   0.992 -1.3035 -1.1771  0.3992
16130SOL    HW260045   9.964   4.921   0.871 -1.0165  0.1993 -0.8551
16131SOL     OW60046   3.445   9.554   0.021 -0.7200  0.2090 -0.2471
16131SOL    HW160047   3.446   9.531   0.118 -0.8449 -0.3807 -0.3886
16131SOL    HW260048   3.431   9.653   0.011  1.4925  0.6281  0.4024
16132SOL     OW60049   1.684   1.725   6.880  0.3269 -0.4163 -0.0472
16132SOL    HW160050   1.770   1.776   6.880  0.5419 -0.7437 -1.9533
16132SOL    HW260051   1.616   1.775   6.826 -0.6219 -0.2628  1.2832
16133SOL     OW60052   1.134   5.944   1.856  0.3873  0.1574 -0.1159
16133SOL    HW160053   1.071   6.005   1.810 -0.9417 -0.7958  0.4031
16133SOL    HW260054   1.124   5.954   1.955  1.9014  0.8506 -0.0182
16134SOL     OW60055   8.514   8.758   6.209  0.0497  0.5031 -0.2871
16134SOL    HW160056   8.557   8.687   6.264 -1.2963  0.6870  1.0255
16134SOL    HW260057   8.568   8.842   6.216 -0.0918  0.5181  0.7314
16135SOL     OW60058   9.137   5.681   7.034 -0.0900 -0.3415 -0.4970
16135SOL    HW160059   9.132   5.746   6.958 -0.5914  0.7067  0.4387
16135SOL    HW260060   9.047   5.675   7.078  0.5733  0.1278  0.9235
16136SOL     OW60061   7.605   9.941   2.719 -0.2751 -0.0615  0.2167
16136SOL    HW160062   7.633  10.010   2.652 -1.3201 -0.4491 -0.6474
16136SOL    HW260063   7.676   9.931   2.789 -0.0150  1.7105  0.2174
16137SOL     OW60064   1.420   5.089   6.944  0.0117  0.0570 -0.0179
16137SOL    HW160065   1.396   5.083   6.847 -1.2461  0.0706  0.2884
16137SOL    HW260066   1.494   5.024   6.964  0.7682  0.5548 -1.1199
16138SOL     OW60067   1.690   2.944   0.236  0.1706 -0.2491  0.3098
16138SOL    HW160068   1.776   2.981   0.271  0.3385  0.1557 -0.5064
16138SOL    HW260069   1.628   3.019   0.214  0.3934 -0.4523 -1.0561
16139SOL     OW60070   9.674   0.335   4.405  0.2188  0.6320 -0.2282
16139SOL    HW160071   9.611   0.259   4.394 -0.0915  0.9801 -0.8729
16139SOL    HW260072   9.622   0.419   4.423  0.5289  0.8035 -0.1241
16140SOL     OW60073   0.692   9.444   0.069 -0.4766  0.6574 -0.0739
16140SOL    HW160074   0.736   9.367   0.022 -0.2414  0.9135 -0.2672
16140SOL    HW260075   0.734   9.530   0.041 -0.6286  0.8472  0.2726
16141SOL     OW60076   2.428   4.667   3.797  0.4048  0.1266 -0.2914
16141SOL    HW160077   2.367   4.737   3.758 -0.1834 -0.0831  0.2483
16141SOL    HW260078   2.435   4.590   3.733  0.9881  0.6435 -0.8495
16142SOL     OW60079   6.925   0.831   2.659 -0.0955  0.3785 -0.3109
16142SOL    HW160080   6.963   0.752   2.707 -0.9366  0.1035 -0.0752
16142SOL    HW260081   6.895   0.899   2.726  2.5673  1.8450 -0.5631
16143SOL     OW60082   7.831   2.464   8.127  0.3365  0.1510 -0.0873
16143SOL    HW160083   7.900   2.454   8.056  0.4377 -0.3775  0.0852
16143SOL    HW260084   7.794   2.375   8.151 -0.3919  0.4331 -0.1601
16144SOL     OW60085   3.212   6.620   3.259 -0.0893 -0.4367  0.2128
16144SOL    HW160086   3.220   6.699   3.319  1.0192 -0.4978  0.1466
16144SOL    HW260087   3.273   6.630   3.181 -1.3210 -0.4827 -0.7877
16145SOL     OW60088   1.898   3.540   1.769  0.0864 -0.2525 -0.3960
16145SOL    HW160089   1.852   3.465   1.720  0.9925 -1.0257 -0.0703
16145SOL    HW260090   1.899   3.519   1.867  0.5307  0.0864 -0.3308
16146SOL     OW60091   0.492   9.123   4.726 -0.3681 -0.1668 -0.1940
16146SOL    HW160092   0.536   9.169   4.803 -0.9175 -0.1418  0.1057
16146SOL    HW260093   0.405   9.085   4.756 -1.3526  1.2628 -1.2140
16147SOL     OW60094   9.907   5.671   7.838  0.3820  0.3193  0.0546
16147SOL    HW160095   9.842   5.713   7.773 -0.0338 -1.4075 -0.6868
16147SOL    HW260096   9.860   5.599   7.889  1.1363  0.6093  1.1641
16148SOL     OW60097   7.486   0.504   7.639  0.7409  0.6281 -0.0198
16148SOL    HW160098   7.439   0.429   7.685  0.4991  1.8852  1.8432
16148SOL    HW260099   7.546   0.467   7.568 -2.0537 -1.0649 -1.5473
16149SOL     OW60100   6.398   1.740   0.781 -0.7203 -0.2114  0.3038
16149SOL    HW160101   6.465   1.758   0.853 -0.3544  0.1822 -0.1414
16149SOL    HW260102   6.401   1.813   0.713 -0.8443 -0.7588 -0.2867
16150SOL     OW60103   3.110   3.541   1.456 -0.0247  0.0953  0.4984
16150SOL    HW160104   3.093   3.494   1.542 -0.0980 -0.1048  0.3752
16150SOL    HW260105   3.208   3.543   1.438 -0.1045 -1.1022 -0.1050
16151SOL     OW60106   3.016   9.815   5.349 -0.1638  0.1690  0.0695
16151SOL    HW160107   2.917   9.830   5.354 -0.5927 -2.0034 -1.4029
16151SOL    HW260108   3.046   9.767   5.431 -0.6499 -0.8393 -0.3397
16152SOL     OW60109   1.541   9.037   1.039  0.0802 -0.2404 -0.1574
16152SOL    HW160110   1.624   9.056   0.986  0.1544 -1.4008 -0.4805
16152SOL    HW260111   1.503   8.949   1.010 -1.0754  0.1269  0.2325
16153SOL     OW60112   7.800   0.819   1.992  0.0047 -0.4683 -0.4770
16153SOL    HW160113   7.774   0.907   2.033 -0.5299 -1.0589  0.4691
16153SOL    HW260114   7.731   0.750   2.015  2.2222 -2.0108  1.8155
16154SOL     OW60115   5.034   7.692   2.689 -0.5251 -0.3190  0.0207
16154SOL    HW160116   5.030   7.791   2.702 -0.9448 -0.1585 -1.3393
16154SOL    HW260117   5.122   7.658   2.722  0.7034  0.8724 -1.9285
16155SOL     OW60118   4.200   3.452   3.982 -0.3036 -0.2993 -0.0364
16155SOL    HW160119   4.105   3.463   3.954  0.3143 -2.0231 -3.0813
16155SOL    HW260120   4.255   3.429   3.902  2.7448  0.9643  1.6367
16156SOL     OW60121   9.421   3.919   2.465 -0.4925 -0.2375 -0.3410
16156SOL    HW160122   9.433   3.839   2.523 -1.0064  0.6369  0.9986
16156SOL    HW260123   9.510   3.952   2.434 -0.1181  0.0622  1.0344
16157SOL     OW60124   2.931   9.294   6.349  0.1375  0.4091  0.0224
16157SOL    HW160125   2.989   9.339   6.281  1.8565 -0.0867  1.1353
16157SOL    HW260126   2.928   9.350   6.432  0.1280 -0.2295  0.4571
16158SOL     OW60127   8.360   8.156   2.962 -0.4457 -0.0861  0.2753
16158SOL    HW160128   8.276   8.124   3.007 -1.2093 -0.6567 -1.5015
16158SOL    HW260129   8.412   8.076   2.931  0.3472  0.2894  0.6433
16159SOL     OW60130   5.763   9.073   4.021 -0.5900 -0.3856  0.5810
16159SOL    HW160131   5.742   8.989   4.072  1.8240 -1.1215  0.4409
16159SOL    HW260132   5.807   9.049   3.934 -1.3111  0.9959 -0.1901
16160SOL     OW60133   5.724   1.878   3.546 -0.3743 -0.1097  0.1291
16160SOL    HW160134   5.632   1.916   3.549 -0.7108 -0.8120 -1.0869
16160SOL    HW260135   5.761   1.886   3.454  0.9380  0.5146  0.6914
16161SOL     OW60136   8.098   5.997   3.369 -0.2823 -0.0506  0.2711
16161SOL    HW160137   8.185   5.985   3.418 -0.9319  0.3569  1.5442
16161SOL    HW260138   8.099   6.084   3.321  0.0285 -0.0614  0.2558
16162SOL     OW60139   4.618   0.170   3.881 -0.1337 -0.0432  0.1691
16162SOL    HW160140   4.639   0.131   3.791 -0.7744 -0.7908  0.3437
16162SOL    HW260141   4.622   0.270   3.875 -1.2333 -0.0584 -0.9576
16163SOL     OW60142   2.555   9.474   3.622 -0.0195  0.7030  0.1661
16163SOL    HW160143   2.546   9.392   3.678  0.2676  2.3013  2.6163
16163SOL    HW260144   2.551   9.449   3.525  0.2090 -2.1965  0.8688
16164SOL     OW60145   9.253   8.929   2.045 -0.4036  0.2713 -1.1617
16164SOL    HW160146   9.231   8.928   1.948 -0.6788  0.3944 -1.0999
16164SOL    HW260147   9.300   8.844   2.070 -0.2220  0.2948 -1.4263
16165SOL     OW60148   1.728   3.607   5.781 -0.0777 -0.0584 -0.3934
16165SOL    HW160149   1.710   3.699   5.747  0.9417 -0.0342 -0.9075
16165SOL    HW260150   1.650   3.574   5.833 -0.8480  0.7096 -1.0502
16166SOL     OW60151   9.437   4.356   3.752 -0.5660  0.1526 -0.6991
16166SOL    HW160152   9.515   4.412   3.723 -0.3617 -0.5282 -1.4791
16166SOL    HW260153   9.470   4.279   3.807 -0.9378  1.3626  1.2833
16167SOL     OW60154   1.417   6.745   7.578 -0.0295 -0.2930  0.7298
16167SOL    HW160155   1.451   6.801   7.503 -0.4144 -0.0407  0.7432
16167SOL    HW260156   1.415   6.799   7.662  0.4893 -0.5988  0.9450
16168SOL     OW60157   7.140   6.132   8.066 -0.5614  0.1861 -0.9157
16168SOL    HW160158   7.172   6.054   8.013  0.5756  0.1981 -0.2702
16168SOL    HW260159   7.201   6.147   8.144 -1.6483  0.7689 -0.1581
16169SOL     OW60160   3.904   1.696   7.267  0.0730 -0.1657  0.0006
16169SOL    HW160161   3.912   1.771   7.201  2.3641 -1.9192 -1.8047
16169SOL    HW260162   3.846   1.624   7.229 -0.0565 -0.4159  0.6606
16170SOL     OW60163   9.298   3.860   1.960 -0.6564 -0.4494 -0.6380
16170SOL    HW160164   9.333   3.929   1.896 -0.2104  0.0999  0.1955
16170SOL    HW260165   9.293   3.899   2.052 -1.9848 -1.0057 -0.4626
16171SOL     OW60166   4.719   3.442   6.330 -0.7740  0.1935  0.0214
16171SOL    HW160167   4.691   3.491   6.413 -0.3370  0.2428  0.1378
16171SOL    HW260168   4.672   3.354   6.326 -1.3945  0.5261 -0.0765
16172SOL     OW60169   7.117   2.455   2.408 -0.1670 -0.2601  0.3903
16172SOL    HW160170   7.096   2.433   2.313 -2.3459  0.0963  0.7468
16172SOL    HW260171   7.176   2.385   2.447 -0.3576 -1.1140 -0.8413
16173SOL     OW60172   9.482   7.444   3.190 -0.1089 -0.3021  0.5303
16173SOL    HW160173   9.398   7.414   3.145  0.4789 -0.1427 -0.7199
16173SOL    HW260174   9.489   7.402   3.280 -1.8730  0.2504  0.9369
16174SOL     OW60175   7.608   1.613   5.206  0.1132  0.7024  0.0769
16174SOL    HW160176   7.688   1.574   5.160 -0.5042  1.3311 -1.6001
16174SOL    HW260177   7.608   1.712   5.194 -1.4784  0.6082 -0.9056
16175SOL     OW60178   0.221   2.279   5.226 -0.1486 -0.3251  0.4208
16175SOL    HW160179   0.219   2.379   5.224 -0.9053 -0.3441  0.0018
16175SOL    HW260180   0.127   2.245   5.234 -0.0748 -1.0508 -1.6489
16176SOL     OW60181   3.055   4.079   3.176  0.0332  0.2664 -0.0219
16176SOL    HW160182   3.048   4.058   3.079  0.0212 -0.0198  0.0422
16176SOL    HW260183   3.004   4.012   3.229 -1.2709  1.3201  0.0864
16177SOL     OW60184   7.896   1.273   6.561 -0.6345  0.6674 -0.3289
16177SOL    HW160185   7.870   1.186   6.602 -0.4072  0.6961 -0.1265
16177SOL    HW260186   7.971   1.259   6.496 -1.0512  0.6080 -0.8045
16178SOL     OW60187   0.596   9.532   4.611  0.0620 -0.4235  0.0868
16178SOL    HW160188   0.545   9.618   4.617 -1.6782 -1.5237  1.3413
16178SOL    HW260189   0.637   9.512   4.699  0.0061 -1.1527 -0.0526
16179SOL     OW60190   8.638   8.278   0.725  0.1014  0.2693  0.0679
16179SOL    HW160191   8.575   8.353   0.705 -0.6568 -0.5014 -0.4172
16179SOL    HW260192   8.675   8.241   0.639 -0.8434 -1.0422  0.2136
16180SOL     OW60193   1.095   5.421   5.386  0.1082  0.5314 -0.5823
16180SOL    HW160194   1.155   5.501   5.391 -0.6292  0.9524  2.0613
16180SOL    HW260195   1.028   5.435   5.313 -0.3304  2.5685  0.1707
16181SOL     OW60196   3.640   6.081   3.322 -0.5776  0.0689 -0.4456
16181SOL    HW160197   3.717   6.113   3.266  0.0690 -0.5617  0.0683
16181SOL    HW260198   3.675   6.024   3.396 -1.4249  0.8584  0.5725
16182SOL     OW60199   4.963   8.680   4.718  0.1470 -0.0274  0.2123
16182SOL    HW160200   5.035   8.744   4.744 -0.0650  0.9584 -1.6288
16182SOL    HW260201   4.897   8.672   4.793  0.0852  2.0240  0.3904
16183SOL     OW60202   3.403   8.384   1.683  0.1891  0.5448  0.1170
16183SOL    HW160203   3.426   8.430   1.597  2.0045 -0.3197  0.1148
16183SOL    HW260204   3.306   8.359   1.682 -0.0129  1.2939 -1.3170
16184SOL     OW60205   4.513   3.431   3.324 -0.0879 -1.1380  0.8855
16184SOL    HW160206   4.491   3.497   3.395 -2.9389 -0.2126 -0.7953
16184SOL    HW260207   4.438   3.365   3.315  0.2974 -1.3266 -1.1527
16185SOL     OW60208   7.328   9.991   6.158  0.3702 -0.3644  0.4297
16185SOL    HW160209   7.398   9.995   6.229  0.0891  1.9371  0.6065
16185SOL    HW260210   7.371   9.985   6.068  0.8546  2.3434  0.4512
16186SOL     OW60211   5.117   1.917   4.442 -0.6228  0.1468  0.3191
16186SOL    HW160212   5.058   1.998   4.446 -0.6820  0.1087  0.1811
16186SOL    HW260213   5.119   1.873   4.532  0.6490  1.2022  0.8306
16187SOL     OW60214   2.469   5.769   7.531 -0.6394  0.0783 -0.3740
16187SOL    HW160215   2.515   5.773   7.443  0.4595 -0.7651  0.1566
16187SOL    HW260216   2.449   5.862   7.563  0.9920  0.4625 -0.4532
16188SOL     OW60217   9.731   2.560   8.084 -0.4888 -0.3428  0.2781
16188SOL    HW160218   9.746   2.542   8.181 -0.9901 -1.8467  0.0865
16188SOL    HW260219   9.705   2.656   8.072 -1.4461 -0.3914  1.7570
16189SOL     OW60220   7.570   9.520   5.156 -0.2761  0.1979 -0.3828
16189SOL    HW160221   7.584   9.534   5.058  1.2811  1.5167  0.0034
16189SOL    HW260222   7.658   9.508   5.201 -0.9392  0.2108  0.9418
16190SOL     OW60223   1.975   7.665   4.801  0.3571  0.4595 -0.0868
16190SOL    HW160224   2.052   7.725   4.822  1.1515 -0.5270 -0.1752
16190SOL    HW260225   1.898   7.687   4.861  1.2701  0.3166  1.1635
16191SOL     OW60226   7.673   7.228   5.643 -0.2172  0.2476  0.0738
16191SOL    HW160227   7.678   7.315   5.691  1.9265 -1.1474  2.5100
16191SOL    HW260228   7.604   7.170   5.686  0.8790 -0.5674  0.7583
16192SOL     OW60229   5.213   9.334   6.384  0.5123  0.6589  0.2013
16192SOL    HW160230   5.203   9.411   6.321  1.0744 -0.0325 -0.7505
16192SOL    HW260231   5.125   9.288   6.396  0.3486  0.9544  0.1348
16193SOL     OW60232   0.561   2.778   5.778  0.4316 -0.0094  0.4637
16193SOL    HW160233   0.493   2.745   5.844 -0.5962  0.1966 -0.4892
16193SOL    HW260234   0.588   2.871   5.802  1.6206 -0.6663  1.8019
16194SOL     OW60235   1.584   3.814   2.820  0.0078 -0.5182  0.4349
16194SOL    HW160236   1.634   3.830   2.735  0.6118  0.7534  1.0148
16194SOL    HW260237   1.493   3.854   2.813 -0.3262 -1.3379  0.0086
16195SOL     OW60238   3.664   2.294   3.038 -0.3018 -0.2758  0.0536
16195SOL    HW160239   3.723   2.374   3.048 -0.3875 -0.3296  1.0328
16195SOL    HW260240   3.705   2.231   2.972 -0.1161  0.4607 -0.5430
16196SOL     OW60241   0.431   0.162   1.779  0.8241 -0.2299  0.6098
16196SOL    HW160242   0.376   0.242   1.804 -0.2009 -1.4592  2.4954
16196SOL    HW260243   0.435   0.153   1.680  1.0884  2.2310  0.3801
16197SOL     OW60244   2.707   0.169   0.255  0.3084 -0.1302 -0.0673
16197SOL    HW160245   2.709   0.239   0.185 -0.1836 -0.9405 -0.9054
16197SOL    HW260246   2.625   0.182   0.312  0.7640  0.5895  0.4310
16198SOL     OW60247   0.093   4.330   4.432  0.3295 -0.1397 -0.3623
16198SOL    HW160248   0.090   4.403   4.364  1.3900  0.6155  0.3746
16198SOL    HW260249   0.186   4.292   4.434  0.2216 -0.3498  0.4575
16199SOL     OW60250   4.451   7.959   3.993  0.0108 -0.2486 -0.4507
16199SOL    HW160251   4.416   8.017   3.919 -0.8790  1.3774  1.1948
16199SOL    HW260252   4.534   7.913   3.962 -0.1936  0.5942 -2.3741
16200SOL     OW60253   3.189   9.644   5.927 -0.0862 -0.0526  0.3444
16200SOL    HW160254   3.289   9.633   5.922 -0.0708  0.3380 -0.3612
16200SOL    HW260255   3.166   9.738   5.903 -0.5232  0.2533  1.9301
16201SOL     OW60256   5.131   0.239   2.690 -0.0427  0.0087  0.0929
16201SOL    HW160257   5.074   0.177   2.636  1.5597  0.0901 -1.7642
16201SOL    HW260258   5.175   0.189   2.764 -1.1126 -0.4175  0.4503
16202SOL     OW60259   4.440   0.013   6.589 -0.0565  0.5255 -0.7034
16202SOL    HW160260   4.505  -0.064   6.591  0.9143  1.3018 -1.8879
16202SOL    HW260261   4.351  -0.020   6.555  0.4650 -0.0004 -1.5842
16203SOL     OW60262   7.986   1.321   2.199 -0.1006  0.5357  0.0720
16203SOL    HW160263   8.035   1.407   2.208 -1.8621  1.6396 -0.7078
16203SOL    HW260264   7.931   1.305   2.282 -0.1167  0.3676  0.0298
16204SOL     OW60265   3.366   8.914   7.566 -0.9575 -0.1867  0.2617
16204SOL    HW160266   3.279   8.897   7.613 -1.3003 -1.2948 -0.7446
16204SOL    HW260267   3.391   8.833   7.512  1.8611 -0.7970  2.3171
16205SOL     OW60268   8.376   4.110   5.769  0.6067  0.7713  0.1955
16205SOL    HW160269   8.463   4.101   5.721  1.4333  1.6584  1.4790
16205SOL    HW260270   8.303   4.068   5.715  1.9321 -0.5764 -0.5742
16206SOL     OW60271   6.238   4.804   0.788 -0.3407  0.7093 -0.3955
16206SOL    HW160272   6.254   4.843   0.879  0.3505  1.2453 -0.7443
16206SOL    HW260273   6.303   4.730   0.772  1.1742  2.2123 -1.4041
16207SOL     OW60274   9.642   1.288   0.276  0.0821 -0.2990  0.2637
16207SOL    HW160275   9.706   1.211   0.272 -0.7721 -0.9515 -1.2351
16207SOL    HW260276   9.564   1.262   0.333  1.0280  0.4216  1.9195
16208SOL     OW60277   3.321   7.818   0.515  0.1173 -0.2966 -0.2008
16208SOL    HW160278   3.393   7.873   0.474  0.5295 -0.2897  0.5249
16208SOL    HW260279   3.276   7.763   0.443  1.3677 -0.8984 -0.5411
16209SOL     OW60280   3.606   3.226   7.970 -0.4469 -0.2371 -0.4964
16209SOL    HW160281   3.506   3.226   7.973 -0.4536  1.6195  0.1119
16209SOL    HW260282   3.636   3.211   7.876 -1.2629 -1.9874 -0.4981
16210SOL     OW60283   8.264   7.845   3.125 -0.2268 -0.2060 -0.6974
16210SOL    HW160284   8.233   7.752   3.105  0.2451 -0.6054  0.3952
16210SOL    HW260285   8.230   7.908   3.054 -0.1020 -1.2866 -1.7298
16211SOL     OW60286   9.931   5.091   0.645 -0.5642 -0.1943 -0.0475
16211SOL    HW160287   9.934   5.066   0.741 -2.9200 -0.7929 -0.0987
16211SOL    HW260288  10.000   5.038   0.594 -0.1129 -0.7257  1.1090
16212SOL     OW60289   6.812   1.439   2.091  0.0407 -0.2907  0.1822
16212SOL    HW160290   6.726   1.485   2.067 -0.2245 -1.4697 -1.1707
16212SOL    HW260291   6.877   1.447   2.016  1.3281  1.0543  1.4140
16213SOL     OW60292   9.891   2.827   7.444 -0.1265 -0.1736  0.1630
16213SOL    HW160293   9.791   2.840   7.444 -0.0189  0.7110  0.0723
16213SOL    HW260294   9.936   2.917   7.446  0.6693 -0.5690  0.1339
16214SOL     OW60295   2.812   3.500   3.425  0.1848 -0.1966 -0.1550
16214SOL    HW160296   2.886   3.545   3.375  0.7251  0.8102  1.5063
16214SOL    HW260297   2.772   3.565   3.490 -2.0652 -0.7649 -0.9212
16215SOL     OW60298   4.519   4.760   7.916 -0.3776 -0.3193  0.0963
16215SOL    HW160299   4.524   4.856   7.945  1.3485  0.0946 -1.4220
16215SOL    HW260300   4.597   4.740   7.856 -1.2929 -2.4006 -0.4316
16216SOL     OW60301   8.750   6.430   1.794  0.1089  0.0778  0.2748
16216SOL    HW160302   8.663   6.475   1.814  2.2572  2.6072  4.5433
16216SOL    HW260303   8.813   6.497   1.754  0.6528 -1.3549 -1.3460
16217SOL     OW60304   9.667   1.688   6.317  0.2835 -0.4983 -0.3178
16217SOL    HW160305   9.682   1.766   6.377 -0.2991  0.8261 -1.8849
16217SOL    HW260306   9.667   1.718   6.222 -0.8926 -2.2498 -0.8944
16218SOL     OW60307   3.405   7.145   7.388 -0.3781 -0.6242 -0.2703
16218SOL    HW160308   3.502   7.172   7.395 -0.3735 -0.5347 -0.6962
16218SOL    HW260309   3.359   7.203   7.322 -1.1354  0.4694  1.1831
16219SOL     OW60310   4.066   4.629   4.892 -0.2855 -0.7058  0.3244
16219SOL    HW160311   3.980   4.679   4.904 -0.2914 -1.0084  1.5757
16219SOL    HW260312   4.132   4.660   4.960  0.0341 -1.6890  0.4687
16220SOL     OW60313   7.689   6.786   4.841  0.3731 -0.0883  0.7201
16220SOL    HW160314   7.746   6.867   4.830  0.7042 -0.1763  1.7747
16220SOL    HW260315   7.626   6.800   4.917 -0.0376 -0.5566  0.4711
16221SOL     OW60316   2.848   8.080   6.117  0.0620  0.2666  0.0298
16221SOL    HW160317   2.861   8.176   6.140 -1.5748  0.3624  0.6295
16221SOL    HW260318   2.754   8.053   6.138  0.4258 -1.3954 -0.3876
16222SOL     OW60319   0.200   5.042   7.227  1.1307 -0.3692 -0.1962
16222SOL    HW160320   0.271   5.094   7.272  0.1394 -0.0313  1.0057
16222SOL    HW260321   0.136   5.007   7.295 -1.8357  2.3008 -1.4699
16223SOL     OW60322   3.137   2.744   1.224  0.0073  0.2018 -0.3804
16223SOL    HW160323   3.164   2.839   1.208 -0.5201  0.1148 -1.8814
16223SOL    HW260324   3.219   2.687   1.232  0.3080  0.5588 -0.8886
16224SOL     OW60325   5.898   0.026   2.088  0.0755 -0.4587  0.3656
16224SOL    HW160326   5.805   0.058   2.074 -0.0469 -0.3988  1.2872
16224SOL    HW260327   5.898  -0.074   2.097 -0.2613 -0.2703  3.0007
16225SOL     OW60328   0.521   8.536   1.975  0.4507  0.3808 -0.5353
16225SOL    HW160329   0.462   8.607   1.938 -0.1357 -0.2035 -0.7252
16225SOL    HW260330   0.549   8.561   2.068  1.0236  1.3115 -0.9578
16226SOL     OW60331   9.622   9.940   7.685 -1.2493  0.3196 -0.5362
16226SOL    HW160332   9.569   9.905   7.608 -0.0248 -0.8651 -0.8687
16226SOL    HW260333   9.719   9.932   7.664 -0.9091 -0.0505  1.1344
16227SOL     OW60334   4.146   5.528   3.497  0.0781  0.3087 -0.8056
16227SOL    HW160335   4.120   5.510   3.403  0.1386 -0.0086 -0.7653
16227SOL    HW260336   4.202   5.451   3.531  0.9616  0.9204 -0.8563
16228SOL     OW60337   8.015   0.204   1.599 -0.1756 -0.2331 -0.1463
16228SOL    HW160338   8.073   0.131   1.562 -0.8199 -0.2874 -1.0582
16228SOL    HW260339   8.073   0.277   1.636  0.4861  0.1329 -1.8732
16229SOL     OW60340   0.363   7.900   6.730  0.3982  0.2872 -0.2748
16229SOL    HW160341   0.402   7.845   6.803 -0.3142  0.3325  0.1498
16229SOL    HW260342   0.268   7.924   6.753 -0.2928 -0.8582 -1.8170
16230SOL     OW60343   2.008   9.470   8.030 -0.2847  0.1070 -0.1200
16230SOL    HW160344   1.937   9.518   7.979 -0.9501  0.1327  0.8238
16230SOL    HW260345   1.992   9.371   8.024 -0.4790  0.1189  0.2165
16231SOL     OW60346   1.688   2.633   5.787 -0.1948  0.1666 -0.2491
16231SOL    HW160347   1.635   2.551   5.767  0.3162  0.0614 -1.2082
16231SOL    HW260348   1.786   2.613   5.776 -0.0689  0.8874 -0.4567
16232SOL     OW60349   2.128   9.529   2.188  0.9362  0.2841  0.5585
16232SOL    HW160350   2.228   9.529   2.197  1.2841  0.5907 -2.6868
16232SOL    HW260351   2.102   9.475   2.108 -1.3060  2.5430 -0.3078
16233SOL     OW60352   1.352   1.408   0.980 -0.4024 -0.3726  0.2287
16233SOL    HW160353   1.273   1.470   0.975  1.3359  1.9602  0.7481
16233SOL    HW260354   1.408   1.419   0.898 -0.5725 -1.9559 -0.1023
16234SOL     OW60355   1.226   7.758   0.394  0.4493 -0.2719 -0.8055
16234SOL    HW160356   1.267   7.790   0.479 -0.5216  1.1049 -0.8399
16234SOL    HW260357   1.267   7.807   0.317  1.0806 -1.2631 -1.1048
16235SOL     OW60358   7.099   3.343   0.151 -0.0216  0.4992 -0.4124
16235SOL    HW160359   7.095   3.313   0.056 -0.3809 -0.1283 -0.2044
16235SOL    HW260360   7.010   3.328   0.194 -0.0180  1.2858 -0.1294
16236SOL     OW60361   8.455   8.132   7.373 -0.1214  0.1455 -0.3956
16236SOL    HW160362   8.497   8.136   7.282  0.2045 -0.7887 -0.2944
16236SOL    HW260363   8.485   8.049   7.419 -0.6299  0.4055  0.4024
16237SOL     OW60364   0.151   2.486   6.575 -0.0149 -0.2168  0.3130
16237SOL    HW160365   0.161   2.387   6.588 -0.4482 -0.1594  1.1028
16237SOL    HW260366   0.116   2.504   6.483 -0.4143 -0.8272  0.3448
16238SOL     OW60367   8.418   9.742   4.752 -0.5484  0.3636 -0.0318
16238SOL    HW160368   8.485   9.791   4.696  0.8239 -0.4150  0.8823
16238SOL    HW260369   8.348   9.805   4.783 -0.3140  1.1750 -1.1195
16239SOL     OW60370   1.258   4.085   7.865  1.0801 -0.2633 -0.7645
16239SOL    HW160371   1.317   4.018   7.911  2.0746  0.9030 -0.3237
16239SOL    HW260372   1.204   4.134   7.933 -1.0633 -1.9035 -1.2190
16240SOL     OW60373   7.339   1.137   5.295  0.0729 -0.0781 -0.2066
16240SOL    HW160374   7.387   1.222   5.271  1.6612 -0.8478  0.1498
16240SOL    HW260375   7.249   1.136   5.251  0.7943  0.9323 -1.7578
16241SOL     OW60376   5.621   2.653   4.805  0.4462  0.3064  0.1610
16241SOL    HW160377   5.626   2.605   4.893  1.4936 -0.3579 -0.2691
16241SOL    HW260378   5.638   2.589   4.730 -0.7519  0.8104 -0.5572
16242SOL     OW60379   0.287   0.736   0.084 -0.5632 -0.3003  0.0117
16242SOL    HW160380   0.380   0.726   0.050 -0.2195 -0.2635  0.9120
16242SOL    HW260381   0.277   0.825   0.129 -1.2591  0.0254 -0.7798
16243SOL     OW60382   8.167   3.857   1.045 -0.7852 -0.2906  0.5676
16243SOL    HW160383   8.209   3.776   1.087  1.1703  0.4470  0.0975
16243SOL    HW260384   8.148   3.924   1.117 -0.4117 -0.3104  0.6894
16244SOL     OW60385   4.381   5.124   0.042 -0.0881 -0.9436  0.2016
16244SOL    HW160386   4.429   5.092   0.124  0.4727  0.7634  0.5593
16244SOL    HW260387   4.319   5.198   0.068 -0.4162 -0.8594 -0.8206
16245SOL     OW60388   9.995   1.632   4.664  0.0442  0.4347 -0.1886
16245SOL    HW160389  10.072   1.573   4.688 -0.3643  0.3756  1.0429
16245SOL    HW260390   9.975   1.623   4.567  0.6286 -0.7012 -0.2145
16246SOL     OW60391   7.008   9.759   3.284  0.1944 -0.4360 -0.2988
16246SOL    HW160392   7.033   9.841   3.233  0.2763 -0.3589 -0.1368
16246SOL    HW260393   7.050   9.679   3.240 -0.2843 -0.4477 -0.7378
16247SOL     OW60394   3.197   6.341   1.883 -0.1325  0.4405  0.1452
16247SOL    HW160395   3.194   6.367   1.980 -0.0966  0.6907  0.0781
16247SOL    HW260396   3.276   6.383   1.839  0.3912 -0.4505  0.2330
16248SOL     OW60397   7.412   1.077   5.547  0.5248  0.5058  0.1633
16248SOL    HW160398   7.340   1.049   5.611  0.6876  3.0198  1.5027
16248SOL    HW260399   7.371   1.100   5.458  0.0734 -1.1642 -0.0747
16249SOL     OW60400   5.773   1.204   6.249 -0.1090  0.5608 -0.5463
16249SOL    HW160401   5.799   1.109   6.267 -0.7919  0.4960  0.1706
16249SOL    HW260402   5.782   1.224   6.152  0.6712 -0.0427 -0.6011
16250SOL     OW60403   3.076   4.116   2.057  0.3865 -0.3526 -0.1201
16250SOL    HW160404   3.140   4.154   1.990 -0.0189 -0.9015 -0.8147
16250SOL    HW260405   2.987   4.161   2.048  0.0531 -1.1076 -0.5959
16251SOL     OW60406   3.441   6.400   3.237  0.3032  0.5450 -0.0001
16251SOL    HW160407   3.344   6.416   3.252  0.1551  1.2331 -1.6118
16251SOL    HW260408   3.455   6.305   3.208 -0.2735  1.2881 -2.8571
16252SOL     OW60409   2.030   5.580   5.287  0.4482  0.5193  0.0224
16252SOL    HW160410   1.957   5.608   5.224 -0.0520  0.3765  0.5386
16252SOL    HW260411   2.113   5.631   5.266  0.4553  0.0306 -1.1524
16253SOL     OW60412   9.037   3.089   4.778 -0.5733 -0.1631 -0.3878
16253SOL    HW160413   8.994   3.013   4.827 -2.8704  0.7156 -0.9611
16253SOL    HW260414   9.014   3.176   4.822  0.1577  0.3795 -1.0454
16254SOL     OW60415   3.541   2.717   5.159  0.1039 -0.3494 -0.2690
16254SOL    HW160416   3.591   2.632   5.174  1.1799  0.3473  0.2065
16254SOL    HW260417   3.453   2.697   5.117  0.2999 -1.7016 -0.0700
16255SOL     OW60418   8.155   1.252   7.493  0.6368 -0.1771  0.0490
16255SOL    HW160419   8.100   1.312   7.551  1.2553  0.3795  0.0728
16255SOL    HW260420   8.106   1.166   7.477 -0.5066  0.5666 -0.4689
16256SOL     OW60421   3.153   9.155   2.582 -0.1131 -0.2064  0.1723
16256SOL    HW160422   3.139   9.251   2.605 -1.0193 -0.3965  0.4486
16256SOL    HW260423   3.127   9.098   2.661 -0.3967 -0.7181 -0.2851
16257SOL     OW60424   2.973   6.920   6.858 -0.9150 -0.2550 -0.9633
16257SOL    HW160425   2.996   6.980   6.781 -2.9912  1.2760 -0.4394
16257SOL    HW260426   2.875   6.900   6.856 -0.5679 -2.1471 -0.0593
16258SOL     OW60427   9.976   2.026   7.168  0.0934 -0.1540  0.1129
16258SOL    HW160428   9.978   2.126   7.173 -0.5704 -0.2030  1.7412
16258SOL    HW260429   9.919   1.998   7.091  0.5924  0.7214 -0.5879
16259SOL     OW60430   7.486   0.814   0.542 -0.1831 -0.3707 -0.1898
16259SOL    HW160431   7.437   0.895   0.508  1.5620  0.4985 -0.6505
16259SOL    HW260432   7.581   0.838   0.561  0.0293 -2.0123  0.8933
16260SOL     OW60433   1.539   4.250   1.368 -0.4513 -0.0785 -0.2141
16260SOL    HW160434   1.441   4.269   1.360 -0.6597 -0.9207  0.2669
16260SOL    HW260435   1.562   4.172   1.309 -0.6816 -1.9136  2.0318
16261SOL     OW60436   0.971   7.469   6.062  0.2860  0.2908  0.4968
16261SOL    HW160437   1.056   7.521   6.056  0.7213 -0.5988 -1.0852
16261SOL    HW260438   0.897   7.521   6.021  0.4798  0.1679 -0.0030
16262SOL     OW60439   0.201   3.157   0.366  0.0127 -0.3209 -0.4476
16262SOL    HW160440   0.112   3.111   0.361 -1.3547  2.1069  0.8337
16262SOL    HW260441   0.243   3.139   0.454  1.1091 -1.9871 -1.2930
16263SOL     OW60442   1.047   5.013   3.831  0.3771 -0.2920  0.1990
16263SOL    HW160443   1.097   5.074   3.891  0.0751  0.3116 -0.1537
16263SOL    HW260444   0.999   4.943   3.885 -0.9832  1.0587  0.7676
16264SOL     OW60445   8.954   2.590   4.487  0.0517  0.0661 -0.2985
16264SOL    HW160446   8.892   2.522   4.526  1.8652 -1.3394  0.1626
16264SOL    HW260447   9.037   2.545   4.454  0.7883  1.9142 -1.0205
16265SOL     OW60448   5.701   8.297   6.447  0.4632  0.1141 -0.6137
16265SOL    HW160449   5.651   8.267   6.528  0.4117  1.4333 -0.1422
16265SOL    HW260450   5.759   8.376   6.471 -0.2369  1.0959 -2.0556
16266SOL     OW60451   6.393   1.295   5.295  0.5422 -0.2285  0.1437
16266SOL    HW160452   6.462   1.275   5.225 -0.1939  0.5288 -0.8153
16266SOL    HW260453   6.329   1.218   5.302  0.9271 -0.5279  0.3560
16267SOL     OW60454   4.651   0.147   0.890  0.5984  0.1804  0.3425
16267SOL    HW160455   4.563   0.172   0.929  0.8610  1.2035  0.3037
16267SOL    HW260456   4.646   0.055   0.851 -0.5162  0.3311  0.1187
16268SOL     OW60457   3.323   7.272   7.877 -0.2629 -0.2354  0.2237
16268SOL    HW160458   3.399   7.268   7.942 -1.8331 -1.1261  2.0503
16268SOL    HW260459   3.237   7.279   7.927 -1.2948  2.7934 -1.8318
16269SOL     OW60460   4.501   4.209   2.611 -0.3872 -0.2736 -0.1120
16269SOL    HW160461   4.524   4.134   2.547  0.9179 -0.6528  0.7735
16269SOL    HW260462   4.524   4.296   2.568  0.8268 -0.5455 -0.0492
16270SOL     OW60463   2.645   8.224   4.936  0.6343 -0.1871 -0.6076
16270SOL    HW160464   2.621   8.321   4.928 -0.9802 -0.4719  0.5251
16270SOL    HW260465   2.580   8.170   4.882  1.0363 -0.7049 -0.5723
16271SOL     OW60466   0.349   7.178   4.344  0.2280 -0.2206  0.4922
16271SOL    HW160467   0.429   7.122   4.366 -0.1237 -0.6076  0.7914
16271SOL    HW260468   0.267   7.121   4.340  0.1300 -0.0108 -0.9415
16272SOL     OW60469   8.365   0.932   8.071  0.1755 -0.5342 -0.2984
16272SOL    HW160470   8.388   1.013   8.125  0.8027 -0.3418 -0.8498
16272SOL    HW260471   8.402   0.850   8.115 -0.0332 -0.4687 -0.0019
16273SOL     OW60472   8.583   5.167   7.856  0.2255  0.0241 -0.8448
16273SOL    HW160473   8.651   5.171   7.783 -0.2936 -0.2160 -1.3450
16273SOL    HW260474   8.618   5.113   7.932  1.7928  2.3807  0.1712
16274SOL     OW60475   1.488   5.334   0.150 -0.0076  0.3193  0.0615
16274SOL    HW160476   1.483   5.256   0.088 -2.8236  1.7723 -1.6428
16274SOL    HW260477   1.469   5.304   0.244 -1.0878 -1.0278 -0.5781
16275SOL     OW60478   3.289   6.797   7.546  0.5539  0.0243  0.3077
16275SOL    HW160479   3.224   6.781   7.471  2.5083 -0.8025 -1.2408
16275SOL    HW260480   3.326   6.890   7.537  2.1851 -0.7246 -0.8679
16276SOL     OW60481   0.273   6.223   7.929 -0.0062  0.1440  0.1835
16276SOL    HW160482   0.255   6.125   7.923  0.5013  0.1367 -1.6617
16276SOL    HW260483   0.240   6.258   8.017 -1.8852 -1.3130  0.0982
16277SOL     OW60484   5.386   3.273   0.517  0.3914 -0.0108 -0.2658
16277SOL    HW160485   5.367   3.243   0.611  2.1874  0.9961  0.4488
16277SOL    HW260486   5.336   3.215   0.453 -0.4598 -1.0454  1.2924
16278SOL     OW60487   4.240   0.329   2.641 -0.4651 -0.6159  0.4233
16278SOL    HW160488   4.210   0.353   2.548  0.5035  0.8056  0.4649
16278SOL    HW260489   4.338   0.346   2.650 -0.9810  1.5709  2.4150
16279SOL     OW60490   8.237   8.321   2.752  0.2798 -0.1818 -0.1679
16279SOL    HW160491   8.286   8.294   2.669 -1.5243 -0.7477 -1.0858
16279SOL    HW260492   8.277   8.275   2.831  2.6082  1.0777 -0.5901
16280SOL     OW60493   4.708   7.162   1.599 -0.2410  0.3144 -0.1603
16280SOL    HW160494   4.610   7.159   1.623 -0.3919 -0.3920 -0.8390
16280SOL    HW260495   4.721   7.222   1.520  0.3521  3.2153  2.0469
16281SOL     OW60496   4.799   2.273   3.462 -0.1964  0.0505  0.0560
16281SOL    HW160497   4.735   2.349   3.472 -1.2131 -0.4390 -2.2658
16281SOL    HW260498   4.801   2.219   3.547 -2.7867  0.1664  0.2274
16282SOL     OW60499   9.516   6.715   7.776 -0.3526 -0.6179  0.1076
16282SOL    HW160500   9.443   6.751   7.834 -0.0790  0.7012 -0.3629
16282SOL    HW260501   9.477   6.656   7.706 -0.8677 -0.7046  0.4694
16283SOL     OW60502   4.883   7.383   6.588 -0.5981  0.3432  0.1928
16283SOL    HW160503   4.964   7.426   6.548  0.3590 -0.1126  1.6355
16283SOL    HW260504   4.909   7.332   6.670 -2.5799  1.4258  1.5166
16284SOL     OW60505   2.560   0.965   6.894 -0.4655 -0.2806  0.4837
16284SOL    HW160506   2.589   0.994   6.803  1.6212 -1.8826  0.5887
16284SOL    HW260507   2.510   1.039   6.938  1.3105  1.7179 -0.7361
16285SOL     OW60508   1.723   3.814   3.208  0.0126 -0.0587  0.0215
16285SOL    HW160509   1.816   3.826   3.175 -0.3427  0.0527 -0.9626
16285SOL    HW260510   1.724   3.791   3.305  1.0018  1.3550  0.3505
16286SOL     OW60511   3.532   4.942   3.132  0.8211 -0.0915  0.2616
16286SOL    HW160512   3.444   4.943   3.086  1.3901  1.8923 -0.8251
16286SOL    HW260513   3.564   4.847   3.141  0.4912 -0.5931 -3.0659
16287SOL     OW60514   5.798   2.162   3.885  0.0127  0.0691  0.1649
16287SOL    HW160515   5.700   2.183   3.873 -0.2689 -1.2638  0.0553
16287SOL    HW260516   5.824   2.178   3.980 -0.4683 -0.2149  0.3465
16288SOL     OW60517   4.648   8.950   6.411 -0.3104  0.0924 -0.5857
16288SOL    HW160518   4.618   9.043   6.431  1.9073  0.7328 -0.0533
16288SOL    HW260519   4.631   8.892   6.491  1.2448  0.8234  0.3184
16289SOL     OW60520   0.627   0.752   4.953 -0.4149 -0.0300 -0.0455
16289SOL    HW160521   0.719   0.763   4.915  0.1411  0.2402  1.3705
16289SOL    HW260522   0.572   0.697   4.890  0.2785  0.9905 -1.5859
16290SOL     OW60523   1.791   4.543   4.755  0.0860 -0.8326  0.2310
16290SOL    HW160524   1.723   4.558   4.683  0.4663 -0.4047 -0.0400
16290SOL    HW260525   1.880   4.575   4.724  0.6177 -2.2986  0.2069
16291SOL     OW60526   8.890   2.758   1.094  0.5797 -0.3274 -0.3501
16291SOL    HW160527   8.889   2.770   1.194 -1.4779 -2.5848 -0.0766
16291SOL    HW260528   8.951   2.827   1.054 -2.3974  3.8927  1.9973
16292SOL     OW60529   9.901   3.913   4.257 -0.5482  0.0076 -0.3672
16292SOL    HW160530   9.955   3.984   4.212  1.3505 -0.9925  0.2685
16292SOL    HW260531   9.962   3.850   4.304 -2.3211 -0.8927  0.7836
16293SOL     OW60532   4.465   4.874   4.331  0.2029 -0.1110 -0.0782
16293SOL    HW160533   4.535   4.888   4.402  0.6346  1.4203 -0.7777
16293SOL    HW260534   4.487   4.792   4.278  0.0019 -1.1389  1.4031
16294SOL     OW60535   0.014   9.208   2.836  0.1121  0.0257  0.1836
16294SOL    HW160536   0.085   9.241   2.898  0.9064 -1.2871  0.0003
16294SOL    HW260537   0.056   9.173   2.753 -0.6793 -1.4443  0.3778
16295SOL     OW60538   6.329   8.538   4.205  0.2622  0.0548 -0.0713
16295SOL    HW160539   6.263   8.522   4.132  0.8044  0.3780 -0.6309
16295SOL    HW260540   6.341   8.454   4.258  0.3021 -0.3438 -0.7095
16296SOL     OW60541   5.820   4.217   0.538 -0.0415 -0.5882  0.1476
16296SOL    HW160542   5.868   4.154   0.478  0.3473  2.1944 -2.6095
16296SOL    HW260543   5.876   4.300   0.550 -1.4530  0.1295  1.9369
16297SOL     OW60544   2.355   5.657   1.531  0.7952 -0.3456 -0.0943
16297SOL    HW160545   2.311   5.690   1.447  0.1626  1.0235  0.7552
16297SOL    HW260546   2.293   5.593   1.578  0.5987 -0.0811  0.0060
16298SOL     OW60547   8.836   8.291   6.191  0.2188  0.1999  0.1550
16298SOL    HW160548   8.829   8.318   6.095 -0.9782 -0.4632  0.0516
16298SOL    HW260549   8.752   8.315   6.239  1.3838  1.8801  1.3963
16299SOL     OW60550   8.619   6.401   4.848  0.0825 -0.1010  0.0508
16299SOL    HW160551   8.689   6.348   4.800 -0.2995 -2.0199  1.5525
16299SOL    HW260552   8.644   6.410   4.944 -0.3932  1.5780  0.0419
16300SOL     OW60553   4.169   4.558   0.501  0.3007  0.1307  0.1256
16300SOL    HW160554   4.104   4.483   0.488 -1.6991  2.0454 -1.2385
16300SOL    HW260555   4.258   4.531   0.463 -0.9820 -0.7307 -2.4235
16301SOL     OW60556   1.683   3.958   7.098  0.5591 -0.1933  0.3443
16301SOL    HW160557   1.707   3.866   7.066  0.9615  0.3558 -0.9606
16301SOL    HW260558   1.596   3.985   7.057 -0.4127 -0.6455  2.0498
16302SOL     OW60559   5.203   3.506   4.305 -0.2315  0.4625  0.1397
16302SOL    HW160560   5.216   3.490   4.403  0.4145  2.0597  0.3227
16302SOL    HW260561   5.292   3.512   4.260 -0.5301 -0.3609 -0.5729
16303SOL     OW60562   8.162   6.341   5.212  0.4807  0.0386  0.2306
16303SOL    HW160563   8.243   6.397   5.230  1.7359 -1.0595 -1.8667
16303SOL    HW260564   8.125   6.363   5.122  0.3149 -1.6647 -0.1404
16304SOL     OW60565   0.440   6.244   1.307 -0.3169  0.1048 -0.3966
16304SOL    HW160566   0.343   6.266   1.298 -0.7568 -1.9480 -0.8627
16304SOL    HW260567   0.451   6.157   1.356  1.3590  1.1241  1.1163
16305SOL     OW60568   6.719   1.087   7.742 -0.4874 -0.3786  0.3142
16305SOL    HW160569   6.670   1.024   7.682 -0.2679  0.0047 -0.2739
16305SOL    HW260570   6.703   1.062   7.837 -0.5792 -1.1872  0.0873
16306SOL     OW60571   8.813   7.179   0.773  0.0690 -0.1021  0.6792
16306SOL    HW160572   8.845   7.183   0.868  1.2286  0.0198  0.2867
16306SOL    HW260573   8.859   7.104   0.726 -2.3222 -1.7393  0.8683
16307SOL     OW60574   2.499   2.783   3.960 -0.0560 -0.1681 -0.2420
16307SOL    HW160575   2.420   2.841   3.941 -1.0221 -1.7296 -1.0730
16307SOL    HW260576   2.483   2.732   4.045  0.4330  0.1387  0.0398
16308SOL     OW60577   9.078   5.108   7.931 -0.2881 -0.2990 -0.0773
16308SOL    HW160578   9.127   5.138   7.849  0.6651 -0.8804  0.2631
16308SOL    HW260579   9.009   5.040   7.906 -0.1396 -0.3236 -0.4205
16309SOL     OW60580   6.639   9.688   2.102 -0.0457  0.0656  0.7139
16309SOL    HW160581   6.710   9.681   2.171 -0.1803  0.1012  0.8565
16309SOL    HW260582   6.560   9.632   2.128 -0.0079 -0.0961  0.4799
16310SOL     OW60583   8.611   9.909   1.786  0.1927  0.5501 -0.1043
16310SOL    HW160584   8.665   9.993   1.783  0.4115  0.3785 -1.0385
16310SOL    HW260585   8.526   9.923   1.735 -0.0177  0.3707  0.1962
16311SOL     OW60586   0.172   5.895   2.219 -0.6172  0.3527 -0.0949
16311SOL    HW160587   0.207   5.944   2.139 -0.3527  0.8255  0.3054
16311SOL    HW260588   0.170   5.797   2.200 -0.0459  0.4167 -0.4955
16312SOL     OW60589   0.037   3.321   0.566 -0.3782 -0.2069 -0.3014
16312SOL    HW160590   0.105   3.289   0.501  0.3101 -0.2191  0.4111
16312SOL    HW260591  -0.003   3.407   0.533  0.2357 -0.0161 -0.5610
16313SOL     OW60592   7.252   9.330   3.267 -0.0752 -0.2576  0.4098
16313SOL    HW160593   7.269   9.277   3.184 -0.8452 -0.3175  0.2863
16313SOL    HW260594   7.293   9.421   3.257  0.1607 -0.3928  0.1176
16314SOL     OW60595   6.951   1.165   1.080  0.7872  0.5293  0.2497
16314SOL    HW160596   7.004   1.230   1.025  0.8297  0.8132  0.6264
16314SOL    HW260597   7.012   1.093   1.114  0.6678  0.0543 -0.5067
16315SOL     OW60598   3.521   0.643   3.030 -0.3521 -0.0854  0.0840
16315SOL    HW160599   3.426   0.634   3.002 -1.0209  2.0077  1.5583
16315SOL    HW260600   3.526   0.673   3.125  1.8192 -1.9979  0.6341
16316SOL     OW60601   4.783   7.540   3.309  0.4111  0.4100  0.4035
16316SOL    HW160602   4.788   7.440   3.318 -1.0112  0.1614 -1.2227
16316SOL    HW260603   4.872   7.580   3.328  1.6233 -1.3861 -1.3256
16317SOL     OW60604   4.228   8.726   5.834 -0.5156  0.6774 -0.7958
16317SOL    HW160605   4.133   8.755   5.826 -0.5419  0.6436 -0.6190
16317SOL    HW260606   4.238   8.666   5.914  0.3191  3.4381  1.2582
16318SOL     OW60607   0.370   5.397   3.231  0.3472  0.0603  0.1101
16318SOL    HW160608   0.469   5.408   3.242  0.1650  0.1004  1.9713
16318SOL    HW260609   0.336   5.336   3.303 -0.7835 -1.0477 -1.3460
16319SOL     OW60610   6.845   8.440   5.068  0.2571 -0.0539 -0.1772
16319SOL    HW160611   6.812   8.345   5.068  2.2533 -0.7795 -0.0019
16319SOL    HW260612   6.913   8.451   4.996  1.7149  0.6288  1.2682
16320SOL     OW60613   7.154   8.892   4.150  0.9218  0.1695 -0.0007
16320SOL    HW160614   7.099   8.833   4.091  0.5805 -0.4028  0.8903
16320SOL    HW260615   7.093   8.955   4.199  1.1165 -0.0646  0.5384
16321SOL     OW60616   0.422   2.048   4.176  0.2325  0.3341 -0.4319
16321SOL    HW160617   0.468   1.961   4.189  0.6582  0.7823  1.1211
16321SOL    HW260618   0.478   2.108   4.119  1.8758  1.0953  1.9412
16322SOL     OW60619   3.703   9.098   6.085 -0.7165 -0.0659  0.7004
16322SOL    HW160620   3.780   9.148   6.124 -1.1186 -0.0288  1.4597
16322SOL    HW260621   3.621   9.114   6.141 -0.5140 -2.7241  1.8153
16323SOL     OW60622   3.266   8.280   5.631  0.2337 -0.5581  0.5506
16323SOL    HW160623   3.348   8.338   5.636 -0.3997  0.2233  2.3025
16323SOL    HW260624   3.212   8.292   5.715 -0.2370 -3.2277  0.6561
16324SOL     OW60625   8.758   8.672   0.001 -0.0393  0.3225 -0.8188
16324SOL    HW160626   8.766   8.695   0.098  2.2660  2.5719 -1.4763
16324SOL    HW260627   8.701   8.741  -0.044 -0.9356 -0.6050 -1.0990
16325SOL     OW60628   6.724   8.868   5.746 -0.4629  0.3913  0.0864
16325SOL    HW160629   6.770   8.827   5.825  0.9271 -1.5147 -1.6525
16325SOL    HW260630   6.661   8.801   5.705 -0.2213  0.9106 -1.1717
16326SOL     OW60631   0.835   5.410   7.222  0.5044  0.1627  0.0794
16326SOL    HW160632   0.857   5.506   7.205 -2.5763  0.8305 -0.5078
16326SOL    HW260633   0.802   5.400   7.316  0.2891 -0.2043 -0.0333
16327SOL     OW60634   0.962   1.622   1.545 -0.3172  0.0138 -0.5311
16327SOL    HW160635   0.879   1.647   1.495 -2.2039  0.6306  2.7791
16327SOL    HW260636   1.012   1.704   1.570  0.1114 -0.2403 -0.5501
16328SOL     OW60637   7.512   4.523   3.258  1.0790 -0.3535  0.0891
16328SOL    HW160638   7.456   4.605   3.243  2.0440  0.5552  1.4428
16328SOL    HW260639   7.458   4.442   3.232  0.0804  0.6726 -1.1615
16329SOL     OW60640   0.774   4.915   3.942  0.1067 -0.5174 -0.9003
16329SOL    HW160641   0.757   4.931   3.845  0.7014  0.2537 -0.8869
16329SOL    HW260642   0.787   5.003   3.988 -1.8153 -0.7847  0.1917
16330SOL     OW60643   8.255   6.972   7.340  1.1057  0.1709 -0.0742
16330SOL    HW160644   8.268   7.070   7.357  1.0587  0.0586  0.6085
16330SOL    HW260645   8.181   6.959   7.275  1.7826  0.6372 -0.9620
16331SOL     OW60646   6.809   0.434   1.803  0.0770  0.4633 -0.1128
16331SOL    HW160647   6.780   0.425   1.708 -0.3948  0.2803  0.0480
16331SOL    HW260648   6.729   0.437   1.863  0.3793  0.2791  0.3049
16332SOL     OW60649   9.354   7.884   2.608  0.2553 -0.0930 -0.0026
16332SOL    HW160650   9.287   7.833   2.555 -1.3726  1.5852  0.3747
16332SOL    HW260651   9.353   7.851   2.703 -0.2163  0.0658  0.0528
16333SOL     OW60652   2.510   4.708   7.039  0.3354  0.5233 -0.2422
16333SOL    HW160653   2.550   4.790   6.999 -0.3222  1.4038  0.8471
16333SOL    HW260654   2.468   4.732   7.127 -1.5139 -0.5858 -0.7834
16334SOL     OW60655   0.088   2.111   1.153 -0.4400  0.6297 -0.2052
16334SOL    HW160656   0.130   2.198   1.182 -1.1715  0.5806  1.0352
16334SOL    HW260657  -0.011   2.121   1.152 -0.4453  0.7941 -3.3001
16335SOL     OW60658   9.444   8.484   8.152  0.2018  0.7861  0.1518
16335SOL    HW160659   9.450   8.566   8.209 -0.6184  1.1233 -0.2412
16335SOL    HW260660   9.361   8.488   8.096  0.0094 -0.4505  0.3390
16336SOL     OW60661   2.659   4.992   3.703  0.5259  0.1742  0.5378
16336SOL    HW160662   2.680   5.088   3.717  0.2467  0.1009  1.5102
16336SOL    HW260663   2.743   4.938   3.704  0.5331  0.1658  2.0895
16337SOL     OW60664   1.202   4.693   6.894  0.0226  0.1053 -0.6652
16337SOL    HW160665   1.278   4.658   6.839  1.3062  1.6894  0.0212
16337SOL    HW260666   1.140   4.619   6.917  0.1604 -0.8148 -3.1369
16338SOL     OW60667   0.794   2.347   5.222 -0.0421 -0.2734 -0.1956
16338SOL    HW160668   0.759   2.384   5.136  1.7990 -0.5114 -1.0785
16338SOL    HW260669   0.808   2.421   5.287 -2.6206 -0.2300  0.3658
16339SOL     OW60670   1.100   2.432   1.980 -0.3276 -0.1558 -0.1451
16339SOL    HW160671   1.059   2.437   2.071  1.1397 -0.1461  0.5319
16339SOL    HW260672   1.049   2.368   1.923 -0.5171 -1.0905  1.0696
16340SOL     OW60673   8.870   7.045   4.971  0.5910 -0.1676  0.5122
16340SOL    HW160674   8.804   6.977   4.940 -0.4382  0.3067  1.6535
16340SOL    HW260675   8.954   7.037   4.916  0.5389 -2.4259  0.7315
16341SOL     OW60676   1.194   5.941   0.995  0.1210 -0.1308  0.4129
16341SOL    HW160677   1.174   6.037   0.975 -2.4506 -0.3765  1.5643
16341SOL    HW260678   1.290   5.931   1.022  1.0625  1.6945 -2.0869
16342SOL     OW60679   0.458   1.184   5.019  0.3573 -0.0401 -0.1452
16342SOL    HW160680   0.487   1.097   5.060 -1.2014  0.3646  1.8636
16342SOL    HW260681   0.364   1.204   5.045  0.2878  1.6878 -1.5820
16343SOL     OW60682   9.237   8.939   8.131 -0.2092  0.3357  0.4510
16343SOL    HW160683   9.237   8.951   8.032  0.3603  1.5618  0.5916
16343SOL    HW260684   9.200   9.021   8.174 -0.0486 -0.0268  1.2794
16344SOL     OW60685   6.232   9.479   5.473 -0.3146 -0.2702 -0.6670
16344SOL    HW160686   6.172   9.457   5.550 -0.4765 -0.6957 -0.9151
16344SOL    HW260687   6.249   9.396   5.419  0.1138 -0.0538 -0.8667
16345SOL     OW60688   3.679   0.729   0.667  0.3247 -0.5567 -0.3160
16345SOL    HW160689   3.721   0.804   0.718  1.3501 -0.8555 -0.7130
16345SOL    HW260690   3.584   0.718   0.697  0.1512  0.9177 -0.2726
16346SOL     OW60691   0.888   6.144   3.964  0.8513 -0.0676 -0.0004
16346SOL    HW160692   0.826   6.067   3.978  0.6479  0.0006 -0.4910
16346SOL    HW260693   0.835   6.224   3.934  1.2796 -0.2695 -1.3534
16347SOL     OW60694   2.525   3.970   1.069 -0.3961 -0.4465  0.1593
16347SOL    HW160695   2.582   3.970   1.151 -0.1130 -2.9244 -0.0018
16347SOL    HW260696   2.429   3.958   1.095 -0.4764  0.3067  0.2167
16348SOL     OW60697   8.027   6.167   2.593  0.2726 -0.8167 -0.4360
16348SOL    HW160698   8.074   6.223   2.661  0.9258  0.6639 -2.0360
16348SOL    HW260699   7.948   6.216   2.558 -0.3744 -1.7869 -0.3431
16349SOL     OW60700   3.209   0.473   1.306  0.1962  0.2547  0.2725
16349SOL    HW160701   3.161   0.408   1.248  1.4351  0.9010 -1.4956
16349SOL    HW260702   3.152   0.555   1.318  0.9878  1.2132 -2.1984
16350SOL     OW60703   0.529   0.714   7.656  0.2604  0.2049 -0.2995
16350SOL    HW160704   0.494   0.634   7.606 -1.0012  1.0864 -0.8420
16350SOL    HW260705   0.506   0.797   7.606  1.6319  0.9198  0.2354
16351SOL     OW60706   4.869   0.305   1.571 -0.1861 -0.5245 -0.1382
16351SOL    HW160707   4.841   0.395   1.605  0.9331  0.3910 -1.5559
16351SOL    HW260708   4.789   0.257   1.535 -0.4756  0.7571 -1.2448
16352SOL     OW60709   2.931   5.809   0.633 -0.0127  0.6256  0.1107
16352SOL    HW160710   2.890   5.786   0.545 -0.6058 -1.7131  0.9883
16352SOL    HW260711   2.865   5.860   0.688 -1.1957 -1.6519  0.8558
16353SOL     OW60712   9.087   7.258   7.357  0.0507 -0.8701  0.0559
16353SOL    HW160713   9.045   7.173   7.389  0.8082 -1.6034 -0.8843
16353SOL    HW260714   9.084   7.261   7.257  1.1520 -0.3605  0.0341
16354SOL     OW60715   5.606   7.461   4.020  0.6820 -0.9360  1.1400
16354SOL    HW160716   5.701   7.454   4.051  1.4583 -0.2174 -0.9388
16354SOL    HW260717   5.593   7.403   3.940  0.8161  2.7649 -1.7211
16355SOL     OW60718   2.244   0.762   2.411  0.2910  0.0372  0.1228
16355SOL    HW160719   2.315   0.763   2.340 -1.7126 -0.1136 -1.9517
16355SOL    HW260720   2.281   0.722   2.495  2.2128 -1.5152 -1.4108
16356SOL     OW60721   6.347   8.566   6.357  0.5934  0.4159 -0.5323
16356SOL    HW160722   6.290   8.634   6.311  0.4079  0.1168 -0.7455
16356SOL    HW260723   6.418   8.534   6.294  1.3290  1.1727 -0.1044
16357SOL     OW60724   8.820   6.819   7.745  0.6053  0.1716  0.0618
16357SOL    HW160725   8.813   6.765   7.661 -0.1805 -0.2292  0.3876
16357SOL    HW260726   8.767   6.776   7.818  0.7281  0.8855  0.5822
16358SOL     OW60727   3.197   2.383   0.059 -0.5027  0.3789  0.1941
16358SOL    HW160728   3.291   2.401   0.089 -0.8888 -1.1304  2.4521
16358SOL    HW260729   3.140   2.462   0.083  0.0883  1.1062 -0.7626
16359SOL     OW60730   8.383   3.753   0.611 -0.6457 -0.2383 -0.4146
16359SOL    HW160731   8.391   3.653   0.602 -0.2808 -0.2048 -0.4773
16359SOL    HW260732   8.389   3.778   0.707  3.2430  0.0474 -0.6774
16360SOL     OW60733   3.118   4.830   5.266 -0.6219 -0.3884 -0.7116
16360SOL    HW160734   3.132   4.838   5.167 -0.8446 -1.3890 -0.8368
16360SOL    HW260735   3.174   4.754   5.300 -0.6399 -0.1213 -0.0925
16361SOL     OW60736   4.629   2.171   5.072 -0.3486  0.6916  0.3508
16361SOL    HW160737   4.581   2.214   4.995 -1.3641 -0.6629  0.2066
16361SOL    HW260738   4.644   2.074   5.052 -0.6306  0.3238  1.8648
16362SOL     OW60739   1.307   3.023   6.549 -0.2323  0.3504  0.6567
16362SOL    HW160740   1.391   3.066   6.582  0.3150 -0.7783  0.7941
16362SOL    HW260741   1.292   2.938   6.600 -0.9099  0.0341 -0.0620
16363SOL     OW60742   3.222   5.036   3.278  0.2583  0.7819 -0.0883
16363SOL    HW160743   3.232   5.037   3.179  2.4491  0.3911  0.1050
16363SOL    HW260744   3.261   4.952   3.315 -0.9645  0.7089  1.0792
16364SOL     OW60745   0.369   9.815   5.208  0.2189  0.5028  0.5381
16364SOL    HW160746   0.372   9.723   5.170  1.8919  0.5793  0.4513
16364SOL    HW260747   0.350   9.880   5.134 -0.7289  0.2612  0.5600
16365SOL     OW60748   3.956   3.264   3.717  0.2286 -0.8545  0.4734
16365SOL    HW160749   3.942   3.198   3.643  0.4277  1.4981 -1.7026
16365SOL    HW260750   3.875   3.266   3.775 -1.6772  0.3153 -2.1483
16366SOL     OW60751   6.347   5.061   1.440  0.4215 -0.0907 -0.8971
16366SOL    HW160752   6.386   5.084   1.529  0.4184  1.0553 -1.1891
16366SOL    HW260753   6.386   5.121   1.369 -0.1255 -0.4940 -1.5480
16367SOL     OW60754   1.674   5.000   4.154  0.4826 -0.1074 -0.8389
16367SOL    HW160755   1.652   4.915   4.107  0.8206 -0.2638 -0.7199
16367SOL    HW260756   1.760   4.989   4.204 -0.3825 -0.2690  0.6395
16368SOL     OW60757   8.783   4.361   0.915  0.3931  0.1054  0.2887
16368SOL    HW160758   8.765   4.351   0.817 -0.8069 -0.0093  0.5093
16368SOL    HW260759   8.822   4.452   0.933  0.1935  0.2948 -0.2341
16369SOL     OW60760   1.647   9.018   4.855  0.3378 -0.2852  0.9137
16369SOL    HW160761   1.589   8.941   4.882  0.7106 -1.3576 -1.2392
16369SOL    HW260762   1.589   9.095   4.827 -0.0389 -0.7281  0.4724
16370SOL     OW60763   9.416   7.398   8.115  0.2941  0.1626  0.3152
16370SOL    HW160764   9.327   7.383   8.072  0.0856 -0.0788  0.8283
16370SOL    HW260765   9.472   7.316   8.105  1.1000  0.9198 -1.5261
16371SOL     OW60766   7.639   0.098   1.670 -0.3926  0.2614 -0.2903
16371SOL    HW160767   7.623   0.002   1.648  2.4129 -0.1867 -0.6207
16371SOL    HW260768   7.648   0.108   1.770 -0.1855  0.0880 -0.2907
16372SOL     OW60769   6.807   0.513   3.525 -0.1334 -0.0282 -0.5881
16372SOL    HW160770   6.732   0.456   3.492 -0.3728 -0.2758  0.3884
16372SOL    HW260771   6.813   0.595   3.468 -0.7585 -0.2967 -1.0477
16373SOL     OW60772   9.093   6.967   6.740  0.2570 -0.3809  0.0579
16373SOL    HW160773   9.003   6.956   6.783  0.6389 -0.8473  0.7365
16373SOL    HW260774   9.132   6.877   6.722  0.2680 -0.1851 -0.9204
16374SOL     OW60775   5.472   9.250   3.602 -0.3697 -0.1385  0.3544
16374SOL    HW160776   5.395   9.311   3.586 -0.3450  0.0375  0.8728
16374SOL    HW260777   5.460   9.204   3.691 -0.1171 -0.4694  0.2177
16375SOL     OW60778   7.969   5.903   2.680 -0.7034  1.1500  0.2389
16375SOL    HW160779   7.968   5.993   2.636  0.9483  0.5234 -1.1369
16375SOL    HW260780   8.059   5.861   2.668 -1.6996 -1.0361  0.1560
16376SOL     OW60781   2.895   0.211   4.131  0.1678 -0.1505  0.1275
16376SOL    HW160782   2.814   0.158   4.104 -1.6998  1.7192  1.7859
16376SOL    HW260783   2.901   0.293   4.075 -0.1183  0.5956  1.1746
16377SOL     OW60784   0.874   7.647   5.143  0.1571  0.0787 -0.1194
16377SOL    HW160785   0.926   7.706   5.081 -0.2013  2.5755  1.8816
16377SOL    HW260786   0.923   7.638   5.229 -1.4985  0.4041  0.8860
16378SOL     OW60787   9.489   1.696   7.323  0.1023 -0.4294  0.1432
16378SOL    HW160788   9.536   1.621   7.277  1.1392 -0.3232  1.0095
16378SOL    HW260789   9.531   1.783   7.296  0.0681 -0.2944  0.5164
16379SOL     OW60790   4.697   2.105   4.110 -0.0558 -0.2202  0.0636
16379SOL    HW160791   4.649   2.124   4.195 -0.3994  0.8451 -0.3580
16379SOL    HW260792   4.796   2.115   4.124 -0.0305 -1.3349  0.6591
16380SOL     OW60793   2.735   4.668   3.421  0.2699  0.1374  0.2846
16380SOL    HW160794   2.669   4.593   3.426 -1.3514  1.2838 -2.6938
16380SOL    HW260795   2.686   4.755   3.418  2.0415  1.1654  0.8997
16381SOL     OW60796   1.965   5.175   0.184 -0.4467 -0.2291  0.3087
16381SOL    HW160797   1.911   5.109   0.234  0.1358 -0.3563  0.7722
16381SOL    HW260798   1.971   5.260   0.236  0.3742 -0.4487  0.5791
16382SOL     OW60799   3.631   9.846   7.343 -0.4071  0.3016 -0.3338
16382SOL    HW160800   3.569   9.920   7.370 -0.4307  0.1160  0.1302
16382SOL    HW260801   3.722   9.884   7.326 -0.3555  0.4021  0.1566
16383SOL     OW60802   7.130   2.863   1.266  0.4880 -0.1804 -0.5175
16383SOL    HW160803   7.219   2.823   1.285  1.1043  1.7052  0.6920
16383SOL    HW260804   7.058   2.806   1.306  1.1928 -1.2540 -0.7782
16384SOL     OW60805   1.460   6.164   1.050  0.1722 -0.7799 -0.0832
16384SOL    HW160806   1.433   6.163   1.147  0.3299 -0.7384 -0.0376
16384SOL    HW260807   1.541   6.108   1.038  1.8703  1.4828  0.3404
16385SOL     OW60808   4.495   4.518   2.721 -0.1049  0.2954  0.3470
16385SOL    HW160809   4.562   4.449   2.747 -0.6625 -0.3948 -0.0243
16385SOL    HW260810   4.427   4.528   2.793  0.2266  0.7889  0.5978
16386SOL     OW60811   3.164   0.770   7.455 -0.4094 -0.1376 -0.3306
16386SOL    HW160812   3.191   0.821   7.536  1.1986 -1.5615  0.0449
16386SOL    HW260813   3.076   0.724   7.472 -1.2146  1.4040 -0.2243
16387SOL     OW60814   7.142   3.964   2.823 -0.4415  0.6331  0.2175
16387SOL    HW160815   7.157   3.890   2.888 -0.5776 -0.5380 -1.0603
16387SOL    HW260816   7.044   3.970   2.801 -0.3283  0.6316 -0.3105
16388SOL     OW60817   3.930   9.806   2.365 -0.1315  0.3069 -0.0318
16388SOL    HW160818   3.947   9.866   2.444  0.9282  0.4861 -0.3914
16388SOL    HW260819   3.841   9.761   2.376  0.3412 -0.2633  1.6567
16389SOL     OW60820   2.329   0.815   6.840  0.3331 -0.8276  0.0971
16389SOL    HW160821   2.259   0.805   6.911 -0.2241  2.4082  0.0795
16389SOL    HW260822   2.410   0.858   6.879 -0.9158  3.3850 -1.6414
16390SOL     OW60823   6.248   0.773   5.184  0.1951  0.0745 -0.0467
16390SOL    HW160824   6.198   0.767   5.270  0.6291  0.7509  0.2637
16390SOL    HW260825   6.290   0.685   5.163  2.1698  0.5528  1.7217
16391SOL     OW60826   5.754   1.634   4.442  0.0120 -0.0128  0.2580
16391SOL    HW160827   5.794   1.678   4.361 -2.3073 -2.0376 -2.0816
16391SOL    HW260828   5.677   1.687   4.475  1.1641  0.9920  1.4062
16392SOL     OW60829   1.709   0.242   7.185  0.0696 -0.2018 -0.2307
16392SOL    HW160830   1.769   0.164   7.203  0.2738  0.0276  0.0995
16392SOL    HW260831   1.644   0.219   7.113  0.7608 -0.3539 -0.8164
16393SOL     OW60832   2.718   1.586   6.557  0.5151 -0.1699  0.1473
16393SOL    HW160833   2.709   1.628   6.647  1.6898 -1.2549  0.7912
16393SOL    HW260834   2.680   1.493   6.559 -0.7556  0.3106 -0.8688
16394SOL     OW60835   1.711   1.303   2.884  0.3095  0.3120 -0.0929
16394SOL    HW160836   1.709   1.204   2.896 -0.5973  0.7879  4.4024
16394SOL    HW260837   1.627   1.333   2.838  0.8661 -1.0222 -2.0259
16395SOL     OW60838   3.020   0.794   0.681 -0.3826 -0.5511 -1.0164
16395SOL    HW160839   3.054   0.706   0.649 -0.5749 -0.0635 -2.6023
16395SOL    HW260840   2.937   0.818   0.630 -1.6236 -0.5084  0.9847
16396SOL     OW60841   8.673   8.616   3.394  0.1379 -0.3422  0.0812
16396SOL    HW160842   8.633   8.572   3.474 -0.5459 -1.3986 -0.8180
16396SOL    HW260843   8.769   8.589   3.385 -0.0822 -1.0811 -0.0620
16397SOL     OW60844   8.816   0.873   5.204 -0.4176 -0.0523 -0.2107
16397SOL    HW160845   8.758   0.916   5.135 -1.0473 -0.7197 -0.1037
16397SOL    HW260846   8.844   0.783   5.172  0.6620  0.3087 -0.3105
16398SOL     OW60847   0.279   5.767   5.203 -0.2390 -0.1048 -0.0410
16398SOL    HW160848   0.360   5.717   5.235 -0.8438 -0.2703  1.2963
16398SOL    HW260849   0.217   5.781   5.280 -0.7216  1.4906 -0.7043
16399SOL     OW60850   4.188   2.321   7.319  0.0451  0.2756  0.7351
16399SOL    HW160851   4.222   2.414   7.308  0.5674 -0.0187 -0.1838
16399SOL    HW260852   4.099   2.312   7.274 -0.4988  0.6084  1.7334
16400SOL     OW60853   2.237   8.658   5.580  0.1605  0.2417  0.1106
16400SOL    HW160854   2.147   8.649   5.623  1.0614  0.7949  2.2036
16400SOL    HW260855   2.267   8.569   5.545 -0.1965 -0.4481  1.5161
16401SOL     OW60856   7.350   0.934   4.098 -0.6326  0.1017  0.2995
16401SOL    HW160857   7.368   0.848   4.146  0.5591  0.7283  1.0002
16401SOL    HW260858   7.304   0.998   4.160  0.7462  0.8451  0.5999
16402SOL     OW60859   6.117   3.326   1.007 -0.3065  0.2107  0.1473
16402SOL    HW160860   6.204   3.317   0.958 -0.8216 -2.3827 -0.3555
16402SOL    HW260861   6.135   3.356   1.101  0.9729  1.3773 -0.4429
16403SOL     OW60862   2.817   1.506   3.555 -0.0229  0.0458 -0.0158
16403SOL    HW160863   2.760   1.532   3.478  0.4643  0.5241 -0.2246
16403SOL    HW260864   2.766   1.517   3.640  0.1866  1.8146 -0.0888
16404SOL     OW60865   9.512   7.271   6.174  0.5137  0.2182 -0.5167
16404SOL    HW160866   9.539   7.180   6.142  0.5423 -0.2754  0.8703
16404SOL    HW260867   9.594   7.327   6.189  0.5250  0.2687 -0.7500
16405SOL     OW60868   9.286   2.468   0.809 -0.2275  0.0648 -0.3320
16405SOL    HW160869   9.218   2.469   0.883  0.7429  0.9487  0.5499
16405SOL    HW260870   9.279   2.553   0.756  0.0180  0.0478 -0.3929
16406SOL     OW60871   2.454   6.815   3.569  0.0086  0.0625 -0.2467
16406SOL    HW160872   2.412   6.906   3.577 -0.4509 -0.2656  1.2016
16406SOL    HW260873   2.446   6.784   3.474  2.2155  2.4917 -1.3068
16407SOL     OW60874   9.321   4.765   1.860 -0.6583 -0.3287  0.1918
16407SOL    HW160875   9.232   4.736   1.894 -0.8693 -0.6541 -0.6408
16407SOL    HW260876   9.371   4.685   1.825 -1.1261  0.2433 -1.8333
16408SOL     OW60877   7.608   1.254   5.619  0.0015  0.2470  0.4060
16408SOL    HW160878   7.606   1.274   5.717 -1.4349  0.0264  0.4290
16408SOL    HW260879   7.545   1.179   5.598 -0.2947  0.8117 -0.7917
16409SOL     OW60880   3.053   8.195   1.346  0.3202 -0.2060  0.0814
16409SOL    HW160881   3.044   8.172   1.249  0.3444  0.0862  0.0098
16409SOL    HW260882   3.106   8.279   1.356 -0.8394  0.5081  0.2780
16410SOL     OW60883   3.929   2.694   2.343  0.9824 -0.0985  0.1686
16410SOL    HW160884   3.834   2.691   2.313 -0.1000  1.3174  3.2348
16410SOL    HW260885   3.986   2.736   2.272 -0.9627  0.6005 -0.9929
16411SOL     OW60886   2.844   1.769   1.559 -0.0056 -0.0123 -0.4942
16411SOL    HW160887   2.787   1.851   1.560  0.2053  0.1498 -1.4764
16411SOL    HW260888   2.808   1.703   1.493  0.0080 -0.5914  0.0629
16412SOL     OW60889   0.469   2.443   4.507 -0.1429 -0.2323  0.6709
16412SOL    HW160890   0.374   2.417   4.493 -0.1870 -0.0232  0.5762
16412SOL    HW260891   0.473   2.520   4.571 -0.1397  0.7358 -0.4691
16413SOL     OW60892   9.517   7.174   7.791  0.0242  0.1799 -0.2434
16413SOL    HW160893   9.567   7.205   7.710 -0.6682 -1.0658 -1.1668
16413SOL    HW260894   9.422   7.204   7.786 -0.1308 -0.2773 -0.1127
16414SOL     OW60895   1.517   2.483   6.243  0.2216  0.2035 -0.1911
16414SOL    HW160896   1.572   2.535   6.179  0.9663  0.7493  0.8822
16414SOL    HW260897   1.459   2.418   6.193 -0.7624  2.0852 -1.5349
16415SOL     OW60898   3.171   3.859   7.319 -0.1346  0.1907  0.1712
16415SOL    HW160899   3.148   3.946   7.276 -0.6142 -0.3273 -0.6618
16415SOL    HW260900   3.264   3.832   7.293  0.2040  0.7107  0.8575
16416SOL     OW60901   8.553   7.894   7.208 -0.2973 -0.2321 -0.0895
16416SOL    HW160902   8.645   7.860   7.226  0.6831  0.5491 -3.3255
16416SOL    HW260903   8.554   7.993   7.203 -1.3763 -0.2081 -0.0469
16417SOL     OW60904   1.789   4.660   2.045  0.0217 -0.0024  0.1962
16417SOL    HW160905   1.707   4.607   2.065  0.0224  0.6597  2.1315
16417SOL    HW260906   1.843   4.615   1.974 -2.7343  0.3195 -2.1630
16418SOL     OW60907   6.772   2.509   0.155 -0.2721  0.2295 -0.3045
16418SOL    HW160908   6.759   2.429   0.213 -1.1151 -0.4060 -1.3458
16418SOL    HW260909   6.817   2.482   0.070  3.9592  1.6667  1.3459
16419SOL     OW60910   5.206   7.823   5.901  0.0459  0.1462 -0.5773
16419SOL    HW160911   5.181   7.846   5.807  1.3314  2.3944 -0.4056
16419SOL    HW260912   5.219   7.724   5.909 -0.4776 -0.1105 -2.6610
16420SOL     OW60913   1.056   6.063   7.001 -0.2154  0.4184 -0.6244
16420SOL    HW160914   1.106   6.026   7.080  0.2532 -0.6783 -1.4177
16420SOL    HW260915   1.076   6.160   6.991  0.9385  0.2179 -0.3119
16421SOL     OW60916   2.964   7.248   5.630 -0.1278 -0.4536 -0.5052
16421SOL    HW160917   2.986   7.157   5.667 -1.8999 -0.7515 -0.1593
16421SOL    HW260918   2.896   7.239   5.557 -0.4594  0.6139 -0.3353
16422SOL     OW60919   9.635   3.278   8.065 -0.2573 -0.2297  0.3582
16422SOL    HW160920   9.678   3.218   7.996 -0.6008  0.4064 -0.4175
16422SOL    HW260921   9.670   3.371   8.054 -1.7160  0.2699 -0.1971
16423SOL     OW60922   5.264   9.416   3.527  0.6179 -0.2176 -0.0204
16423SOL    HW160923   5.257   9.507   3.486 -1.0591 -0.7164 -0.8871
16423SOL    HW260924   5.251   9.422   3.626 -3.0017  0.1172 -0.4405
16424SOL     OW60925   7.475   7.717   5.920 -0.0227  0.4688  0.4683
16424SOL    HW160926   7.482   7.695   5.822  0.8255  2.7035  0.0024
16424SOL    HW260927   7.465   7.632   5.972 -1.6391 -0.7101 -1.6393
16425SOL     OW60928   2.548   7.218   1.150 -0.5030 -0.1304 -0.2143
16425SOL    HW160929   2.565   7.289   1.218  2.1690 -0.1866 -0.7746
16425SOL    HW260930   2.484   7.253   1.081 -1.1539  0.8480  0.8739
16426SOL     OW60931   0.296   5.049   6.229  0.6295 -0.3537 -0.0205
16426SOL    HW160932   0.347   5.050   6.143  2.0684 -2.0976  0.7654
16426SOL    HW260933   0.202   5.020   6.212  0.3422  1.2982 -1.2745
16427SOL     OW60934   3.446   2.369   0.538 -0.3250 -0.1880  0.4833
16427SOL    HW160935   3.510   2.426   0.590 -0.9623  1.4043 -0.4480
16427SOL    HW260936   3.366   2.348   0.594 -0.8193  1.1771  0.3014
16428SOL     OW60937   8.030   5.950   6.110 -0.5247 -0.2120 -0.1991
16428SOL    HW160938   7.969   5.886   6.157 -0.9983  0.0901 -0.4013
16428SOL    HW260939   8.034   6.036   6.160 -0.0716 -0.3138 -0.0553
16429SOL     OW60940   1.553   9.447   3.907  0.3433 -0.0668 -0.2360
16429SOL    HW160941   1.498   9.415   3.985 -1.4984 -1.1032 -1.9181
16429SOL    HW260942   1.641   9.401   3.907  0.1106 -0.5250  0.8891
16430SOL     OW60943   9.773   3.547   1.840  0.0585 -0.1363  0.0406
16430SOL    HW160944   9.701   3.500   1.891  1.8751 -1.1999  1.6862
16430SOL    HW260945   9.812   3.620   1.896  1.8855 -1.1238  0.0803
16431SOL     OW60946   2.992   9.020   1.315 -0.1570 -0.8270 -0.4972
16431SOL    HW160947   3.011   8.978   1.403  2.6117 -0.1486 -0.7165
16431SOL    HW260948   3.066   9.083   1.291 -2.2161  1.0798 -2.0531
16432SOL     OW60949   3.468   5.390   2.665  0.3662  0.1135  0.0592
16432SOL    HW160950   3.471   5.488   2.683  1.8619 -0.1273  1.1891
16432SOL    HW260951   3.447   5.340   2.749 -0.4265 -0.5473 -0.5135
16433SOL     OW60952   9.861   5.873   8.154  0.1072 -1.0444 -0.6646
16433SOL    HW160953   9.814   5.828   8.229 -0.1736 -0.0425 -0.2421
16433SOL    HW260954   9.815   5.851   8.068  1.4540 -3.6251 -0.7860
16434SOL     OW60955   3.639   2.824   2.269  0.2517  0.1184 -0.6428
16434SOL    HW160956   3.634   2.808   2.170  1.7001 -0.3662 -0.6570
16434SOL    HW260957   3.613   2.740   2.317 -2.1444  0.8813 -0.5821
16435SOL     OW60958   8.094   0.449   2.942 -0.1788 -0.0945  0.3164
16435SOL    HW160959   8.022   0.380   2.935 -0.4289  0.1315  0.6714
16435SOL    HW260960   8.066   0.532   2.895  0.3237 -0.3935 -0.5295
16436SOL     OW60961   1.892   8.232   7.850 -0.5396  0.6500 -0.1561
16436SOL    HW160962   1.801   8.192   7.864 -0.0933 -0.3427 -0.0370
16436SOL    HW260963   1.886   8.331   7.859 -1.8282  0.6979 -1.3051
16437SOL     OW60964   9.265   8.165   1.766 -0.3239  0.1096 -0.4858
16437SOL    HW160965   9.276   8.239   1.833  1.7684 -0.6616  0.0746
16437SOL    HW260966   9.285   8.200   1.674 -2.5946  1.0204 -0.6673
16438SOL     OW60967   5.814   0.811   6.532  0.7067  0.1252 -0.1449
16438SOL    HW160968   5.734   0.798   6.472 -0.4543 -1.4755  1.6797
16438SOL    HW260969   5.894   0.768   6.490  0.8688  2.5577 -2.4449
16439SOL     OW60970   8.876   0.892   4.002  0.5419 -0.0192  0.2624
16439SOL    HW160971   8.956   0.946   4.028  0.2194  0.5637  0.0503
16439SOL    HW260972   8.903   0.822   3.936  0.3745  1.9529 -1.9300
16440SOL     OW60973   0.356   6.320   4.539  0.1255 -0.2896  0.2525
16440SOL    HW160974   0.312   6.260   4.472  0.0922  1.5080 -1.3882
16440SOL    HW260975   0.301   6.403   4.551  3.1789  2.2307 -2.2072
16441SOL     OW60976   4.434   5.794   1.662  0.0456  0.1909 -0.0036
16441SOL    HW160977   4.347   5.822   1.704  0.5089 -0.8006  1.6975
16441SOL    HW260978   4.488   5.743   1.729  2.2916  1.4564 -0.7966
16442SOL     OW60979   9.722   5.314   2.616 -0.7911 -0.2812 -0.0288
16442SOL    HW160980   9.676   5.348   2.698  0.7117 -0.4519  0.9105
16442SOL    HW260981   9.664   5.247   2.570 -1.8781  0.2217  0.5954
16443SOL     OW60982   0.564   1.709   6.812 -0.3574  0.2576 -0.2847
16443SOL    HW160983   0.496   1.643   6.843  0.4345 -0.1337  0.6549
16443SOL    HW260984   0.541   1.800   6.848  0.2588 -0.0960  1.0302
16444SOL     OW60985   8.474   7.000   8.110  0.5374 -0.1765 -0.2534
16444SOL    HW160986   8.402   7.004   8.179  1.4608  0.1732  0.6982
16444SOL    HW260987   8.450   7.060   8.033 -0.2018 -0.1005  0.0346
16445SOL     OW60988   6.322   5.158   0.968  0.1430  0.0034 -0.6752
16445SOL    HW160989   6.266   5.233   0.932  0.0810  0.1447 -0.2839
16445SOL    HW260990   6.387   5.130   0.898  0.9972  1.2532 -0.3986
16446SOL     OW60991   5.967   0.821   3.652 -0.9240 -0.0005  0.1421
16446SOL    HW160992   6.030   0.779   3.718  0.6803  1.0047 -0.6863
16446SOL    HW260993   5.981   0.779   3.562 -0.8031  0.8232 -0.2282
16447SOL     OW60994   8.789   7.519   7.366 -0.2527 -0.5858  0.1260
16447SOL    HW160995   8.841   7.494   7.448 -0.2298 -0.3485  0.1831
16447SOL    HW260996   8.708   7.572   7.392  0.4490  0.6246 -0.0985
16448SOL     OW60997   7.875   6.725   5.256 -0.0901 -0.1966  0.1198
16448SOL    HW160998   7.829   6.810   5.280  1.3628  0.3399  1.0741
16448SOL    HW260999   7.896   6.674   5.340  1.5882 -0.1379 -0.2600
16449SOL     OW61000   1.791   6.212  -0.000 -0.3986  0.5585 -0.2118
16449SOL    HW161001   1.867   6.190  -0.063  0.3692 -0.2476  0.9722
16449SOL    HW261002   1.825   6.269   0.074 -1.4414  2.0173 -0.8421
16450SOL     OW61003   5.126   4.209   1.705 -0.0540  0.5447 -0.2551
16450SOL    HW161004   5.118   4.196   1.804  0.4893 -1.3920 -0.4512
16450SOL    HW261005   5.221   4.227   1.681 -0.3200  1.9099 -0.3469
16451SOL     OW61006   1.466   7.932   5.084  0.6705 -0.2211  0.5377
16451SOL    HW161007   1.441   8.024   5.115  0.6998  0.0972 -0.3778
16451SOL    HW261008   1.476   7.872   5.163 -0.9418  0.1701  1.0614
16452SOL     OW61009   5.008   4.524   7.526  0.1262 -0.1813 -0.0801
16452SOL    HW161010   4.923   4.476   7.505 -0.7778  0.2812  2.4291
16452SOL    HW261011   5.077   4.457   7.554 -0.5130 -0.2125  1.4242
16453SOL     OW61012   1.544   8.533   1.016 -0.0559 -0.0287 -0.0388
16453SOL    HW161013   1.548   8.472   1.095  1.7055  0.7576  0.4978
16453SOL    HW261014   1.471   8.503   0.954 -0.0489 -1.9087  0.8381
16454SOL     OW61015   1.661   9.865   1.258 -0.1371  0.0397 -0.2758
16454SOL    HW161016   1.637   9.772   1.287 -1.6027  0.4060 -0.2970
16454SOL    HW261017   1.581   9.924   1.266  1.0087  1.4881  0.4700
16455SOL     OW61018   2.280   8.819   5.225 -0.1523 -0.3128 -0.0594
16455SOL    HW161019   2.247   8.880   5.297 -0.0352  2.6339 -2.4004
16455SOL    HW261020   2.379   8.813   5.229 -0.2708 -1.6143  1.1311
16456SOL     OW61021   2.384   6.467   3.868 -0.5627  0.5221 -0.2893
16456SOL    HW161022   2.446   6.497   3.795 -0.0521  0.5566  0.1518
16456SOL    HW261023   2.363   6.546   3.927 -1.1795  0.5519 -0.5514
16457SOL     OW61024   7.911   0.032   4.029  0.0498 -0.0418  0.0735
16457SOL    HW161025   7.962  -0.016   3.958 -0.8667  1.7148 -1.8321
16457SOL    HW261026   7.974   0.064   4.100  1.6759  2.1947 -2.2899
16458SOL     OW61027   7.881   2.648   0.409 -0.3503 -0.6560  0.3047
16458SOL    HW161028   7.891   2.644   0.309 -4.3589 -2.0234 -0.1144
16458SOL    HW261029   7.916   2.563   0.449  1.3752 -0.0568  0.1117
16459SOL     OW61030   9.078   3.724   4.114  0.2583 -0.3379  0.0999
16459SOL    HW161031   9.089   3.823   4.125  3.3449 -0.4052 -1.9183
16459SOL    HW261032   9.091   3.679   4.202 -1.6186  1.0607  1.1220
16460SOL     OW61033   4.192   2.418   3.280  0.7262  0.3783  0.3506
16460SOL    HW161034   4.151   2.358   3.210  0.0980  0.6969  0.4414
16460SOL    HW261035   4.253   2.364   3.338  0.7125 -0.0323 -0.0150
16461SOL     OW61036   7.086   5.199   0.850 -0.1583  0.0412 -0.3280
16461SOL    HW161037   7.091   5.188   0.949  0.1436  0.6904 -0.2688
16461SOL    HW261038   7.150   5.270   0.821  1.7724 -2.0645 -1.3083
16462SOL     OW61039   0.806   2.590   5.394 -0.0396 -0.0273  0.6778
16462SOL    HW161040   0.875   2.652   5.431 -1.2283  2.3174 -0.8792
16462SOL    HW261041   0.758   2.635   5.318 -1.6044 -2.5156  0.1223
16463SOL     OW61042   5.679   4.527   1.596  0.4643  0.2075  0.5769
16463SOL    HW161043   5.705   4.433   1.617  1.4861  0.5407  0.7996
16463SOL    HW261044   5.693   4.585   1.677  1.2998  0.8449 -0.0131
16464SOL     OW61045   7.380   8.934   4.957  0.0200 -0.4102 -0.1344
16464SOL    HW161046   7.411   9.029   4.966  0.3649 -0.5186 -0.1533
16464SOL    HW261047   7.421   8.894   4.875 -2.0505  0.1568 -1.4823
16465SOL     OW61048   0.380   2.455   0.038  0.0398 -0.3292 -0.0240
16465SOL    HW161049   0.441   2.385   0.000  1.7529  0.5402  1.0733
16465SOL    HW261050   0.370   2.529  -0.028 -0.4286 -0.8220 -0.5081
16466SOL     OW61051   4.030   3.103   1.116  0.0722 -0.7292  0.3235
16466SOL    HW161052   4.005   3.110   1.213 -0.0394 -1.2777  0.3368
16466SOL    HW261053   3.977   3.168   1.063  1.8934  1.3281  0.9453
16467SOL     OW61054   6.073   8.495   3.342 -0.1948 -0.4164  0.6260
16467SOL    HW161055   6.106   8.467   3.432 -0.1124  0.4074  0.8572
16467SOL    HW261056   5.974   8.487   3.339 -0.2317 -0.0849  0.9181
16468SOL     OW61057   3.137   8.474   5.999 -0.0007  0.1347  0.2160
16468SOL    HW161058   3.113   8.393   5.946  0.3460  0.0434  0.2020
16468SOL    HW261059   3.172   8.545   5.938  0.9299 -0.1706  0.3877
16469SOL     OW61060   7.546   2.187   5.956  0.0309 -0.0323  0.0691
16469SOL    HW161061   7.468   2.245   5.980 -0.3807 -0.9871  1.0984
16469SOL    HW261062   7.623   2.207   6.017  1.1529  2.0020 -1.9280
16470SOL     OW61063   8.448   8.310   3.927 -0.1483  0.0512  0.4840
16470SOL    HW161064   8.542   8.286   3.904 -0.1620 -1.2118  1.6882
16470SOL    HW261065   8.385   8.258   3.870 -0.1252  0.3930  0.1464
16471SOL     OW61066   2.941   7.304   7.409 -0.4402  0.0184  0.3975
16471SOL    HW161067   2.870   7.357   7.362  0.1902  1.1886  0.7343
16471SOL    HW261068   3.006   7.367   7.452  0.0806 -1.0480  1.1808
16472SOL     OW61069   9.071   2.975   1.660  0.4290 -0.0336 -0.2538
16472SOL    HW161070   8.994   2.993   1.721 -1.2302  0.0273 -2.3205
16472SOL    HW261071   9.141   3.045   1.673  0.5650 -0.6055  2.2852
16473SOL     OW61072   9.446   9.367   1.767  0.6757 -0.5998  0.1239
16473SOL    HW161073   9.446   9.428   1.847  0.3674 -0.1342 -0.2324
16473SOL    HW261074   9.465   9.273   1.797 -0.5843 -0.6259  0.9094
16474SOL     OW61075   8.421   1.216   4.759  0.1052 -0.0266 -0.9033
16474SOL    HW161076   8.520   1.205   4.765 -0.0980 -1.6784 -0.3658
16474SOL    HW261077   8.387   1.253   4.846  0.1416 -0.4129 -0.7207
16475SOL     OW61078   6.463   1.173   8.007 -0.0166  0.5772  0.2337
16475SOL    HW161079   6.512   1.088   8.022 -0.8268 -0.0300 -0.4868
16475SOL    HW261080   6.507   1.224   7.933 -0.4325  0.0467 -0.3907
16476SOL     OW61081   0.044   3.484   2.621  0.6126  0.0252 -0.1580
16476SOL    HW161082   0.048   3.578   2.655 -1.0122  1.0118 -2.5803
16476SOL    HW261083  -0.048   3.447   2.635  1.1471 -1.1044  0.4616
16477SOL     OW61084   4.536   1.348   2.601 -0.7434 -0.0707 -0.4663
16477SOL    HW161085   4.522   1.419   2.670 -2.1312  0.8361 -1.6671
16477SOL    HW261086   4.530   1.258   2.645 -0.3186  0.5116  0.8121
16478SOL     OW61087   1.838   7.624   7.503 -0.6370  1.0402  0.6907
16478SOL    HW161088   1.774   7.662   7.436 -2.0463  1.9513  2.4937
16478SOL    HW261089   1.789   7.565   7.566  0.0778  2.5589  2.7346
16479SOL     OW61090   9.244   2.150   0.228  0.3385  0.0555  0.2890
16479SOL    HW161091   9.237   2.077   0.160  1.2183 -0.2649  0.5444
16479SOL    HW261092   9.163   2.209   0.221  0.5349  0.1600 -1.1939
16480SOL     OW61093   4.872   0.419   3.694 -0.1164  0.2187  0.1817
16480SOL    HW161094   4.953   0.476   3.683  1.9289 -2.8844 -1.5070
16480SOL    HW261095   4.899   0.325   3.712 -3.3980 -0.6100  1.2566
16481SOL     OW61096   9.187   7.239   0.086 -0.2121 -0.1790 -0.8384
16481SOL    HW161097   9.235   7.256   0.000  0.2728 -2.7063 -1.1095
16481SOL    HW261098   9.127   7.160   0.075 -0.5789 -0.1741  0.9987
16482SOL     OW61099   1.537   4.349   3.723 -0.0262 -0.8210 -0.1616
16482SOL    HW161100   1.463   4.314   3.664  0.8116 -0.6692 -1.3150
16482SOL    HW261101   1.529   4.308   3.814 -1.7872 -0.4861 -0.1496
16483SOL     OW61102   1.504   7.882   8.147 -0.8676  0.3279 -0.3645
16483SOL    HW161103   1.441   7.958   8.166 -0.8782  0.1342  0.3962
16483SOL    HW261104   1.507   7.821   8.226  1.8284  1.4359  0.4512
16484SOL     OW61105   5.581   8.732   2.968 -0.9118 -0.5135  0.1091
16484SOL    HW161106   5.551   8.713   2.875 -0.5962 -1.0329  0.1145
16484SOL    HW261107   5.586   8.647   3.021 -2.3201 -0.0795  0.9821
16485SOL     OW61108   9.622   2.366   1.390 -0.0837 -0.0379  0.1906
16485SOL    HW161109   9.576   2.340   1.475 -0.5454  0.8580  0.2278
16485SOL    HW261110   9.553   2.380   1.319  0.1944  0.5560  0.0383
16486SOL     OW61111   8.098   8.913   1.620  0.4019  0.0081  0.3444
16486SOL    HW161112   8.013   8.903   1.569 -1.0960 -0.2090  2.8217
16486SOL    HW261113   8.105   9.007   1.654  0.5916 -0.2950  1.1384
16487SOL     OW61114   1.850   2.692   8.021  0.0997 -0.4836 -0.1636
16487SOL    HW161115   1.827   2.614   8.079 -1.3425 -0.4718 -0.7008
16487SOL    HW261116   1.781   2.763   8.033 -0.4643 -0.6542 -2.2019
16488SOL     OW61117   9.979   8.427   5.957  0.2172  0.7955 -0.1097
16488SOL    HW161118   9.934   8.363   6.019  1.6429  0.3529  0.4989
16488SOL    HW261119   9.923   8.509   5.946 -0.6132  0.3565  0.8077
16489SOL     OW61120   4.929   8.321   5.830 -0.4236  0.4243 -0.7230
16489SOL    HW161121   4.941   8.406   5.778  0.9268  1.1971  0.7883
16489SOL    HW261122   4.835   8.316   5.864 -0.2911  1.7231 -0.1409
16490SOL     OW61123   1.353   3.395   6.170  0.1897 -0.1303  0.4200
16490SOL    HW161124   1.400   3.396   6.258 -1.6573  0.5370  1.4205
16490SOL    HW261125   1.355   3.487   6.131  2.3291 -0.7402 -0.9805
16491SOL     OW61126   4.091   5.463   0.974 -0.6054 -0.1677  0.1916
16491SOL    HW161127   4.034   5.384   0.954 -0.9634  0.3345 -0.8186
16491SOL    HW261128   4.185   5.445   0.947 -0.4260 -0.7099  1.1440
16492SOL     OW61129   0.475   5.236   5.294 -0.1632 -0.9765 -0.4365
16492SOL    HW161130   0.507   5.235   5.200  1.4346 -0.6099  0.0964
16492SOL    HW261131   0.551   5.258   5.355 -1.3343 -0.5150  0.8781
16493SOL     OW61132   1.357   4.995   7.832  0.1863 -0.2398 -0.1007
16493SOL    HW161133   1.346   4.936   7.912  1.4306 -1.6009 -0.9221
16493SOL    HW261134   1.406   5.078   7.859 -0.8561  0.0844  0.8794
16494SOL     OW61135   0.621   6.578   5.796 -0.3345  0.1864 -0.1658
16494SOL    HW161136   0.555   6.507   5.820  1.0497 -2.1176 -2.8761
16494SOL    HW261137   0.693   6.581   5.866 -0.6677 -0.7729  0.2353
16495SOL     OW61138   6.675   0.663   3.232 -0.1017 -0.1511 -0.6314
16495SOL    HW161139   6.700   0.714   3.314  1.6207 -1.3567 -0.3763
16495SOL    HW261140   6.595   0.606   3.251  1.1866 -1.5608  0.6821
16496SOL     OW61141   1.787   3.205   1.037  0.2589 -0.6717  0.3501
16496SOL    HW161142   1.875   3.160   1.051  0.4916 -0.3313 -0.0222
16496SOL    HW261143   1.713   3.145   1.069  0.5166 -1.6138 -0.8186
16497SOL     OW61144   3.799   9.065   4.557 -0.0347 -0.1486 -0.5011
16497SOL    HW161145   3.759   9.157   4.550 -0.4078 -0.3149 -0.5569
16497SOL    HW261146   3.878   9.068   4.619 -1.7161 -0.3460  1.7231
16498SOL     OW61147   1.534   7.123   3.719  0.1659 -0.9372 -0.3342
16498SOL    HW161148   1.488   7.074   3.644 -0.3471  0.2583 -0.8070
16498SOL    HW261149   1.477   7.119   3.801  0.0299 -0.9650 -0.4295
16499SOL     OW61150   8.813   1.064   3.291  0.2025  0.0082  0.0387
16499SOL    HW161151   8.902   1.021   3.279 -0.1047 -0.5476 -0.3002
16499SOL    HW261152   8.776   1.090   3.201  1.0745  2.4113  0.3461
16500SOL     OW61153   5.909   0.042   2.905  0.3906  0.1977 -0.1665
16500SOL    HW161154   5.823   0.074   2.944 -0.4362 -1.7691 -0.3241
16500SOL    HW261155   5.911   0.063   2.807  0.0513  0.1416 -0.1846
16501SOL     OW61156   0.010   8.136   1.925 -0.0062 -0.1323 -1.1109
16501SOL    HW161157   0.094   8.149   1.872  1.8572 -1.7309  1.2759
16501SOL    HW261158  -0.045   8.063   1.883  1.0122 -0.7790 -1.3525
16502SOL     OW61159   7.767   3.261   3.781 -0.8517 -0.1355 -0.4064
16502SOL    HW161160   7.679   3.280   3.823  0.0249 -0.1396  1.4979
16502SOL    HW261161   7.816   3.193   3.836  0.9099  0.8986 -0.6740
16503SOL     OW61162   8.808   4.949   0.890 -0.2312 -0.2426 -0.8783
16503SOL    HW161163   8.798   4.850   0.897  1.5966 -0.4672 -1.2251
16503SOL    HW261164   8.761   4.982   0.809  2.0135 -1.2999 -2.6807
16504SOL     OW61165   1.170   3.470   7.933 -1.0888  0.1323  0.6602
16504SOL    HW161166   1.085   3.453   7.983 -1.8525  0.1457 -0.6051
16504SOL    HW261167   1.248   3.455   7.993 -1.9016 -2.5249  1.0856
16505SOL     OW61168   7.927   4.121   2.935 -0.0326  0.1977 -0.3614
16505SOL    HW161169   7.892   4.111   3.028 -0.0255 -0.0642 -0.3893
16505SOL    HW261170   7.857   4.093   2.870  0.0862  0.0563 -0.4278
16506SOL     OW61171   6.671   7.166   6.778  0.2355  0.5922 -0.2687
16506SOL    HW161172   6.767   7.137   6.774 -0.3532 -1.3587 -0.7353
16506SOL    HW261173   6.615   7.102   6.725 -1.5360  0.8470  1.2775
16507SOL     OW61174   2.697   8.176   3.233  0.0861  0.0926 -0.1023
16507SOL    HW161175   2.762   8.117   3.282 -0.8716  0.7895  2.0566
16507SOL    HW261176   2.748   8.241   3.177  1.2013 -1.1054 -0.5181
16508SOL     OW61177   9.401   4.675   2.627 -0.0951 -0.1630 -0.2486
16508SOL    HW161178   9.308   4.663   2.662 -1.3523  2.9321 -2.3065
16508SOL    HW261179   9.405   4.647   2.532  0.0891  3.0914 -1.2703
16509SOL     OW61180   2.390   7.910   0.134 -0.2122  0.4077  0.0866
16509SOL    HW161181   2.373   7.996   0.086  0.3201 -0.6006 -1.9560
16509SOL    HW261182   2.319   7.844   0.109 -0.1269 -0.0227  0.9808
16510SOL     OW61183   3.563   4.151   3.736 -0.0964  0.2835 -0.2236
16510SOL    HW161184   3.606   4.241   3.734  0.5603 -0.0291 -0.6014
16510SOL    HW261185   3.628   4.083   3.701 -0.9357 -0.1853 -0.8945
16511SOL     OW61186   7.202   9.497   6.138 -0.8846 -0.4056 -0.2644
16511SOL    HW161187   7.117   9.449   6.159 -0.9701 -0.2662 -0.2965
16511SOL    HW261188   7.184   9.594   6.127 -0.9184 -0.5391 -1.4405
16512SOL     OW61189   9.298   9.097   6.346  0.1015 -0.1763  0.7336
16512SOL    HW161190   9.203   9.071   6.366  0.1376 -1.5455 -0.7993
16512SOL    HW261191   9.346   9.019   6.305  1.5357  0.9005  0.3424
16513SOL     OW61192   4.808   2.927   8.037 -0.1607  0.1280 -0.2568
16513SOL    HW161193   4.778   3.021   8.049 -0.2458  0.1137 -0.3628
16513SOL    HW261194   4.897   2.926   7.991  0.5780  0.2171  1.1328
16514SOL     OW61195   4.875   7.928   5.238  0.4133  0.4461  0.0467
16514SOL    HW161196   4.831   7.986   5.169  0.8310 -0.7424 -1.2300
16514SOL    HW261197   4.913   7.847   5.194  3.0504  0.9782  1.2662
16515SOL     OW61198   8.089   5.028   6.575  0.1164  0.0960  0.7446
16515SOL    HW161199   8.170   4.973   6.559 -1.6463 -1.8454 -1.9887
16515SOL    HW261200   8.072   5.086   6.495 -1.6601 -0.1700  0.9114
16516SOL     OW61201   5.886   0.961   6.275  0.1519 -0.0927  0.4689
16516SOL    HW161202   5.922   0.883   6.327 -2.2315 -1.5495  0.0210
16516SOL    HW261203   5.884   0.938   6.178 -1.1611  0.2815  0.4010
16517SOL     OW61204   9.521   3.819   7.197 -0.2888  0.1395 -0.5503
16517SOL    HW161205   9.598   3.875   7.229 -0.2431  0.4444 -1.1866
16517SOL    HW261206   9.555   3.749   7.134 -0.5142  0.1927 -0.7317
16518SOL     OW61207   8.461   1.761   7.469 -0.6012  0.2894  0.3011
16518SOL    HW161208   8.511   1.690   7.519 -0.4639 -0.3480 -0.7036
16518SOL    HW261209   8.393   1.717   7.410 -0.6797  1.0158 -0.1476
16519SOL     OW61210   0.160   1.198   5.055  0.1988 -0.1252 -0.1988
16519SOL    HW161211   0.087   1.214   4.988 -1.0676  0.5554  1.3110
16519SOL    HW261212   0.119   1.182   5.145  1.8963 -0.6293  0.4961
16520SOL     OW61213   3.632   1.061   2.196 -0.3731  1.2290  0.5076
16520SOL    HW161214   3.718   1.060   2.145 -0.3685  0.1477  0.5084
16520SOL    HW261215   3.581   0.977   2.176 -0.9604  1.3957  1.2868
16521SOL     OW61216   8.110   0.803   0.911 -0.4163  0.2057  0.2832
16521SOL    HW161217   8.048   0.754   0.850 -0.4740  0.8714 -0.2046
16521SOL    HW261218   8.061   0.878   0.955  0.2562  1.2950 -0.7909
16522SOL     OW61219   4.827   0.793   2.961 -0.0219 -0.2527  0.4917
16522SOL    HW161220   4.776   0.756   2.884 -1.3855  0.2801  1.1377
16522SOL    HW261221   4.818   0.893   2.963  1.3246 -0.1070  0.4220
16523SOL     OW61222   4.043   7.085   4.009 -0.1190  0.4707 -0.1816
16523SOL    HW161223   3.984   7.004   4.003  1.4143 -0.7751  0.9451
16523SOL    HW261224   4.128   7.067   3.960  1.2345  0.4546  2.1161
16524SOL     OW61225   9.155   6.092   6.267  0.1447  0.4754  0.1106
16524SOL    HW161226   9.163   5.999   6.305  0.4983  1.0588  1.4811
16524SOL    HW261227   9.059   6.110   6.244  0.1795 -0.4912 -0.8524
16525SOL     OW61228   4.355   0.148   5.867 -0.1078  0.2853 -0.0249
16525SOL    HW161229   4.303   0.162   5.951 -0.7223 -2.7878  0.1799
16525SOL    HW261230   4.450   0.177   5.880 -0.2525 -0.0028  1.6745
16526SOL     OW61231   9.285   2.008   2.048 -0.2770  0.2348  0.2629
16526SOL    HW161232   9.362   2.066   2.021  0.2236 -0.1273  0.8942
16526SOL    HW261233   9.221   2.061   2.103 -0.0809  0.3199  0.4056
16527SOL     OW61234   2.084   7.731   4.535 -0.2592  0.2977 -0.3294
16527SOL    HW161235   2.054   7.669   4.608 -0.4302  1.0360  0.2287
16527SOL    HW261236   2.060   7.692   4.446 -0.1151 -0.5728  0.0085
16528SOL     OW61237   3.336   3.251   5.393  0.0657 -0.1187  0.1049
16528SOL    HW161238   3.344   3.309   5.473  1.8229  1.5392 -1.2392
16528SOL    HW261239   3.394   3.170   5.404 -0.0607 -0.1280  0.7002
16529SOL     OW61240   5.371   0.798   1.409 -0.2215 -0.0078  0.1493
16529SOL    HW161241   5.271   0.800   1.413 -0.2437  2.6337 -0.9449
16529SOL    HW261242   5.405   0.730   1.473 -2.5970  1.0235  2.6162
16530SOL     OW61243   2.341   3.556   2.722  0.0220  0.3090  0.3379
16530SOL    HW161244   2.379   3.558   2.815 -1.4277  0.6860  0.9282
16530SOL    HW261245   2.319   3.462   2.697  1.7203  0.0184 -0.1881
16531SOL     OW61246   4.699   0.176   4.408  0.1671 -0.4634  0.2547
16531SOL    HW161247   4.753   0.254   4.376  1.6111 -1.2967  0.5871
16531SOL    HW261248   4.605   0.184   4.375  0.2438  1.5334  0.5009
16532SOL     OW61249   8.067   6.152   0.670 -0.5528  0.1000 -0.1995
16532SOL    HW161250   8.154   6.157   0.621 -0.8677  0.1706 -0.7535
16532SOL    HW261251   8.041   6.056   0.683 -0.5414  0.0833 -0.2988
16533SOL     OW61252   0.234   2.591   2.000 -0.2957 -0.5524 -0.3111
16533SOL    HW161253   0.192   2.656   2.063  0.9962 -0.4461  0.4671
16533SOL    HW261254   0.238   2.501   2.043 -0.2249 -0.6830 -0.5916
16534SOL     OW61255   2.125   3.593   3.901  0.0513 -0.0316 -0.1659
16534SOL    HW161256   2.223   3.615   3.898  0.0635  0.0742  0.7824
16534SOL    HW261257   2.090   3.609   3.993 -0.4500 -1.9030 -0.0137
16535SOL     OW61258   1.779   3.892   3.943 -0.1026 -0.5137 -0.3701
16535SOL    HW161259   1.730   3.969   3.984 -0.0053 -1.5517  1.7945
16535SOL    HW261260   1.738   3.807   3.974  2.8993 -1.4041  1.3366
16536SOL     OW61261   9.121   4.330   3.729  0.0393 -0.3417  0.0817
16536SOL    HW161262   9.030   4.351   3.763  0.6231  2.7022 -0.1681
16536SOL    HW261263   9.173   4.283   3.801 -1.2264 -0.8138  0.7124
16537SOL     OW61264   1.415   4.521   7.817  0.0360 -0.1878  0.2907
16537SOL    HW161265   1.434   4.617   7.839  0.6505 -0.3982  0.6803
16537SOL    HW261266   1.347   4.517   7.744 -2.8091  0.4966  2.7933
16538SOL     OW61267   9.230   3.001   2.431 -0.1861 -0.2701  0.1572
16538SOL    HW161268   9.138   2.979   2.400  0.7957 -1.3466 -2.0962
16538SOL    HW261269   9.283   2.917   2.441  0.8426  0.4110  0.5185
16539SOL     OW61270   1.208   7.026   5.206 -0.3397 -0.0004 -0.5438
16539SOL    HW161271   1.144   7.026   5.283 -0.8990  1.1339 -0.9992
16539SOL    HW261272   1.189   6.947   5.147  0.2270 -0.9934  0.5831
16540SOL     OW61273   4.993   0.744   5.865 -0.4489 -0.3352 -0.5276
16540SOL    HW161274   4.984   0.648   5.838  2.0349 -0.5438 -0.7614
16540SOL    HW261275   4.942   0.759   5.950 -0.4321 -2.0166 -0.1879
16541SOL     OW61276   1.610   5.447   5.343  0.0967  0.3291  0.3002
16541SOL    HW161277   1.690   5.394   5.372  0.9910  1.3015 -0.3898
16541SOL    HW261278   1.538   5.438   5.412  0.4473 -1.3209  0.4713
16542SOL     OW61279   3.807   9.398   7.666  0.1003  0.1170  1.1202
16542SOL    HW161280   3.848   9.314   7.631 -1.3708  0.8292 -2.6466
16542SOL    HW261281   3.730   9.375   7.725 -2.1795 -1.3469 -2.2079
16543SOL     OW61282   8.875   4.018   5.600  0.2728  0.3305  0.4549
16543SOL    HW161283   8.934   4.089   5.562  0.1636  0.1015 -0.1472
16543SOL    HW261284   8.913   3.928   5.580  0.2365  0.2067  0.9314
16544SOL     OW61285   8.831   6.796   7.194 -0.5087 -0.5247  0.4551
16544SOL    HW161286   8.881   6.877   7.224  2.2058 -2.2817  0.7998
16544SOL    HW261287   8.749   6.785   7.251  0.3379  0.6802  1.9462
16545SOL     OW61288   3.575   7.500   5.063  0.0426  0.2989  0.4442
16545SOL    HW161289   3.621   7.463   4.982 -1.7812  1.1310 -1.0055
16545SOL    HW261290   3.633   7.572   5.104  1.0377 -0.2227 -0.0233
16546SOL     OW61291   8.636   2.794   5.980  0.2667 -0.5369 -0.1802
16546SOL    HW161292   8.637   2.848   5.895  5.4374  0.4473  0.3789
16546SOL    HW261293   8.672   2.702   5.961  0.6755 -0.5754  0.7985
16547SOL     OW61294   7.763   5.246   0.068  0.4882  0.1850  0.1810
16547SOL    HW161295   7.841   5.183   0.059  0.5949  0.1483  1.2952
16547SOL    HW261296   7.683   5.196   0.101  0.2451  0.4104 -0.0611
16548SOL     OW61297   2.268   4.173   7.554  0.1126  0.0363 -0.3461
16548SOL    HW161298   2.190   4.222   7.516  0.0406 -0.2461 -0.5678
16548SOL    HW261299   2.332   4.149   7.481  0.5908  0.5974 -0.1107
16549SOL     OW61300   2.463   2.764   0.707  0.2667 -0.1781 -0.0869
16549SOL    HW161301   2.389   2.824   0.737  0.7467  0.6507 -0.5365
16549SOL    HW261302   2.504   2.800   0.623  0.7343 -0.9946 -0.2192
16550SOL     OW61303   0.436   3.671   2.346  0.2261  0.0532 -0.0661
16550SOL    HW161304   0.450   3.752   2.289 -0.9019  0.1479 -0.2184
16550SOL    HW261305   0.488   3.594   2.308  1.3218  0.7087  0.0953
16551SOL     OW61306   1.690   5.560   3.061 -0.1513 -0.2745  0.1769
16551SOL    HW161307   1.785   5.543   3.085  0.2289  0.4598 -0.7806
16551SOL    HW261308   1.653   5.630   3.122  0.5875  1.0327 -0.8410
16552SOL     OW61309   9.187   7.208   3.518  0.2206 -0.3250 -0.0349
16552SOL    HW161310   9.118   7.224   3.589  0.5176  0.3609  0.1020
16552SOL    HW261311   9.278   7.213   3.559  0.3973  0.2108 -0.4899
16553SOL     OW61312   4.159   9.568   7.748  0.2035 -0.1900  0.0466
16553SOL    HW161313   4.063   9.595   7.753 -0.5128 -2.4115 -1.0725
16553SOL    HW261314   4.215   9.649   7.736 -1.8133  0.8920 -2.5715
16554SOL     OW61315   2.628   2.561   3.875  0.2374  0.8264  0.0403
16554SOL    HW161316   2.573   2.478   3.873  1.3004  0.1061  0.6613
16554SOL    HW261317   2.569   2.639   3.896 -1.0825  0.5081 -2.3540
16555SOL     OW61318   2.808   9.304   7.700  0.7475 -0.2217  0.3262
16555SOL    HW161319   2.757   9.288   7.784  0.3779 -0.9259 -0.0275
16555SOL    HW261320   2.777   9.390   7.658 -0.8665 -1.1303 -0.4051
16556SOL     OW61321   9.626   1.304   5.334 -0.6519 -0.0994 -0.0432
16556SOL    HW161322   9.568   1.255   5.268  0.7690 -0.3128 -1.1660
16556SOL    HW261323   9.612   1.402   5.324  0.3870 -0.0721 -1.4962
16557SOL     OW61324   9.612   2.642   7.198 -0.3732 -0.3350 -0.2695
16557SOL    HW161325   9.606   2.562   7.139  0.9671  0.1380 -1.0765
16557SOL    HW261326   9.658   2.617   7.284 -1.8305 -0.8949  0.3630
16558SOL     OW61327   8.207   6.202   1.129  0.0117 -0.4904 -0.0545
16558SOL    HW161328   8.167   6.288   1.097 -0.6128 -0.8054 -0.1460
16558SOL    HW261329   8.268   6.165   1.058 -0.8505 -0.8486 -0.6299
16559SOL     OW61330   2.028   1.429   1.415  0.6271 -0.5330  0.3183
16559SOL    HW161331   1.986   1.348   1.374  1.5942 -1.1315  0.5221
16559SOL    HW261332   2.119   1.443   1.377  0.7773  0.0095  0.8687
16560SOL     OW61333   6.556   8.597   5.859  0.1600 -0.1928 -0.3397
16560SOL    HW161334   6.544   8.502   5.888  0.4463  0.3088  1.4694
16560SOL    HW261335   6.590   8.599   5.765  0.8411 -1.9052 -0.1424
16561SOL     OW61336   2.834   5.064   4.371  0.5502 -0.3385  0.1651
16561SOL    HW161337   2.851   4.995   4.442  0.5419 -0.8253 -0.3051
16561SOL    HW261338   2.828   5.019   4.282 -1.1331  0.0684  0.0641
16562SOL     OW61339   2.489   1.271   1.700  0.3296 -0.4613  0.1605
16562SOL    HW161340   2.527   1.341   1.639  0.5139 -1.4791 -0.9086
16562SOL    HW261341   2.389   1.274   1.695  0.3176  0.2374  0.7120
16563SOL     OW61342   7.033   1.350   7.905 -0.7798 -0.2917  0.0042
16563SOL    HW161343   7.037   1.252   7.883 -1.9245 -0.6168  1.1577
16563SOL    HW261344   7.014   1.402   7.822 -1.1750 -1.1476 -0.4511
16564SOL     OW61345   7.378   2.351   0.841  0.1741 -0.0640  0.7066
16564SOL    HW161346   7.426   2.428   0.798 -0.3613  0.3853  0.9117
16564SOL    HW261347   7.441   2.273   0.850  0.4445  0.0268 -0.3755
16565SOL     OW61348   3.578   9.745   2.146  0.0282 -0.3909 -0.4077
16565SOL    HW161349   3.537   9.833   2.172 -2.2725 -1.3480 -0.7143
16565SOL    HW261350   3.653   9.724   2.208  0.6708  1.8379 -0.3878
16566SOL     OW61351   7.860   8.411   3.549  0.4053  0.6688 -0.0956
16566SOL    HW161352   7.848   8.509   3.560 -2.2788  0.3466  0.0452
16566SOL    HW261353   7.808   8.363   3.620  0.1399 -0.9049 -1.3365
16567SOL     OW61354   2.143   1.798   1.471 -0.1344  0.3846  0.2278
16567SOL    HW161355   2.061   1.759   1.429 -0.4820  0.2918  0.9869
16567SOL    HW261356   2.225   1.762   1.426 -0.5472  3.0990 -2.8737
16568SOL     OW61357   2.669   5.634   7.638 -0.6414 -0.8929  0.3412
16568SOL    HW161358   2.622   5.549   7.660 -1.8769 -0.0140  1.1565
16568SOL    HW261359   2.606   5.696   7.592 -0.1141  0.0749  0.8999
16569SOL     OW61360   2.727   4.843   6.756  0.1603  0.6843 -0.0515
16569SOL    HW161361   2.715   4.923   6.816  0.7423  2.0698 -1.7225
16569SOL    HW261362   2.760   4.766   6.809 -1.3775  1.2557  1.7936
16570SOL     OW61363   8.451   4.687   1.106 -0.4833  0.7096 -0.2904
16570SOL    HW161364   8.451   4.590   1.131 -0.3382  1.0276  0.9589
16570SOL    HW261365   8.401   4.699   1.020 -0.8247 -0.4181 -0.2585
16571SOL     OW61366   1.230   2.032   6.925  0.2192 -0.0168  0.4015
16571SOL    HW161367   1.204   1.997   7.015  0.7536  0.4153  0.7250
16571SOL    HW261368   1.258   1.956   6.866 -0.6515 -0.3589  0.4230
16572SOL     OW61369   1.490   5.113   6.278  0.3427 -0.5729 -0.0807
16572SOL    HW161370   1.505   5.145   6.372  2.8566 -1.3473 -0.1924
16572SOL    HW261371   1.395   5.134   6.251 -0.3550 -0.1450  2.5245
16573SOL     OW61372   4.033   5.422   0.427  0.5756 -0.5593  0.0145
16573SOL    HW161373   4.120   5.445   0.471  0.9728 -0.6276 -0.7235
16573SOL    HW261374   4.033   5.325   0.403 -0.4133 -0.9603  1.5937
16574SOL     OW61375   0.501   0.763   6.499 -0.2786  0.1093  0.2908
16574SOL    HW161376   0.420   0.821   6.508 -0.7126 -0.4421 -0.0690
16574SOL    HW261377   0.475   0.675   6.460  0.9004  0.8863 -2.3440
16575SOL     OW61378   4.540   6.904   3.916  0.2573  0.1240 -0.0449
16575SOL    HW161379   4.590   6.986   3.892 -0.0763  0.2709 -0.2383
16575SOL    HW261380   4.484   6.874   3.839  0.1792 -0.1371  0.1101
16576SOL     OW61381   5.293   2.103   5.433  0.1436 -0.3932 -0.1812
16576SOL    HW161382   5.219   2.163   5.464 -0.1285 -1.3311  0.9947
16576SOL    HW261383   5.277   2.077   5.338 -1.5986 -1.4495  0.3974
16577SOL     OW61384   0.274   1.106   7.314  0.0863 -0.2622 -0.1984
16577SOL    HW161385   0.189   1.058   7.339 -1.1421  0.9165 -1.9546
16577SOL    HW261386   0.320   1.054   7.242 -0.1565  0.0950 -0.6135
16578SOL     OW61387   9.998   4.797   7.842  0.1196 -0.0263  0.2214
16578SOL    HW161388   9.935   4.722   7.823 -0.8906  0.6917  0.6733
16578SOL    HW261389  10.013   4.804   7.940 -1.0032  1.3061  0.3205
16579SOL     OW61390   2.710   2.621   5.956 -0.3495 -0.0168 -0.0419
16579SOL    HW161391   2.774   2.616   5.879 -0.2536  0.6881 -0.0142
16579SOL    HW261392   2.761   2.624   6.042 -0.4173  0.4561 -0.0153
16580SOL     OW61393   9.145   6.065   5.465  0.1223  0.3399 -0.6076
16580SOL    HW161394   9.054   6.024   5.467  0.2680 -0.1047 -2.3494
16580SOL    HW261395   9.205   6.016   5.528 -0.4917 -0.2167 -0.4503
16581SOL     OW61396   1.636   8.490   0.133  0.1414 -0.2818 -0.0123
16581SOL    HW161397   1.707   8.481   0.063  1.5646  1.3664  1.1612
16581SOL    HW261398   1.671   8.459   0.221 -0.3043  1.2567  0.7363
16582SOL     OW61399   9.268   1.602   2.273  0.6396  0.3180 -0.7708
16582SOL    HW161400   9.321   1.674   2.318 -0.4577  0.1924  0.7479
16582SOL    HW261401   9.219   1.642   2.195 -0.2125  1.3052  0.2486
16583SOL     OW61402   1.696   1.802   0.969 -0.0096 -0.2362 -0.0427
16583SOL    HW161403   1.610   1.847   0.944  0.5453  0.2174 -1.1706
16583SOL    HW261404   1.733   1.753   0.890  0.9896 -0.0668  0.3067
16584SOL     OW61405   5.193   8.844   4.046  0.3486 -0.0617  0.1413
16584SOL    HW161406   5.166   8.912   4.114  1.9810  1.4233 -0.6461
16584SOL    HW261407   5.170   8.877   3.955 -1.2365 -1.7530 -0.1105
16585SOL     OW61408   6.478   9.656   2.469  0.0389  0.0512  0.7867
16585SOL    HW161409   6.506   9.738   2.419 -2.5713 -0.6931 -2.0919
16585SOL    HW261410   6.540   9.581   2.448  0.1191  0.2745  0.2207
16586SOL     OW61411   8.803   6.122   5.321 -0.1129  0.5056 -0.2167
16586SOL    HW161412   8.844   6.064   5.391  0.1204  0.3030 -0.5217
16586SOL    HW261413   8.758   6.200   5.364 -1.2663 -0.4091  0.2687
16587SOL     OW61414   0.448   4.306   6.545 -0.9511 -0.1192  0.3455
16587SOL    HW161415   0.403   4.226   6.585  0.6306 -1.4817 -0.5564
16587SOL    HW261416   0.547   4.291   6.541 -0.8728  0.7507 -2.2919
16588SOL     OW61417   2.512   2.322   3.904 -0.3195  0.0081 -0.0004
16588SOL    HW161418   2.550   2.250   3.963  1.7314  0.0662 -1.2006
16588SOL    HW261419   2.454   2.280   3.834  0.1931 -0.4302 -0.1735
16589SOL     OW61420   3.881   0.172   0.921 -0.0117  0.4702  0.0207
16589SOL    HW161421   3.799   0.225   0.898 -0.3405 -0.0115  0.0894
16589SOL    HW261422   3.901   0.182   1.018 -1.7693 -1.8816  0.6669
16590SOL     OW61423   2.492   3.242   1.528 -0.0980  0.0515 -0.4263
16590SOL    HW161424   2.562   3.222   1.460 -1.1163 -0.1673 -1.4294
16590SOL    HW261425   2.462   3.157   1.572  0.4446  0.1743  0.1850
16591SOL     OW61426   9.009   3.749   5.579 -0.0874  0.2218  0.3220
16591SOL    HW161427   8.993   3.715   5.672 -0.1540 -0.5366  0.0434
16591SOL    HW261428   9.093   3.708   5.543 -0.8271 -0.6369 -0.4794
16592SOL     OW61429   8.842   5.399   1.341  0.2911  0.7296  0.3873
16592SOL    HW161430   8.915   5.395   1.410 -1.7590  2.4041  2.7358
16592SOL    HW261431   8.861   5.473   1.277  0.8826  0.8702  0.7199
16593SOL     OW61432   1.214   9.767   6.742 -0.4880 -0.0627 -0.4659
16593SOL    HW161433   1.136   9.818   6.705 -1.8276 -0.0529  2.2982
16593SOL    HW261434   1.182   9.696   6.804  1.6821 -0.4618  0.2560
16594SOL     OW61435   9.175   9.627   5.326  0.5543  0.0939 -0.3983
16594SOL    HW161436   9.224   9.704   5.368  1.0767 -0.6904  0.4522
16594SOL    HW261437   9.241   9.555   5.302  0.0876 -0.0350 -1.3305
16595SOL     OW61438   3.779   4.288   4.044  0.1209 -0.7918  0.7794
16595SOL    HW161439   3.861   4.334   4.078 -0.9599  0.1908  2.0934
16595SOL    HW261440   3.746   4.336   3.963 -0.5883  0.3305  1.7236
16596SOL     OW61441   4.427   3.683   2.930  0.0479  0.3894 -0.3335
16596SOL    HW161442   4.482   3.740   2.870  2.2048 -1.5604 -0.3132
16596SOL    HW261443   4.353   3.640   2.878  0.7294  0.2194 -1.1657
16597SOL     OW61444   8.650   1.696   2.101  0.0272 -0.2069 -0.1770
16597SOL    HW161445   8.673   1.709   2.005  2.9159 -1.3575  0.3137
16597SOL    HW261446   8.610   1.780   2.137 -1.4051  0.1195 -2.4510
16598SOL     OW61447   8.610   8.745   0.973 -0.6219  0.0008 -0.1438
16598SOL    HW161448   8.546   8.677   0.936  0.1138 -0.9654  0.3156
16598SOL    HW261449   8.558   8.820   1.014 -1.4877 -1.1999  1.0097
16599SOL     OW61450   4.977   0.277   2.155  0.1142  0.3197 -0.1786
16599SOL    HW161451   5.046   0.215   2.118 -0.4019 -0.5948  0.3659
16599SOL    HW261452   4.887   0.235   2.148  0.1118 -0.3220  2.9814
16600SOL     OW61453   1.315   5.693   7.935 -0.0191  0.1764  0.3568
16600SOL    HW161454   1.410   5.663   7.927  0.1608  0.6086  0.9019
16600SOL    HW261455   1.286   5.689   8.030 -0.9442 -1.1460  0.0392
16601SOL     OW61456   9.317   7.297   4.736  0.4136 -0.1024 -0.3428
16601SOL    HW161457   9.220   7.307   4.757  0.3535  1.3838 -1.2044
16601SOL    HW261458   9.328   7.283   4.638  1.0848  0.1079 -0.3005
16602SOL     OW61459   8.876   0.950   6.077 -0.0673  0.3088 -0.6466
16602SOL    HW161460   8.792   0.900   6.097  0.3344 -0.3083 -0.4948
16602SOL    HW261461   8.876   1.036   6.128 -0.3332  0.0368 -0.1819
16603SOL     OW61462   8.498   3.449   6.332 -0.0844 -0.1350 -0.2391
16603SOL    HW161463   8.439   3.530   6.321  0.6463  0.4209 -0.1090
16603SOL    HW261464   8.447   3.376   6.377 -1.1032 -0.1394 -1.3701
16604SOL     OW61465   3.187   3.874   0.709 -0.4602  0.4237  0.2688
16604SOL    HW161466   3.274   3.891   0.754 -0.2206  1.2330 -0.4893
16604SOL    HW261467   3.129   3.820   0.769  0.4561  0.1214  0.8943
16605SOL     OW61468   7.466   0.140   3.057 -0.2561 -0.0934  0.1698
16605SOL    HW161469   7.503   0.213   2.999  1.1865 -0.3708  0.7232
16605SOL    HW261470   7.394   0.178   3.116 -1.5216  0.2505 -1.5458
16606SOL     OW61471   7.653   5.742   2.474 -0.6820  0.4339 -0.5624
16606SOL    HW161472   7.642   5.780   2.566 -0.3304 -0.1404 -0.2807
16606SOL    HW261473   7.719   5.798   2.423 -0.2145  0.2367 -0.1711
16607SOL     OW61474   3.724   2.476   6.386  0.2884  0.1817  0.1128
16607SOL    HW161475   3.713   2.491   6.484  0.3059 -0.7572  0.2694
16607SOL    HW261476   3.734   2.563   6.339 -1.1288  0.7078  0.7737
16608SOL     OW61477   1.490   5.142   0.351  0.0629 -0.1452 -0.7019
16608SOL    HW161478   1.394   5.127   0.375  1.0038 -0.7699  2.9741
16608SOL    HW261479   1.530   5.055   0.322 -0.0647 -0.2547 -0.5561
16609SOL     OW61480   4.447   3.109   4.730 -0.5809 -0.2772 -0.0511
16609SOL    HW161481   4.372   3.154   4.778  0.0718  0.2869  0.4495
16609SOL    HW261482   4.516   3.080   4.796  0.1619  0.1943 -0.6062
16610SOL     OW61483   9.066   8.063   7.641  0.2495 -0.2068 -0.0853
16610SOL    HW161484   9.075   8.094   7.736 -1.7943 -1.8283  0.6757
16610SOL    HW261485   9.118   7.979   7.628 -0.1858 -0.4596 -0.1825
16611SOL     OW61486   0.896   1.105   7.383  0.6559  0.4599 -0.1733
16611SOL    HW161487   0.947   1.073   7.303  0.3515 -0.4458 -0.0122
16611SOL    HW261488   0.878   1.028   7.444 -1.9527  0.5229 -0.8066
16612SOL     OW61489   8.301   6.443   4.828  0.5882  0.3759 -0.5503
16612SOL    HW161490   8.303   6.542   4.837  2.3430  0.3929 -0.8360
16612SOL    HW261491   8.388   6.411   4.790  1.1990 -1.5107  2.2268
16613SOL     OW61492   8.993   3.755   7.761 -0.3275 -0.2559 -0.0631
16613SOL    HW161493   9.055   3.833   7.763 -0.2765 -0.3045  0.2753
16613SOL    HW261494   8.914   3.777   7.703 -1.4473  0.9149  1.8295
16614SOL     OW61495   5.958   9.115   3.014  0.0890 -0.0914  0.1735
16614SOL    HW161496   5.886   9.047   2.996  0.6051 -0.6883  0.3587
16614SOL    HW261497   5.921   9.187   3.073 -1.0021  0.7751 -1.5032
16615SOL     OW61498   3.621   2.391   3.883 -0.5322 -0.1987  0.3373
16615SOL    HW161499   3.645   2.481   3.847 -0.2186 -0.1625  0.6328
16615SOL    HW261500   3.619   2.394   3.983 -1.1366 -0.3632  0.3315
16616SOL     OW61501   5.541   8.999   4.598  0.7744  0.2963 -0.3215
16616SOL    HW161502   5.499   8.952   4.520 -1.0394 -0.7504  1.2330
16616SOL    HW261503   5.633   8.962   4.614  0.7299 -0.2491 -1.2842
16617SOL     OW61504   2.954   7.309   0.511 -0.5717  0.0089 -0.0468
16617SOL    HW161505   2.948   7.407   0.495  0.0436  0.0179 -0.2111
16617SOL    HW261506   2.873   7.279   0.561 -1.0602  0.4905 -0.5438
16618SOL     OW61507   8.491   7.827   3.825  0.1560  0.2785 -0.0913
16618SOL    HW161508   8.524   7.821   3.919  1.7725  0.0513 -0.6688
16618SOL    HW261509   8.529   7.752   3.771 -1.5882 -0.2080 -0.6988
16619SOL     OW61510   3.517   3.702   6.728  0.7627  0.2828  0.2962
16619SOL    HW161511   3.611   3.696   6.760  0.1168  0.1353  2.2247
16619SOL    HW261512   3.502   3.637   6.654  1.9424 -0.3202  0.5869
16620SOL     OW61513   4.890   8.800   7.330  0.2319 -0.0677 -0.1296
16620SOL    HW161514   4.873   8.741   7.251  0.5176 -0.3730  0.0368
16620SOL    HW261515   4.956   8.871   7.305 -0.6307  0.5952 -0.5259
16621SOL     OW61516   0.108   2.991   7.912 -0.0314 -0.1846  0.1413
16621SOL    HW161517   0.142   3.025   8.000 -0.6164 -0.0853  0.3360
16621SOL    HW261518   0.036   2.923   7.929 -0.7792  0.4954 -0.2600
16622SOL     OW61519   4.462   7.448   3.543  0.7213  0.0434  0.2193
16622SOL    HW161520   4.432   7.493   3.459 -0.8462 -0.4962  0.4536
16622SOL    HW261521   4.541   7.496   3.581  1.3752  0.3560 -1.4905
16623SOL     OW61522   0.902   6.206   2.155 -0.1122  0.5068  0.2189
16623SOL    HW161523   0.873   6.227   2.062 -1.4478 -0.6068  0.3729
16623SOL    HW261524   0.969   6.274   2.185  0.3691  0.8466 -1.5632
16624SOL     OW61525   3.562   2.409   8.045 -0.0764 -0.1518  0.5480
16624SOL    HW161526   3.626   2.451   7.981  0.4384 -0.7735  0.6548
16624SOL    HW261527   3.596   2.419   8.139 -0.6293  0.3976  0.6981
16625SOL     OW61528   9.663   5.018   3.685 -0.1216 -0.6658  0.1526
16625SOL    HW161529   9.575   5.037   3.640  0.0904 -0.2301 -0.0835
16625SOL    HW261530   9.723   5.097   3.675 -0.3531 -0.2600  1.9092
16626SOL     OW61531   0.714   7.808   7.038  0.1348  0.2973 -0.0936
16626SOL    HW161532   0.713   7.864   6.955  0.9913  0.0996 -0.2425
16626SOL    HW261533   0.802   7.821   7.086 -0.1290 -0.0223  0.4845
16627SOL     OW61534   8.363   0.282   5.719  0.3566  0.2506 -0.5054
16627SOL    HW161535   8.307   0.221   5.664  0.1690 -0.1343  0.0985
16627SOL    HW261536   8.451   0.238   5.738 -0.6904 -0.8943  1.9648
16628SOL     OW61537   2.232   6.557   1.891 -0.1618  0.1474  0.0833
16628SOL    HW161538   2.319   6.600   1.864 -0.3098  0.5170  0.1857
16628SOL    HW261539   2.175   6.544   1.810 -0.4456  0.8943  0.1570
16629SOL     OW61540   2.186   4.440   7.747 -0.2699  0.2215  0.3594
16629SOL    HW161541   2.220   4.372   7.812 -0.8096 -1.6100 -1.2026
16629SOL    HW261542   2.220   4.417   7.655 -0.8453  1.8156 -0.2661
16630SOL     OW61543   3.329   0.158   6.632 -0.0631 -0.1262  0.2662
16630SOL    HW161544   3.244   0.106   6.645  0.6095 -1.0054  1.2003
16630SOL    HW261545   3.350   0.162   6.534  0.5238 -2.6953  0.2498
16631SOL     OW61546   7.129   4.889   7.881 -0.3657 -0.4910 -0.4658
16631SOL    HW161547   7.108   4.979   7.919 -3.7415 -1.4727  0.1777
16631SOL    HW261548   7.151   4.826   7.955 -1.3362 -0.9992 -0.5973
16632SOL     OW61549   0.398   3.760   4.392 -0.1330  0.5645 -0.2296
16632SOL    HW161550   0.415   3.674   4.440 -0.3808  0.6113 -0.0566
16632SOL    HW261551   0.417   3.748   4.295 -0.9301  0.0837 -0.3321
16633SOL     OW61552   8.862   6.432   3.885  0.8189  0.2045 -0.1046
16633SOL    HW161553   8.842   6.380   3.968  1.3849  0.0540 -0.0605
16633SOL    HW261554   8.840   6.528   3.899  3.2625  0.6332  1.0811
16634SOL     OW61555   9.298   7.955   2.007 -0.4930  0.4231 -0.1488
16634SOL    HW161556   9.267   7.869   1.967 -2.0549 -0.1873  2.2483
16634SOL    HW261557   9.296   8.028   1.938 -1.8995 -0.8449 -1.4627
16635SOL     OW61558   4.407   5.280   0.639 -0.1187 -0.1782  0.0181
16635SOL    HW161559   4.445   5.373   0.643 -0.0408 -0.2207  0.3234
16635SOL    HW261560   4.433   5.230   0.722 -1.6573  0.1130  0.7069
16636SOL     OW61561   1.040   2.407   7.218  0.1237  0.5612 -0.4762
16636SOL    HW161562   1.132   2.429   7.184 -0.5050  0.9253 -2.0026
16636SOL    HW261563   1.039   2.315   7.255  1.0969  0.5213 -0.5455
16637SOL     OW61564   6.339   5.689   0.950 -0.2561 -0.6752 -0.3184
16637SOL    HW161565   6.270   5.646   0.891  0.4635  0.1646 -1.8094
16637SOL    HW261566   6.424   5.636   0.946  0.1513 -0.0004 -0.9615
16638SOL     OW61567   3.222   6.982   5.549 -0.2161  0.7618 -0.1210
16638SOL    HW161568   3.293   7.052   5.551  0.2638  0.2649  0.4977
16638SOL    HW261569   3.264   6.891   5.548 -0.8048  0.4766 -2.3208
16639SOL     OW61570   3.020   9.882   6.354 -0.3406 -0.2449  0.5475
16639SOL    HW161571   3.025   9.979   6.378  1.3461 -0.0422 -0.5152
16639SOL    HW261572   2.925   9.854   6.344 -0.8413  1.2324  1.1597
16640SOL     OW61573   1.635   5.192   7.705  0.0165  0.4154 -0.2121
16640SOL    HW161574   1.715   5.152   7.660  0.2958  0.3432  0.3371
16640SOL    HW261575   1.615   5.141   7.789 -1.6793 -0.6676 -1.2442
16641SOL     OW61576   1.003   1.268   7.572 -0.3794 -0.0852 -0.1768
16641SOL    HW161577   0.965   1.223   7.653 -0.9869 -0.6032 -0.7361
16641SOL    HW261578   0.953   1.236   7.491 -0.0084  0.6885 -0.7111
16642SOL     OW61579   8.526   7.357   1.833 -0.8982 -0.3901 -0.0675
16642SOL    HW161580   8.467   7.282   1.862 -0.3330 -0.2602  1.4703
16642SOL    HW261581   8.481   7.444   1.851 -1.3933 -0.3519 -1.4917
16643SOL     OW61582   7.502   1.959   4.875  0.0923  0.0418 -0.2409
16643SOL    HW161583   7.468   2.035   4.930  1.9563  0.8565 -0.1738
16643SOL    HW261584   7.587   1.986   4.829  0.8051 -2.0080 -0.1854
16644SOL     OW61585   4.483   9.387   3.252  0.4018  0.3495 -0.7867
16644SOL    HW161586   4.560   9.349   3.200  1.8085  1.2779  0.5812
16644SOL    HW261587   4.465   9.481   3.221 -0.8037 -0.1873 -1.7498
16645SOL     OW61588   9.724   8.731   0.427 -0.3536 -0.3219  0.7800
16645SOL    HW161589   9.672   8.806   0.467  0.4976  0.7585 -0.0946
16645SOL    HW261590   9.725   8.740   0.327 -0.6405 -1.7686  0.6353
16646SOL     OW61591   4.660   9.842   0.790  0.2614 -0.5857  0.2194
16646SOL    HW161592   4.702   9.781   0.858 -0.2589  0.7586  1.7677
16646SOL    HW261593   4.564   9.816   0.777  0.2309 -0.5448  0.3605
16647SOL     OW61594   7.119   1.834   1.980 -0.6825 -0.0257  0.0993
16647SOL    HW161595   7.202   1.827   1.923  0.1655  0.9598  1.1765
16647SOL    HW261596   7.115   1.755   2.042  0.2079  0.6216  1.0054
16648SOL     OW61597   1.444   9.924   2.077 -0.1295 -0.0960  0.3286
16648SOL    HW161598   1.377   9.971   2.134  1.5128  1.4293  1.0499
16648SOL    HW261599   1.469   9.982   1.999  1.6691  0.1469  1.0499
16649SOL     OW61600   8.051   6.413   5.487  0.3435 -0.0157 -0.0048
16649SOL    HW161601   8.135   6.459   5.518 -1.4804  4.2440 -0.9568
16649SOL    HW261602   8.065   6.376   5.396  1.3335  0.2772  0.0250
16650SOL     OW61603   8.022   9.523   3.809  0.4598 -0.1548 -0.2768
16650SOL    HW161604   7.951   9.555   3.872  0.7954 -0.1146  0.0815
16650SOL    HW261605   8.040   9.426   3.826 -0.4169 -0.4884 -1.2280
16651SOL     OW61606   3.145   4.437   3.643 -0.2040  0.0874 -0.5821
16651SOL    HW161607   3.080   4.369   3.676 -0.3302  0.3553 -0.2747
16651SOL    HW261608   3.235   4.395   3.632  0.0294  0.1740  0.8684
16652SOL     OW61609   0.164   0.722   3.542 -0.3643  0.0459 -0.5016
16652SOL    HW161610   0.137   0.818   3.541  0.4495  0.3491  1.9653
16652SOL    HW261611   0.089   0.667   3.580  0.2724  0.1475  0.9698
16653SOL     OW61612   1.366   5.203   1.228 -0.7863 -0.1890 -0.0651
16653SOL    HW161613   1.266   5.200   1.222 -0.6908 -1.9006 -1.1857
16653SOL    HW261614   1.404   5.121   1.185  1.0712  0.0214  1.1364
16654SOL     OW61615   8.507   3.183   5.359 -0.1072 -0.3874  0.3571
16654SOL    HW161616   8.596   3.223   5.334  0.7854 -0.7781  2.7883
16654SOL    HW261617   8.443   3.196   5.283  1.2007  2.3869 -0.3562
16655SOL     OW61618   8.334   0.263   3.503 -0.5172 -0.5075 -0.3949
16655SOL    HW161619   8.303   0.338   3.561  1.0834  0.7257 -1.0678
16655SOL    HW261620   8.285   0.266   3.416 -0.5471 -0.2933 -0.3720
16656SOL     OW61621   5.513   8.429   4.219  0.3114 -0.0167  0.9954
16656SOL    HW161622   5.553   8.425   4.127 -1.4871 -0.8580  0.2348
16656SOL    HW261623   5.440   8.496   4.221 -0.1607 -0.5442  1.6199
16657SOL     OW61624   0.281   1.573   0.122  0.8711  0.6000  0.0505
16657SOL    HW161625   0.346   1.646   0.101  0.9050  0.7711  0.7337
16657SOL    HW261626   0.300   1.537   0.214  0.6156 -0.0101 -0.1318
16658SOL     OW61627   4.561   0.957   2.050  0.3573 -0.0442 -0.4723
16658SOL    HW161628   4.591   0.953   2.146 -1.1279 -2.2661 -0.0612
16658SOL    HW261629   4.641   0.962   1.991  1.3686 -0.5566  0.8148
16659SOL     OW61630   0.827   5.033   3.328  0.0829  0.0876 -0.4432
16659SOL    HW161631   0.776   5.033   3.414  0.8605 -0.8029  0.0374
16659SOL    HW261632   0.845   5.127   3.299  0.8520  0.4013  1.0058
16660SOL     OW61633   8.472   3.859   4.374  0.0949 -0.5220 -0.3772
16660SOL    HW161634   8.426   3.774   4.346 -0.0165 -0.3786 -0.6249
16660SOL    HW261635   8.521   3.843   4.460 -0.8532 -0.5254  0.1649
16661SOL     OW61636   2.233   7.581   2.325  0.8475 -0.2026 -0.1751
16661SOL    HW161637   2.241   7.629   2.237  2.3715 -0.0902 -0.0029
16661SOL    HW261638   2.253   7.484   2.312  0.9612 -0.2059  0.0137
16662SOL     OW61639   8.301   9.285   5.495  0.6780 -0.2909 -0.5681
16662SOL    HW161640   8.231   9.336   5.445  0.1582 -0.5388 -0.0974
16662SOL    HW261641   8.311   9.194   5.456  0.6523 -0.2959 -0.5622
16663SOL     OW61642   8.696   6.441   1.202 -0.0384  0.0211 -0.6871
16663SOL    HW161643   8.736   6.366   1.256  2.9858  1.3666 -0.9175
16663SOL    HW261644   8.688   6.523   1.260 -0.9771  0.2253 -1.1018
16664SOL     OW61645   7.770   6.982   2.759  0.2886  0.2139 -0.2905
16664SOL    HW161646   7.782   7.080   2.742 -0.2076  0.3106 -0.0862
16664SOL    HW261647   7.723   6.969   2.847  0.3990 -0.2076 -0.2924
16665SOL     OW61648   7.391   3.384   1.259  0.4372  0.7629  0.7151
16665SOL    HW161649   7.298   3.354   1.238  1.1895 -0.3224 -1.2059
16665SOL    HW261650   7.451   3.303   1.265  1.4357  1.5146  0.9953
16666SOL     OW61651   9.768   3.920   2.039  0.2629  0.1498  0.5580
16666SOL    HW161652   9.713   3.839   2.057 -1.7101  1.1869 -0.5860
16666SOL    HW261653   9.714   4.002   2.058  2.6662  1.2487  2.9987
16667SOL     OW61654   6.161   2.469   4.759 -0.4147 -0.0519 -0.4763
16667SOL    HW161655   6.082   2.408   4.757 -1.0371  0.7062  0.8082
16667SOL    HW261656   6.206   2.463   4.848  0.0852  0.6585 -0.6763
16668SOL     OW61657   1.999   5.960   3.131  0.4324  0.2893  0.1618
16668SOL    HW161658   2.093   5.939   3.159  0.0864  0.2351  1.2843
16668SOL    HW261659   1.972   6.049   3.169  0.4765  0.9303 -1.2450
16669SOL     OW61660   1.084   0.732   4.243  0.2893  0.4915 -0.4475
16669SOL    HW161661   1.125   0.642   4.256 -0.7032  0.0133 -0.5951
16669SOL    HW261662   1.050   0.741   4.150 -2.3196 -0.1318  0.3976
16670SOL     OW61663   4.834   2.034   1.049 -0.0427 -0.0666  0.4732
16670SOL    HW161664   4.745   2.079   1.055  0.3808  0.5498  2.3229
16670SOL    HW261665   4.821   1.935   1.050 -0.6588  0.0147  1.8214
16671SOL     OW61666   3.328   1.346   5.810 -0.5553 -0.6962 -0.6289
16671SOL    HW161667   3.237   1.349   5.851 -0.9378  0.3115 -1.5064
16671SOL    HW261668   3.394   1.312   5.876 -1.6078 -1.6598 -0.0505
16672SOL     OW61669   4.108   2.976   0.703 -0.3381  0.8587  0.0533
16672SOL    HW161670   4.044   3.053   0.714 -0.5739  0.5625  0.8160
16672SOL    HW261671   4.201   3.008   0.717 -0.4181  1.0594  0.1262
16673SOL     OW61672   4.443   0.220   2.935 -0.3448  0.2585 -0.2534
16673SOL    HW161673   4.344   0.220   2.921 -0.2363 -0.1910 -1.0454
16673SOL    HW261674   4.486   0.279   2.867 -0.0336  0.1471 -0.1531
16674SOL     OW61675   2.982   8.051   8.128 -0.2808 -0.8456 -0.6860
16674SOL    HW161676   2.973   8.136   8.181  0.8285 -0.1993 -1.5222
16674SOL    HW261677   2.908   7.988   8.154 -0.0037 -0.3927  1.3302
16675SOL     OW61678   9.772   3.644   5.237  0.0690 -0.5658  0.5834
16675SOL    HW161679   9.868   3.652   5.267 -0.0099 -0.5277  0.8255
16675SOL    HW261680   9.744   3.730   5.195 -0.9981  0.7806  3.8549
16676SOL     OW61681   4.114   9.671   1.160 -0.2304  0.6295  0.4669
16676SOL    HW161682   4.172   9.661   1.241 -0.1524 -2.0697  0.1000
16676SOL    HW261683   4.041   9.737   1.180  1.1484  1.7444  1.9396
16677SOL     OW61684   2.207   4.817   5.054  0.0959 -0.0430 -0.1288
16677SOL    HW161685   2.164   4.737   5.013  2.4314 -1.7761  0.6550
16677SOL    HW261686   2.274   4.787   5.122 -0.2434  2.6406  1.4451
16678SOL     OW61687   3.471   2.830   1.870 -0.0797  0.0457 -0.0595
16678SOL    HW161688   3.435   2.888   1.797 -0.0721  1.0481  0.7310
16678SOL    HW261689   3.545   2.878   1.918 -1.1402  0.0205  1.6394
16679SOL     OW61690   1.829   4.321   5.721 -0.0988  0.4743  0.3098
16679SOL    HW161691   1.845   4.405   5.772  0.0142  0.5146  0.2076
16679SOL    HW261692   1.866   4.330   5.628 -0.0975  0.3173  0.2941
16680SOL     OW61693   6.585   5.545   1.618 -0.3728 -0.1551 -0.2027
16680SOL    HW161694   6.553   5.627   1.569  1.3303  0.9728  0.5207
16680SOL    HW261695   6.528   5.530   1.698 -1.7919 -0.7111 -1.3041
16681SOL     OW61696   8.462   6.971   2.969  0.0796 -0.2464 -0.0340
16681SOL    HW161697   8.398   6.929   3.033 -0.5998  0.4435 -0.2580
16681SOL    HW261698   8.540   7.008   3.019  0.3829 -1.2148  0.2247
16682SOL     OW61699   7.677   3.730   5.941  0.9295 -0.0723 -0.1669
16682SOL    HW161700   7.604   3.662   5.937  0.9692 -0.0781 -0.8817
16682SOL    HW261701   7.754   3.701   5.884  1.6225 -0.2125  0.8190
16683SOL     OW61702   0.326   9.999   5.939 -0.3446 -0.1344 -0.1200
16683SOL    HW161703   0.324   9.913   5.888 -0.8587  0.5433 -1.2729
16683SOL    HW261704   0.365  10.071   5.882 -1.1615  0.6954  0.3461
16684SOL     OW61705   5.106   0.049   5.783  0.5044  0.2280  0.2624
16684SOL    HW161706   5.149   0.098   5.707 -1.5711  0.5395 -0.7344
16684SOL    HW261707   5.033   0.104   5.822  0.0229 -0.8964  0.9896
16685SOL     OW61708   9.411   3.167   0.727 -0.1832 -0.0340  0.9182
16685SOL    HW161709   9.437   3.232   0.655 -2.0148  0.6529  0.8420
16685SOL    HW261710   9.464   3.083   0.717  1.6777  1.1510  0.5489
16686SOL     OW61711   1.814   1.492   2.042  0.0768  0.4390  0.2910
16686SOL    HW161712   1.892   1.429   2.040  0.4445  0.8962  0.2029
16686SOL    HW261713   1.822   1.557   1.966 -0.0236  0.9232  0.6935
16687SOL     OW61714   1.242   7.482   0.326  0.0513  0.0630 -0.8936
16687SOL    HW161715   1.300   7.458   0.248 -0.0809  2.7002 -1.8574
16687SOL    HW261716   1.253   7.579   0.347 -0.9258 -0.3242  1.5461
16688SOL     OW61717   2.192   0.206   6.582 -0.7546  0.5655  0.4962
16688SOL    HW161718   2.137   0.173   6.658 -0.8307  1.4686  0.8383
16688SOL    HW261719   2.172   0.303   6.566  0.4303  0.7923  0.3641
16689SOL     OW61720   7.675   6.242   7.297  0.3044  0.4727 -0.2301
16689SOL    HW161721   7.726   6.188   7.365  1.3429  1.5122 -0.1570
16689SOL    HW261722   7.605   6.296   7.344  0.8594  1.0060 -0.0048
16690SOL     OW61723   6.233   0.460   5.581 -0.0571 -0.4105 -0.2783
16690SOL    HW161724   6.223   0.384   5.645  0.9925  1.2835  2.0026
16690SOL    HW261725   6.143   0.492   5.553 -0.6662  0.5671  2.5839
16691SOL     OW61726   8.639   5.069   1.934  0.4581 -0.1513 -0.4907
16691SOL    HW161727   8.607   5.104   2.022 -1.3433  1.3320 -1.7023
16691SOL    HW261728   8.682   5.143   1.882  2.8504 -1.3437 -0.2967
16692SOL     OW61729   6.909   2.825   8.108 -0.7766  0.0528 -0.5195
16692SOL    HW161730   6.979   2.774   8.158  0.1158  0.0257 -1.7425
16692SOL    HW261731   6.924   2.923   8.119 -0.8552  0.0461 -0.3581
16693SOL     OW61732   8.412   5.083   0.136  0.4995 -0.4907 -0.1576
16693SOL    HW161733   8.509   5.108   0.138  0.2728  0.3662  1.9465
16693SOL    HW261734   8.389   5.035   0.221 -0.6174 -1.9260 -1.2456
16694SOL     OW61735   4.025   5.547   7.684 -0.5774  0.2863  0.2532
16694SOL    HW161736   4.023   5.526   7.586 -2.2685  2.7821 -0.2969
16694SOL    HW261737   4.118   5.533   7.719 -0.2426 -1.8890 -1.3917
16695SOL     OW61738   8.802   4.115   6.355 -0.4316 -0.5630 -0.1895
16695SOL    HW161739   8.728   4.092   6.291 -0.1710  0.4439 -0.8594
16695SOL    HW261740   8.890   4.088   6.316 -0.2782 -0.0209 -0.2167
16696SOL     OW61741   7.248   1.344   2.127 -0.4040  0.3442 -0.7903
16696SOL    HW161742   7.346   1.350   2.142 -0.6154  0.8991  0.4367
16696SOL    HW261743   7.210   1.436   2.115 -1.0379  0.2692  0.5623
16697SOL     OW61744   0.425   7.854   1.630 -0.1424 -0.2417 -0.0260
16697SOL    HW161745   0.327   7.873   1.625 -0.5997 -2.1791  0.9651
16697SOL    HW261746   0.448   7.822   1.721  1.3849 -0.0384 -0.3250
16698SOL     OW61747   7.069   5.211   1.122 -0.4267 -0.1686 -0.2397
16698SOL    HW161748   7.114   5.202   1.211 -1.3427 -0.3084  0.2060
16698SOL    HW261749   6.990   5.271   1.130 -1.5667 -1.5957 -0.5729
16699SOL     OW61750   5.354   0.888   6.675  0.3528 -0.3397 -0.4321
16699SOL    HW161751   5.287   0.951   6.715 -1.0385 -2.4521  0.6677
16699SOL    HW261752   5.438   0.890   6.729 -0.6372 -1.3428  1.1948
16700SOL     OW61753   3.269   0.476   4.038  0.1782 -0.3433 -0.6269
16700SOL    HW161754   3.294   0.493   4.134 -2.2714 -0.4250  0.0530
16700SOL    HW261755   3.304   0.387   4.010  0.6664 -0.4412  0.2570
16701SOL     OW61756   3.962   9.437   2.188  0.3482  0.2305 -0.3005
16701SOL    HW161757   3.931   9.343   2.197  0.5353  0.1756 -0.2142
16701SOL    HW261758   3.912   9.483   2.115  0.0841  0.1372 -0.1787
16702SOL     OW61759   6.772   2.394   8.109 -0.2525 -0.6657  0.5029
16702SOL    HW161760   6.810   2.334   8.039 -0.3036 -0.2545  0.1194
16702SOL    HW261761   6.731   2.474   8.065 -3.4708 -2.1207  0.7412
16703SOL     OW61762   1.055   2.842   4.683  0.4998  0.2874  0.3928
16703SOL    HW161763   1.101   2.911   4.738 -1.7428  0.3050  2.2903
16703SOL    HW261764   1.025   2.766   4.741 -0.4215 -0.4933 -1.0517
16704SOL     OW61765   4.983   9.219   7.579 -0.0230  0.0298 -0.0619
16704SOL    HW161766   5.075   9.215   7.619 -0.7217 -0.3512  1.5726
16704SOL    HW261767   4.937   9.301   7.613 -1.6193 -1.7260  2.1796
16705SOL     OW61768   0.113   4.977   2.653  0.2445 -0.3735 -0.1741
16705SOL    HW161769   0.175   5.040   2.699  0.8087  0.9949 -2.7305
16705SOL    HW261770   0.156   4.887   2.643  1.2763  0.1765 -0.6814
16706SOL     OW61771   3.505   0.668   5.485  0.1314  0.0656  0.0432
16706SOL    HW161772   3.592   0.624   5.467 -0.3997  0.7410 -4.7853
16706SOL    HW261773   3.437   0.637   5.418 -2.4528  1.9879  1.6825
16707SOL     OW61774   7.765   5.168   0.458 -0.1399 -0.3267 -0.3922
16707SOL    HW161775   7.856   5.205   0.437 -1.4341  3.7718  0.7823
16707SOL    HW261776   7.707   5.173   0.377  0.0910 -1.1625 -0.6164
16708SOL     OW61777   6.165   8.796   5.168  0.3026  0.4820 -0.2802
16708SOL    HW161778   6.205   8.727   5.228 -2.0662  0.2986  1.2017
16708SOL    HW261779   6.147   8.879   5.221 -0.4832  0.8394 -1.0900
16709SOL     OW61780   3.703   5.614   2.693  0.4718 -0.5946 -0.1024
16709SOL    HW161781   3.695   5.552   2.771 -0.0718  1.1188  1.2606
16709SOL    HW261782   3.612   5.638   2.660  0.6757 -0.6322 -0.6916
16710SOL     OW61783   6.456   1.158   7.036  0.0372  0.1404  0.0637
16710SOL    HW161784   6.436   1.152   6.938  1.5822  1.4322 -0.3425
16710SOL    HW261785   6.428   1.073   7.080  0.6885 -1.0665 -1.7673
16711SOL     OW61786   1.372   5.380   0.719  0.2732 -0.1223 -0.4422
16711SOL    HW161787   1.383   5.477   0.741  0.5352 -0.3746  0.5696
16711SOL    HW261788   1.434   5.356   0.645 -0.7415  0.7852 -1.6143
16712SOL     OW61789   2.820   7.652   4.343 -0.1820  0.1967  0.5012
16712SOL    HW161790   2.734   7.678   4.298  1.0899 -1.4984 -3.1078
16712SOL    HW261791   2.809   7.562   4.385 -0.2275 -0.0092  0.0603
16713SOL     OW61792   6.762   1.950   0.575 -0.2323 -0.0653 -0.0475
16713SOL    HW161793   6.756   1.863   0.526 -0.3170 -0.2441  0.2745
16713SOL    HW261794   6.715   2.021   0.523  0.9723  0.0864 -0.9674
16714SOL     OW61795   7.511   3.810   0.538 -0.2356 -0.4127 -0.9394
16714SOL    HW161796   7.599   3.804   0.586 -0.6305 -1.0018 -0.2849
16714SOL    HW261797   7.463   3.892   0.567 -0.3354 -0.6060 -0.5508
16715SOL     OW61798   2.616   1.506   4.294 -0.1986  0.2768 -0.0238
16715SOL    HW161799   2.516   1.496   4.288 -0.2493  0.7769 -0.0225
16715SOL    HW261800   2.640   1.539   4.385 -0.0396  0.2565 -0.0586
16716SOL     OW61801   5.827   7.602   5.486  0.3491 -0.6447 -0.1171
16716SOL    HW161802   5.761   7.528   5.480  0.1905 -0.5070 -0.0934
16716SOL    HW261803   5.887   7.601   5.406  0.0035 -0.4745 -0.3809
16717SOL     OW61804   0.954   7.772   0.365 -0.0353  0.3241  0.0449
16717SOL    HW161805   1.053   7.761   0.368 -0.2709 -2.7815 -2.3413
16717SOL    HW261806   0.923   7.777   0.271 -2.1736  1.4536  0.7674
16718SOL     OW61807   4.074   1.021   2.421 -0.5379 -0.3410  0.2849
16718SOL    HW161808   4.171   1.032   2.400 -0.4720 -0.1340  0.6924
16718SOL    HW261809   4.046   0.926   2.402 -0.5306 -0.1168 -0.9009
16719SOL     OW61810   0.807   8.825   1.182  0.3606 -0.0972 -0.5017
16719SOL    HW161811   0.863   8.898   1.143  0.9275  0.4710  1.3134
16719SOL    HW261812   0.866   8.748   1.209  0.2298  0.2925  0.9461
16720SOL     OW61813   7.994   1.947   6.745 -0.0196  0.1023  0.7658
16720SOL    HW161814   8.041   1.871   6.700  0.8395  0.8267  0.4436
16720SOL    HW261815   8.051   1.984   6.817  0.6623  2.1298 -0.7844
16721SOL     OW61816   9.567   2.795   1.369  0.5480 -0.3851  0.0946
16721SOL    HW161817   9.495   2.784   1.300 -0.8887 -1.6649  1.7536
16721SOL    HW261818   9.653   2.759   1.334 -0.1731 -1.0519 -1.0275
16722SOL     OW61819   9.974   1.054   7.081  0.7123  0.1651 -0.2586
16722SOL    HW161820   9.885   1.053   7.036  0.2893  0.1643  0.5684
16722SOL    HW261821  10.025   1.135   7.052  0.2347  0.4479 -0.3197
16723SOL     OW61822   3.794   3.513   2.263 -0.1232  0.3969 -0.0765
16723SOL    HW161823   3.808   3.506   2.362  0.2841  0.2183 -0.1451
16723SOL    HW261824   3.699   3.490   2.242  0.3491 -1.8396  0.0569
16724SOL     OW61825   2.235   4.240   2.689 -0.3220 -0.0677 -0.2197
16724SOL    HW161826   2.314   4.179   2.678 -0.6938 -0.5803 -0.0645
16724SOL    HW261827   2.265   4.335   2.682 -0.0980 -0.2956 -2.9291
16725SOL     OW61828   2.594   4.926   6.529 -0.2078 -0.3132 -0.7246
16725SOL    HW161829   2.550   4.845   6.490 -0.6671  0.1673 -1.2121
16725SOL    HW261830   2.631   4.903   6.619  0.3675 -1.2812 -1.1964
16726SOL     OW61831   7.759   4.478   1.459 -0.2777  0.2662 -0.5221
16726SOL    HW161832   7.685   4.484   1.526 -0.3573 -0.1861 -0.5700
16726SOL    HW261833   7.728   4.425   1.380  0.1641 -0.0842 -0.4573
16727SOL     OW61834   2.859   0.070   6.099  0.1254 -0.8310 -0.4550
16727SOL    HW161835   2.791   0.124   6.051  0.3079 -0.3762 -0.2019
16727SOL    HW261836   2.951   0.104   6.077  0.1982 -0.3981  0.4780
16728SOL     OW61837   0.642   8.009   1.170 -0.2545  0.1972 -0.0884
16728SOL    HW161838   0.693   8.057   1.099 -1.8855  1.8426 -0.1849
16728SOL    HW261839   0.688   8.020   1.258  0.7953 -0.3105 -0.5690
16729SOL     OW61840   8.642   2.600   2.370 -0.2367  0.6510  0.4020
16729SOL    HW161841   8.633   2.568   2.465 -1.8783  0.1004  0.0733
16729SOL    HW261842   8.554   2.636   2.338 -0.1274 -0.6526 -1.4410
16730SOL     OW61843   7.581   3.440   5.215  0.4907  0.2723 -0.4649
16730SOL    HW161844   7.541   3.521   5.171  1.5302  0.3157 -1.3456
16730SOL    HW261845   7.600   3.461   5.311 -2.0317  0.0932  0.0952
16731SOL     OW61846   1.596   6.647   1.598  0.0125  0.6813 -0.0525
16731SOL    HW161847   1.522   6.669   1.661 -0.8301  0.1524 -0.8515
16731SOL    HW261848   1.613   6.549   1.598 -0.1652  0.6445 -0.8419
16732SOL     OW61849   7.960   0.498   6.941 -0.0455 -0.1541  0.6302
16732SOL    HW161850   7.890   0.502   6.870  2.0275  1.0459 -1.3969
16732SOL    HW261851   7.983   0.591   6.970  1.2260 -0.5048  0.7685
16733SOL     OW61852   1.993   1.116   7.175 -0.6579 -0.1953 -0.1556
16733SOL    HW161853   1.972   1.138   7.079 -1.6747 -1.1526 -0.1682
16733SOL    HW261854   1.918   1.149   7.233  0.0584  0.5703  0.3338
16734SOL     OW61855   5.440   0.039   4.347  0.0611 -0.1519  0.1619
16734SOL    HW161856   5.403   0.098   4.419  0.1293 -0.1610  0.2037
16734SOL    HW261857   5.391   0.056   4.262 -1.9860 -2.1866  0.8878
16735SOL     OW61858   3.968   9.896   0.885  0.3700  0.0501  0.2196
16735SOL    HW161859   3.946   9.993   0.876 -0.2565 -0.0457  0.6939
16735SOL    HW261860   3.947   9.866   0.978 -1.8606 -1.1524 -0.6593
16736SOL     OW61861   0.403   5.021   6.986  0.1819  0.2914 -0.3085
16736SOL    HW161862   0.332   5.041   7.053  0.1397 -1.4420  0.1930
16736SOL    HW261863   0.364   4.967   6.911  0.3993  1.5645 -1.3538
16737SOL     OW61864   9.254   2.617   1.333  0.1688 -0.0158 -0.0179
16737SOL    HW161865   9.286   2.691   1.274  0.0314  0.0114 -0.0576
16737SOL    HW261866   9.212   2.656   1.415 -1.1772 -0.0276 -0.6934
16738SOL     OW61867   2.869   9.246   4.145 -0.3826 -0.1663 -0.0270
16738SOL    HW161868   2.838   9.187   4.220  0.6998 -0.6851  0.0236
16738SOL    HW261869   2.926   9.194   4.083  0.8327  0.8934  0.1730
16739SOL     OW61870   8.228   9.693   7.429  0.0465  0.5379 -0.1037
16739SOL    HW161871   8.257   9.741   7.345 -1.1084  1.7349  0.1700
16739SOL    HW261872   8.186   9.606   7.404  0.1929  0.6389 -0.7356
16740SOL     OW61873   7.295   1.426   4.404  0.6706  0.6378 -0.3509
16740SOL    HW161874   7.236   1.396   4.329  0.6606 -0.7310  0.1926
16740SOL    HW261875   7.239   1.464   4.478  0.6191  1.1118 -0.6278
16741SOL     OW61876   7.104   3.164   3.046  0.5940 -0.5305 -0.5340
16741SOL    HW161877   7.184   3.115   3.081 -0.4247 -1.9276 -0.1022
16741SOL    HW261878   7.044   3.100   2.998 -0.4687  0.4294 -0.5109
16742SOL     OW61879   7.664   0.684   8.108  0.0547  0.6036  0.1864
16742SOL    HW161880   7.699   0.634   8.187  0.4331  0.5005 -0.0464
16742SOL    HW261881   7.574   0.721   8.129  0.5843  1.4251  0.9986
16743SOL     OW61882   0.942   0.322   2.647 -0.0130 -0.1818  0.1705
16743SOL    HW161883   0.952   0.278   2.558 -0.0499 -0.0767  0.1144
16743SOL    HW261884   0.946   0.253   2.719 -2.2522 -0.5574 -0.0283
16744SOL     OW61885   5.120   0.988   1.976 -0.1870  0.5521  0.5793
16744SOL    HW161886   5.045   0.978   2.041 -0.7383  2.2600  0.2359
16744SOL    HW261887   5.205   0.956   2.018 -0.9799 -0.7744  1.2035
16745SOL     OW61888   1.750   5.918   1.322 -0.8943 -0.1200  0.0570
16745SOL    HW161889   1.719   5.824   1.334  0.0707 -0.3970  0.4334
16745SOL    HW261890   1.735   5.947   1.228  0.4639 -1.2631 -0.5243
16746SOL     OW61891   0.540   2.191   7.201  0.3019  0.2974  0.2102
16746SOL    HW161892   0.560   2.252   7.125 -0.2135  0.2969  0.0762
16746SOL    HW261893   0.508   2.244   7.279 -0.9259  0.1201 -0.1715
16747SOL     OW61894   8.203   6.640   3.611  0.0798 -0.4157 -0.2218
16747SOL    HW161895   8.160   6.716   3.560 -1.1865 -0.9070  0.0908
16747SOL    HW261896   8.214   6.666   3.706 -2.5145 -1.4395  0.4075
16748SOL     OW61897   1.446   5.347   7.050  0.4203  0.3730 -0.0698
16748SOL    HW161898   1.436   5.410   6.974 -0.8222 -0.5422 -0.6776
16748SOL    HW261899   1.446   5.253   7.016 -0.1272 -0.0425  1.0546
16749SOL     OW61900   0.355   2.868   4.758  0.1353 -0.5227 -0.5275
16749SOL    HW161901   0.325   2.898   4.848  1.4083 -1.4228  0.2104
16749SOL    HW261902   0.281   2.882   4.692 -0.4927  0.9684  0.4705
16750SOL     OW61903   3.136   5.231   0.606  0.4896 -0.5970 -0.2557
16750SOL    HW161904   3.046   5.250   0.566  0.0814  0.7697  1.2647
16750SOL    HW261905   3.201   5.303   0.578  1.1188 -1.5644 -1.3284
16751SOL     OW61906   4.418   8.150   4.198 -0.2933  0.1258  0.1658
16751SOL    HW161907   4.391   8.091   4.122 -0.4747  1.9414 -1.1832
16751SOL    HW261908   4.518   8.158   4.200 -0.4025  2.4398 -1.7179
16752SOL     OW61909   9.517   6.429   3.017  0.4099  0.5168 -0.0808
16752SOL    HW161910   9.563   6.456   3.102  2.5708 -1.0350 -0.7290
16752SOL    HW261911   9.504   6.330   3.017 -0.8094  0.6773 -0.9666
16753SOL     OW61912   8.686   4.894   7.573 -0.0065  0.0592  0.1187
16753SOL    HW161913   8.719   4.844   7.493 -0.3660  0.5003 -0.3066
16753SOL    HW261914   8.592   4.866   7.593  0.1755 -0.2504  0.5550
16754SOL     OW61915   3.758   2.717   4.438 -0.2447 -0.3209  0.2487
16754SOL    HW161916   3.709   2.630   4.436  0.9007 -0.9640 -0.1742
16754SOL    HW261917   3.842   2.709   4.385  0.3882  0.7305  1.0687
16755SOL     OW61918   3.225   3.948   5.117 -0.2588 -0.2556 -0.5513
16755SOL    HW161919   3.243   3.986   5.208 -0.1591 -0.9002 -0.3015
16755SOL    HW261920   3.167   3.867   5.125  0.6891 -0.9873 -0.9588
16756SOL     OW61921   8.182   0.695   4.130 -0.2345 -0.0049 -0.1028
16756SOL    HW161922   8.263   0.748   4.155  0.7230  0.3690 -3.6431
16756SOL    HW261923   8.099   0.745   4.158  0.7088 -0.1088  3.0116
16757SOL     OW61924   7.651   9.772   2.071 -0.7356  0.2599 -0.4904
16757SOL    HW161925   7.730   9.799   2.017 -2.4396  0.8166 -2.7953
16757SOL    HW261926   7.605   9.854   2.106 -1.9468  0.0776 -1.6273
16758SOL     OW61927   3.009   0.311   4.998 -0.3963 -0.2660  0.4794
16758SOL    HW161928   3.098   0.329   5.038  0.0272  1.5442 -1.1882
16758SOL    HW261929   2.983   0.387   4.938 -2.8174 -1.0045  0.5138
16759SOL     OW61930   8.978   3.973   1.194  0.0183  0.0418 -0.0881
16759SOL    HW161931   9.001   3.923   1.110 -1.0287 -0.6242  0.0068
16759SOL    HW261932   9.059   3.981   1.252  0.1211 -1.9037  0.0677
16760SOL     OW61933   8.851   1.018   2.407  0.4314 -0.6219 -0.2676
16760SOL    HW161934   8.949   0.996   2.413  0.4340 -0.6123 -0.2803
16760SOL    HW261935   8.838   1.090   2.339  0.4791 -0.2311  0.1365
16761SOL     OW61936   9.525   2.511   4.317 -0.0925 -0.3653  0.6765
16761SOL    HW161937   9.528   2.419   4.279 -0.8397 -0.4623  0.8396
16761SOL    HW261938   9.437   2.554   4.294 -0.8005 -0.6395  2.7465
16762SOL     OW61939   9.859   8.252   6.186 -0.8084  0.4439  0.0864
16762SOL    HW161940   9.819   8.168   6.148 -0.7032  0.8880 -1.0166
16762SOL    HW261941   9.864   8.244   6.286  0.9593 -1.6406 -0.1334
16763SOL     OW61942   3.325   3.235   8.056  0.2926 -0.0848 -0.4434
16763SOL    HW161943   3.237   3.258   8.015  0.2087  0.8502  0.2476
16763SOL    HW261944   3.326   3.138   8.081 -0.8402  0.0801  0.2762
16764SOL     OW61945   8.484   2.302   1.796  0.1516 -0.0403  0.3005
16764SOL    HW161946   8.516   2.326   1.888 -1.0339  1.5048  0.3386
16764SOL    HW261947   8.400   2.352   1.776 -0.4575 -1.5343 -1.0447
16765SOL     OW61948   1.057   0.421   3.835  0.1014 -0.0147  0.2086
16765SOL    HW161949   0.996   0.373   3.897  0.1838  1.7039  1.6714
16765SOL    HW261950   1.144   0.440   3.881  0.9758 -0.6001 -1.1586
16766SOL     OW61951   5.417   1.059   1.534  0.0448 -0.4252  0.4893
16766SOL    HW161952   5.408   0.988   1.464  3.5519  0.0526 -0.5534
16766SOL    HW261953   5.483   1.030   1.603  0.3825  1.1814  0.8667
16767SOL     OW61954   1.174   4.084   1.270  0.1369  0.4683 -0.1966
16767SOL    HW161955   1.214   4.106   1.360 -0.0784 -0.3995  0.1158
16767SOL    HW261956   1.203   3.993   1.242 -1.9884 -0.3888  0.2596
16768SOL     OW61957   7.526   7.323   1.654  0.1237 -0.2106 -0.3169
16768SOL    HW161958   7.622   7.298   1.663 -0.1054 -0.2030  2.3548
16768SOL    HW261959   7.515   7.421   1.668 -0.4019 -0.3642  0.3453
16769SOL     OW61960   0.051   1.722   7.369 -0.8084  0.4855 -0.2317
16769SOL    HW161961  -0.020   1.738   7.300 -0.6639 -0.3722 -0.5984
16769SOL    HW261962   0.141   1.740   7.328 -0.7146 -0.1489 -0.3190
16770SOL     OW61963   8.050   8.595   6.058 -0.5052  0.1238 -0.5199
16770SOL    HW161964   8.137   8.640   6.078 -1.9313  2.6229  0.2695
16770SOL    HW261965   8.033   8.597   5.960  0.4718 -0.6741 -0.7103
16771SOL     OW61966   2.372   9.668   5.425 -0.2368 -0.0019 -0.1806
16771SOL    HW161967   2.391   9.569   5.423  0.8634  0.1428  1.8247
16771SOL    HW261968   2.274   9.683   5.431 -0.3231 -1.0355  1.4293
16772SOL     OW61969   0.648   9.835   7.756 -0.1535 -0.1375  0.2048
16772SOL    HW161970   0.566   9.788   7.724  1.4241 -3.4109  0.7399
16772SOL    HW261971   0.656   9.825   7.855  0.6594  0.5506  0.2156
16773SOL     OW61972   3.700   3.339   7.117  0.3540 -0.0515 -0.2464
16773SOL    HW161973   3.717   3.409   7.186 -1.4035 -0.4093  0.5882
16773SOL    HW261974   3.601   3.321   7.112  0.4672 -0.0685 -2.8145
16774SOL     OW61975   3.285   1.427   7.026 -0.1765 -0.2525  0.1214
16774SOL    HW161976   3.290   1.526   7.016 -0.0835 -0.3097 -0.3696
16774SOL    HW261977   3.377   1.388   7.022 -0.2079 -0.3580  0.3669
16775SOL     OW61978   7.274   0.949   3.260  0.0667 -0.2996  0.3540
16775SOL    HW161979   7.358   0.966   3.208 -0.2943  0.0092 -0.1361
16775SOL    HW261980   7.229   0.867   3.224 -0.9312  0.7315 -0.7857
16776SOL     OW61981   0.828   4.962   0.497 -0.2372  0.4485  0.0840
16776SOL    HW161982   0.826   5.048   0.549  0.1763  0.3839  0.2062
16776SOL    HW261983   0.879   4.976   0.412 -0.2050  0.3347  0.0844
16777SOL     OW61984   3.070   2.759   4.478 -0.1546 -0.1330  0.3297
16777SOL    HW161985   3.023   2.719   4.399 -0.1912 -2.7806  1.6494
16777SOL    HW261986   3.162   2.789   4.450 -0.2603 -0.7928 -0.7595
16778SOL     OW61987   5.400   3.803   1.129 -0.4200 -0.3044  0.0067
16778SOL    HW161988   5.475   3.840   1.185 -0.1668 -2.3358  1.0694
16778SOL    HW261989   5.332   3.874   1.114  0.0639  0.6208  1.9537
16779SOL     OW61990   7.315   8.641   2.565 -0.3209 -0.0187 -0.1995
16779SOL    HW161991   7.268   8.636   2.653 -0.7444  2.1461 -0.2600
16779SOL    HW261992   7.410   8.669   2.580  0.0988 -1.3465 -0.3159
16780SOL     OW61993   8.429   0.003   4.987  0.1896 -0.1678  0.1817
16780SOL    HW161994   8.443   0.054   5.071  0.5966  0.7634 -0.4490
16780SOL    HW261995   8.372  -0.077   5.006 -0.0430  0.2473  1.2622
16781SOL     OW61996   6.366   0.780   2.547  0.0238 -0.6448  0.0775
16781SOL    HW161997   6.386   0.691   2.589 -0.9444 -1.3087 -0.8611
16781SOL    HW261998   6.440   0.844   2.569  0.9730 -1.8160  0.3564
16782SOL     OW61999   7.160   0.315   6.378 -0.0702  0.2620  0.2785
16782SOL    HW162000   7.180   0.312   6.280 -0.9059 -0.7797  0.1408
16782SOL    HW262001   7.122   0.227   6.408 -2.3881  1.4660  0.9934
16783SOL     OW62002   5.108   2.745   4.398 -0.6694 -0.5270  0.4402
16783SOL    HW162003   5.169   2.803   4.451  0.2051 -2.3570  1.4856
16783SOL    HW262004   5.162   2.681   4.343 -1.6288 -1.1309  0.1881
16784SOL     OW62005   0.588   8.003   7.486 -0.4595 -0.2927  0.2305
16784SOL    HW162006   0.503   7.999   7.539  0.0695 -1.0367  1.0220
16784SOL    HW262007   0.565   8.016   7.390 -1.3748  3.7352  0.8876
16785SOL     OW62008   9.303   9.869   4.392 -0.7267 -0.4863 -0.3333
16785SOL    HW162009   9.378   9.884   4.455 -1.5614 -0.2174  0.6076
16785SOL    HW262010   9.232   9.938   4.406 -1.6875 -1.4379 -0.3752
16786SOL     OW62011   0.899   5.522   4.788  0.2222 -0.3324  0.5732
16786SOL    HW162012   0.920   5.586   4.714  0.9492 -1.6403 -0.3762
16786SOL    HW262013   0.984   5.492   4.831  0.0507 -2.0385 -0.2015
16787SOL     OW62014   2.104   1.074   0.048  0.1003 -0.0204 -0.1656
16787SOL    HW162015   2.146   0.994   0.091  1.3790  0.1950 -0.9922
16787SOL    HW262016   2.069   1.049  -0.042 -0.8497 -0.0068  0.1950
16788SOL     OW62017   9.923   6.862   5.836 -0.5021  0.2471 -0.0581
16788SOL    HW162018   9.893   6.937   5.777 -1.3823  0.0318  0.1182
16788SOL    HW262019  10.023   6.854   5.831 -0.5949 -0.0319 -1.8426
16789SOL     OW62020   3.042   2.541   1.010  0.0443 -0.1522 -0.5517
16789SOL    HW162021   3.086   2.623   1.046 -2.3409  0.9321  0.0049
16789SOL    HW262022   3.068   2.462   1.065  0.4631  0.6289  0.3933
16790SOL     OW62023   3.468   0.602   1.271 -0.4194  0.0766  0.2879
16790SOL    HW162024   3.375   0.638   1.270 -1.4206 -2.2596  2.2869
16790SOL    HW262025   3.491   0.568   1.180 -0.5620  2.8712 -0.8427
16791SOL     OW62026   2.819   4.410   1.725  0.4498  0.0985 -0.0715
16791SOL    HW162027   2.787   4.505   1.731  0.4270  0.0490  0.6004
16791SOL    HW262028   2.919   4.409   1.725  0.4511  0.1307 -0.2459
16792SOL     OW62029   7.878   4.951   2.397  0.4539  0.6999 -0.4972
16792SOL    HW162030   7.835   5.039   2.415 -1.0619  0.1328 -1.1991
16792SOL    HW262031   7.967   4.947   2.441 -0.3934  1.7485  1.3836
16793SOL     OW62032   7.815   3.879   6.484 -0.2862  0.5489 -0.3406
16793SOL    HW162033   7.759   3.817   6.430  0.0695 -0.6045  0.5958
16793SOL    HW262034   7.779   3.972   6.477 -2.5889 -0.2493  0.6427
16794SOL     OW62035   8.861   8.911   3.750 -0.0453 -0.2206  0.2032
16794SOL    HW162036   8.846   8.953   3.840 -0.1935 -0.9276  0.5106
16794SOL    HW262037   8.847   8.980   3.679 -0.3368  0.2435  0.7041
16795SOL     OW62038   2.402   6.388   5.511 -0.0992  0.6648  0.0399
16795SOL    HW162039   2.472   6.319   5.530  0.1523  0.7710 -0.4755
16795SOL    HW262040   2.349   6.405   5.594  0.3492  0.4281  0.3823
16796SOL     OW62041   4.479   7.629   6.729 -0.5064  0.3949  0.2885
16796SOL    HW162042   4.523   7.715   6.754 -0.5183  0.5527 -0.2475
16796SOL    HW262043   4.418   7.601   6.804 -2.2172  2.0033 -0.4613
16797SOL     OW62044   7.535   2.853   3.311  0.2904 -0.8079 -0.4478
16797SOL    HW162045   7.600   2.860   3.387 -0.2373 -0.4193 -0.0257
16797SOL    HW262046   7.456   2.799   3.339 -1.3611  1.8956  0.3408
16798SOL     OW62047   2.347   9.581   6.760 -0.1864  0.2773 -0.4946
16798SOL    HW162048   2.437   9.559   6.721  0.1395  2.2796 -0.9535
16798SOL    HW262049   2.283   9.601   6.686  0.4211  4.0477 -0.1186
16799SOL     OW62050   8.951   0.346   3.416 -0.0447  0.2668 -0.1554
16799SOL    HW162051   8.956   0.442   3.444  0.4293  0.3411 -0.4901
16799SOL    HW262052   8.915   0.291   3.492 -0.1382  0.6791  0.1013
16800SOL     OW62053   0.085   0.628   3.193  0.0473 -0.1783 -0.1809
16800SOL    HW162054   0.092   0.542   3.245  0.8754 -1.9036 -3.0165
16800SOL    HW262055  -0.011   0.653   3.183 -0.2296 -1.0486  0.2224
16801SOL     OW62056   9.703   1.573   3.067 -0.5929 -0.0298  0.2541
16801SOL    HW162057   9.646   1.491   3.074 -0.0781 -0.3086  1.4897
16801SOL    HW262058   9.760   1.567   2.986  0.5559 -1.6454  1.1436
16802SOL     OW62059   8.784   9.553   5.677  0.3684 -0.6124  0.5398
16802SOL    HW162060   8.778   9.462   5.720 -1.0181 -0.0084  1.6684
16802SOL    HW262061   8.739   9.551   5.588  2.2429 -1.5817 -0.4018
16803SOL     OW62062   0.335   6.856   7.086  0.5295  0.6629  0.2882
16803SOL    HW162063   0.255   6.893   7.135  0.6540  0.0952  0.9296
16803SOL    HW262064   0.353   6.764   7.119  1.3082  0.7020 -0.0371
16804SOL     OW62065   8.702   8.366   5.128 -0.7491 -0.1473 -0.8389
16804SOL    HW162066   8.690   8.296   5.199  0.2172  0.2835 -0.2535
16804SOL    HW262067   8.794   8.402   5.132 -1.2035  1.0661 -1.2452
16805SOL     OW62068   2.769   1.628   5.684 -0.4209 -0.0485 -0.7051
16805SOL    HW162069   2.793   1.638   5.587 -3.7954  0.7159 -1.5054
16805SOL    HW262070   2.793   1.535   5.714  1.4532 -0.0230 -2.0027
16806SOL     OW62071   9.513   1.864   3.938  0.3003 -0.4803  0.3424
16806SOL    HW162072   9.496   1.930   4.011  0.3217 -0.3842  0.2602
16806SOL    HW262073   9.535   1.775   3.978  0.8120 -0.3013  0.4546
16807SOL     OW62074   2.384   5.980   1.442 -0.8681  0.6078 -0.0710
16807SOL    HW162075   2.460   5.957   1.503 -2.5871  0.9171  2.2501
16807SOL    HW262076   2.382   5.915   1.366 -0.4837 -1.7026  1.8320
16808SOL     OW62077   5.386   8.645   5.936 -0.4509  0.1475  0.0116
16808SOL    HW162078   5.384   8.718   5.867 -1.0558 -0.2309 -0.3775
16808SOL    HW262079   5.443   8.571   5.903 -0.6761  0.0001 -0.0511
16809SOL     OW62080   4.832   9.390   0.099  0.6955  0.2059  0.0164
16809SOL    HW162081   4.878   9.354   0.018  0.6152 -0.6182  0.3230
16809SOL    HW262082   4.825   9.317   0.167 -1.2775  0.2610 -0.1121
16810SOL     OW62083   3.095   5.513   4.152  0.4161 -0.4817  0.3697
16810SOL    HW162084   3.069   5.463   4.235  2.0248 -1.7583  0.1281
16810SOL    HW262085   3.118   5.449   4.080  3.0749  0.5652  0.2265
16811SOL     OW62086   2.154   2.937   6.223 -0.1737  0.2242 -0.5875
16811SOL    HW162087   2.089   2.973   6.157  0.2303 -1.2027 -1.7835
16811SOL    HW262088   2.105   2.885   6.293 -0.5162  1.0384 -0.2078
16812SOL     OW62089   3.992   1.869   0.249 -0.1100 -0.2302 -0.2297
16812SOL    HW162090   3.940   1.799   0.201 -1.3432  1.1427 -0.9399
16812SOL    HW262091   3.959   1.877   0.343  0.6038 -1.1759  0.1070
16813SOL     OW62092   0.395   7.513   1.797  0.3641  0.0721 -0.1806
16813SOL    HW162093   0.301   7.479   1.788  0.5033 -0.0703 -1.0877
16813SOL    HW262094   0.393   7.611   1.814 -0.0360 -0.3213  2.2894
16814SOL     OW62095   6.785   1.323   3.386 -1.0047  0.7633  0.0046
16814SOL    HW162096   6.864   1.294   3.333 -2.1292  0.8647 -1.7742
16814SOL    HW262097   6.757   1.248   3.447  0.5144  0.7746  0.7177
16815SOL     OW62098   1.444   5.444   4.285 -0.5598  0.0029  0.2905
16815SOL    HW162099   1.393   5.394   4.355 -2.2074  0.4608 -0.5481
16815SOL    HW262100   1.474   5.380   4.214  0.5365 -0.3565  1.0692
16816SOL     OW62101   6.310   9.468   4.899 -0.3336 -0.3016  0.3313
16816SOL    HW162102   6.376   9.403   4.862  0.2062  1.5578 -2.0982
16816SOL    HW262103   6.358   9.534   4.957 -0.5064 -0.6038  0.8224
16817SOL     OW62104   9.776   1.450   1.531 -0.4733 -0.0802 -0.1647
16817SOL    HW162105   9.843   1.381   1.559 -1.0633 -1.4127 -1.9603
16817SOL    HW262106   9.684   1.415   1.546 -0.8051 -0.5896 -3.1004
16818SOL     OW62107   1.922   1.898   7.659 -0.6506 -0.5762  0.3095
16818SOL    HW162108   1.866   1.841   7.718 -0.1834 -1.0379  0.3108
16818SOL    HW262109   1.870   1.924   7.578 -0.6949 -1.4290  0.0634
16819SOL     OW62110   8.534   1.455   4.393  0.5681 -0.6067 -0.2041
16819SOL    HW162111   8.552   1.468   4.295 -0.2006  1.8720 -0.0543
16819SOL    HW262112   8.615   1.484   4.445  1.2098 -2.5063 -0.1044
16820SOL     OW62113   7.919   8.876   6.500  0.6815  0.0013 -0.0771
16820SOL    HW162114   7.965   8.883   6.589 -1.0079  1.3121  0.7027
16820SOL    HW262115   7.821   8.893   6.511  0.0129 -2.3916 -1.7887
16821SOL     OW62116   7.560   1.383   7.181 -0.4230  0.1350 -0.5966
16821SOL    HW162117   7.551   1.305   7.119  0.2457 -0.1332 -0.3511
16821SOL    HW262118   7.485   1.382   7.247  1.5173 -2.3463  1.7014
16822SOL     OW62119   4.436   4.055   5.213 -0.6505  0.1304 -0.3174
16822SOL    HW162120   4.490   4.012   5.285  0.6892 -0.4335 -1.6177
16822SOL    HW262121   4.376   3.987   5.171 -1.9376  0.6171  0.7155
16823SOL     OW62122   1.491   6.234   4.682  0.2639 -0.2086  0.0515
16823SOL    HW162123   1.481   6.147   4.633  1.2820 -1.8391  2.6270
16823SOL    HW262124   1.580   6.275   4.659 -0.0804  0.0135 -0.9174
16824SOL     OW62125   3.744   1.971   0.562 -0.2519 -0.2404 -0.5351
16824SOL    HW162126   3.757   1.875   0.537  2.6865 -0.0766  0.1740
16824SOL    HW262127   3.727   1.977   0.661  0.0806 -0.0040 -0.4911
16825SOL     OW62128   0.216   6.442   1.236  0.2724 -0.6321  0.3862
16825SOL    HW162129   0.249   6.448   1.142  0.1288 -1.0425  0.3098
16825SOL    HW262130   0.173   6.529   1.262 -1.7202 -1.2612 -0.6868
16826SOL     OW62131   3.608   8.587   4.596 -0.1198 -0.6100 -0.0134
16826SOL    HW162132   3.654   8.604   4.509  1.7786 -0.9228  0.9047
16826SOL    HW262133   3.569   8.495   4.596  0.7612 -0.9843 -0.1508
16827SOL     OW62134   3.543   5.078   6.472  1.0009  0.5035  0.3956
16827SOL    HW162135   3.504   5.170   6.475  0.2317  0.1610  1.3377
16827SOL    HW262136   3.485   5.020   6.413  0.0937  0.0088  1.7526
16828SOL     OW62137   9.240   8.696   0.769 -0.1403  0.1516 -0.4263
16828SOL    HW162138   9.267   8.636   0.694 -2.0456 -1.0991 -0.1515
16828SOL    HW262139   9.209   8.641   0.846  0.5371  1.4597  0.7949
16829SOL     OW62140   1.538   5.868   5.983 -0.5411 -0.2708 -0.3110
16829SOL    HW162141   1.603   5.863   6.059 -0.4715 -0.4969 -0.3852
16829SOL    HW262142   1.583   5.836   5.899 -0.0892  1.5607 -0.7942
16830SOL     OW62143   3.318   6.544   4.769 -0.0166  0.3333  0.0740
16830SOL    HW162144   3.246   6.590   4.821  0.7018  0.9035  0.5923
16830SOL    HW262145   3.397   6.606   4.760  1.0484 -0.8614  0.9459
16831SOL     OW62146   8.894   3.321   6.358  0.1549 -0.2608  0.2315
16831SOL    HW162147   8.841   3.246   6.318  0.5248  0.5335 -1.7824
16831SOL    HW262148   8.831   3.393   6.389 -0.0422  0.0535 -0.8694
16832SOL     OW62149   2.643   5.784   2.871 -0.0356 -0.1786  0.1113
16832SOL    HW162150   2.701   5.836   2.934 -0.4615  0.6590 -0.1797
16832SOL    HW262151   2.670   5.805   2.777  1.1992 -2.0980 -0.0130
16833SOL     OW62152   4.336   3.882   1.169 -0.7739  0.7295 -0.0409
16833SOL    HW162153   4.256   3.823   1.159 -0.0754 -0.1719 -0.4062
16833SOL    HW262154   4.383   3.889   1.081 -0.3224  1.0721  0.2286
16834SOL     OW62155   1.709   1.985   7.494 -0.7108  0.2842 -0.4064
16834SOL    HW162156   1.690   2.018   7.401 -0.5733 -1.0924 -0.9241
16834SOL    HW262157   1.626   1.992   7.549 -1.0637  0.1557 -0.9150
16835SOL     OW62158   9.436   0.941   7.538 -1.1777  0.5455  0.6259
16835SOL    HW162159   9.493   0.863   7.564 -2.5073 -1.8078 -3.1303
16835SOL    HW262160   9.494   1.020   7.522  0.4614 -0.3052  2.1506
16836SOL     OW62161   1.316   6.273   0.855 -0.6942 -0.0824  0.2465
16836SOL    HW162162   1.318   6.216   0.773  0.4025 -1.2068  1.0281
16836SOL    HW262163   1.364   6.226   0.929  2.4703  2.9695  0.2090
16837SOL     OW62164   8.663   0.461   3.584 -0.2378 -1.1947 -0.2033
16837SOL    HW162165   8.713   0.377   3.605 -2.6222 -2.3193  1.1131
16837SOL    HW262166   8.570   0.439   3.556 -0.9407  1.0189  0.2798
16838SOL     OW62167   6.663   1.660   1.539 -0.5108 -0.4877  0.3559
16838SOL    HW162168   6.650   1.627   1.632  0.7282 -0.4653  0.5445
16838SOL    HW262169   6.607   1.607   1.476  0.0165 -1.6882  0.8932
16839SOL     OW62170   1.998   4.213   7.950 -0.2313  0.1116 -0.3623
16839SOL    HW162171   1.939   4.265   7.887 -1.2864 -1.5258 -0.7448
16839SOL    HW262172   1.957   4.212   8.041  0.3088  0.7986 -0.1034
16840SOL     OW62173   7.329   6.913   5.993 -0.2939  0.4875  0.4807
16840SOL    HW162174   7.251   6.885   6.049 -0.8655  1.1507  0.0258
16840SOL    HW262175   7.413   6.908   6.047 -0.4356 -1.6383  0.5569
16841SOL     OW62176   7.720   0.280   4.216  0.3301  0.1166 -0.1702
16841SOL    HW162177   7.667   0.217   4.161 -1.9988  1.7347  0.1243
16841SOL    HW262178   7.782   0.332   4.157 -1.5153  1.2237 -1.1826
16842SOL     OW62179   0.999   4.488   2.448 -0.2788 -0.0493 -0.3334
16842SOL    HW162180   1.065   4.484   2.523 -0.7338  0.3440  0.0952
16842SOL    HW262181   1.025   4.561   2.385 -0.4501  0.2834 -0.0211
16843SOL     OW62182   9.003   4.738   4.716 -0.2345  0.0883 -0.0875
16843SOL    HW162183   8.964   4.770   4.630 -1.2452 -0.3538  0.2006
16843SOL    HW262184   8.973   4.645   4.734 -0.1984  0.2513  0.8465
16844SOL     OW62185   6.654   1.514   1.268 -0.1676 -0.1784  0.4533
16844SOL    HW162186   6.692   1.571   1.195  0.4571 -0.9248  0.1731
16844SOL    HW262187   6.727   1.489   1.331 -0.0792 -1.9548 -0.3052
16845SOL     OW62188   3.183   1.685   5.665  0.0375 -0.6444  0.2858
16845SOL    HW162189   3.146   1.760   5.611 -0.8104 -1.2484  0.0079
16845SOL    HW262190   3.244   1.630   5.610 -1.1696 -1.5167 -0.2006
16846SOL     OW62191   3.506   1.445   4.454 -0.2888 -0.4225  0.0204
16846SOL    HW162192   3.583   1.390   4.487  1.3415  1.2493 -0.8936
16846SOL    HW262193   3.508   1.449   4.354 -0.3135  1.3646  0.0741
16847SOL     OW62194   7.016   7.307   7.573  0.3177 -0.7430  0.4715
16847SOL    HW162195   6.993   7.260   7.658  0.9669  0.8101  1.5471
16847SOL    HW262196   7.074   7.249   7.517  2.5713 -0.5678  2.5563
16848SOL     OW62197   8.834   1.253   7.044  0.0102 -0.0159 -0.2685
16848SOL    HW162198   8.824   1.202   7.129 -0.0325  0.6595  0.1377
16848SOL    HW262199   8.744   1.281   7.010  0.0420 -0.0607 -0.3935
16849SOL     OW62200   2.356   8.548   1.162  0.4780  0.2258 -0.0090
16849SOL    HW162201   2.293   8.613   1.204 -0.4197 -1.0824  0.7321
16849SOL    HW262202   2.314   8.509   1.080  1.1671  0.8492 -0.6673
16850SOL     OW62203   8.206   1.939   2.287 -0.2914 -0.3405  0.2684
16850SOL    HW162204   8.150   2.021   2.278 -0.8394 -0.7778 -0.4028
16850SOL    HW262205   8.173   1.869   2.223 -0.9563 -1.7144  2.0706
16851SOL     OW62206   2.684   7.813   5.121  0.1210 -0.5973 -0.3993
16851SOL    HW162207   2.744   7.891   5.104 -0.5547 -0.1720 -0.8883
16851SOL    HW262208   2.594   7.832   5.082 -0.9075 -0.4321  2.0037
16852SOL     OW62209   5.645   0.011   6.622 -0.0782  0.3242  0.5056
16852SOL    HW162210   5.678  -0.082   6.603  0.0370  0.5381 -0.3704
16852SOL    HW262211   5.612   0.053   6.537 -0.2843  1.0234  0.9257
16853SOL     OW62212   8.470   2.455   6.578 -0.3897 -0.3830  0.1433
16853SOL    HW162213   8.393   2.394   6.560 -0.8810 -0.2041  1.6038
16853SOL    HW262214   8.492   2.505   6.494 -2.9183  0.7622  0.1054
16854SOL     OW62215   3.302   7.513   7.777  0.2038  0.2219  0.0726
16854SOL    HW162216   3.310   7.414   7.788 -2.8335  0.1956  2.7944
16854SOL    HW262217   3.376   7.559   7.826  0.5086 -0.6632  0.4370
16855SOL     OW62218   7.125   3.325   1.208 -0.7747  0.1770 -0.3063
16855SOL    HW162219   7.057   3.294   1.142 -0.0694 -0.8024 -0.5824
16855SOL    HW262220   7.127   3.425   1.210 -3.4325  0.2539  0.9421
16856SOL     OW62221   8.143   2.046   6.967  0.0699  0.8044 -0.2769
16856SOL    HW162222   8.064   2.069   7.023  0.2048  0.0705  0.2179
16856SOL    HW262223   8.217   2.013   7.026  0.8625  1.8004 -0.7014
16857SOL     OW62224   6.657   2.513   6.056  0.5803 -1.0759  0.1701
16857SOL    HW162225   6.653   2.561   5.968  2.3445  1.0471  1.2213
16857SOL    HW262226   6.604   2.564   6.124  2.1534 -0.7973  1.2065
16858SOL     OW62227   9.707   1.372   1.105 -0.2292 -0.3591 -1.0239
16858SOL    HW162228   9.704   1.462   1.062 -0.5826  0.9176  1.5673
16858SOL    HW262229   9.621   1.355   1.153  1.2101 -0.4997  1.5573
16859SOL     OW62230   7.744   0.041   7.378  0.2368  0.1494 -0.3468
16859SOL    HW162231   7.814  -0.023   7.413 -0.0326 -0.0688 -0.2057
16859SOL    HW262232   7.672  -0.011   7.331 -0.4700  0.2685  0.5976
16860SOL     OW62233   9.655   2.947   7.496  0.1764  0.1385  0.5205
16860SOL    HW162234   9.564   2.911   7.519  0.0770 -0.5518 -0.9044
16860SOL    HW262235   9.704   2.969   7.580 -1.2657  0.4067  1.3128
16861SOL     OW62236   6.443   1.374   3.000  0.1967 -0.4009 -0.2992
16861SOL    HW162237   6.437   1.462   2.954 -1.0409 -0.7045 -0.7299
16861SOL    HW262238   6.501   1.382   3.081 -2.7363  1.6651  1.6783
16862SOL     OW62239   3.227   7.793   5.976 -0.1084  0.6621 -0.2426
16862SOL    HW162240   3.249   7.742   6.059 -1.0651  1.4758  0.5064
16862SOL    HW262241   3.206   7.728   5.902  2.8720 -0.1165 -0.4736
16863SOL     OW62242   3.918   7.763   1.656  0.2356 -0.2291  0.4485
16863SOL    HW162243   3.963   7.845   1.693 -3.2262  1.4859  1.0674
16863SOL    HW262244   3.847   7.790   1.592 -0.5991 -2.8137  0.2211
16864SOL     OW62245   3.391   7.240   1.046  0.0816  0.0872 -0.0042
16864SOL    HW162246   3.335   7.313   1.006 -1.5680 -0.8668  0.5038
16864SOL    HW262247   3.423   7.178   0.975 -1.0281 -0.3779 -0.1052
16865SOL     OW62248   8.792   5.284   4.648 -0.0286  0.0954  0.2866
16865SOL    HW162249   8.853   5.224   4.597 -2.8903 -2.0963 -0.6590
16865SOL    HW262250   8.806   5.379   4.619 -1.6689 -1.0782 -4.7356
16866SOL     OW62251   1.533   9.852   4.466  0.4307 -0.1814  0.0178
16866SOL    HW162252   1.576   9.769   4.430 -2.2206 -0.8769 -1.6463
16866SOL    HW262253   1.604   9.913   4.502  2.7347 -1.5317 -2.0969
16867SOL     OW62254   4.113   9.530   7.066 -0.6371  0.2137 -0.1592
16867SOL    HW162255   4.147   9.450   7.016 -1.8236 -0.2028 -0.3142
16867SOL    HW262256   4.071   9.500   7.151  0.7260  0.8618  0.7589
16868SOL     OW62257   1.669   0.602   6.547  0.3929  0.7066  0.1203
16868SOL    HW162258   1.635   0.694   6.566 -2.8457 -0.4339  0.2114
16868SOL    HW262259   1.668   0.549   6.632 -0.3474 -0.2026 -0.4577
16869SOL     OW62260   1.611   9.499   2.563  0.5052 -0.2029 -0.5219
16869SOL    HW162261   1.518   9.463   2.573  1.4793 -2.5727  0.4431
16869SOL    HW262262   1.668   9.431   2.517  2.3269  0.2357  1.0055
16870SOL     OW62263   0.605   0.509   2.118 -0.6356  0.5954 -0.0275
16870SOL    HW162264   0.635   0.472   2.206 -1.4013  1.3681  0.5644
16870SOL    HW262265   0.591   0.607   2.126  0.5945  0.8874 -1.3820
16871SOL     OW62266   2.898   6.435   7.339  0.0978 -0.1387  0.3399
16871SOL    HW162267   2.807   6.403   7.364  0.5603 -0.4891  1.6700
16871SOL    HW262268   2.925   6.397   7.251 -1.2504  0.3946 -0.2987
16872SOL     OW62269   4.678   7.570   6.534  0.4005 -0.2595 -0.0108
16872SOL    HW162270   4.618   7.572   6.614  1.5788  1.7870  0.8483
16872SOL    HW262271   4.748   7.500   6.547 -0.9367 -1.7119 -0.4198
16873SOL     OW62272   8.381   2.511   0.848  0.4055 -0.4666 -0.2292
16873SOL    HW162273   8.419   2.568   0.776  1.2400 -1.2102 -0.3799
16873SOL    HW262274   8.399   2.553   0.937  0.0754  0.0457 -0.4028
16874SOL     OW62275   1.417   9.499   1.408  0.5611 -0.1355 -0.3764
16874SOL    HW162276   1.402   9.401   1.424 -0.5373  0.0396 -0.2957
16874SOL    HW262277   1.349   9.551   1.459 -1.8976  0.5072 -4.1188
16875SOL     OW62278   8.219   7.559   3.077  0.0993 -0.3216 -0.0753
16875SOL    HW162279   8.183   7.540   3.168 -0.4499 -0.3933 -0.3043
16875SOL    HW262280   8.287   7.490   3.053 -0.4256 -0.8474 -0.0845
16876SOL     OW62281   8.280   0.105   6.261  0.3063  0.0379 -0.3665
16876SOL    HW162282   8.303   0.159   6.180  2.0256  0.7716  0.5736
16876SOL    HW262283   8.227   0.025   6.235 -0.9352  1.3498 -1.9772
16877SOL     OW62284   2.681   7.080   0.819  0.4728 -0.1777 -0.2573
16877SOL    HW162285   2.684   7.028   0.733  0.8067  0.2239 -0.4937
16877SOL    HW262286   2.590   7.074   0.859  0.1257  0.1983 -0.9911
16878SOL     OW62287   8.947   0.693   0.962  0.1745 -0.4290  0.2595
16878SOL    HW162288   8.998   0.617   1.002  0.7878 -1.0232 -1.5640
16878SOL    HW262289   8.945   0.682   0.862 -0.5771  1.4250  0.0528
16879SOL     OW62290   3.061   2.496   0.352 -0.2446 -0.0359 -0.2250
16879SOL    HW162291   3.025   2.421   0.409 -1.3863  0.2141 -0.5920
16879SOL    HW262292   3.160   2.494   0.353 -0.2624 -1.1784  0.2781
16880SOL     OW62293   2.963   7.855   4.480  0.4356  0.2032 -0.5301
16880SOL    HW162294   3.043   7.885   4.428  1.4239 -0.7473  0.4204
16880SOL    HW262295   2.909   7.792   4.425  0.0056  1.3264 -1.4036
16881SOL     OW62296   1.150   8.373   2.075  0.2538 -0.1595 -0.3384
16881SOL    HW162297   1.063   8.419   2.057  0.3642 -0.5811 -2.0065
16881SOL    HW262298   1.134   8.275   2.089  0.5843 -0.4980 -2.1183
16882SOL     OW62299   3.830   8.183   7.030  1.2717 -0.8386 -0.0889
16882SOL    HW162300   3.884   8.243   7.088  1.4592  0.4617 -1.5881
16882SOL    HW262301   3.752   8.233   6.993  1.6470 -1.3800 -1.6615
16883SOL     OW62302   3.567   0.006   4.334 -0.4363 -0.1229 -0.0478
16883SOL    HW162303   3.565  -0.076   4.277  0.0226 -0.7412  0.8234
16883SOL    HW262304   3.483   0.010   4.388 -0.6368  0.1998 -0.3710
16884SOL     OW62305   3.227   3.854   4.679  0.1838 -0.2933  0.0073
16884SOL    HW162306   3.274   3.828   4.762  1.3000 -0.2034 -0.5902
16884SOL    HW262307   3.278   3.927   4.632 -1.2959  0.8480  0.0972
16885SOL     OW62308   9.629   7.415   0.719 -0.3698 -0.2667  0.5844
16885SOL    HW162309   9.563   7.384   0.651 -0.9333  1.4855  0.2898
16885SOL    HW262310   9.585   7.419   0.809 -0.2399 -0.5337  0.6592
16886SOL     OW62311   0.762   3.924   4.867 -0.6848 -0.0402 -0.2076
16886SOL    HW162312   0.788   3.908   4.771 -0.4670  0.4615 -0.2296
16886SOL    HW262313   0.767   3.837   4.917  1.3135  0.0888 -0.1428
16887SOL     OW62314   3.339   6.640   5.907  0.8939  0.2841  0.4237
16887SOL    HW162315   3.368   6.616   5.815  0.8221  0.6452  0.3049
16887SOL    HW262316   3.376   6.730   5.931 -0.5723  0.9881  0.0691
16888SOL     OW62317   9.227   3.324   0.852 -0.3648  0.1033  0.1777
16888SOL    HW162318   9.293   3.255   0.823 -0.8046 -0.1455 -0.2363
16888SOL    HW262319   9.225   3.399   0.787 -1.3340 -0.4443 -0.4321
16889SOL     OW62320   3.973   8.440   4.843 -0.0942 -0.0199 -0.0572
16889SOL    HW162321   4.039   8.444   4.917 -0.5143 -0.5139  0.3475
16889SOL    HW262322   3.895   8.383   4.870  0.7234 -1.9614 -1.6124
16890SOL     OW62323   7.900   4.226   7.714  0.2028  0.9513 -0.0311
16890SOL    HW162324   7.843   4.155   7.755  1.0289  1.4872  2.1005
16890SOL    HW262325   7.887   4.226   7.615  0.2576 -2.2439 -0.1008
16891SOL     OW62326   6.889   9.456   4.597 -0.1425  0.0767 -0.0878
16891SOL    HW162327   6.941   9.370   4.595 -1.9739 -1.0660  0.4177
16891SOL    HW262328   6.926   9.518   4.528  0.1121 -1.7717 -1.6721
16892SOL     OW62329   2.881   0.721   4.877 -0.2132 -0.4996  0.5144
16892SOL    HW162330   2.817   0.798   4.883 -0.6767 -0.8525  0.1314
16892SOL    HW262331   2.968   0.746   4.920  0.0676  0.6810 -0.6796
16893SOL     OW62332   0.482   3.792   3.218 -0.1336  0.5218  0.0673
16893SOL    HW162333   0.572   3.835   3.224  0.3458 -0.6604  1.4242
16893SOL    HW262334   0.485   3.720   3.149  0.3473 -0.4209  1.0572
16894SOL     OW62335   4.605   6.009   3.369  0.0960  0.2736  0.5656
16894SOL    HW162336   4.649   5.984   3.283  2.0697  1.7838  1.0948
16894SOL    HW262337   4.607   6.108   3.381  0.9276  0.0271  2.8652
16895SOL     OW62338   9.924   1.269   7.945  0.6167 -0.1138  0.1019
16895SOL    HW162339   9.882   1.198   7.888  2.7102 -1.3758  0.0709
16895SOL    HW262340   9.940   1.351   7.889 -2.3754  0.6569  0.2885
16896SOL     OW62341   2.850   6.287   2.105 -0.0413 -0.4539  0.2251
16896SOL    HW162342   2.907   6.217   2.062  0.7616  0.2728  0.1035
16896SOL    HW262343   2.756   6.252   2.114  0.3519 -1.5399  0.1726
16897SOL     OW62344   0.792   0.613   5.621 -0.5705 -0.1056 -0.1768
16897SOL    HW162345   0.702   0.634   5.584 -2.3255 -2.7307  2.3530
16897SOL    HW262346   0.810   0.515   5.612  1.9685  0.3546 -0.4645
16898SOL     OW62347   4.990   0.290   7.961  0.2219 -0.5628 -0.0210
16898SOL    HW162348   4.944   0.243   8.036 -1.3265  2.3124  0.9118
16898SOL    HW262349   4.957   0.253   7.874 -0.3389 -1.7458  0.6827
16899SOL     OW62350   7.746   0.985   5.867  0.5368  0.3380  0.1776
16899SOL    HW162351   7.662   0.932   5.881  0.4782  0.5060  0.4607
16899SOL    HW262352   7.825   0.923   5.868  0.4083  0.1625 -0.2163
16900SOL     OW62353   4.081   9.112   0.546 -0.2384  0.6428  0.4314
16900SOL    HW162354   4.016   9.185   0.525  0.5775  1.5154  0.8732
16900SOL    HW262355   4.063   9.075   0.637 -0.3059  0.6754  0.4308
16901SOL     OW62356   6.751   3.191   1.787 -0.2325 -0.4070  0.2564
16901SOL    HW162357   6.850   3.186   1.797 -0.1925 -0.4274 -0.1313
16901SOL    HW262358   6.711   3.234   1.868  0.3093  1.7027 -0.5776
16902SOL     OW62359   0.860   6.243   6.354 -0.3670  0.5715  0.1126
16902SOL    HW162360   0.851   6.279   6.261 -2.5308  1.4996  0.6506
16902SOL    HW262361   0.823   6.150   6.357  1.5621 -0.2475 -0.3735
16903SOL     OW62362   3.732   3.505   4.091  0.6842 -0.7977 -0.0865
16903SOL    HW162363   3.718   3.603   4.076 -1.0123 -0.9901  0.1669
16903SOL    HW262364   3.826   3.489   4.121  0.5361  0.9254  1.3593
16904SOL     OW62365   0.525   3.798   7.825  0.3345 -0.1849 -0.2599
16904SOL    HW162366   0.505   3.702   7.848  1.3228 -0.5320 -0.8094
16904SOL    HW262367   0.589   3.801   7.748  3.5705  0.8489  2.3378
16905SOL     OW62368   3.915   7.999   1.350 -0.3539  0.0388 -0.9718
16905SOL    HW162369   3.881   7.975   1.259 -0.0100 -0.1649 -1.0511
16905SOL    HW262370   3.839   8.026   1.409 -0.7042 -0.8346 -1.0141
16906SOL     OW62371   3.792   5.521   0.358 -0.2862  0.2478  0.0291
16906SOL    HW162372   3.733   5.450   0.321 -0.7478 -0.7206  2.5610
16906SOL    HW262373   3.885   5.486   0.368 -0.5952 -0.1601  1.6376
16907SOL     OW62374   4.195   2.490   1.373 -0.1919  0.4908  0.1904
16907SOL    HW162375   4.188   2.513   1.470  2.7923  0.1719  0.5331
16907SOL    HW262376   4.237   2.400   1.363  0.5804  0.9948 -1.4013
16908SOL     OW62377   9.229   0.193   6.005  0.4122  0.3622 -0.4528
16908SOL    HW162378   9.228   0.272   6.065  1.2863  0.1522 -0.1527
16908SOL    HW262379   9.296   0.126   6.038 -0.3142 -0.5037 -0.6957
16909SOL     OW62380   0.248   5.584   1.236  0.0771 -0.1525  1.1939
16909SOL    HW162381   0.181   5.513   1.216  0.9714 -0.7887  0.3856
16909SOL    HW262382   0.231   5.664   1.179  0.8729 -0.8659 -0.0621
16910SOL     OW62383   6.092   5.904   0.464  0.0441  0.0149 -0.9043
16910SOL    HW162384   6.012   5.846   0.482 -0.5551  0.8864 -0.6890
16910SOL    HW262385   6.141   5.921   0.550 -0.4394  0.7536 -0.7626
16911SOL     OW62386   5.247   1.108   5.323 -0.4933  0.7064  0.8366
16911SOL    HW162387   5.169   1.046   5.316 -1.1792  1.5659  0.8150
16911SOL    HW262388   5.282   1.108   5.417 -0.4271  0.2244  0.8155
16912SOL     OW62389   9.298   5.454   7.037 -0.1983  0.4739  0.4978
16912SOL    HW162390   9.313   5.376   6.976  1.7482  0.4865  0.9125
16912SOL    HW262391   9.219   5.506   7.006 -0.7461 -0.9481 -0.5336
16913SOL     OW62392   1.524   9.416   6.578 -0.5261 -0.3892 -0.2129
16913SOL    HW162393   1.518   9.509   6.614  2.0066  0.3433 -1.5325
16913SOL    HW262394   1.504   9.416   6.480  1.1540 -0.9142 -0.5865
16914SOL     OW62395   2.874   3.274   7.926  0.0654 -0.1059  0.1954
16914SOL    HW162396   2.896   3.260   7.830 -1.3019  0.0967 -0.1693
16914SOL    HW262397   2.801   3.211   7.953  0.6616 -0.3778  1.1882
16915SOL     OW62398   6.289   2.654   4.579  0.6578 -0.8102  0.1430
16915SOL    HW162399   6.254   2.740   4.615 -0.0833 -0.3356 -1.6853
16915SOL    HW262400   6.261   2.579   4.639 -0.8342 -0.0753  0.3828
16916SOL     OW62401   4.009   4.472   0.203  0.0909  0.9095  0.0004
16916SOL    HW162402   4.089   4.414   0.187 -0.7471  0.1306 -1.5618
16916SOL    HW262403   4.031   4.567   0.181  0.3215  0.5543 -1.3704
16917SOL     OW62404   1.082   6.357   7.937  0.0933  0.0757 -0.1423
16917SOL    HW162405   1.071   6.268   7.981 -0.8383  0.5413  0.5954
16917SOL    HW262406   1.177   6.386   7.944  0.6482 -1.3583 -1.3806
16918SOL     OW62407   8.315   9.900   1.159  0.0876  0.3779 -0.1928
16918SOL    HW162408   8.340   9.963   1.233 -2.4949  2.2356 -0.8409
16918SOL    HW262409   8.397   9.853   1.127  1.5435  0.8886  2.6072
16919SOL     OW62410   3.188   8.919   8.073  0.1628  0.1554  0.2356
16919SOL    HW162411   3.209   8.948   8.167  1.5248  0.3887 -0.1288
16919SOL    HW262412   3.089   8.917   8.060 -0.0092  1.7306  1.1849
16920SOL     OW62413   2.801   4.751   4.805 -0.6513 -0.1165 -0.1607
16920SOL    HW162414   2.742   4.695   4.747  1.1224 -2.5846  0.2918
16920SOL    HW262415   2.841   4.693   4.876  1.7405  1.6406 -0.0148
16921SOL     OW62416   5.817   8.829   5.240  0.0646 -0.2921 -0.2847
16921SOL    HW162417   5.788   8.887   5.164  1.0082  3.1636  1.9113
16921SOL    HW262418   5.916   8.815   5.235 -0.0883 -1.3476 -0.5139
16922SOL     OW62419   6.930   3.425   1.009 -0.0484  0.1795  0.5308
16922SOL    HW162420   6.957   3.341   0.961  0.8940  0.2383  0.9633
16922SOL    HW262421   6.982   3.502   0.973  1.0378  0.1468  1.9918
16923SOL     OW62422   9.863   9.731   3.810  0.3487 -0.2184  0.0224
16923SOL    HW162423   9.786   9.692   3.760  0.6178 -1.0713  0.2720
16923SOL    HW262424   9.839   9.824   3.840 -0.2040 -0.0999 -0.7679
16924SOL     OW62425   4.110   6.164   2.100 -0.4901  0.0758 -0.2835
16924SOL    HW162426   4.170   6.173   2.021  0.9102 -0.1378  0.7500
16924SOL    HW262427   4.153   6.204   2.180 -0.4911 -2.5218  1.0928
16925SOL     OW62428   4.779   8.949   2.842 -0.0397  0.5440  0.3937
16925SOL    HW162429   4.861   8.965   2.895  0.3531 -0.5549  0.1347
16925SOL    HW262430   4.783   9.001   2.757 -0.3701  1.7818  1.1245
16926SOL     OW62431   9.162   1.517   7.934 -0.6552 -0.5271  0.2448
16926SOL    HW162432   9.196   1.440   7.988 -1.5216 -1.3885 -0.4224
16926SOL    HW262433   9.083   1.488   7.880 -1.4344  1.0131  0.5057
16927SOL     OW62434   1.521   7.278   5.846 -1.3993  0.2901  0.1696
16927SOL    HW162435   1.445   7.277   5.781 -1.7369 -2.3871  0.5466
16927SOL    HW262436   1.597   7.225   5.810 -0.5317  1.0939  0.7717
16928SOL     OW62437   3.217   7.911   4.965 -0.0454 -0.1986 -0.0778
16928SOL    HW162438   3.293   7.977   4.966  0.2334 -0.5232  0.6034
16928SOL    HW262439   3.243   7.832   4.910  0.5062 -0.7600  0.9734
16929SOL     OW62440   1.821   8.356   1.345  0.7385  0.7656 -0.2397
16929SOL    HW162441   1.815   8.425   1.417 -2.5610  2.0172 -1.6209
16929SOL    HW262442   1.899   8.377   1.285  1.4307  1.6599  0.9369
16930SOL     OW62443   8.335   0.191   5.996  0.0467 -0.0923 -0.2928
16930SOL    HW162444   8.314   0.229   5.906 -0.2806  0.9392  0.2174
16930SOL    HW262445   8.337   0.091   5.990  3.4065  0.0254 -2.2134
16931SOL     OW62446   1.494   7.186   0.015  0.1604 -0.6792 -0.6880
16931SOL    HW162447   1.520   7.090   0.020  0.9829 -0.4463 -0.3605
16931SOL    HW262448   1.564   7.242   0.061 -0.7842 -0.0111 -0.0497
16932SOL     OW62449   1.147   0.731   3.166  0.7636 -0.3028 -0.0368
16932SOL    HW162450   1.142   0.640   3.125 -0.1759 -0.8961  1.3563
16932SOL    HW262451   1.094   0.732   3.251  2.2424  1.0384  0.8895
16933SOL     OW62452   8.326   4.654   0.285  0.2691  0.9114 -0.1427
16933SOL    HW162453   8.280   4.676   0.372  0.2965  1.4037 -0.2501
16933SOL    HW262454   8.416   4.698   0.283  1.1745 -0.8858  0.4955
16934SOL     OW62455   0.299   9.085   5.561 -0.5671 -0.0203  0.2439
16934SOL    HW162456   0.357   9.012   5.596  0.6561  0.1260 -1.4131
16934SOL    HW262457   0.203   9.057   5.569 -0.0904 -2.4048 -1.5260
16935SOL     OW62458   9.386   8.466   1.602  0.1379  0.0852  0.3935
16935SOL    HW162459   9.330   8.471   1.519  1.4751 -0.5000 -0.5441
16935SOL    HW262460   9.460   8.401   1.589  0.1004 -0.3521  2.2129
16936SOL     OW62461   7.717   3.301   4.151  0.1564 -0.2055 -0.2197
16936SOL    HW162462   7.644   3.340   4.207 -0.9039  0.0965 -1.7758
16936SOL    HW262463   7.753   3.370   4.088  0.0588 -1.0181 -1.1876
16937SOL     OW62464   5.856   1.116   4.921 -0.0010 -0.2929  0.0565
16937SOL    HW162465   5.787   1.124   4.994  1.0740  3.3753  0.7836
16937SOL    HW262466   5.817   1.149   4.835  0.8426  2.0662  0.5295
16938SOL     OW62467   1.583   8.258   4.571 -0.3443 -0.0567 -0.1498
16938SOL    HW162468   1.657   8.286   4.631  1.0154 -0.0197 -1.8040
16938SOL    HW262469   1.544   8.172   4.604  0.1930  0.1199  0.9487
16939SOL     OW62470   2.854   8.797   0.942  0.0859  0.3346  0.1828
16939SOL    HW162471   2.940   8.818   0.990  1.0134  1.1340 -1.7839
16939SOL    HW262472   2.844   8.698   0.934  1.8315  0.2476 -1.3132
16940SOL     OW62473   9.506   9.636   0.029  0.8815 -0.6963  0.4042
16940SOL    HW162474   9.434   9.670  -0.032  0.4133  0.0647  1.3662
16940SOL    HW262475   9.553   9.559  -0.015  0.9072  0.1797 -1.1334
16941SOL     OW62476   3.658   4.005   2.742 -0.2214 -0.1473 -0.0732
16941SOL    HW162477   3.692   3.973   2.654  0.1215  1.7111 -0.6265
16941SOL    HW262478   3.681   4.101   2.755  1.3784 -0.8552  2.8773
16942SOL     OW62479   7.916   8.738   2.478  0.0653 -0.2098  0.6167
16942SOL    HW162480   7.868   8.729   2.391  0.1648 -0.5970  0.6037
16942SOL    HW262481   7.881   8.818   2.527  1.0648  0.9190 -0.4571
16943SOL     OW62482   7.605   8.894   3.854  0.0832  0.1034  0.2653
16943SOL    HW162483   7.703   8.901   3.839  0.2571 -1.2409  0.6455
16943SOL    HW262484   7.588   8.835   3.933 -1.0503 -0.3699 -0.3207
16944SOL     OW62485   0.168   5.887   2.838 -0.1078  0.0907 -0.2515
16944SOL    HW162486   0.208   5.847   2.756  0.2054 -0.4170  0.1439
16944SOL    HW262487   0.073   5.857   2.847 -0.1289  0.1123 -0.4030
16945SOL     OW62488   8.731   1.079   5.802 -0.2536 -0.6332  0.0825
16945SOL    HW162489   8.821   1.050   5.834  0.4603  2.0819  0.6880
16945SOL    HW262490   8.727   1.179   5.800 -1.9604 -0.6785 -3.5550
16946SOL     OW62491   9.683   6.169   5.181 -0.5296  0.1177  0.0728
16946SOL    HW162492   9.614   6.212   5.123 -2.1842 -1.2039  1.0272
16946SOL    HW262493   9.686   6.217   5.269  1.5527  1.7362 -0.8096
16947SOL     OW62494   2.942   4.157   0.006 -0.4788  0.0692 -0.6735
16947SOL    HW162495   2.989   4.109  -0.068  0.2008  0.6132 -0.6051
16947SOL    HW262496   2.993   4.145   0.091  0.1417  1.5455 -0.8093
16948SOL     OW62497   9.115   6.558   0.908 -0.4704  0.1002  0.1028
16948SOL    HW162498   9.211   6.587   0.917 -1.2790  2.3576  1.9367
16948SOL    HW262499   9.094   6.546   0.811  0.8343  2.6429 -0.5439
16949SOL     OW62500   5.560   4.552   0.715 -0.2306  0.2333 -0.0851
16949SOL    HW162501   5.539   4.532   0.619 -1.1190  0.4213  0.0677
16949SOL    HW262502   5.659   4.547   0.729 -0.0664  0.5613 -1.0938
16950SOL     OW62503   0.299   2.881   5.676  0.2091  0.9578  0.1992
16950SOL    HW162504   0.302   2.922   5.585 -1.4271  0.1997 -0.2133
16950SOL    HW262505   0.356   2.798   5.676 -0.4979  0.4618 -0.4016
16951SOL     OW62506   8.293   7.257   3.558 -0.0857 -0.8156  0.4964
16951SOL    HW162507   8.249   7.346   3.570 -0.2394 -0.6789 -1.0000
16951SOL    HW262508   8.252   7.191   3.621 -1.9364 -0.4980 -0.3299
16952SOL     OW62509   5.954   9.062   5.666  0.1754 -0.4667 -0.3565
16952SOL    HW162510   5.959   8.970   5.626 -1.0109  0.5431 -2.9625
16952SOL    HW262511   5.963   9.130   5.593  1.7915  1.5189  1.6363
16953SOL     OW62512   1.323   0.318   6.532  0.7267 -0.0653 -0.0235
16953SOL    HW162513   1.417   0.306   6.563  0.6317 -1.6143 -0.2632
16953SOL    HW262514   1.302   0.415   6.524  1.5430  0.3418  2.3823
16954SOL     OW62515   7.607   7.950   4.194 -0.2219 -0.0866 -0.9455
16954SOL    HW162516   7.698   7.955   4.153  0.8043 -2.2224  0.9815
16954SOL    HW262517   7.555   7.876   4.150 -0.4583  0.0581 -0.9115
16955SOL     OW62518   9.921   6.238   1.866 -0.1546  0.3811 -0.5823
16955SOL    HW162519   9.845   6.174   1.868  0.3954 -0.2197  2.3128
16955SOL    HW262520   9.887   6.330   1.849 -1.2256 -0.2577 -1.9880
16956SOL     OW62521   1.977   4.472   3.341 -0.0382  0.2423 -0.7411
16956SOL    HW162522   1.885   4.508   3.327  0.2157  1.1112 -0.2657
16956SOL    HW262523   2.032   4.488   3.259 -0.4629 -0.7859 -1.2355
16957SOL     OW62524   4.088   0.106   7.315 -0.4872 -0.0861 -0.4696
16957SOL    HW162525   4.088   0.058   7.403  1.6388  1.7386  0.5844
16957SOL    HW262526   4.162   0.070   7.258 -1.1579 -0.5065 -1.0697
16958SOL     OW62527   0.072   9.598   3.678 -0.0050  0.3054  0.6397
16958SOL    HW162528   0.142   9.636   3.739  0.2429  0.6398  0.1499
16958SOL    HW262529  -0.018   9.633   3.706 -0.0530 -0.6012  1.6438
16959SOL     OW62530   2.886   6.797   0.797  0.5194  0.2503 -0.2915
16959SOL    HW162531   2.897   6.701   0.822 -1.6754  0.4754  1.7897
16959SOL    HW262532   2.795   6.810   0.758  0.4503  1.6498  0.3149
16960SOL     OW62533   0.220   5.770   1.464 -0.6265  0.4370 -0.2788
16960SOL    HW162534   0.221   5.692   1.402 -1.3379  0.9540 -0.9433
16960SOL    HW262535   0.157   5.751   1.540  0.9806 -0.6016  0.8420
16961SOL     OW62536   3.945   3.369   1.721  0.3835 -0.3280  0.2366
16961SOL    HW162537   3.983   3.449   1.769 -0.5027 -0.5329  1.2954
16961SOL    HW262538   3.894   3.399   1.641 -0.7683  0.2610  1.1680
16962SOL     OW62539   0.545   2.155   7.713  0.0590  0.2892  0.4486
16962SOL    HW162540   0.509   2.208   7.789 -0.2080 -0.7077  1.0292
16962SOL    HW262541   0.490   2.072   7.702  0.9889 -0.2844  0.0978
16963SOL     OW62542   8.913   3.983   1.628  0.1889 -0.5041 -0.1216
16963SOL    HW162543   8.997   4.029   1.654 -0.4052  0.0576  0.7898
16963SOL    HW262544   8.920   3.885   1.651  0.4058 -0.3693  0.3849
16964SOL     OW62545   8.405   5.809   3.668  0.5108 -0.4663  0.3868
16964SOL    HW162546   8.382   5.896   3.623 -1.9583 -0.4540  1.6298
16964SOL    HW262547   8.471   5.826   3.741  1.0686  0.1536 -0.2482
16965SOL     OW62548   2.703   0.921   2.885  0.6836  0.0955  0.2564
16965SOL    HW162549   2.706   0.880   2.976 -1.6620 -0.5536  0.0766
16965SOL    HW262550   2.689   1.020   2.893  0.8643  0.0927  0.6010
16966SOL     OW62551   3.339   3.421   4.174  0.0183  0.4976  0.3856
16966SOL    HW162552   3.345   3.337   4.121 -0.8630  0.5030  0.2677
16966SOL    HW262553   3.418   3.428   4.235  0.3527 -0.1600  0.0333
16967SOL     OW62554   4.532   5.040   2.346  0.3919 -0.2459 -0.2490
16967SOL    HW162555   4.530   5.064   2.443 -0.5550 -0.4396 -0.2150
16967SOL    HW262556   4.623   5.057   2.310  0.4123  1.0132  0.3742
16968SOL     OW62557   3.442   8.298   2.897 -0.3986 -0.1085 -0.4155
16968SOL    HW162558   3.369   8.330   2.957 -1.0764  0.2261 -1.3980
16968SOL    HW262559   3.509   8.371   2.885 -0.3022 -0.1497 -0.1112
16969SOL     OW62560   6.370   7.510   4.104  0.2326  0.4156  0.0522
16969SOL    HW162561   6.372   7.480   4.009  2.2059 -0.9882  0.5115
16969SOL    HW262562   6.283   7.485   4.146  0.1511 -0.7639 -0.8211
16970SOL     OW62563   7.306   3.735   7.504  0.6168  0.0160 -0.5231
16970SOL    HW162564   7.235   3.778   7.449  1.4654  0.5764 -1.1949
16970SOL    HW262565   7.266   3.662   7.559 -0.8792  1.8082  0.8127
16971SOL     OW62566   8.913   1.858   5.364  0.3089  0.0123 -0.1471
16971SOL    HW162567   9.002   1.865   5.318  0.3205  0.5760 -0.0405
16971SOL    HW262568   8.860   1.784   5.322  0.5250  0.1797 -0.7193
16972SOL     OW62569   3.689   8.167   4.726  0.5952 -0.0538 -0.6202
16972SOL    HW162570   3.781   8.141   4.700  0.7599 -1.6687  1.4963
16972SOL    HW262571   3.626   8.091   4.708 -0.0815  0.5017 -0.6359
16973SOL     OW62572   8.678   5.980   6.700 -1.1945 -0.1774  0.0884
16973SOL    HW162573   8.606   5.960   6.633 -0.3454  0.5949 -1.0684
16973SOL    HW262574   8.763   5.937   6.671 -1.5101 -2.4752  2.2881
16974SOL     OW62575   3.397   6.456   0.749  0.1255  0.0238 -0.6754
16974SOL    HW162576   3.468   6.465   0.679 -0.5339  0.7716 -1.2561
16974SOL    HW262577   3.318   6.407   0.710  0.7564 -1.8166  0.2958
16975SOL     OW62578   4.832   2.319   1.770 -0.1717  0.3915 -0.3320
16975SOL    HW162579   4.803   2.406   1.728 -0.8685  0.7990  0.9780
16975SOL    HW262580   4.875   2.338   1.858  0.9709 -0.4948 -0.6997
16976SOL     OW62581   4.189   5.629   2.502 -0.3723  0.4385  0.3606
16976SOL    HW162582   4.091   5.625   2.481  0.0581 -0.0785 -1.6426
16976SOL    HW262583   4.221   5.539   2.530  0.0498 -0.0402 -1.5542
16977SOL     OW62584   9.062   6.654   3.661 -0.4036  0.0166  0.3450
16977SOL    HW162585   9.043   6.560   3.631  0.6877 -0.5685  1.4418
16977SOL    HW262586   9.157   6.676   3.641 -0.4968  0.6791  0.6399
16978SOL     OW62587   6.619   0.278   3.504  0.6612 -0.2365 -0.0328
16978SOL    HW162588   6.605   0.253   3.600  0.2552 -0.7440 -0.2165
16978SOL    HW262589   6.535   0.262   3.453  0.8749  0.0346 -0.4745
16979SOL     OW62590   0.836   6.899   0.866 -0.7188 -0.2941  0.5736
16979SOL    HW162591   0.797   6.939   0.948 -0.1247  0.8767  0.2847
16979SOL    HW262592   0.776   6.916   0.788 -0.9336 -0.7958  0.6253
16980SOL     OW62593   8.147   4.752   7.734 -0.0522  0.1680 -0.2124
16980SOL    HW162594   8.067   4.720   7.684  0.9712  0.4777 -2.0692
16980SOL    HW262595   8.203   4.673   7.762 -1.4454 -0.1153  1.9102
16981SOL     OW62596   1.805   7.452   5.847 -0.2707 -0.1656 -0.3795
16981SOL    HW162597   1.709   7.443   5.822 -0.4081 -1.3263  0.4875
16981SOL    HW262598   1.857   7.375   5.809 -0.1309 -0.8518  1.1306
16982SOL     OW62599   1.976   8.224   3.078  0.0258  0.1520  0.2566
16982SOL    HW162600   1.990   8.238   2.980  1.7386 -1.4863  0.2333
16982SOL    HW262601   1.892   8.271   3.107 -0.7281  0.3089 -2.0607
16983SOL     OW62602   7.464   0.621   0.370  0.0054  0.2380 -0.1556
16983SOL    HW162603   7.474   0.692   0.440  0.3819  0.6815 -0.6492
16983SOL    HW262604   7.526   0.641   0.294 -0.5436 -0.1239 -0.7051
16984SOL     OW62605   7.703   6.829   1.389 -0.3769  0.3068 -0.3056
16984SOL    HW162606   7.657   6.889   1.454 -1.9101 -0.2682 -0.8365
16984SOL    HW262607   7.644   6.751   1.368  1.5991 -1.4436  0.4303
16985SOL     OW62608   0.575   1.845   3.575  0.0749  0.2231  0.0669
16985SOL    HW162609   0.670   1.815   3.582 -0.2229 -1.0770 -1.3489
16985SOL    HW262610   0.573   1.942   3.552  1.0412  0.4865  1.0338
16986SOL     OW62611   0.936   4.203   2.417  0.0802 -0.0772 -0.3095
16986SOL    HW162612   0.886   4.157   2.343 -0.6101 -0.7288  0.5564
16986SOL    HW262613   0.928   4.302   2.405 -1.7204 -0.1692  0.0109
16987SOL     OW62614   0.682   4.329   0.135 -0.0859 -0.4123 -0.2181
16987SOL    HW162615   0.603   4.271   0.118  0.5098 -1.6555  1.1538
16987SOL    HW262616   0.681   4.406   0.072 -1.3569 -1.4446 -1.4860
16988SOL     OW62617   7.839   0.209   5.323  0.2759  0.6421  0.1396
16988SOL    HW162618   7.758   0.265   5.304  0.0785  0.4081  0.2797
16988SOL    HW262619   7.895   0.203   5.241  1.2906  2.6398  0.6549
16989SOL     OW62620   7.745   7.573   6.752 -0.0932  0.1114  0.3401
16989SOL    HW162621   7.741   7.618   6.841 -0.1070 -2.0797  1.4707
16989SOL    HW262622   7.751   7.643   6.680  0.3507  1.8944  2.0589
16990SOL     OW62623   6.896   1.183   2.019 -0.3209 -0.8308  0.3033
16990SOL    HW162624   6.866   1.270   2.058 -0.4928 -0.6086 -0.3078
16990SOL    HW262625   6.911   1.116   2.092  2.3657  0.4735  1.0154
16991SOL     OW62626   6.081   1.036   2.240 -0.0987 -0.4200 -0.0069
16991SOL    HW162627   6.093   0.980   2.322 -1.5767  0.2593  0.6820
16991SOL    HW262628   6.020   1.113   2.260  1.1909  0.9531 -1.1803
16992SOL     OW62629   4.000   2.809   0.164 -0.0534  0.1616  0.2473
16992SOL    HW162630   3.986   2.834   0.068  0.7871 -3.5325 -0.9479
16992SOL    HW262631   4.097   2.796   0.181 -0.2080  0.6763  1.5958
16993SOL     OW62632   8.595   0.682   5.465  0.1542 -0.0862 -0.5960
16993SOL    HW162633   8.650   0.624   5.405 -1.9625 -0.0992 -2.5792
16993SOL    HW262634   8.533   0.625   5.518  0.3179  0.1169 -0.1858
16994SOL     OW62635   2.169   6.209   4.148  0.2260  0.4273  0.2216
16994SOL    HW162636   2.153   6.308   4.144  0.7925  0.4797 -0.9956
16994SOL    HW262637   2.237   6.190   4.219  1.0636  1.0455 -0.3997
16995SOL     OW62638   3.905   7.968   3.621  0.3337 -0.0219  0.1053
16995SOL    HW162639   3.948   7.885   3.657 -3.2761 -2.1074 -0.1283
16995SOL    HW262640   3.878   7.952   3.526 -1.2017  1.0657  0.3460
16996SOL     OW62641   4.520   7.809   2.898 -0.2236  0.0907  0.3558
16996SOL    HW162642   4.460   7.831   2.820  0.1302 -0.5051 -0.0937
16996SOL    HW262643   4.601   7.867   2.895 -0.0560 -0.1506  0.0858
16997SOL     OW62644   1.390   4.923   0.849  0.2681 -0.1552  0.5680
16997SOL    HW162645   1.399   4.883   0.758  0.1045  0.3431  0.3304
16997SOL    HW262646   1.297   4.958   0.861  0.4693  0.3426  0.6933
16998SOL     OW62647   2.049   1.832   2.599 -0.1721 -0.0428  0.5683
16998SOL    HW162648   2.063   1.762   2.529 -2.1820  0.1015 -0.0120
16998SOL    HW262649   1.989   1.903   2.563 -0.9226  0.2309  2.3129
16999SOL     OW62650   2.952   1.749   4.050 -0.6494  0.1226 -0.0680
16999SOL    HW162651   3.020   1.744   3.977 -0.9704  0.4500 -0.3973
16999SOL    HW262652   2.939   1.659   4.091 -0.3333 -0.0248 -0.2962
17000SOL     OW62653   3.960   5.605   2.060  0.0413  0.4779 -0.2090
17000SOL    HW162654   3.895   5.663   2.108  0.3990 -0.0371  0.9349
17000SOL    HW262655   3.974   5.638   1.967 -0.5661  1.5791  0.0932
17001SOL     OW62656   3.874   6.487   3.716 -0.0570  0.5477  0.1691
17001SOL    HW162657   3.776   6.475   3.730  0.4501 -2.4716  1.6822
17001SOL    HW262658   3.903   6.574   3.754 -1.5953 -0.0664  2.8847
17002SOL     OW62659   0.159   0.526   5.875 -0.0951  1.1933  0.4481
17002SOL    HW162660   0.123   0.509   5.967 -1.6369  0.9020 -0.1924
17002SOL    HW262661   0.163   0.625   5.859 -1.9125  1.2254  0.0507
17003SOL     OW62662   1.008   5.626   2.849 -0.6182  0.1211  0.2985
17003SOL    HW162663   0.993   5.558   2.778 -0.7825  1.3797 -0.9060
17003SOL    HW262664   1.106   5.647   2.854 -0.2500 -1.8933  2.2967
17004SOL     OW62665   8.379   6.466   8.172  0.1366 -0.7334 -0.2619
17004SOL    HW162666   8.405   6.407   8.095 -1.3040 -0.3844 -1.0328
17004SOL    HW262667   8.383   6.561   8.143 -3.7082 -0.7179 -0.9898
17005SOL     OW62668   1.169   6.336   2.739 -0.0194 -0.3242  0.0370
17005SOL    HW162669   1.265   6.331   2.711  0.0030 -1.9106  0.3650
17005SOL    HW262670   1.161   6.396   2.819  0.8490 -0.9040  0.5801
17006SOL     OW62671   3.178   0.708   0.408  0.3298 -0.0534 -0.1510
17006SOL    HW162672   3.158   0.725   0.311 -0.2591 -0.9358 -0.1917
17006SOL    HW262673   3.275   0.723   0.425  0.4680 -0.0490 -0.9171
17007SOL     OW62674   5.459   9.487   6.878 -0.2103  0.2954  0.4897
17007SOL    HW162675   5.407   9.455   6.799 -0.2195 -0.1229  0.6639
17007SOL    HW262676   5.478   9.584   6.868  0.1914  0.1415 -0.2532
17008SOL     OW62677   3.609   1.804   2.591  0.5331  0.2182  0.4616
17008SOL    HW162678   3.637   1.713   2.561  1.5281  0.7811 -0.3556
17008SOL    HW262679   3.677   1.841   2.654  0.4088  0.6166  0.3646
17009SOL     OW62680   1.168   0.396   0.202 -0.4368  0.0464 -0.2530
17009SOL    HW162681   1.102   0.330   0.238  0.0014 -0.4509 -0.3622
17009SOL    HW262682   1.126   0.448   0.128 -0.9584  0.2592  0.1903
17010SOL     OW62683   7.497   2.208   4.279  0.3382 -0.2211  0.1403
17010SOL    HW162684   7.409   2.191   4.233  0.2808 -0.3275  0.2893
17010SOL    HW262685   7.481   2.263   4.360  0.3456 -0.6569  0.4407
17011SOL     OW62686   9.507   3.046   7.205 -0.6813 -0.2676 -0.0229
17011SOL    HW162687   9.433   3.039   7.271 -2.0241  1.3010 -1.3181
17011SOL    HW262688   9.525   3.142   7.184  0.4323 -0.6921 -1.1472
17012SOL     OW62689   4.488   8.224   7.105 -0.0158 -0.5892 -0.2490
17012SOL    HW162690   4.399   8.186   7.080  0.1755 -0.0945 -1.6905
17012SOL    HW262691   4.474   8.304   7.163 -0.5713  0.5945 -1.9967
17013SOL     OW62692   7.705   4.323   1.826  0.0381  0.2757  0.0716
17013SOL    HW162693   7.704   4.418   1.859  2.7758  1.3298 -2.5801
17013SOL    HW262694   7.778   4.272   1.870 -1.4651 -0.6602  1.5313
17014SOL     OW62695   9.338   4.841   3.925  0.3461  1.3840  0.9511
17014SOL    HW162696   9.316   4.785   4.005 -0.5392  1.3596  0.6876
17014SOL    HW262697   9.435   4.867   3.930  1.0071 -0.8515  0.6651
17015SOL     OW62698   7.976   0.842   5.857  0.7633  0.1166  0.7058
17015SOL    HW162699   8.006   0.864   5.765 -0.5776  1.0381  0.4856
17015SOL    HW262700   8.055   0.816   5.913  1.4933 -1.1361 -0.8810
17016SOL     OW62701   3.843   3.641   0.287 -0.1884  0.1340 -0.1174
17016SOL    HW162702   3.801   3.570   0.343 -1.1730  1.4908  0.8859
17016SOL    HW262703   3.824   3.730   0.327  0.7577  0.9838 -1.5485
17017SOL     OW62704   5.024   0.146   5.427  0.6476  0.3878  0.6093
17017SOL    HW162705   4.944   0.147   5.487 -0.8492  0.8348 -1.3396
17017SOL    HW262706   5.104   0.117   5.479 -0.8466 -0.4622  2.5125
17018SOL     OW62707   0.067   7.405   5.976 -0.4138 -0.3745 -0.0203
17018SOL    HW162708   0.112   7.318   5.993 -0.6674 -0.2152  1.5438
17018SOL    HW262709   0.130   7.480   5.996 -0.7696 -0.1766  0.3703
17019SOL     OW62710   9.123   9.123   0.124  0.0050  0.0089 -0.4105
17019SOL    HW162711   9.080   9.206   0.157  0.3890  0.7565 -1.7557
17019SOL    HW262712   9.054   9.050   0.117 -0.4863  0.4308  0.0451
17020SOL     OW62713   7.535   7.453   3.546  0.1578 -0.4640 -0.0151
17020SOL    HW162714   7.446   7.494   3.564  1.1222  1.5331  0.4190
17020SOL    HW262715   7.568   7.482   3.456  1.3433  0.6623  0.7593
17021SOL     OW62716   1.181   6.857   6.347 -0.4916 -0.1426  0.0147
17021SOL    HW162717   1.138   6.771   6.375 -0.0211  0.2383  2.0018
17021SOL    HW262718   1.173   6.867   6.248 -1.8622 -1.7580 -0.0737
17022SOL     OW62719   9.264   0.933   1.310 -0.0012  0.0340  0.1669
17022SOL    HW162720   9.352   0.907   1.349 -0.5458 -1.1310  0.6385
17022SOL    HW262721   9.217   0.852   1.275  0.5109  1.0421 -3.0456
17023SOL     OW62722   2.933   9.242   8.117 -0.7513 -0.1403 -0.1454
17023SOL    HW162723   2.958   9.238   8.020  0.8449  0.2389  0.2301
17023SOL    HW262724   3.012   9.274   8.170 -2.0307  0.9902  1.1152
17024SOL     OW62725   3.345   3.803   4.920 -0.3540  0.1763  0.7520
17024SOL    HW162726   3.322   3.877   4.983  0.2539 -0.4387  1.7146
17024SOL    HW262727   3.373   3.722   4.972 -1.8385 -1.0221 -0.2429
17025SOL     OW62728   7.655   9.501   7.556  0.2634 -0.6377  0.2038
17025SOL    HW162729   7.600   9.468   7.634 -0.0523 -0.0763  0.2241
17025SOL    HW262730   7.680   9.424   7.498  0.5684 -1.0706  0.9110
17026SOL     OW62731   9.490   6.608   2.589  0.2389 -0.2600 -0.0087
17026SOL    HW162732   9.581   6.613   2.629  0.1473  0.0887  0.1540
17026SOL    HW262733   9.489   6.538   2.517  1.3113  1.5559 -1.8371
17027SOL     OW62734   2.542   4.855   3.509 -0.6321 -0.0028 -0.0368
17027SOL    HW162735   2.514   4.767   3.549  1.1401 -0.0310  1.2145
17027SOL    HW262736   2.584   4.911   3.580  0.3031  0.9554 -1.3289
17028SOL     OW62737   2.884   6.669   4.344  0.0536  0.8356  0.2841
17028SOL    HW162738   2.791   6.659   4.309  0.3140 -0.3570 -0.1053
17028SOL    HW262739   2.882   6.711   4.435 -0.7306  2.5895 -0.5355
17029SOL     OW62740   3.846   1.782   5.735 -0.0988 -0.5658 -0.0938
17029SOL    HW162741   3.768   1.843   5.718  0.9209  0.7209 -0.1970
17029SOL    HW262742   3.834   1.738   5.824 -0.9767 -0.4432 -0.1413
17030SOL     OW62743   2.672   5.231   2.835  0.3964 -0.4171 -0.0874
17030SOL    HW162744   2.718   5.316   2.808  2.1580 -1.2677  0.1016
17030SOL    HW262745   2.592   5.252   2.891  0.5426  1.1305 -0.4354
17031SOL     OW62746   7.440   4.934   6.222  0.0200  0.8021  0.1922
17031SOL    HW162747   7.507   4.870   6.185  1.7347  2.7436 -0.1905
17031SOL    HW262748   7.403   4.990   6.147 -2.6616 -0.7709  0.2819
17032SOL     OW62749   3.776   2.104   1.223 -0.5546 -0.7020 -0.4421
17032SOL    HW162750   3.818   2.153   1.146 -1.6372  2.5532  0.9455
17032SOL    HW262751   3.691   2.150   1.249 -0.5421 -2.1304  2.2882
17033SOL     OW62752   3.374   7.748   2.395  0.0436  0.1818  0.0898
17033SOL    HW162753   3.417   7.674   2.342 -0.2919 -0.2542  0.4191
17033SOL    HW262754   3.438   7.824   2.403 -0.0128  0.3783 -1.1953
17034SOL     OW62755   2.749   7.728   4.821  0.2557  0.3736  0.1878
17034SOL    HW162756   2.807   7.805   4.847 -1.3687  1.4990  0.5864
17034SOL    HW262757   2.719   7.680   4.903 -1.1719  1.1595  0.1444
17035SOL     OW62758   0.352   5.224   1.316  0.1171  0.4312  0.4175
17035SOL    HW162759   0.377   5.320   1.324  0.9566  0.1824  0.9038
17035SOL    HW262760   0.276   5.214   1.251  1.0143  1.2497 -0.7789
17036SOL     OW62761   7.225   1.303   3.822 -0.4771  0.0608  0.2124
17036SOL    HW162762   7.239   1.355   3.906 -0.2099  0.3233  0.0059
17036SOL    HW262763   7.128   1.302   3.800 -0.8192 -1.7499  1.6408
17037SOL     OW62764   3.897   1.763   1.538  0.0991  0.5069 -0.0797
17037SOL    HW162765   3.891   1.760   1.638  0.4969 -0.4488 -0.0747
17037SOL    HW262766   3.970   1.702   1.507 -0.4149  0.3421 -0.9925
17038SOL     OW62767   2.770   1.141   5.964  0.4586  0.3189  0.2776
17038SOL    HW162768   2.769   1.172   6.059  0.0473 -1.7092  0.9496
17038SOL    HW262769   2.692   1.080   5.949  1.0407 -0.0862 -1.1178
17039SOL     OW62770   9.767   1.917   2.410  0.0658  0.0413  0.1022
17039SOL    HW162771   9.809   1.995   2.365  0.7281 -0.9008 -0.9454
17039SOL    HW262772   9.738   1.850   2.341  0.0968 -0.9209  1.0017
17040SOL     OW62773   5.032   8.261   7.088  0.0423  0.1451 -0.4113
17040SOL    HW162774   5.018   8.162   7.086  0.5923  0.0272  1.0900
17040SOL    HW262775   4.949   8.306   7.119  0.1031  0.0784 -0.1471
17041SOL     OW62776   7.237   4.508   7.853 -0.3356  0.2083  0.6460
17041SOL    HW162777   7.278   4.595   7.881 -1.1100  1.0607 -0.8564
17041SOL    HW262778   7.227   4.506   7.754 -0.8969 -1.3491  0.7259
17042SOL     OW62779   2.082   6.500   6.062  0.2182 -0.4816 -0.6345
17042SOL    HW162780   2.157   6.532   6.119  1.3570 -2.9459 -0.6807
17042SOL    HW262781   2.100   6.525   5.967  0.3650  0.0013 -0.4819
17043SOL     OW62782   9.371   3.993   3.092  0.0574  0.0936 -0.1117
17043SOL    HW162783   9.381   3.988   3.191  0.2805  0.8887 -0.0916
17043SOL    HW262784   9.425   4.070   3.056 -1.4772  0.9574 -0.6329
17044SOL     OW62785   3.015   9.744   2.164  0.6339 -0.1558 -0.1863
17044SOL    HW162786   3.004   9.697   2.252  1.3994  1.5808  0.8621
17044SOL    HW262787   3.041   9.839   2.180  2.4223 -0.2418 -2.3148
17045SOL     OW62788   3.130   0.178   6.031 -0.2495  0.1705  0.2095
17045SOL    HW162789   3.117   0.210   5.937 -0.1985 -2.6131 -0.7713
17045SOL    HW262790   3.227   0.178   6.054 -0.4486  3.8838  1.4143
17046SOL     OW62791   8.427   1.327   7.559  0.6611 -0.5714  0.2862
17046SOL    HW162792   8.437   1.412   7.610  0.8654 -0.4192 -0.0015
17046SOL    HW262793   8.333   1.295   7.565  0.3286  0.2251 -0.4563
17047SOL     OW62794   4.534   1.131   5.055  0.1595 -0.3224 -0.2441
17047SOL    HW162795   4.489   1.143   5.144  0.3494  0.5077 -0.2556
17047SOL    HW262796   4.590   1.212   5.035 -2.1012  0.7758 -2.4305
17048SOL     OW62797   7.822   5.611   4.839  0.2817 -0.0173  0.1225
17048SOL    HW162798   7.878   5.693   4.822 -0.2376 -0.2844 -3.2435
17048SOL    HW262799   7.881   5.531   4.846  0.5501  0.1152 -0.5472
17049SOL     OW62800   9.742   4.342   0.766 -0.1664 -0.5512 -0.0760
17049SOL    HW162801   9.742   4.349   0.666 -2.5223  2.3290  0.0356
17049SOL    HW262802   9.669   4.281   0.795 -0.3057 -0.3724 -0.0555
17050SOL     OW62803   0.394   8.324   5.315  0.1644  0.0858  0.1421
17050SOL    HW162804   0.404   8.276   5.228 -0.1722 -0.2249  0.2714
17050SOL    HW262805   0.438   8.272   5.387  1.4604  0.9203 -0.0310
17051SOL     OW62806   5.267   0.669   6.155  0.6070 -0.4372 -0.5135
17051SOL    HW162807   5.253   0.706   6.247 -0.2941 -1.3754 -0.2708
17051SOL    HW262808   5.215   0.723   6.089  2.3454  1.0956 -0.6703
17052SOL     OW62809   1.237   2.410   5.270 -0.0702 -0.4609  0.1195
17052SOL    HW162810   1.141   2.383   5.269 -0.1063 -0.3557  0.6678
17052SOL    HW262811   1.275   2.402   5.177 -1.8265  3.8451 -1.1113
17053SOL     OW62812   1.938   4.229   0.677 -0.6466  0.6105 -0.1701
17053SOL    HW162813   1.952   4.192   0.769  0.0172  0.0721 -0.4789
17053SOL    HW262814   1.943   4.155   0.610 -2.2863  0.8354 -0.5471
17054SOL     OW62815   7.380   8.935   3.704 -0.0972 -0.0288  0.2329
17054SOL    HW162816   7.444   8.912   3.777  0.1520 -0.6298 -0.1671
17054SOL    HW262817   7.323   9.011   3.732  0.1385 -0.1232  0.9735
17055SOL     OW62818   7.782   0.556   0.156  0.2206 -0.4590  0.1875
17055SOL    HW162819   7.756   0.462   0.177  0.3869 -0.4275  0.5411
17055SOL    HW262820   7.834   0.594   0.233  0.9228 -0.3772 -0.3160
17056SOL     OW62821   8.907   9.491   1.578  0.1626 -0.4224 -0.0157
17056SOL    HW162822   8.896   9.461   1.483 -0.7443  2.8404 -1.0050
17056SOL    HW262823   8.994   9.458   1.613  0.7286 -1.2888 -2.1259
17057SOL     OW62824   7.659   1.776   7.994  0.6281  0.3591  0.1471
17057SOL    HW162825   7.622   1.683   7.995 -0.6280  0.8360  2.1376
17057SOL    HW262826   7.736   1.782   8.058 -0.0306  0.9504  0.8964
17058SOL     OW62827   1.130   1.234   3.553 -0.5407  0.1389  0.1958
17058SOL    HW162828   1.076   1.158   3.589  1.2937 -1.1121  0.3730
17058SOL    HW262829   1.182   1.276   3.628  0.6217 -0.2591 -0.3763
17059SOL     OW62830   9.731   2.830   8.090 -0.1525 -0.0218 -0.2925
17059SOL    HW162831   9.812   2.812   8.034  1.2321  1.6221  1.0847
17059SOL    HW262832   9.668   2.889   8.041  1.0329  1.3756 -0.1809
17060SOL     OW62833   8.393   2.507   5.751  0.0743  0.2463 -0.2817
17060SOL    HW162834   8.351   2.432   5.701 -0.0264  1.0610 -1.4313
17060SOL    HW262835   8.488   2.485   5.772  0.4547  0.3954 -1.8582
17061SOL     OW62836   3.331   0.188   4.060  1.1949  0.0752 -0.6905
17061SOL    HW162837   3.381   0.223   4.139  0.1788  0.7552 -0.3292
17061SOL    HW262838   3.261   0.123   4.090  0.0324  1.1989 -0.8869
17062SOL     OW62839   4.542   2.053   4.337  0.7052  0.0682  0.0954
17062SOL    HW162840   4.586   1.969   4.370 -0.1122 -0.3942  0.0157
17062SOL    HW262841   4.452   2.062   4.379  0.1442  0.0995 -1.0923
17063SOL     OW62842   6.882   8.953   2.955  0.2995  0.3539 -0.4746
17063SOL    HW162843   6.966   8.955   2.902  0.6691 -0.4301  0.0708
17063SOL    HW262844   6.866   8.860   2.989  0.8719  1.1285  2.0483
17064SOL     OW62845   0.756   0.024   5.223 -0.0223 -0.4845  0.0625
17064SOL    HW162846   0.784  -0.068   5.249  0.9183 -0.0736  0.5284
17064SOL    HW262847   0.749   0.081   5.304  0.7814  0.2245 -0.3594
17065SOL     OW62848   7.075   1.306   2.892  0.1732 -0.1240  0.1297
17065SOL    HW162849   7.090   1.303   2.991  0.9341  1.6064  0.0977
17065SOL    HW262850   7.036   1.395   2.867  0.1160 -0.4938 -1.1473
17066SOL     OW62851   3.713   8.546   0.646  0.0756 -0.2856 -0.2045
17066SOL    HW162852   3.689   8.632   0.602 -0.6080 -0.2308  0.2616
17066SOL    HW262853   3.806   8.521   0.622  0.4208  0.7917 -0.0115
17067SOL     OW62854   8.557   8.832   2.495  0.1020 -0.2367  0.1336
17067SOL    HW162855   8.651   8.857   2.472  0.4470  0.6801  2.4058
17067SOL    HW262856   8.497   8.911   2.481 -0.3756 -0.8783 -1.5120
17068SOL     OW62857   9.192   4.801   6.858 -0.0858  0.7780  0.0529
17068SOL    HW162858   9.127   4.856   6.804  0.7372  1.4169 -0.2901
17068SOL    HW262859   9.236   4.859   6.926 -0.7374  0.0809  1.0832
17069SOL     OW62860   1.521   6.852   7.358 -0.6486  0.0526  0.0063
17069SOL    HW162861   1.577   6.916   7.304 -1.6390  0.7952 -0.1677
17069SOL    HW262862   1.508   6.768   7.306  0.3934 -0.1707  0.0932
17070SOL     OW62863   9.888   3.788   1.452  0.3604  0.1815  0.1485
17070SOL    HW162864   9.909   3.713   1.514  3.6216 -0.3425 -1.4686
17070SOL    HW262865   9.922   3.874   1.490  0.9435  0.0893 -0.1467
17071SOL     OW62866   3.706   2.638   3.790  0.7670 -0.0321  0.1767
17071SOL    HW162867   3.778   2.647   3.721  0.7099  0.3788  0.1677
17071SOL    HW262868   3.659   2.726   3.800  1.5743  0.2593  1.6024
17072SOL     OW62869   2.181   4.393   1.028  0.0534  0.2291  0.5441
17072SOL    HW162870   2.270   4.403   0.984  0.0518 -0.7428  0.3106
17072SOL    HW262871   2.134   4.312   0.992 -1.6770  1.7094 -0.6254
17073SOL     OW62872   1.649   2.141   7.869  0.1425 -0.5100  0.4145
17073SOL    HW162873   1.714   2.208   7.833  1.2463 -0.8789  1.6713
17073SOL    HW262874   1.585   2.115   7.797  1.6334 -0.4392 -0.9776
17074SOL     OW62875   7.712   1.913   7.428 -0.1837 -0.5882 -0.3922
17074SOL    HW162876   7.766   1.866   7.498  1.5959 -0.6838 -1.8168
17074SOL    HW262877   7.654   1.847   7.380  0.0077 -0.8146 -0.3108
17075SOL     OW62878   2.735   5.823   6.397 -0.0963 -0.0270  0.2516
17075SOL    HW162879   2.745   5.762   6.475 -0.7337  1.0915  1.2304
17075SOL    HW262880   2.825   5.850   6.364  0.2697 -3.4034 -1.7672
17076SOL     OW62881   1.352   7.120   7.343 -0.0353  0.5903 -1.3456
17076SOL    HW162882   1.384   7.203   7.388 -0.2928 -0.8053  1.5087
17076SOL    HW262883   1.415   7.044   7.363 -2.3503 -1.0069  0.1716
17077SOL     OW62884   7.975   7.252   5.301  0.1300 -0.3902 -0.2763
17077SOL    HW162885   7.982   7.257   5.202 -0.1838 -0.5261 -0.3046
17077SOL    HW262886   7.880   7.239   5.328  0.0385  0.9444  0.0917
17078SOL     OW62887   0.598   3.046   1.392 -0.1733 -0.1841 -0.3843
17078SOL    HW162888   0.554   3.079   1.476 -0.8026  0.5001 -0.9742
17078SOL    HW262889   0.679   2.993   1.416 -0.2157  0.1975  0.6501
17079SOL     OW62890   5.809   9.871   2.439  0.7869  0.3545  0.0472
17079SOL    HW162891   5.759   9.901   2.358  2.4095 -2.6121 -2.1477
17079SOL    HW262892   5.768   9.786   2.474  1.2449  0.6095  1.2283
17080SOL     OW62893   8.027   1.800   7.284 -0.3261 -0.2724  0.1164
17080SOL    HW162894   7.943   1.745   7.286 -0.2489 -0.3796  1.6242
17080SOL    HW262895   8.024   1.864   7.207 -0.2357 -2.6381 -1.8822
17081SOL     OW62896   4.735   9.264   6.278  0.6220 -1.1367  0.1926
17081SOL    HW162897   4.649   9.287   6.233  0.4218 -0.5138  0.8829
17081SOL    HW262898   4.718   9.205   6.357  0.8772 -1.4218  0.0370
17082SOL     OW62899   4.303   2.211   6.852  0.1617 -0.2537 -0.2474
17082SOL    HW162900   4.213   2.246   6.876 -0.1028 -1.1093  0.0300
17082SOL    HW262901   4.338   2.155   6.927  1.0572  0.3179 -0.2275
17083SOL     OW62902   1.917   6.791   2.776  0.4134  0.5096 -0.4328
17083SOL    HW162903   1.919   6.772   2.677 -0.5819 -0.5041 -0.2743
17083SOL    HW262904   1.880   6.882   2.792  0.4492  0.6259 -0.9919
17084SOL     OW62905   0.653   7.410   6.703 -0.4101  0.2494 -0.6739
17084SOL    HW162906   0.651   7.497   6.655  1.5124  1.5650  1.5526
17084SOL    HW262907   0.582   7.409   6.773 -0.2608  0.1171 -0.5255
17085SOL     OW62908   0.212   7.405   4.836 -0.1456 -0.1774 -0.5887
17085SOL    HW162909   0.124   7.359   4.840  0.3222 -1.4650 -3.9473
17085SOL    HW262910   0.283   7.344   4.871 -0.1994 -0.2080 -0.5335
17086SOL     OW62911   3.024   9.283   7.870  0.2312 -0.2332 -0.3139
17086SOL    HW162912   3.041   9.381   7.866 -2.3546  0.2984  0.4997
17086SOL    HW262913   2.967   9.256   7.792 -0.7683 -0.7046  0.5744
17087SOL     OW62914   3.350   1.201   0.993  0.1877 -0.4247  0.0268
17087SOL    HW162915   3.400   1.235   1.072  0.8003  0.8714 -0.8971
17087SOL    HW262916   3.362   1.102   0.986  0.0288 -0.5647  1.6130
17088SOL     OW62917   6.478   1.493   1.001  0.4379  0.8644 -0.1118
17088SOL    HW162918   6.528   1.570   1.039 -1.2108  2.2439 -0.6555
17088SOL    HW262919   6.504   1.481   0.905  0.4445  0.9614 -0.1220
17089SOL     OW62920   5.346   3.193   0.770 -0.3797 -0.0914  0.5468
17089SOL    HW162921   5.323   3.289   0.785  0.1474 -0.2354  2.4111
17089SOL    HW262922   5.438   3.175   0.804 -0.7792 -1.4403  0.9488
17090SOL     OW62923   0.625   2.599   7.997  0.1500 -0.0839 -0.2342
17090SOL    HW162924   0.592   2.577   7.904  0.5819 -0.6394 -0.2576
17090SOL    HW262925   0.712   2.553   8.013 -1.1741 -2.0803  1.3819
17091SOL     OW62926   2.259   5.459   6.925  0.7467  0.0208  0.1178
17091SOL    HW162927   2.178   5.471   6.982  0.4569 -0.4733 -0.1934
17091SOL    HW262928   2.307   5.547   6.918  0.5821  0.1723  0.8088
17092SOL     OW62929   3.294   2.471   4.846 -0.0333 -0.6483  0.1537
17092SOL    HW162930   3.209   2.501   4.803  0.8768  1.7401 -0.0095
17092SOL    HW262931   3.356   2.433   4.777 -0.1050 -0.3981 -0.0436
17093SOL     OW62932   0.696   8.396   7.799  0.3992  0.3089  0.2255
17093SOL    HW162933   0.631   8.466   7.829  1.4903  1.6432 -0.4370
17093SOL    HW262934   0.656   8.306   7.810 -0.9444  1.0229  1.3580
17094SOL     OW62935   2.454   4.531   1.483 -0.1327  0.7137 -0.0371
17094SOL    HW162936   2.453   4.445   1.534  2.0568  0.2350 -0.7588
17094SOL    HW262937   2.535   4.535   1.425 -1.6989  2.0075 -2.2207
17095SOL     OW62938   1.258   4.228   2.189  0.1484  0.2493  0.2170
17095SOL    HW162939   1.233   4.324   2.203 -3.5775 -0.7671  1.0679
17095SOL    HW262940   1.234   4.201   2.096  0.8863  0.0748  0.0818
17096SOL     OW62941   4.878   3.964   6.994 -0.4633  0.2687 -0.3678
17096SOL    HW162942   4.970   3.954   7.031 -0.1653  1.4109 -0.7995
17096SOL    HW262943   4.811   3.954   7.068  0.0426  0.5054  0.1231
17097SOL     OW62944   8.178   5.383   6.874  0.1888  0.2271 -0.4743
17097SOL    HW162945   8.248   5.453   6.864  0.3708 -0.1241 -1.8622
17097SOL    HW262946   8.186   5.317   6.799 -1.5698  0.1471 -0.6234
17098SOL     OW62947   1.188   4.075   3.644  0.0917  0.5808 -0.5426
17098SOL    HW162948   1.180   3.980   3.673  1.2059  0.2384 -1.3195
17098SOL    HW262949   1.099   4.119   3.649  0.0007  0.1888  2.1409
17099SOL     OW62950   8.792   3.600   3.322  0.5900  0.1297 -0.0727
17099SOL    HW162951   8.891   3.591   3.315  0.4323 -1.9983 -0.0535
17099SOL    HW262952   8.765   3.595   3.418  0.5381  1.9346  0.0286
17100SOL     OW62953   1.299   1.808   7.982  0.0944  0.0083 -0.6951
17100SOL    HW162954   1.251   1.771   8.061 -0.6915  0.1313 -1.1134
17100SOL    HW262955   1.247   1.885   7.944  1.4318  1.2093 -0.1632
17101SOL     OW62956   9.841   3.223   7.460 -0.1970  0.6843 -0.4250
17101SOL    HW162957   9.872   3.241   7.367  0.2506  1.5564 -0.1091
17101SOL    HW262958   9.901   3.154   7.502  0.0336  0.8181 -0.5370
17102SOL     OW62959   9.656   2.763   0.527 -0.3268 -0.2777  0.6519
17102SOL    HW162960   9.572   2.775   0.473 -0.3986  2.1153  1.2208
17102SOL    HW262961   9.701   2.679   0.500 -1.9721 -0.6776 -0.9650
17103SOL     OW62962   2.932   7.914   4.884 -0.5307  0.3172  0.2945
17103SOL    HW162963   2.886   7.960   4.960  0.5190  1.1689  0.4342
17103SOL    HW262964   3.026   7.893   4.911 -1.0735 -2.1807  0.3285
17104SOL     OW62965   8.623   0.748   7.820 -0.0596  0.8181  0.2862
17104SOL    HW162966   8.645   0.842   7.793  1.6488  0.4207  0.2174
17104SOL    HW262967   8.661   0.684   7.753 -0.1568  0.0359  0.9667
17105SOL     OW62968   2.189   3.348   5.492  0.0610 -0.6081  0.1809
17105SOL    HW162969   2.160   3.398   5.410  2.4347 -0.0424 -0.3518
17105SOL    HW262970   2.206   3.413   5.566 -0.2307 -0.9460  0.5449
17106SOL     OW62971   1.115   1.814   7.494 -0.2318  0.5494 -0.2963
17106SOL    HW162972   1.213   1.832   7.484  0.3429 -1.3584  1.5057
17106SOL    HW262973   1.082   1.761   7.416  0.0932  1.4864 -1.0746
17107SOL     OW62974   2.136   2.192   4.791 -0.5510 -0.9467  0.3309
17107SOL    HW162975   2.062   2.237   4.742  0.7928  1.7002  0.6362
17107SOL    HW262976   2.190   2.137   4.727 -0.5752  0.1074 -0.6173
17108SOL     OW62977   3.963   6.489   4.319 -0.1303  0.1241 -0.2872
17108SOL    HW162978   4.001   6.578   4.294 -0.6894  0.6416  0.6513
17108SOL    HW262979   3.883   6.503   4.377 -0.7740 -0.9804 -0.8954
17109SOL     OW62980   8.582   0.890   3.433 -0.4354  0.3445  0.0166
17109SOL    HW162981   8.640   0.867   3.512 -0.6031  0.6759  0.2369
17109SOL    HW262982   8.598   0.985   3.406 -0.0753  0.1083 -0.6107
17110SOL     OW62983   7.661   6.730   7.291 -0.1372 -0.1449  0.2596
17110SOL    HW162984   7.747   6.778   7.273  0.3390 -0.5240  1.5005
17110SOL    HW262985   7.675   6.632   7.282 -0.6936 -0.1592 -0.5342
17111SOL     OW62986   4.663   9.370   2.979  0.7760  0.0606 -0.2030
17111SOL    HW162987   4.754   9.411   2.977  0.4828  0.7573  0.3219
17111SOL    HW262988   4.595   9.438   2.950  0.1786  0.2523  1.5662
17112SOL     OW62989   4.963   4.357   0.345 -0.4273  0.0361  0.5763
17112SOL    HW162990   4.910   4.328   0.425 -1.0315 -1.3545 -0.3045
17112SOL    HW262991   4.901   4.394   0.276 -0.0871 -0.2053  0.1358
17113SOL     OW62992   0.103   9.549   7.378  0.0557  0.1320 -0.3952
17113SOL    HW162993   0.034   9.507   7.437 -0.5465  1.4989 -0.0941
17113SOL    HW262994   0.065   9.561   7.286  0.3938 -0.4297 -0.6065
17114SOL     OW62995   8.639   3.751   0.456 -0.0198  0.0693  0.5122
17114SOL    HW162996   8.575   3.753   0.532 -0.5559 -1.6715  0.1429
17114SOL    HW262997   8.703   3.674   0.469  2.5006  2.2262  1.2728
17115SOL     OW62998   9.786   4.225   0.505 -0.3501  0.0988 -0.0868
17115SOL    HW162999   9.812   4.183   0.592  0.9840 -0.1246 -0.5762
17115SOL    HW263000   9.863   4.219   0.442 -1.4979 -0.2452 -1.4701
17116SOL     OW63001   3.826   4.587   8.113  0.2638 -0.2570 -0.1661
17116SOL    HW163002   3.898   4.616   8.177 -1.4552  0.6180  1.4481
17116SOL    HW263003   3.767   4.666   8.093 -1.9895 -1.6012  0.9180
17117SOL     OW63004   9.478   6.503   7.584  0.3336  0.3559 -0.6956
17117SOL    HW163005   9.398   6.447   7.601  0.1683  0.4753 -1.0876
17117SOL    HW263006   9.558   6.444   7.569  0.6440  0.2512  1.2622
17118SOL     OW63007   2.311   6.234   3.504  0.1021 -0.0509  0.0098
17118SOL    HW163008   2.354   6.309   3.454 -0.9063  0.9512  0.6156
17118SOL    HW263009   2.267   6.270   3.587  0.7316 -1.5035  0.9959
17119SOL     OW63010   8.950   1.324   2.789 -0.5437  0.2679 -0.3459
17119SOL    HW163011   8.936   1.286   2.698  1.3419 -0.7108 -0.2499
17119SOL    HW263012   8.878   1.293   2.850 -1.9213  1.0759 -1.5411
17120SOL     OW63013   7.333   8.436   2.275 -0.0788 -0.3316  0.1867
17120SOL    HW163014   7.262   8.486   2.323  0.3447  0.2268  0.2340
17120SOL    HW263015   7.377   8.372   2.338  1.1673  1.1241  0.8248
17121SOL     OW63016   5.281   9.869   4.558  0.0071  0.2307  0.3936
17121SOL    HW163017   5.304   9.964   4.538  1.3000  0.4746  2.8208
17121SOL    HW263018   5.342   9.808   4.507  1.2062  0.7832  1.1354
17122SOL     OW63019   4.199   8.857   1.029 -0.1660  0.5104 -0.4688
17122SOL    HW163020   4.270   8.867   0.959 -1.6588 -1.7092 -2.3527
17122SOL    HW263021   4.126   8.922   1.011  0.2457  1.1320  0.0697
17123SOL     OW63022   3.028   3.989   7.526 -0.2391 -0.0769  0.0663
17123SOL    HW163023   3.052   4.049   7.602 -1.0911 -0.2905  0.5062
17123SOL    HW263024   3.081   4.015   7.445  0.8882 -0.0349  0.8061
17124SOL     OW63025   9.434   3.112   4.138 -0.3987  0.0700  0.1717
17124SOL    HW163026   9.410   3.014   4.138 -1.1353  0.2473  0.7854
17124SOL    HW263027   9.529   3.122   4.166  0.5362 -0.6613 -2.5605
17125SOL     OW63028   2.175   0.453   2.292  0.1779  0.3403  0.2835
17125SOL    HW163029   2.124   0.414   2.215  1.0332 -0.6674  0.2137
17125SOL    HW263030   2.249   0.510   2.257  1.0874 -0.7951  0.3441
17126SOL     OW63031   7.829   4.817   3.960 -0.5604  0.0530 -0.1465
17126SOL    HW163032   7.840   4.837   3.863 -2.3080  1.9511  0.0046
17126SOL    HW263033   7.831   4.718   3.974  2.2195 -0.1606 -1.7500
17127SOL     OW63034   5.079   0.171   4.530 -0.0665 -0.2905  0.2686
17127SOL    HW163035   5.094   0.211   4.439 -0.6557  0.0456  0.3186
17127SOL    HW263036   5.166   0.165   4.578 -0.0123  1.2190  0.3732
17128SOL     OW63037   7.919   2.380   7.830 -0.0151 -0.3923 -0.4516
17128SOL    HW163038   8.002   2.331   7.802 -0.7424 -1.1712 -1.3241
17128SOL    HW263039   7.842   2.347   7.775 -0.7696  0.8155 -0.1289
17129SOL     OW63040   0.755   8.398   5.343 -0.1573  0.1989  0.5305
17129SOL    HW163041   0.757   8.459   5.264  0.4633  0.9945  1.1367
17129SOL    HW263042   0.733   8.305   5.314 -3.9349  1.1973 -0.0864
17130SOL     OW63043   1.659   6.089   5.779  0.2155  0.5848 -0.7072
17130SOL    HW163044   1.670   6.148   5.700 -0.3527  3.6067  1.3846
17130SOL    HW263045   1.726   6.114   5.849 -0.2436 -1.0700  0.3552
17131SOL     OW63046   3.988   3.693   1.857 -0.0835 -0.1465 -0.1718
17131SOL    HW163047   3.943   3.686   1.945  1.3190  0.6324  0.6304
17131SOL    HW263048   3.932   3.747   1.794 -0.9413 -0.4432  0.3447
17132SOL     OW63049   0.450   2.257   7.948  0.2549  0.2582  0.2032
17132SOL    HW163050   0.529   2.303   7.988  0.2598  2.0825 -1.7912
17132SOL    HW263051   0.381   2.324   7.921 -0.8548 -1.0941 -0.4479
17133SOL     OW63052   0.322   6.653   3.960  0.4214 -0.4900  0.4732
17133SOL    HW163053   0.281   6.565   3.936 -0.4330  0.0926 -0.2035
17133SOL    HW263054   0.330   6.661   4.059 -0.3812 -0.9276  0.5728
17134SOL     OW63055   7.376   7.684   3.210 -0.4992 -0.0470  0.0487
17134SOL    HW163056   7.378   7.719   3.304 -3.1670 -1.6187  0.7542
17134SOL    HW263057   7.304   7.730   3.159 -0.3176 -0.5341 -0.6487
17135SOL     OW63058   6.476   5.429   0.124  0.0832 -0.2837  0.1042
17135SOL    HW163059   6.498   5.370   0.201  1.8924 -0.7614 -0.7497
17135SOL    HW263060   6.414   5.502   0.154 -0.7991 -1.6050  1.5408
17136SOL     OW63061   4.251   5.264   1.452 -0.4945  0.1764 -0.0298
17136SOL    HW163062   4.250   5.297   1.358 -1.5374  0.8617  0.2227
17136SOL    HW263063   4.298   5.331   1.510  0.0129 -0.1744 -0.0346
17137SOL     OW63064   7.842   0.522   0.421 -0.1761  0.3942 -1.0479
17137SOL    HW163065   7.768   0.456   0.430  0.3363 -0.0665 -0.0912
17137SOL    HW263066   7.927   0.475   0.399  0.3631  0.6367  0.4616
17138SOL     OW63067   5.904   5.730   0.566 -0.6363  0.5867  0.2496
17138SOL    HW163068   5.861   5.747   0.655  1.7808 -1.0430  1.7955
17138SOL    HW263069   5.856   5.656   0.519  0.7693 -1.6993  2.2663
17139SOL     OW63070   3.457   7.932   7.069 -0.3259 -0.0824 -0.5639
17139SOL    HW163071   3.377   7.898   7.119 -0.6174 -0.5993 -1.3747
17139SOL    HW263072   3.513   7.987   7.130 -1.2545  0.2054  0.0405
17140SOL     OW63073   9.056   6.289   2.151 -0.0696 -0.2078  0.4122
17140SOL    HW163074   9.090   6.198   2.174  0.8648 -0.0947 -0.5418
17140SOL    HW263075   9.026   6.335   2.235 -0.7651 -1.4756  0.8710
17141SOL     OW63076   9.698   4.299   5.101 -0.0755  0.1550 -0.2827
17141SOL    HW163077   9.692   4.316   5.003 -0.1701  2.9914  0.1711
17141SOL    HW263078   9.748   4.374   5.145 -1.5350 -0.1843  2.0710
17142SOL     OW63079   4.653   5.163   3.099  0.2447  0.1659 -0.2448
17142SOL    HW163080   4.721   5.096   3.069  0.5356  0.3290  0.0518
17142SOL    HW263081   4.692   5.221   3.171 -0.0248  0.6151 -0.4571
17143SOL     OW63082   3.953   4.281   3.291 -0.5102  0.3315  0.6513
17143SOL    HW163083   3.948   4.252   3.387 -0.4625  1.0121  0.8647
17143SOL    HW263084   3.997   4.209   3.237  1.6823  0.9296  1.5737
17144SOL     OW63085   3.838   3.645   5.743  0.1592 -0.0624 -0.2939
17144SOL    HW163086   3.845   3.715   5.813  1.6074 -0.4537 -0.0347
17144SOL    HW263087   3.928   3.605   5.726 -0.8252 -2.7396  0.4733
17145SOL     OW63088   0.331   4.775   4.419 -0.4868  0.6065  0.6377
17145SOL    HW163089   0.368   4.865   4.442  0.9491  0.6928 -1.8006
17145SOL    HW263090   0.256   4.785   4.353 -2.0916  0.1540  2.3572
17146SOL     OW63091   7.457   6.630   5.281 -0.6466 -0.1233 -0.3054
17146SOL    HW163092   7.486   6.561   5.348 -0.4552 -0.2960 -0.5644
17146SOL    HW263093   7.403   6.700   5.327 -0.8206 -0.4312 -0.0344
17147SOL     OW63094   0.145   7.346   6.502 -0.0123  0.4158 -0.1817
17147SOL    HW163095   0.112   7.306   6.417  1.0216 -1.1880  0.1632
17147SOL    HW263096   0.203   7.426   6.481 -0.7893  0.7899 -0.9209
17148SOL     OW63097   1.583   5.276   4.110  0.1765  0.1414 -0.3682
17148SOL    HW163098   1.618   5.310   4.023 -0.2983  0.1053 -0.5769
17148SOL    HW263099   1.589   5.176   4.112 -0.9049  0.0584 -0.8445
17149SOL     OW63100   8.802   7.603   7.057  0.0444 -0.2779  0.1566
17149SOL    HW163101   8.899   7.580   7.049  0.1737  0.6736 -1.1562
17149SOL    HW263102   8.782   7.632   7.150  1.2635  0.5522  0.1766
17150SOL     OW63103   7.995   4.501   6.258 -0.0544  0.7099 -0.2647
17150SOL    HW163104   7.972   4.557   6.178 -1.2319  1.3818  0.5220
17150SOL    HW263105   7.911   4.459   6.293  0.3908  0.7535  0.8572
17151SOL     OW63106   3.883   9.244   1.680  0.3444  0.2367  0.0535
17151SOL    HW163107   3.879   9.262   1.581  1.2985 -0.5646 -0.1470
17151SOL    HW263108   3.884   9.330   1.730  0.8142  0.6672 -0.6825
17152SOL     OW63109   8.984   3.151   0.216  0.5840 -0.0733 -0.0394
17152SOL    HW163110   8.946   3.243   0.205  0.4030 -0.2604 -1.0929
17152SOL    HW263111   8.927   3.098   0.278  0.7048  0.5302  0.5914
17153SOL     OW63112   5.567   5.143   1.439  0.3963 -0.0813  0.0586
17153SOL    HW163113   5.477   5.174   1.407  0.9418  0.0128 -1.4053
17153SOL    HW263114   5.562   5.125   1.537 -0.3920  3.0015  0.6286
17154SOL     OW63115   0.102   5.962   1.921  0.1815 -0.0706 -0.2525
17154SOL    HW163116   0.033   5.896   1.948  1.4922 -1.5079 -0.3137
17154SOL    HW263117   0.059   6.041   1.878 -1.4673 -0.4929  0.6045
17155SOL     OW63118   1.962   1.779   6.861 -0.9785  0.1611 -0.1443
17155SOL    HW163119   2.048   1.778   6.912 -1.2878 -2.1814  0.3543
17155SOL    HW263120   1.978   1.744   6.769 -1.2916  0.1994 -0.2127
17156SOL     OW63121   7.396   9.413   4.671  0.2992 -0.3331 -0.0005
17156SOL    HW163122   7.344   9.466   4.738  0.6997  0.4416 -0.3002
17156SOL    HW263123   7.336   9.344   4.630  0.3765 -1.6679  2.0697
17157SOL     OW63124   6.194   3.705   7.980 -0.3209  0.1167 -0.4993
17157SOL    HW163125   6.184   3.616   8.024 -0.1370 -0.0432 -0.7772
17157SOL    HW263126   6.285   3.712   7.940 -0.7633 -0.0628 -1.5523
17158SOL     OW63127   9.622   4.889   3.927 -0.9911  0.0621 -0.2913
17158SOL    HW163128   9.653   4.941   3.847 -1.3010 -2.1498 -1.8810
17158SOL    HW263129   9.686   4.815   3.946  0.3154  1.9182  2.9513
17159SOL     OW63130   9.264   7.176   1.089  0.1376 -0.1335 -0.1788
17159SOL    HW163131   9.340   7.241   1.096  1.0206 -1.0644 -0.9549
17159SOL    HW263132   9.234   7.151   1.181  1.2771 -0.3214  0.1600
17160SOL     OW63133   8.703   7.298   7.834 -0.0063  0.2304 -0.2866
17160SOL    HW163134   8.660   7.207   7.831  1.5109 -0.5427  0.6592
17160SOL    HW263135   8.633   7.367   7.849 -1.0662 -0.8808  0.0005
17161SOL     OW63136   3.764   9.809   6.385 -0.0324  0.2086  0.2287
17161SOL    HW163137   3.766   9.789   6.287  1.5445 -0.6649  0.4269
17161SOL    HW263138   3.682   9.861   6.406  0.3436  1.7280 -1.8234
17162SOL     OW63139   3.470   5.968   7.080 -0.6159  0.0569 -0.1792
17162SOL    HW163140   3.438   6.063   7.082  0.4909  0.4081  0.9937
17162SOL    HW263141   3.463   5.928   7.171 -1.3571 -1.0986 -0.7255
17163SOL     OW63142   8.452   2.637   6.365  0.4531 -0.2422 -0.8170
17163SOL    HW163143   8.529   2.687   6.326  1.7112 -0.7704  0.9027
17163SOL    HW263144   8.404   2.696   6.430  0.2784 -0.3659 -0.8367
17164SOL     OW63145   9.933   7.957   6.820 -0.5846 -0.3016 -0.3163
17164SOL    HW163146   9.907   8.052   6.801 -0.3159  0.2260  1.8740
17164SOL    HW263147   9.940   7.907   6.733 -2.7896  1.1165 -1.3823
17165SOL     OW63148   8.634   3.594   6.877  0.4484 -0.3863 -0.5073
17165SOL    HW163149   8.724   3.625   6.847 -0.0437  0.0484 -1.5479
17165SOL    HW263150   8.564   3.627   6.813 -0.3332 -1.6794 -0.3343
17166SOL     OW63151   3.211   9.434   1.672  0.0451 -0.1140 -0.1959
17166SOL    HW163152   3.124   9.462   1.712 -0.5395 -1.8213 -0.2146
17166SOL    HW263153   3.222   9.335   1.682  1.3120 -0.1287 -1.5023
17167SOL     OW63154   7.425   9.548   3.888  0.1366 -0.0820  0.3319
17167SOL    HW163155   7.383   9.542   3.797 -0.6885  1.1927  0.6080
17167SOL    HW263156   7.491   9.474   3.900 -0.0387 -0.4889 -1.1602
17168SOL     OW63157   7.085   8.716   7.010 -0.1878  0.1892  0.2056
17168SOL    HW163158   7.168   8.705   6.955 -0.3364 -1.6245  0.2819
17168SOL    HW263159   7.073   8.635   7.068 -0.5701  1.6384  2.1886
17169SOL     OW63160   4.912   8.186   3.956  0.0067 -0.2242 -0.5691
17169SOL    HW163161   4.956   8.255   3.899  0.4842  0.7915  0.9961
17169SOL    HW263162   4.829   8.153   3.910 -0.5985  1.8766 -1.0437
17170SOL     OW63163   1.519   4.215   3.366  0.1713 -0.6888 -0.0133
17170SOL    HW163164   1.520   4.314   3.352 -1.3458 -0.4884  1.1913
17170SOL    HW263165   1.433   4.188   3.410  0.5592 -2.5494 -0.3444
17171SOL     OW63166   3.169   4.817   5.730 -0.2910  0.5779 -0.6275
17171SOL    HW163167   3.268   4.813   5.743 -0.3025  1.1533 -0.3665
17171SOL    HW263168   3.124   4.832   5.818 -0.6071  0.3805 -0.7542
17172SOL     OW63169   1.789   7.290   1.703  0.3366  0.2045  0.3849
17172SOL    HW163170   1.746   7.227   1.639  1.2201  0.1738 -0.1794
17172SOL    HW263171   1.888   7.274   1.705  0.5468  1.4595  0.3622
17173SOL     OW63172   4.165   8.007   3.062  0.0438 -0.0631  0.1614
17173SOL    HW163173   4.164   7.907   3.059 -0.6242 -0.0317 -0.7176
17173SOL    HW263174   4.168   8.043   2.969  1.6321  0.7297  0.5004
17174SOL     OW63175   5.774   7.869   5.913  0.1963  0.0078 -0.2052
17174SOL    HW163176   5.726   7.945   5.957 -0.4742 -0.0918 -0.7600
17174SOL    HW263177   5.861   7.901   5.876  0.0843  0.4211 -0.1088
17175SOL     OW63178   3.078   1.352   7.198 -0.3667 -0.1348 -0.1731
17175SOL    HW163179   3.133   1.390   7.124  1.4617 -0.9292  0.7573
17175SOL    HW263180   3.076   1.415   7.275  1.3340 -1.1710  0.7499
17176SOL     OW63181   0.831   3.758   4.276 -0.6708 -0.2144  0.0416
17176SOL    HW163182   0.875   3.708   4.201 -0.7804  0.8859 -0.7722
17176SOL    HW263183   0.731   3.756   4.262 -0.6984 -0.1145  0.2332
17177SOL     OW63184   1.385   7.721   4.354 -0.0234 -0.9216 -0.1974
17177SOL    HW163185   1.377   7.788   4.428  1.7463 -0.5341 -0.3437
17177SOL    HW263186   1.341   7.757   4.272 -1.5322 -1.1307  0.5115
17178SOL     OW63187   8.018   2.296   4.146 -0.2327  0.0327  0.0531
17178SOL    HW163188   8.052   2.204   4.163 -1.0385  0.0428  1.8841
17178SOL    HW263189   7.922   2.302   4.175 -0.7762  0.9278 -1.8404
17179SOL     OW63190   6.553   9.754   3.192 -0.1381 -0.1255 -0.4725
17179SOL    HW163191   6.614   9.675   3.199 -1.5194 -1.3778 -2.0459
17179SOL    HW263192   6.602   9.830   3.150  0.8984 -0.4860  0.0556
17180SOL     OW63193   4.094   0.611   7.735  0.2811  0.2792 -0.0262
17180SOL    HW163194   4.008   0.565   7.713  1.5981 -0.2923 -4.3582
17180SOL    HW263195   4.151   0.550   7.790 -1.7748  0.4428  2.3843
17181SOL     OW63196   4.254   0.454   0.015 -0.3084  0.1579  0.1105
17181SOL    HW163197   4.350   0.443   0.041 -0.2956 -0.8008 -0.3110
17181SOL    HW263198   4.205   0.369   0.035 -0.6820  0.0239 -1.3635
17182SOL     OW63199   3.308   8.231   7.278  0.4501 -0.4917 -0.3042
17182SOL    HW163200   3.210   8.235   7.260  0.7762  1.9270 -1.7391
17182SOL    HW263201   3.327   8.155   7.340 -2.3689 -0.7171  0.3571
17183SOL     OW63202   7.799   1.010   7.925  0.1258 -0.8265 -0.3649
17183SOL    HW163203   7.764   1.097   7.958 -0.3539 -0.2693 -2.2678
17183SOL    HW263204   7.843   0.961   8.000 -0.0605  0.8175  0.8469
17184SOL     OW63205   2.870   1.306   5.524 -0.1101 -0.3753  0.3835
17184SOL    HW163206   2.918   1.221   5.503 -2.4129 -1.4712 -0.6935
17184SOL    HW263207   2.892   1.335   5.617  3.3189 -0.3063 -0.4000
17185SOL     OW63208   8.425   3.729   5.606 -0.1824 -0.1628 -0.0408
17185SOL    HW163209   8.462   3.723   5.699  0.0647 -0.0527 -0.1315
17185SOL    HW263210   8.500   3.740   5.541 -0.4377  1.2220 -0.1213
17186SOL     OW63211   2.259   7.189   7.347 -0.6014  0.5003  0.0154
17186SOL    HW163212   2.255   7.267   7.409 -2.0027  0.7723 -0.4065
17186SOL    HW263213   2.233   7.106   7.396 -1.9306  0.7499 -0.2463
17187SOL     OW63214   1.251   2.437   4.036 -0.9653  0.7181 -0.0540
17187SOL    HW163215   1.281   2.465   4.127 -0.9067 -0.0149  0.1494
17187SOL    HW263216   1.274   2.341   4.021 -0.7522  0.9002 -0.9335
17188SOL     OW63217   2.835   8.111   6.579  0.1338 -0.8389 -0.2065
17188SOL    HW163218   2.907   8.174   6.550 -0.6320  1.6293  2.9855
17188SOL    HW263219   2.759   8.114   6.513  1.4432 -0.8650 -1.7483
17189SOL     OW63220   2.705   8.400   5.325  0.0815 -0.2078  0.2531
17189SOL    HW163221   2.759   8.316   5.336  0.7788 -0.0877 -2.1160
17189SOL    HW263222   2.762   8.479   5.346  0.4409 -0.1530 -0.9092
17190SOL     OW63223   4.056   0.890   1.516 -0.5254  0.4663  0.1721
17190SOL    HW163224   4.026   0.795   1.527 -1.4033  0.8434  1.2342
17190SOL    HW263225   4.132   0.908   1.579  0.6626  0.0500 -1.1284
17191SOL     OW63226   8.552   3.828   4.622  0.4754  0.0895  0.1487
17191SOL    HW163227   8.644   3.795   4.604  0.4912 -0.4309  1.0977
17191SOL    HW263228   8.553   3.884   4.705  0.1096  0.8985 -0.3882
17192SOL     OW63229   8.751   3.704   7.952  0.4939  0.4531  0.0992
17192SOL    HW163230   8.704   3.656   8.026 -0.6830 -0.1572 -1.0274
17192SOL    HW263231   8.834   3.653   7.928 -0.7208 -1.0119 -1.0522
17193SOL     OW63232   0.280   4.903   6.757  0.0436 -0.4775  0.7922
17193SOL    HW163233   0.216   4.911   6.681  0.4862  0.7311  0.5269
17193SOL    HW263234   0.360   4.850   6.729  1.2745  1.8739 -0.3509
17194SOL     OW63235   9.022   1.110   4.356  0.4424  0.3223  0.8959
17194SOL    HW163236   8.982   1.172   4.423  0.7424 -0.4503  1.8024
17194SOL    HW263237   8.958   1.035   4.336 -0.4242  1.5441 -1.1104
17195SOL     OW63238   2.539   4.676   0.044  0.1001 -0.0118  0.0548
17195SOL    HW163239   2.495   4.598   0.089  0.6348 -0.3697 -0.0471
17195SOL    HW263240   2.501   4.686  -0.048  1.3779 -1.3116 -0.6271
17196SOL     OW63241   3.420   8.840   4.409  0.0488  0.2140  0.0309
17196SOL    HW163242   3.338   8.894   4.390  0.1378  0.3442  0.0144
17196SOL    HW263243   3.435   8.835   4.508  0.2070  0.4709  0.0211
17197SOL     OW63244   0.542   6.672   3.065 -0.2163  0.6164 -0.3701
17197SOL    HW163245   0.535   6.662   2.965  1.1252 -1.6575 -0.2674
17197SOL    HW263246   0.516   6.586   3.108 -0.7169  1.5723  1.2635
17198SOL     OW63247   0.880   4.889   5.599  0.2425 -0.3430  0.4685
17198SOL    HW163248   0.814   4.901   5.525  0.1930  0.0759  0.5789
17198SOL    HW263249   0.843   4.927   5.683  1.3534  1.5236  0.1427
17199SOL     OW63250   4.405   5.410   0.242 -0.4850  0.4677  0.1402
17199SOL    HW163251   4.372   5.500   0.272  0.3170  1.2987 -1.3778
17199SOL    HW263252   4.497   5.420   0.203 -0.3548 -1.0264  0.0427
17200SOL     OW63253   2.441   7.581   2.690  0.1595  0.6792 -0.2306
17200SOL    HW163254   2.361   7.589   2.749  0.7676 -0.1342  0.7322
17200SOL    HW263255   2.512   7.644   2.721  0.8512 -0.4546  0.5511
17201SOL     OW63256   3.763   7.364   6.222 -0.0211 -0.1508 -0.3636
17201SOL    HW163257   3.850   7.411   6.208 -0.1585  0.0690 -0.4696
17201SOL    HW263258   3.726   7.336   6.133 -1.5844  2.4791 -0.5613
17202SOL     OW63259   1.488   1.528   3.352 -0.5437  0.4606  0.7957
17202SOL    HW163260   1.499   1.450   3.291  0.0282 -0.1329  1.6363
17202SOL    HW263261   1.518   1.612   3.306 -2.4982  0.4129 -0.6081
17203SOL     OW63262   1.067   5.380   4.651 -0.0806  0.4070 -0.0520
17203SOL    HW163263   1.130   5.456   4.666 -0.7233  0.4108  2.8397
17203SOL    HW263264   0.975   5.406   4.680 -1.0776 -0.2244 -2.5209
17204SOL     OW63265   3.067   2.405   7.009  0.5923  0.1646 -0.7364
17204SOL    HW163266   3.067   2.323   6.952  0.8005 -1.0993  1.0500
17204SOL    HW263267   2.995   2.398   7.078  1.5497  0.8228  0.3469
17205SOL     OW63268   4.487   9.909   4.798  0.1040  0.2663  0.1120
17205SOL    HW163269   4.557   9.910   4.869 -2.3701 -0.1401  2.6734
17205SOL    HW263270   4.471  10.002   4.765  1.4601  0.4204 -0.1297
17206SOL     OW63271   1.830   0.823   8.092 -0.1671 -0.4514 -0.2445
17206SOL    HW163272   1.771   0.784   8.021 -1.8926  0.4329  0.6559
17206SOL    HW263273   1.904   0.875   8.049 -0.3098 -1.1830 -1.4055
17207SOL     OW63274   4.224   8.428   3.081  0.3145  0.1253  0.6934
17207SOL    HW163275   4.290   8.353   3.077  0.7263  0.4367  1.4672
17207SOL    HW263276   4.212   8.456   3.177 -1.5583 -0.4661  0.6462
17208SOL     OW63277   0.621   8.447   4.829  0.0496 -0.2667 -0.1907
17208SOL    HW163278   0.538   8.397   4.853  0.4698 -0.6566  0.4827
17208SOL    HW263279   0.597   8.538   4.797 -0.6377 -0.3461  0.0911
17209SOL     OW63280   9.550   7.843   7.577  0.1079  0.8526 -0.1804
17209SOL    HW163281   9.583   7.849   7.483 -0.0717  1.2479 -0.2189
17209SOL    HW263282   9.524   7.749   7.597  1.4007  0.4916 -0.0987
17210SOL     OW63283   2.589   5.826   4.603  0.2484 -0.9421 -0.2831
17210SOL    HW163284   2.617   5.794   4.512 -2.0673 -1.2073 -0.9267
17210SOL    HW263285   2.612   5.923   4.613 -0.1267 -0.7282 -1.4348
17211SOL     OW63286   7.089   2.512   1.517  0.4538 -0.2945 -0.2634
17211SOL    HW163287   7.038   2.586   1.473 -1.2019 -1.7174 -0.7990
17211SOL    HW263288   7.127   2.452   1.447 -0.1565 -1.2343  0.2055
17212SOL     OW63289   4.874   8.849   5.475 -0.1318  0.7143  0.3840
17212SOL    HW163290   4.791   8.848   5.530 -1.0879  1.8825 -1.0010
17212SOL    HW263291   4.926   8.932   5.495  0.0896  0.5813  0.3649
17213SOL     OW63292   0.273   6.801   7.538  0.2327 -0.1577 -0.3110
17213SOL    HW163293   0.225   6.819   7.453  2.4710 -1.5079 -1.9062
17213SOL    HW263294   0.360   6.850   7.538  0.0462  0.2211  1.4307
17214SOL     OW63295   8.301   5.580   2.107 -0.1541 -0.5993 -0.7027
17214SOL    HW163296   8.342   5.665   2.073 -1.6362  0.1305 -0.6824
17214SOL    HW263297   8.374   5.519   2.139  0.8628  1.2109  0.5523
17215SOL     OW63298   9.930   4.529   1.398  0.6337 -0.1498 -0.0146
17215SOL    HW163299   9.868   4.450   1.404  2.3394 -1.4194  1.3641
17215SOL    HW263300  10.002   4.510   1.332  1.0693  0.2509  0.3433
17216SOL     OW63301   2.350   3.872   6.533 -0.8765  0.3343  0.3738
17216SOL    HW163302   2.259   3.842   6.560 -0.6544  0.0745  0.8395
17216SOL    HW263303   2.366   3.965   6.568 -1.1296  0.5575 -0.0935
17217SOL     OW63304   0.610   0.407   7.559 -0.3783  0.5516 -0.3327
17217SOL    HW163305   0.613   0.313   7.594 -0.5504  0.0599 -1.6056
17217SOL    HW263306   0.656   0.410   7.470  1.4699  2.0962  0.6608
17218SOL     OW63307   8.235   0.520   3.247  0.4240 -0.0506  0.2677
17218SOL    HW163308   8.287   0.441   3.212  0.6640 -0.0745  0.6720
17218SOL    HW263309   8.294   0.575   3.305  0.4008  0.7113 -0.4171
17219SOL     OW63310   3.279   6.719   2.829 -0.8278 -0.8577  0.3205
17219SOL    HW163311   3.195   6.677   2.796 -1.8676  1.4973 -0.1199
17219SOL    HW263312   3.338   6.741   2.751 -0.2790 -1.4838  0.5499
17220SOL     OW63313   9.823   1.218   6.331 -0.7863 -0.1799  0.5304
17220SOL    HW163314   9.775   1.278   6.395 -1.2462 -0.8211  0.7878
17220SOL    HW263315   9.873   1.148   6.382 -0.0287  0.1460  0.2402
17221SOL     OW63316   3.341   3.302   1.122  0.0974  0.7418 -0.7491
17221SOL    HW163317   3.294   3.272   1.039  0.0648  0.0566 -0.4836
17221SOL    HW263318   3.424   3.353   1.097 -0.1184  0.8677 -1.2040
17222SOL     OW63319   6.879   8.083   4.557  0.1730 -0.0005  0.3557
17222SOL    HW163320   6.967   8.120   4.527 -0.2336 -1.0401 -2.2663
17222SOL    HW263321   6.874   8.086   4.657  2.2479  2.1517  0.4394
17223SOL     OW63322   3.333   6.091   6.486  0.0272 -0.1604  0.8813
17223SOL    HW163323   3.278   6.154   6.540  0.1455  0.3976  0.3613
17223SOL    HW263324   3.368   6.018   6.545  0.1235  0.4140  1.5431
17224SOL     OW63325   1.709   9.567   0.086 -0.4260  0.0800  0.4338
17224SOL    HW163326   1.796   9.525   0.113  0.1891  0.6845 -0.5536
17224SOL    HW263327   1.724   9.664   0.066 -1.1894  0.0210 -0.4383
17225SOL     OW63328   2.815   2.158   5.750 -0.0049  0.2661 -0.1651
17225SOL    HW163329   2.833   2.070   5.794 -0.2224  0.5912  0.5697
17225SOL    HW263330   2.860   2.160   5.661 -0.2330 -0.6995 -0.3044
17226SOL     OW63331   0.090   9.202   6.016 -0.5447  0.6817  0.5370
17226SOL    HW163332   0.095   9.149   5.931 -0.1097 -0.5107  1.3045
17226SOL    HW263333   0.031   9.282   6.001 -0.3931  0.5404 -0.9121
17227SOL     OW63334   2.373   7.979   2.131 -0.2449  0.0221 -0.5770
17227SOL    HW163335   2.384   8.067   2.176  1.8479 -0.4848 -0.0390
17227SOL    HW263336   2.372   7.993   2.031 -0.6978  0.7121 -0.4841
17228SOL     OW63337   4.461   6.391   2.794 -0.1773 -0.4289 -0.3979
17228SOL    HW163338   4.488   6.301   2.758 -1.7354 -1.7179  1.5286
17228SOL    HW263339   4.527   6.420   2.863 -0.9557 -1.2637  0.7281
17229SOL     OW63340   2.192   3.382   8.005 -0.1589  0.0549 -0.5226
17229SOL    HW163341   2.194   3.477   7.974  0.9097 -0.1354 -1.0573
17229SOL    HW263342   2.155   3.324   7.933  1.8543 -0.3172 -1.2900
17230SOL     OW63343   2.524   0.669   4.296  0.6926  0.4705 -0.2194
17230SOL    HW163344   2.494   0.750   4.346 -2.0435  0.3557 -1.5892
17230SOL    HW263345   2.514   0.684   4.197 -1.1336 -1.9848 -0.4672
17231SOL     OW63346   8.991   5.126   5.841  0.4025 -0.0968 -0.1564
17231SOL    HW163347   9.008   5.207   5.785 -1.4818  0.4314 -0.0074
17231SOL    HW263348   9.055   5.123   5.917  1.0562  0.7773 -0.6722
17232SOL     OW63349   0.342   1.687   4.555 -0.1954  0.1539 -0.0829
17232SOL    HW163350   0.398   1.709   4.475  0.0122 -2.3633 -0.6735
17232SOL    HW263351   0.261   1.635   4.526 -0.8842  0.4954  1.1786
17233SOL     OW63352   8.166   5.385   3.246  0.3349  0.6494  0.3287
17233SOL    HW163353   8.150   5.359   3.151 -2.1599  2.0173  0.3508
17233SOL    HW263354   8.134   5.478   3.262 -1.6828 -0.4453  3.1200
17234SOL     OW63355   7.055   1.177   1.746  0.4589  0.3026  0.1989
17234SOL    HW163356   7.144   1.222   1.744  0.3299  0.6714  1.6986
17234SOL    HW263357   6.997   1.223   1.814 -0.5807 -0.4643 -0.1593
17235SOL     OW63358   7.699   5.907   5.008  0.3056 -0.0968  0.5907
17235SOL    HW163359   7.794   5.923   5.034  0.7798 -1.0752 -0.4733
17235SOL    HW263360   7.648   5.870   5.086  1.3481 -1.6389  0.5638
17236SOL     OW63361   1.950   9.620   3.765 -0.1089 -0.4082 -0.2622
17236SOL    HW163362   1.976   9.524   3.763 -1.9900 -1.0120  1.5857
17236SOL    HW263363   1.868   9.634   3.709  0.7717  0.3412 -1.3848
17237SOL     OW63364   4.626   2.463   5.075  0.1176  0.5369 -0.6143
17237SOL    HW163365   4.659   2.372   5.051  0.8217  0.9485 -1.2066
17237SOL    HW263366   4.606   2.514   4.991 -2.2707  0.2069 -0.2735
17238SOL     OW63367   3.826   7.952   0.136 -0.0086 -0.1996 -0.2539
17238SOL    HW163368   3.814   7.872   0.195 -0.1909 -0.0405 -0.0737
17238SOL    HW263369   3.834   8.034   0.193  0.8511 -0.1718 -0.4171
17239SOL     OW63370   4.326   7.910   2.118  0.1987  0.1149  0.0877
17239SOL    HW163371   4.285   7.821   2.139 -0.1117  0.3829  0.6171
17239SOL    HW263372   4.425   7.899   2.109 -0.1192 -0.8910 -3.0306
17240SOL     OW63373   1.073   0.971   7.201  0.4598  0.3878  0.1367
17240SOL    HW163374   1.069   0.884   7.152  0.1185 -0.3767  1.4985
17240SOL    HW263375   1.162   0.979   7.247  0.9313  1.2775 -0.9262
17241SOL     OW63376   4.286   4.510   3.752  0.3082  0.1812 -0.1095
17241SOL    HW163377   4.218   4.578   3.724  0.2257 -0.2695 -1.0174
17241SOL    HW263378   4.375   4.555   3.766 -0.1775  0.7798  1.1446
17242SOL     OW63379   0.524   2.777   6.953 -0.4936  0.4056  0.1872
17242SOL    HW163380   0.578   2.740   6.877 -1.8332 -0.6473 -0.2614
17242SOL    HW263381   0.552   2.732   7.038  0.4782  1.0548  0.2328
17243SOL     OW63382   4.640   2.653   0.959  0.4078 -0.2585  0.2665
17243SOL    HW163383   4.555   2.671   1.008  1.0138  1.6664  0.6751
17243SOL    HW263384   4.717   2.656   1.023  0.9515 -0.2018 -0.3818
17244SOL     OW63385   9.527   6.488   6.244 -0.5959  0.2584  0.1663
17244SOL    HW163386   9.559   6.566   6.297  3.4492 -0.7106 -0.6887
17244SOL    HW263387   9.531   6.405   6.300 -1.4021  0.0731 -0.0403
17245SOL     OW63388   3.882   8.783   2.662  0.2594  0.2211 -0.2817
17245SOL    HW163389   3.928   8.696   2.649  0.6937  0.4471 -0.2591
17245SOL    HW263390   3.937   8.842   2.721 -0.8061 -0.0961  1.0383
17246SOL     OW63391   7.791   1.587   6.223 -0.1760  0.2441 -0.6475
17246SOL    HW163392   7.758   1.525   6.295  0.3302  1.1511  0.3800
17246SOL    HW263393   7.868   1.640   6.257  0.0930  0.6678 -1.8808
17247SOL     OW63394   8.938   2.678   7.379 -0.2136  0.1943 -0.1377
17247SOL    HW163395   8.902   2.706   7.291 -0.3891  1.2056  0.2475
17247SOL    HW263396   9.002   2.748   7.413 -0.0669 -0.2321  0.4892
17248SOL     OW63397   8.807   1.862   7.028 -0.2768  0.2455 -0.2871
17248SOL    HW163398   8.784   1.785   6.969  0.0892 -2.1038  2.5275
17248SOL    HW263399   8.898   1.896   7.004  0.2870 -1.3358 -0.4081
17249SOL     OW63400   7.900   6.757   6.595  0.2601 -0.3518 -0.0503
17249SOL    HW163401   7.961   6.711   6.530  1.0332  1.2766 -0.4979
17249SOL    HW263402   7.923   6.854   6.600 -2.6248  0.4127 -0.6123
17250SOL     OW63403   0.086   5.394   3.604  0.4963 -0.4442 -0.0695
17250SOL    HW163404   0.048   5.357   3.689  1.6696  1.8477  1.4986
17250SOL    HW263405   0.078   5.494   3.605  0.1881 -0.3942 -2.8458
17251SOL     OW63406   5.325   9.310   5.572  0.4257 -0.0260 -0.2928
17251SOL    HW163407   5.321   9.230   5.512 -1.6793  0.8309 -1.3311
17251SOL    HW263408   5.233   9.334   5.602  1.3662  0.0119  2.7434
17252SOL     OW63409   3.138   5.325   4.746 -0.3634  0.1918  0.0408
17252SOL    HW163410   3.065   5.331   4.677 -0.2015 -1.5399 -0.3150
17252SOL    HW263411   3.102   5.281   4.828  0.5417 -1.8083 -0.5793
17253SOL     OW63412   6.953   7.899   3.289 -0.0679 -0.1648 -0.1086
17253SOL    HW163413   7.041   7.944   3.304 -0.5552  0.0905  2.0863
17253SOL    HW263414   6.881   7.953   3.333 -1.1832 -0.9721 -0.9279
17254SOL     OW63415   9.616   8.347   7.471 -0.1426  0.1971  0.4634
17254SOL    HW163416   9.692   8.283   7.480 -0.2992 -0.0372  0.1402
17254SOL    HW263417   9.597   8.363   7.374 -0.8762 -0.1902  0.5367
17255SOL     OW63418   8.831   8.738   2.520  0.5137 -0.3520  0.7793
17255SOL    HW163419   8.852   8.663   2.584 -1.6350 -0.9616  0.8071
17255SOL    HW263420   8.787   8.700   2.439  1.4356  0.6566 -0.1989
17256SOL     OW63421   7.860   3.531   3.772  0.3823 -0.0221  0.0956
17256SOL    HW163422   7.862   3.576   3.682 -0.1066  0.2623  0.2244
17256SOL    HW263423   7.831   3.436   3.761  2.4691 -0.6368 -0.3069
17257SOL     OW63424   0.854   0.757   0.551 -0.2209 -0.1435  0.4883
17257SOL    HW163425   0.945   0.716   0.559  0.1222  0.1565 -1.7194
17257SOL    HW263426   0.856   0.851   0.585  0.8363  0.6025 -1.5645
17258SOL     OW63427   7.444   0.036   0.223  0.4294  0.3464 -0.1931
17258SOL    HW163428   7.366   0.089   0.190 -0.7534  0.4210  2.5004
17258SOL    HW263429   7.414  -0.058   0.241  0.9083  0.4183  1.0077
17259SOL     OW63430   2.151   0.859   4.957 -0.1687 -0.2711 -0.3204
17259SOL    HW163431   2.202   0.781   4.920 -0.4137  0.0594 -1.3497
17259SOL    HW263432   2.189   0.944   4.923  0.7138  0.1218  1.5752
17260SOL     OW63433   3.428   9.464   0.275 -0.4121  0.4069  0.4739
17260SOL    HW163434   3.441   9.374   0.318 -0.1105 -0.4553 -1.3971
17260SOL    HW263435   3.330   9.478   0.258 -0.4451  0.3849  0.6371
17261SOL     OW63436   4.074   3.745   6.707  0.3500  0.2642  0.7244
17261SOL    HW163437   4.093   3.763   6.610 -0.8112  0.6107  0.5502
17261SOL    HW263438   4.161   3.736   6.757  0.9651  1.2486 -0.1334
17262SOL     OW63439   9.919   3.183   7.844  0.0589 -0.3832  0.6431
17262SOL    HW163440   9.908   3.241   7.924  1.0013  0.5637  0.0950
17262SOL    HW263441  10.000   3.125   7.855  1.0047  0.7545 -0.2198
17263SOL     OW63442   2.057   0.405   4.463 -0.2389 -0.4507  0.1054
17263SOL    HW163443   2.135   0.467   4.457  0.1280 -0.9763 -0.6842
17263SOL    HW263444   1.974   0.452   4.431 -0.2203  0.0632  0.8139
17264SOL     OW63445   8.058   6.569   6.428  0.4830 -0.2740 -0.0898
17264SOL    HW163446   8.107   6.576   6.341  0.3473  0.6600 -0.1001
17264SOL    HW263447   8.123   6.553   6.502  0.7159  0.0275 -0.2264
17265SOL     OW63448   0.073   5.641   4.591 -0.0347 -0.4424  0.1558
17265SOL    HW163449   0.061   5.670   4.685 -0.1875  1.4876 -0.4453
17265SOL    HW263450  -0.003   5.580   4.565 -1.3883  1.0791  0.4788
17266SOL     OW63451   3.930   4.632   6.721  0.1744 -0.3135 -0.0211
17266SOL    HW163452   3.999   4.698   6.748  0.9600 -0.6409 -1.1590
17266SOL    HW263453   3.852   4.679   6.680 -0.2829  0.0607  1.2880
17267SOL     OW63454   6.661   9.868   4.673  0.0176  0.3662  0.3634
17267SOL    HW163455   6.740   9.922   4.701  1.3116 -1.2571 -0.0373
17267SOL    HW263456   6.669   9.776   4.711 -1.7515  0.2221  0.4173
17268SOL     OW63457   3.807   5.404   6.051 -0.7714 -0.2326 -0.4937
17268SOL    HW163458   3.783   5.312   6.018  0.6408  0.0182 -2.2918
17268SOL    HW263459   3.903   5.422   6.032 -1.3179  2.0721 -1.2399
17269SOL     OW63460   4.037   4.044   5.521  0.7270  0.3211  0.0965
17269SOL    HW163461   4.120   4.093   5.493  0.3584  0.7178 -0.3272
17269SOL    HW263462   4.012   3.978   5.450 -0.3443  1.4952 -0.6670
17270SOL     OW63463   1.168   4.932   6.762 -0.0135  0.2070  0.0639
17270SOL    HW163464   1.086   4.989   6.769  1.0642  1.6000  2.1004
17270SOL    HW263465   1.156   4.849   6.817 -0.3671  0.0080 -0.3120
17271SOL     OW63466   0.806   2.175   7.765 -0.3305  0.6169 -0.0922
17271SOL    HW163467   0.847   2.087   7.743 -0.4258  0.8440 -1.2100
17271SOL    HW263468   0.709   2.173   7.740 -1.2991 -0.2586  3.4366
17272SOL     OW63469   1.296   4.404   1.637 -0.6975  0.1863  0.2641
17272SOL    HW163470   1.362   4.406   1.713 -1.3833 -0.2063  0.8779
17272SOL    HW263471   1.248   4.492   1.634 -0.0958  0.5001 -0.2303
17273SOL     OW63472   1.161   8.258   3.102  0.0214  0.3145  0.2999
17273SOL    HW163473   1.178   8.187   3.169  0.4177  0.0285 -0.0986
17273SOL    HW263474   1.155   8.347   3.148  1.5233  0.2780  0.5741
17274SOL     OW63475   4.411   4.946   6.205 -0.2921 -0.3365 -0.0102
17274SOL    HW163476   4.449   4.894   6.128 -1.6700 -0.3781 -0.6848
17274SOL    HW263477   4.311   4.946   6.198 -0.3556  1.1365  0.8290
17275SOL     OW63478   3.953   3.292   2.225  0.7661 -0.2186 -0.6886
17275SOL    HW163479   3.895   3.371   2.243  1.7357  0.1458  0.9329
17275SOL    HW263480   4.015   3.278   2.302  1.2450 -1.9983 -1.3692
17276SOL     OW63481   4.849   2.000   0.196  0.0588  0.3333  0.0118
17276SOL    HW163482   4.847   1.926   0.263  1.2273 -0.2082 -0.5430
17276SOL    HW263483   4.943   2.016   0.167 -0.4704  0.3208 -1.7557
17277SOL     OW63484   6.887   0.842   1.909 -0.3089 -0.1010  0.1599
17277SOL    HW163485   6.889   0.939   1.936 -0.7837  0.1492 -0.7007
17277SOL    HW263486   6.826   0.792   1.970 -1.0740  0.3922 -0.1951
17278SOL     OW63487   2.362   1.701   3.666 -0.2137  0.2507  0.1216
17278SOL    HW163488   2.333   1.627   3.727  0.0923 -0.1852 -0.2626
17278SOL    HW263489   2.416   1.663   3.591 -1.5304  0.6398 -1.0494
17279SOL     OW63490   3.239   2.309   7.232 -0.6316  0.6662  0.0686
17279SOL    HW163491   3.301   2.266   7.298 -0.8804  1.7354  1.0247
17279SOL    HW263492   3.256   2.273   7.141  0.7133  0.2204  0.4908
17280SOL     OW63493   5.667   8.281   6.143  0.1875 -0.1803 -0.1895
17280SOL    HW163494   5.571   8.284   6.116 -0.2606 -1.3633  1.1704
17280SOL    HW263495   5.675   8.299   6.241  1.3276 -0.3617 -0.2387
17281SOL     OW63496   4.403   3.701   2.209  0.0509 -0.0400  0.2200
17281SOL    HW163497   4.376   3.607   2.189 -0.1940 -0.0856  0.7671
17281SOL    HW263498   4.487   3.700   2.264 -0.3049  0.0433  0.7717
17282SOL     OW63499   8.672   3.103   2.596 -0.1269  0.5260 -0.6488
17282SOL    HW163500   8.594   3.076   2.539 -0.4158 -0.9585  0.4141
17282SOL    HW263501   8.721   3.022   2.626 -0.1645  1.2536  1.4813
17283SOL     OW63502   9.677   3.499   6.755 -0.2057  0.2392 -0.2040
17283SOL    HW163503   9.579   3.520   6.749 -0.2324  0.1721  0.0442
17283SOL    HW263504   9.718   3.511   6.664 -0.4814  0.0703 -0.3553
17284SOL     OW63505   1.980   8.698   0.036 -0.0223 -0.5653  0.8726
17284SOL    HW163506   1.927   8.776   0.002 -0.3936 -0.1190  2.4206
17284SOL    HW263507   1.928   8.614   0.022  1.1968 -0.8169 -2.5755
17285SOL     OW63508   1.072   3.238   4.367 -0.3280 -0.1415  0.0703
17285SOL    HW163509   1.041   3.276   4.280  0.8962  0.5531 -0.0824
17285SOL    HW263510   1.071   3.138   4.362  0.0433 -0.1112 -0.8675
17286SOL     OW63511   7.602   3.331   5.736  0.1517 -0.1119 -0.1176
17286SOL    HW163512   7.560   3.416   5.768 -0.6527 -0.1745 -0.9992
17286SOL    HW263513   7.533   3.260   5.729  0.4838 -0.3468 -1.1271
17287SOL     OW63514   3.661   3.254   0.049  0.3940  0.2072 -0.5884
17287SOL    HW163515   3.701   3.345   0.066  1.6080 -0.4459  0.1158
17287SOL    HW263516   3.645   3.243  -0.049 -0.0602  1.2950 -0.6521
17288SOL     OW63517   0.217   8.406   2.474  0.5405  0.5740  0.0489
17288SOL    HW163518   0.168   8.321   2.458  2.5321 -0.7615  0.8491
17288SOL    HW263519   0.188   8.474   2.407 -0.0552 -1.1586 -1.4853
17289SOL     OW63520   1.168   3.447   7.188 -0.1312  0.0518  0.6662
17289SOL    HW163521   1.252   3.501   7.182 -0.1901  0.0176 -0.5086
17289SOL    HW263522   1.109   3.485   7.259  1.0547 -0.1827  1.7966
17290SOL     OW63523   4.760   4.333   1.245 -0.4991 -0.4461  0.4918
17290SOL    HW163524   4.824   4.410   1.243 -0.0175 -0.8581 -0.8703
17290SOL    HW263525   4.724   4.318   1.152 -2.0444 -0.6506  1.1093
17291SOL     OW63526   9.577   5.351   7.680  0.0717 -0.3483 -0.2681
17291SOL    HW163527   9.590   5.266   7.631 -2.0262  0.0287 -1.5600
17291SOL    HW263528   9.480   5.374   7.681  0.2697  0.5898  2.5151
17292SOL     OW63529   2.666   8.637   6.771 -0.0617 -0.4183  0.5822
17292SOL    HW163530   2.709   8.597   6.690  0.4383  0.3034  0.4881
17292SOL    HW263531   2.729   8.631   6.849  0.8276  1.9682  0.0989
17293SOL     OW63532   8.843   0.052   5.734  0.4065 -0.4673 -0.3542
17293SOL    HW163533   8.845  -0.047   5.748  0.5266 -0.1672  1.9178
17293SOL    HW263534   8.929   0.092   5.763 -0.7172  0.6327  1.5508
17294SOL     OW63535   8.957   7.339   3.702 -0.0457 -0.0759  0.0340
17294SOL    HW163536   8.907   7.277   3.762  0.1423 -0.9257 -0.6749
17294SOL    HW263537   8.973   7.426   3.749 -0.2783 -0.5789  1.0521
17295SOL     OW63538   7.549   2.224   3.540 -0.2475  0.1057  0.2713
17295SOL    HW163539   7.565   2.156   3.613 -1.9633 -1.8819 -1.1176
17295SOL    HW263540   7.619   2.215   3.470 -1.1764 -1.1741 -0.5334
17296SOL     OW63541   9.455   2.769   2.226 -0.1870 -0.4437  0.3840
17296SOL    HW163542   9.458   2.839   2.297 -1.0270  0.6567 -0.6406
17296SOL    HW263543   9.531   2.784   2.162 -1.9093  1.2036 -1.3459
17297SOL     OW63544   0.615   1.339   6.488 -0.5471  0.7163  0.2602
17297SOL    HW163545   0.620   1.438   6.475  0.4438  0.5804 -0.4292
17297SOL    HW263546   0.627   1.318   6.585 -1.7155  1.3282  0.5480
17298SOL     OW63547   3.534   0.354   4.746  0.2067 -0.2750  0.2478
17298SOL    HW163548   3.481   0.343   4.662 -1.6411  0.5593  1.2839
17298SOL    HW263549   3.604   0.424   4.732  0.9000 -1.1959 -1.0478
17299SOL     OW63550   6.923   0.528   1.460 -0.2790  0.3445  0.0958
17299SOL    HW163551   6.828   0.507   1.487 -0.1153 -0.3313  0.1533
17299SOL    HW263552   6.970   0.443   1.437  0.4582  0.6380  0.5292
17300SOL     OW63553   6.153   7.617   5.631  0.0179 -0.3958 -0.7061
17300SOL    HW163554   6.146   7.657   5.722  1.9757  1.7108 -1.4064
17300SOL    HW263555   6.063   7.585   5.601 -0.6536 -1.0011  1.8925
17301SOL     OW63556   6.209   0.258   5.251  0.2376  0.1327 -0.5655
17301SOL    HW163557   6.207   0.192   5.177  1.0142  0.0989 -0.5559
17301SOL    HW263558   6.297   0.307   5.251 -0.3348  1.1826 -0.5952
17302SOL     OW63559   3.463   8.794   4.702  0.1562 -0.1181  0.4014
17302SOL    HW163560   3.374   8.760   4.733 -0.6581 -0.3476 -2.0974
17302SOL    HW263561   3.509   8.723   4.650  0.2124  1.2072 -1.4016
17303SOL     OW63562   1.786   0.522   0.030  0.3356  0.0065 -0.0109
17303SOL    HW163563   1.798   0.611   0.073 -0.2322  0.1544 -0.1552
17303SOL    HW263564   1.811   0.450   0.095 -2.2611  0.1737  1.2133
17304SOL     OW63565   2.155   2.119   3.913  0.4248 -0.0401 -0.0899
17304SOL    HW163566   2.084   2.180   3.949  0.6557  0.5220 -0.5749
17304SOL    HW263567   2.220   2.172   3.858  1.3106 -0.5195  0.4754
17305SOL     OW63568   3.474   4.847   5.049 -0.0833 -0.6568  0.3565
17305SOL    HW163569   3.390   4.828   4.996  0.1886 -0.3505 -0.1918
17305SOL    HW263570   3.493   4.945   5.047  0.0878 -0.6817  0.7954
17306SOL     OW63571   0.858   7.680   1.618 -0.1007  0.3024 -0.6266
17306SOL    HW163572   0.791   7.712   1.551  0.3112  0.0384 -1.1722
17306SOL    HW263573   0.868   7.581   1.611 -0.1759  0.2553 -0.0630
17307SOL     OW63574   2.032   7.866   1.435  0.6684 -0.0700  0.1420
17307SOL    HW163575   2.055   7.907   1.523  1.8912 -0.7943  0.1772
17307SOL    HW263576   1.990   7.934   1.376 -0.7354  0.2566  1.5117
17308SOL     OW63577   3.739   6.147   1.883 -0.1854  0.3077  0.3047
17308SOL    HW163578   3.779   6.078   1.822  0.5365  0.0799  1.0277
17308SOL    HW263579   3.689   6.102   1.957 -1.0284  0.5831 -0.0856
17309SOL     OW63580   3.203   0.396   0.140  0.0559  0.0042  0.2527
17309SOL    HW163581   3.288   0.426   0.098  0.0486  1.5643  1.2788
17309SOL    HW263582   3.222   0.331   0.213  0.2656 -0.6006 -0.3363
17310SOL     OW63583   6.778   9.384   7.075  0.3096  0.8383 -0.2463
17310SOL    HW163584   6.716   9.320   7.120  1.1197  0.0807 -0.2134
17310SOL    HW263585   6.870   9.345   7.070  0.8844  2.1268  0.0762
17311SOL     OW63586   7.711   0.470   7.433 -0.8355 -0.0732  0.2822
17311SOL    HW163587   7.755   0.465   7.344  0.0708  0.4712  0.6929
17311SOL    HW263588   7.732   0.557   7.477 -3.0067  0.5576  0.1501
17312SOL     OW63589   4.311   6.810   3.738 -0.0365  0.3606 -0.1535
17312SOL    HW163590   4.333   6.729   3.792  0.9796  1.4101  1.0522
17312SOL    HW263591   4.251   6.785   3.662 -2.1339 -1.0199  1.9040
17313SOL     OW63592   0.089   4.525   2.858 -0.1452  0.2708 -0.3219
17313SOL    HW163593   0.104   4.560   2.950  2.1330  1.3254 -1.0414
17313SOL    HW263594  -0.006   4.497   2.847 -0.5494  0.6014  2.1786
17314SOL     OW63595   2.420   4.432   3.935  0.0212 -0.3200  0.9279
17314SOL    HW163596   2.395   4.525   3.908 -0.2456 -0.2607  1.3772
17314SOL    HW263597   2.367   4.366   3.882 -0.7703 -0.1997  1.5616
17315SOL     OW63598   0.795   1.302   1.108  0.8030 -0.6469 -0.0587
17315SOL    HW163599   0.821   1.252   1.025 -0.3318 -1.0887 -0.1596
17315SOL    HW263600   0.700   1.280   1.131  0.9044 -0.0026  0.9792
17316SOL     OW63601   1.935   3.320   2.398  0.4946  0.3398  0.1753
17316SOL    HW163602   1.968   3.226   2.410  0.1384  0.4158  1.9075
17316SOL    HW263603   1.994   3.383   2.448 -1.9211  0.5129  2.9764
17317SOL     OW63604   1.221   6.988   3.344  0.5131  0.2194  0.2184
17317SOL    HW163605   1.239   7.042   3.263 -2.5717  2.0427  0.6868
17317SOL    HW263606   1.126   6.956   3.343  0.7614 -0.7212  2.5239
17318SOL     OW63607   2.849   5.427   6.506  0.5113  0.0145 -0.2099
17318SOL    HW163608   2.900   5.369   6.570  1.4369  1.0450 -0.0070
17318SOL    HW263609   2.797   5.369   6.443  1.2065 -1.0329  0.1712
17319SOL     OW63610   2.502   7.786   3.279 -0.4524 -0.4025  0.3024
17319SOL    HW163611   2.581   7.846   3.294 -0.5800  0.0162 -0.6471
17319SOL    HW263612   2.457   7.766   3.366  0.2749 -0.0528  0.7548
17320SOL     OW63613   1.860   8.825   0.459 -0.2150 -0.5838  0.6907
17320SOL    HW163614   1.868   8.922   0.480 -0.0347 -0.6304  0.8371
17320SOL    HW263615   1.765   8.804   0.435 -0.5345 -0.6019  1.9083
17321SOL     OW63616   0.486   2.834   0.146 -0.7163  0.0238 -0.0226
17321SOL    HW163617   0.438   2.918   0.123 -0.5052  0.4916  1.1694
17321SOL    HW263618   0.578   2.856   0.179 -0.7460 -0.6463  0.5353
17322SOL     OW63619   0.808   9.469   6.477  0.0659  0.0960 -0.4394
17322SOL    HW163620   0.847   9.461   6.569 -1.6095 -1.0389  0.1831
17322SOL    HW263621   0.717   9.509   6.483 -1.9782 -4.1537 -1.0743
17323SOL     OW63622   3.977   6.776   1.679  0.7319  0.1603  0.0065
17323SOL    HW163623   3.882   6.774   1.711  1.1636 -1.4960  1.2969
17323SOL    HW263624   4.030   6.839   1.735  0.3260  1.3113 -0.9086
17324SOL     OW63625   3.082   2.414   3.902 -0.5586 -0.0282  0.6193
17324SOL    HW163626   3.055   2.490   3.961 -0.2821 -0.2217  0.9976
17324SOL    HW263627   3.027   2.415   3.818 -0.0523  1.0164  0.2975
17325SOL     OW63628   0.423   5.452   5.971 -0.0294 -0.0134 -0.5620
17325SOL    HW163629   0.486   5.454   6.049 -0.5915 -0.1339 -0.1041
17325SOL    HW263630   0.438   5.368   5.919  2.0993  1.2495 -2.0459
17326SOL     OW63631   0.120   2.043   7.905 -0.2315  0.8684  0.0073
17326SOL    HW163632   0.031   2.085   7.889 -0.6250 -0.1428 -0.4969
17326SOL    HW263633   0.159   2.077   7.991 -1.4805  0.6616  0.6585
17327SOL     OW63634   2.030   7.288   2.389 -0.0118 -0.3619 -0.0420
17327SOL    HW163635   1.993   7.206   2.345 -0.5222  0.1704 -0.6239
17327SOL    HW263636   2.060   7.266   2.481  0.8606 -1.4433 -0.5837
17328SOL     OW63637   2.135   4.097   4.228 -0.4105 -0.4289  0.4776
17328SOL    HW163638   2.180   4.187   4.227 -1.5105  0.1252 -0.3695
17328SOL    HW263639   2.048   4.103   4.275 -1.2604 -0.6508 -1.0187
17329SOL     OW63640   1.177   1.212   4.038 -0.6081  0.8099  0.0653
17329SOL    HW163641   1.159   1.167   4.125 -1.9330  0.2416 -0.4909
17329SOL    HW263642   1.124   1.296   4.032 -0.5558  0.8242 -0.2183
17330SOL     OW63643   2.182   3.541   7.275  0.2978  0.5742  0.3014
17330SOL    HW163644   2.101   3.484   7.290  0.0847  0.9051  0.4049
17330SOL    HW263645   2.237   3.542   7.359 -0.7635  2.2139  0.9992
17331SOL     OW63646   3.259   2.354   3.694  0.0079  0.0519 -0.1090
17331SOL    HW163647   3.199   2.355   3.774 -1.8681 -0.1201 -1.4905
17331SOL    HW263648   3.288   2.261   3.675 -0.2805 -0.0275 -0.1637
17332SOL     OW63649   7.362   2.675   4.579  0.6113  0.3542 -0.2479
17332SOL    HW163650   7.381   2.708   4.486 -0.7363  1.4664 -0.1537
17332SOL    HW263651   7.356   2.575   4.578  1.9674  0.2633 -1.0847
17333SOL     OW63652   1.353   3.840   3.285 -0.0633  0.7161 -0.3229
17333SOL    HW163653   1.393   3.752   3.312 -0.9835 -0.4026 -2.4510
17333SOL    HW263654   1.365   3.853   3.187 -0.9349  2.4573 -0.2093
17334SOL     OW63655   5.389   8.012   5.199  0.6180  0.0003  0.3122
17334SOL    HW163656   5.331   7.941   5.158  1.4493 -0.4276 -0.1363
17334SOL    HW263657   5.371   8.016   5.298  0.4804 -0.7581  0.3228
17335SOL     OW63658   4.114   3.362   4.636 -0.0968  0.0115 -0.6315
17335SOL    HW163659   4.066   3.278   4.662 -0.8031  0.2179 -1.2348
17335SOL    HW263660   4.056   3.414   4.573 -0.2323  1.6012  0.7903
17336SOL     OW63661   2.841   6.501   3.510  0.3585 -0.1964  0.3095
17336SOL    HW163662   2.882   6.591   3.522  1.0248 -0.7076  1.9243
17336SOL    HW263663   2.890   6.434   3.565  0.4830 -1.7415 -1.6399
17337SOL     OW63664   8.069   1.647   5.271  0.2810 -0.0088 -0.3429
17337SOL    HW163665   8.006   1.721   5.247  0.9794  1.3983  2.0124
17337SOL    HW263666   8.027   1.588   5.339  0.3825 -0.8062 -0.9656
17338SOL     OW63667   8.454   2.890   0.889  0.2030 -0.0570  0.2511
17338SOL    HW163668   8.473   2.967   0.827 -1.6713 -0.2269 -0.5861
17338SOL    HW263669   8.534   2.831   0.895  0.4329 -0.0250 -2.0294
17339SOL     OW63670   0.207   0.032   3.067  0.2812 -0.0550 -0.1444
17339SOL    HW163671   0.250  -0.047   3.112 -0.8070 -0.3959  0.3089
17339SOL    HW263672   0.211   0.111   3.128 -1.7738 -0.6836  0.8416
17340SOL     OW63673   5.284   0.177   5.585  0.0130 -0.2444  0.4177
17340SOL    HW163674   5.302   0.259   5.640  1.9073 -0.1496 -0.3176
17340SOL    HW263675   5.365   0.154   5.532 -1.5194 -0.8386 -1.7175
17341SOL     OW63676   4.596   9.418   6.714 -0.3990 -0.4857  0.6936
17341SOL    HW163677   4.550   9.443   6.799  0.1829 -1.4004  1.2762
17341SOL    HW263678   4.678   9.365   6.734  1.2214  1.5682 -0.3202
17342SOL     OW63679   5.172   0.950   4.313 -0.2247  0.3855 -0.0005
17342SOL    HW163680   5.163   1.015   4.237  0.8240 -0.5015 -0.8896
17342SOL    HW263681   5.243   0.982   4.376  1.6665 -0.8820 -1.4619
17343SOL     OW63682   4.164   5.305   0.083 -0.3073  0.6030 -0.5193
17343SOL    HW163683   4.124   5.248   0.154 -1.5760 -0.0956 -1.7862
17343SOL    HW263684   4.230   5.369   0.124 -0.2881 -0.4766  1.1315
17344SOL     OW63685   2.311   5.139   7.678 -0.2386 -0.6551  0.2057
17344SOL    HW163686   2.216   5.110   7.692  0.4307 -2.4682  1.0071
17344SOL    HW263687   2.359   5.138   7.765 -0.3354  3.5032  0.4132
17345SOL     OW63688   4.990   9.548   4.521  0.0564 -0.3847  0.4514
17345SOL    HW163689   5.072   9.534   4.576  0.8227  1.3716 -0.2185
17345SOL    HW263690   4.939   9.628   4.555  0.3142  0.4564 -1.0996
17346SOL     OW63691   8.270   3.684   3.989  0.1860  1.0251 -0.4594
17346SOL    HW163692   8.177   3.685   4.025  0.7105 -0.1537  0.9728
17346SOL    HW263693   8.307   3.777   3.990 -0.8960  1.4682 -0.8517
17347SOL     OW63694   1.242   2.664   8.056 -0.5896  0.0695  0.3871
17347SOL    HW163695   1.266   2.738   7.993 -0.3387 -0.0552  0.3372
17347SOL    HW263696   1.167   2.610   8.017 -0.0942 -0.3167 -0.0348
17348SOL     OW63697   7.816   7.670   1.905  0.2439 -0.0897 -0.2179
17348SOL    HW163698   7.784   7.685   1.999 -0.5835  1.8870 -0.7905
17348SOL    HW263699   7.820   7.758   1.857  1.6781 -0.9520 -1.7188
17349SOL     OW63700   9.593   3.652   0.730 -0.3143  0.1135 -0.1806
17349SOL    HW163701   9.663   3.723   0.726  0.1031 -0.2869  0.0184
17349SOL    HW263702   9.508   3.691   0.765  0.3386  0.1705  1.3387
17350SOL     OW63703   8.356   1.918   3.064 -0.0080 -0.4797  0.0022
17350SOL    HW163704   8.446   1.961   3.061  0.7520 -1.8412  2.0691
17350SOL    HW263705   8.367   1.818   3.055 -1.4795 -0.5335 -1.5698
17351SOL     OW63706   6.448   1.156   4.248 -0.5559 -0.4220  0.1451
17351SOL    HW163707   6.483   1.102   4.171 -1.7798  0.3287 -0.9610
17351SOL    HW263708   6.437   1.251   4.219 -1.7988 -0.2969  1.0166
17352SOL     OW63709   1.333   2.459   0.013  0.1691  0.7213 -1.0334
17352SOL    HW163710   1.419   2.499   0.045  0.7007  0.5291 -2.1831
17352SOL    HW263711   1.271   2.532  -0.017 -0.4432  0.9240  0.6285
17353SOL     OW63712   2.197   3.391   4.245 -0.2575 -0.7073  0.7220
17353SOL    HW163713   2.181   3.472   4.189  0.7688 -2.4490 -2.1873
17353SOL    HW263714   2.110   3.344   4.263 -0.5529 -0.3433  0.2443
17354SOL     OW63715   1.864   3.786   2.929  0.4221 -0.2906  0.3641
17354SOL    HW163716   1.804   3.853   2.885  1.0957  0.8484  1.1515
17354SOL    HW263717   1.849   3.696   2.889 -1.0422  0.1925 -0.1832
17355SOL     OW63718   3.711   0.072   3.400 -0.5320  0.3536  0.0410
17355SOL    HW163719   3.619   0.034   3.409 -0.3353  0.0356  0.7957
17355SOL    HW263720   3.710   0.148   3.335 -1.8598  2.1011  2.0306
17356SOL     OW63721   2.500   9.828   5.634 -0.1336  0.5481  0.5903
17356SOL    HW163722   2.467   9.747   5.585  1.8402  0.3277 -0.4392
17356SOL    HW263723   2.440   9.847   5.712 -0.6831 -1.8276  0.7804
17357SOL     OW63724   2.692   6.671   6.361  0.0259  0.0579 -0.0075
17357SOL    HW163725   2.598   6.640   6.342 -0.2439  1.2849 -0.7604
17357SOL    HW263726   2.756   6.599   6.334 -0.6281 -0.2098 -0.9011
17358SOL     OW63727   8.217   7.915   4.099 -0.3101  0.1922  0.4786
17358SOL    HW163728   8.289   7.983   4.085  1.3017 -1.6551 -0.4170
17358SOL    HW263729   8.144   7.929   4.032  1.3935 -0.7292 -1.6271
17359SOL     OW63730   2.284   2.165   0.563 -0.1085 -0.1270 -0.1678
17359SOL    HW163731   2.313   2.069   0.568 -0.5995 -0.2597  0.1674
17359SOL    HW263732   2.357   2.220   0.524  0.0211 -0.7139 -0.7643
17360SOL     OW63733   9.933   9.631   1.480  0.6795 -0.3935  0.1167
17360SOL    HW163734   9.980   9.704   1.431  0.1865 -1.1359 -1.5179
17360SOL    HW263735   9.851   9.604   1.429  0.6026 -1.7648  0.9332
17361SOL     OW63736   1.900   8.619   6.108 -0.0528  0.2372  0.3625
17361SOL    HW163737   1.873   8.526   6.080 -1.2557  0.3384  1.1387
17361SOL    HW263738   1.846   8.646   6.188  0.3790  1.5642  0.2045
17362SOL     OW63739   4.964   7.997   7.071 -0.0672 -0.8102  0.3080
17362SOL    HW163740   5.000   7.941   6.996 -0.2456  0.7345 -0.9614
17362SOL    HW263741   4.912   7.939   7.134  0.6757 -2.2512 -0.3725
17363SOL     OW63742   2.995   1.857   6.329 -0.3075 -0.2736  0.0135
17363SOL    HW163743   2.951   1.768   6.312  2.5141 -1.8716  0.7376
17363SOL    HW263744   3.029   1.859   6.423 -0.4035  1.6238  0.0088
17364SOL     OW63745   5.570   8.864   3.700 -0.3874  0.0450  0.0479
17364SOL    HW163746   5.517   8.949   3.705 -0.2798  0.0653  0.9080
17364SOL    HW263747   5.525   8.800   3.639 -0.4435  0.7452 -0.6541
17365SOL     OW63748   3.282   9.488   7.601  0.3869 -0.0940 -0.1413
17365SOL    HW163749   3.338   9.421   7.650  0.4108  1.5918  2.2361
17365SOL    HW263750   3.272   9.570   7.657 -1.5518  1.0083 -2.0192
17366SOL     OW63751   7.772   5.770   2.782 -0.1135  0.5448 -0.0740
17366SOL    HW163752   7.864   5.796   2.750 -0.2892  1.5055  0.1846
17366SOL    HW263753   7.780   5.714   2.864  0.2605  0.3018 -0.2745
17367SOL     OW63754   7.228   1.008   2.948 -0.4210 -0.2741  0.1214
17367SOL    HW163755   7.193   1.043   2.861  0.4921 -0.7940 -0.4680
17367SOL    HW263756   7.295   1.073   2.985 -1.1120  0.1463  0.6530
17368SOL     OW63757   4.160   7.926   2.445 -0.3904 -0.5167  0.7967
17368SOL    HW163758   4.110   8.013   2.444 -2.0363 -1.4554 -0.7316
17368SOL    HW263759   4.148   7.880   2.357  1.7872 -1.5659  1.0244
17369SOL     OW63760   2.936   8.026   3.847 -0.1406 -0.4858 -0.1183
17369SOL    HW163761   2.874   8.064   3.777  1.2773  1.2816 -0.4566
17369SOL    HW263762   2.976   8.101   3.900  3.9274 -1.3389 -1.8087
17370SOL     OW63763   1.717   3.338   3.437 -0.0987  0.1267 -0.5496
17370SOL    HW163764   1.746   3.396   3.513  2.2175 -0.2433 -1.1257
17370SOL    HW263765   1.634   3.376   3.396 -0.6514  1.0238  1.3453
17371SOL     OW63766   1.299   9.958   4.185 -0.1799 -0.1373  0.3203
17371SOL    HW163767   1.393   9.927   4.170  0.1785  0.9434  0.2648
17371SOL    HW263768   1.276   9.950   4.282  0.4598  0.9045  0.5661
17372SOL     OW63769   3.296   0.872   4.853 -0.1390 -0.4120 -0.0148
17372SOL    HW163770   3.235   0.835   4.922 -1.4918  1.7291 -0.0085
17372SOL    HW263771   3.273   0.833   4.764 -0.1921 -1.1046  0.2985
17373SOL     OW63772   9.982   5.234   7.901  0.4049  0.1569  0.2171
17373SOL    HW163773   9.985   5.301   7.827 -1.6597  0.6187  0.5071
17373SOL    HW263774   9.948   5.279   7.984 -0.7446 -1.1879  0.4894
17374SOL     OW63775   2.901   2.487   5.792  0.4782  0.2382 -1.2170
17374SOL    HW163776   2.980   2.488   5.853  0.3444  1.0839 -1.0474
17374SOL    HW263777   2.878   2.393   5.768  0.7109 -0.0821 -0.1928
17375SOL     OW63778   3.197   1.952   1.713 -0.3533 -0.3299 -0.3345
17375SOL    HW163779   3.282   1.900   1.703 -0.3412 -0.4210  0.2362
17375SOL    HW263780   3.144   1.946   1.628 -1.0542 -2.4890  0.2396
17376SOL     OW63781   0.068   9.050   7.722  0.3339  0.0075  0.1703
17376SOL    HW163782   0.016   9.117   7.669  2.6319  0.8012 -1.1793
17376SOL    HW263783   0.007   8.979   7.757 -1.8510  1.7789  0.0160
17377SOL     OW63784   2.707   2.256   1.935  0.0364  0.1882 -0.0640
17377SOL    HW163785   2.734   2.237   1.841  1.3003 -0.7994  0.4817
17377SOL    HW263786   2.644   2.333   1.937  1.1800  1.1892 -1.5817
17378SOL     OW63787   3.896   8.036   1.060  0.1279 -0.1552 -0.0644
17378SOL    HW163788   3.990   8.046   1.028 -0.4985 -1.2892 -2.3884
17378SOL    HW263789   3.859   7.948   1.029 -1.4947 -0.0194  1.3697
17379SOL     OW63790   3.645   0.304   0.895 -0.1965 -0.2321  0.6654
17379SOL    HW163791   3.667   0.351   0.810  0.5549  1.2161  1.6324
17379SOL    HW263792   3.597   0.366   0.957 -0.6045 -1.2181  1.3612
17380SOL     OW63793   0.529   6.252   4.094 -0.1469  0.2301 -0.1025
17380SOL    HW163794   0.447   6.292   4.134  0.2841  2.1305 -1.0601
17380SOL    HW263795   0.509   6.222   4.000 -0.2451 -1.0687  0.3241
17381SOL     OW63796   6.953   4.783   1.130  0.1300 -0.0612  0.3137
17381SOL    HW163797   6.960   4.766   1.031 -0.3589  1.3462  0.0250
17381SOL    HW263798   7.021   4.851   1.157 -0.6792  0.6117  0.6850
17382SOL     OW63799   0.315   3.967   6.859 -0.4189  0.1240  0.1751
17382SOL    HW163800   0.301   3.996   6.764 -0.4415  0.7933  0.3820
17382SOL    HW263801   0.266   4.029   6.920 -3.1402 -2.1639  0.4598
17383SOL     OW63802   8.021   9.818   2.739 -1.0091  0.3466 -0.0965
17383SOL    HW163803   8.099   9.855   2.791 -1.3487  0.2181  0.5129
17383SOL    HW263804   8.031   9.719   2.730 -0.9223  0.3750 -0.3187
17384SOL     OW63805   1.513   1.671   2.142 -0.0361  1.0277  0.2542
17384SOL    HW163806   1.592   1.617   2.172  0.9998  3.1048  1.4038
17384SOL    HW263807   1.442   1.610   2.108  1.7716 -0.9342 -0.1104
17385SOL     OW63808   8.219   9.754   0.922  0.4824  0.1151 -0.2230
17385SOL    HW163809   8.196   9.789   1.013  0.4290 -2.6390  0.8644
17385SOL    HW263810   8.315   9.771   0.903  0.7549 -0.2731  0.8065
17386SOL     OW63811   2.268   6.023   6.376  0.2248  0.1118 -0.0854
17386SOL    HW163812   2.335   6.091   6.407 -0.1291  1.0671 -1.3855
17386SOL    HW263813   2.307   5.932   6.386  1.4006  0.6096 -0.0239
17387SOL     OW63814   7.596   6.985   3.009 -0.3821 -0.0488 -0.3001
17387SOL    HW163815   7.611   6.935   3.095 -0.4036 -0.1010 -0.3264
17387SOL    HW263816   7.608   7.083   3.025  0.7668 -0.1442 -0.4853
17388SOL     OW63817   0.305   1.192   0.372  0.1736  0.3439  0.6046
17388SOL    HW163818   0.355   1.178   0.457 -0.9038 -0.4563  1.1159
17388SOL    HW263819   0.370   1.210   0.298  1.2035 -0.4919  1.2936
17389SOL     OW63820   6.503   8.364   4.485 -0.2769 -1.2150 -0.3801
17389SOL    HW163821   6.596   8.397   4.470  1.0182 -3.7197  1.6838
17389SOL    HW263822   6.477   8.376   4.581 -2.6436  0.7245 -1.2167
17390SOL     OW63823   3.008   6.094   1.962 -0.4106 -0.0123 -0.5378
17390SOL    HW163824   3.068   6.014   1.973  1.2563  1.2960 -0.0087
17390SOL    HW263825   3.059   6.168   1.918 -1.3145  1.4738  0.8834
17391SOL     OW63826   7.361   4.270   5.466  0.1846  0.2123  0.4254
17391SOL    HW163827   7.344   4.314   5.554  1.6370  1.8461 -0.0856
17391SOL    HW263828   7.367   4.340   5.395  1.1800 -0.9180 -0.6211
17392SOL     OW63829   8.196   5.083   2.123 -0.0608  0.1994  0.0640
17392SOL    HW163830   8.214   5.073   2.025 -0.2355 -1.3618  0.1772
17392SOL    HW263831   8.119   5.023   2.149 -1.8090  2.6225  0.6407
17393SOL     OW63832   8.676   7.382   0.054 -0.3656 -0.7963 -0.2888
17393SOL    HW163833   8.581   7.361   0.078 -0.4644  0.6494  0.6715
17393SOL    HW263834   8.718   7.434   0.128  1.6093 -2.5821 -0.1275
17394SOL     OW63835   4.067   9.706   1.583  0.5215  0.5454 -0.3440
17394SOL    HW163836   4.124   9.710   1.665  0.1813  0.2310 -0.0907
17394SOL    HW263837   3.984   9.759   1.597 -0.3911 -1.0044  0.1909
17395SOL     OW63838   9.958   9.356   5.545  0.2198  0.1864 -0.0736
17395SOL    HW163839   9.876   9.346   5.601  0.3340 -0.2538  0.0139
17395SOL    HW263840  10.009   9.437   5.574  0.8465 -0.6466  1.1943
17396SOL     OW63841   0.217   6.308   3.023  0.3398 -0.2593 -0.0934
17396SOL    HW163842   0.142   6.254   2.987  1.7347 -1.6717 -0.9586
17396SOL    HW263843   0.269   6.253   3.088  1.6787  0.0620 -0.8665
17397SOL     OW63844   8.497   1.763   3.368 -0.2784 -0.2767 -0.6696
17397SOL    HW163845   8.494   1.859   3.340  1.3064 -0.2125 -0.6391
17397SOL    HW263846   8.576   1.718   3.327  0.6055 -0.8379  1.5804
17398SOL     OW63847   7.508   4.216   1.619 -0.9419  0.1023  0.3461
17398SOL    HW163848   7.538   4.123   1.598  0.2329  0.5816 -0.1726
17398SOL    HW263849   7.570   4.257   1.686  1.0622  1.9455 -2.5073
17399SOL     OW63850   9.935   1.656   2.220 -0.4054 -0.0035  0.7972
17399SOL    HW163851   9.883   1.571   2.228  0.2445 -0.3985  0.7763
17399SOL    HW263852  10.033   1.637   2.227 -0.1534  0.4888 -1.3101
17400SOL     OW63853   0.629   3.724   0.764 -0.4259  0.0570  0.1961
17400SOL    HW163854   0.617   3.625   0.756  0.0388 -0.0050  0.2467
17400SOL    HW263855   0.719   3.744   0.802  0.3916  0.5500 -1.8935
17401SOL     OW63856   4.616   2.484   3.524  0.1691 -0.3799  0.3398
17401SOL    HW163857   4.539   2.456   3.583 -0.2385  0.4158  0.1909
17401SOL    HW263858   4.584   2.553   3.459  0.7926 -0.7384 -0.3469
17402SOL     OW63859   1.405   5.889   1.441 -0.0806 -0.5492  0.1458
17402SOL    HW163860   1.348   5.809   1.421 -0.0517 -0.5101 -0.0987
17402SOL    HW263861   1.374   5.931   1.526  0.3118 -1.1833  0.5992
17403SOL     OW63862   1.422   9.192   3.144  0.4889 -0.0651 -0.4181
17403SOL    HW163863   1.337   9.140   3.154  0.6205 -0.1708  0.1494
17403SOL    HW263864   1.464   9.205   3.234 -0.5058  2.6637 -0.3093
17404SOL     OW63865   5.008   7.987   6.574  0.4365  0.2195 -0.7158
17404SOL    HW163866   5.054   8.045   6.507  0.0398  0.7126 -0.5604
17404SOL    HW263867   5.073   7.920   6.610  1.2650  1.4997  0.1706
17405SOL     OW63868   0.398   0.337   2.114 -0.0125  0.7549  0.3169
17405SOL    HW163869   0.378   0.281   2.195  0.1385 -0.3660 -0.4163
17405SOL    HW263870   0.488   0.379   2.124  0.4133 -0.1388  0.3265
17406SOL     OW63871   5.913   1.478   4.625  0.5458 -0.8484 -0.5440
17406SOL    HW163872   5.874   1.530   4.549  1.6087 -0.0005 -0.5199
17406SOL    HW263873   5.853   1.487   4.705  0.6921  0.2995 -0.5512
17407SOL     OW63874   2.453   6.519   0.681 -0.0067  0.6025  0.4012
17407SOL    HW163875   2.452   6.423   0.656  1.8773  1.1008 -1.7368
17407SOL    HW263876   2.366   6.561   0.656 -0.7079 -0.4600  1.0427
17408SOL     OW63877   1.929   1.352   3.621 -0.0175  0.3633  0.1658
17408SOL    HW163878   1.974   1.294   3.688  1.5007 -0.5647 -1.6290
17408SOL    HW263879   1.862   1.299   3.570  0.7255  0.4052 -0.8619
17409SOL     OW63880   8.794   2.376   4.929  0.3294 -0.9324  0.0089
17409SOL    HW163881   8.793   2.340   5.022 -0.6710 -0.2202  0.2871
17409SOL    HW263882   8.877   2.347   4.882  0.7628 -1.4221  1.0777
17410SOL     OW63883   0.990   4.488   4.093  0.1519  0.1988 -0.6406
17410SOL    HW163884   0.916   4.508   4.156 -0.1026 -0.5881 -0.6754
17410SOL    HW263885   1.000   4.388   4.085  2.7633  0.2483  1.2272
17411SOL     OW63886   0.201   9.391   1.816  0.2312 -0.2301  0.0073
17411SOL    HW163887   0.186   9.340   1.900 -2.6393  0.3662 -0.1025
17411SOL    HW263888   0.259   9.470   1.836  2.0858 -1.7465  0.7856
17412SOL     OW63889   1.287   5.665   5.435 -0.2037 -0.1342  0.1371
17412SOL    HW163890   1.310   5.729   5.508 -1.5217  0.8395 -0.2850
17412SOL    HW263891   1.301   5.708   5.346 -1.8303 -0.1488 -0.1424
17413SOL     OW63892   7.899   3.507   4.525  0.1654 -0.1069  0.2427
17413SOL    HW163893   7.959   3.518   4.446 -1.4726 -1.1725 -1.1971
17413SOL    HW263894   7.901   3.412   4.556  0.4191  0.1991  1.1816
17414SOL     OW63895   6.755   4.151   1.542  0.1416  0.3934 -0.2030
17414SOL    HW163896   6.745   4.243   1.580  2.5224  0.6856 -0.2320
17414SOL    HW263897   6.829   4.150   1.475 -0.3164 -1.3898 -0.7033
17415SOL     OW63898   2.709   3.524   7.900 -0.3496  0.6300  0.1213
17415SOL    HW163899   2.687   3.548   7.806  0.0256  0.5246  0.0087
17415SOL    HW263900   2.689   3.428   7.916 -1.2351  0.8521  0.3920
17416SOL     OW63901   0.535   7.716   5.811  0.5847  0.3285  0.7195
17416SOL    HW163902   0.462   7.785   5.814 -2.4948 -2.7470  0.3869
17416SOL    HW263903   0.571   7.710   5.718 -0.0796  0.5634  0.4445
17417SOL     OW63904   2.430   6.084   4.600 -0.3069  0.3209 -0.7337
17417SOL    HW163905   2.419   5.989   4.571  0.6889 -0.1381  0.3398
17417SOL    HW263906   2.436   6.088   4.700  0.4148  1.4252 -0.8081
17418SOL     OW63907   1.136   0.483   2.060 -0.1027  0.6666  0.0667
17418SOL    HW163908   1.042   0.451   2.063  0.0740  0.2383  1.3119
17418SOL    HW263909   1.149   0.555   2.129  1.1617 -1.2155  1.8732
17419SOL     OW63910   0.488   0.612   0.381  0.4015 -0.5314 -0.0332
17419SOL    HW163911   0.530   0.701   0.401  0.0859 -0.4999  0.5072
17419SOL    HW263912   0.394   0.611   0.415 -0.2439 -0.3945 -1.7604
17420SOL     OW63913   4.153   4.924   6.219  0.5297 -0.2210  0.0546
17420SOL    HW163914   4.157   4.847   6.283 -0.3091 -1.2624 -1.1097
17420SOL    HW263915   4.067   4.973   6.229  0.3211 -0.4912 -0.3768
17421SOL     OW63916   4.775   7.911   1.526 -0.5145 -0.5953 -0.0758
17421SOL    HW163917   4.682   7.945   1.512  0.2938  0.5840 -3.0036
17421SOL    HW263918   4.786   7.824   1.479  0.6682  0.7073 -2.2839
17422SOL     OW63919   9.737   6.737   3.957  0.1300 -0.2661 -0.1804
17422SOL    HW163920   9.656   6.721   3.900 -0.8269 -0.2014  1.1518
17422SOL    HW263921   9.773   6.650   3.989  0.6300 -0.2989 -0.8377
17423SOL     OW63922   5.840   0.863   5.388 -0.0542 -0.0912 -0.1717
17423SOL    HW163923   5.837   0.882   5.290  0.2171  1.3420  0.0863
17423SOL    HW263924   5.894   0.933   5.434 -0.6976 -0.4055  1.0923
17424SOL     OW63925   2.812   6.172   5.504 -0.3296  0.1917  0.1558
17424SOL    HW163926   2.832   6.200   5.410 -0.1227  0.6652  0.3410
17424SOL    HW263927   2.886   6.202   5.564 -1.0166  0.9094  0.6576
17425SOL     OW63928   1.072   4.249   8.000  0.3257  0.3755  0.7392
17425SOL    HW163929   1.034   4.160   8.026  2.4083 -0.2177  1.8930
17425SOL    HW263930   1.051   4.316   8.072 -1.7355  1.0022 -0.3953
17426SOL     OW63931   4.749   8.493   4.280  0.1443  0.3165  0.1754
17426SOL    HW163932   4.801   8.550   4.343 -0.3747 -0.1003  0.9908
17426SOL    HW263933   4.796   8.406   4.266  1.1558  1.0889 -1.4039
17427SOL     OW63934   7.996   5.212   7.273 -0.3461  0.2703  0.4517
17427SOL    HW163935   7.958   5.124   7.301 -0.2383  0.2310  0.4728
17427SOL    HW263936   8.076   5.198   7.215  0.6725  0.3663  1.8228
17428SOL     OW63937   3.153   3.249   4.432  0.1079  0.6193  0.0138
17428SOL    HW163938   3.090   3.184   4.390  0.6186 -1.3308  2.1168
17428SOL    HW263939   3.238   3.252   4.379 -0.4781  0.7052 -0.9314
17429SOL     OW63940   9.771   7.696   4.447 -0.4294 -0.1098 -0.1246
17429SOL    HW163941   9.780   7.650   4.535 -0.4929  0.0514 -0.0338
17429SOL    HW263942   9.849   7.756   4.432 -0.0872 -0.6410 -0.4769
17430SOL     OW63943   8.251   8.633   2.303  0.2590 -0.1154  0.4807
17430SOL    HW163944   8.346   8.605   2.317  0.3160 -0.0556  0.2109
17430SOL    HW263945   8.230   8.712   2.361  0.0942 -0.7167  1.2576
17431SOL     OW63946   4.580   1.841   5.007  0.1455 -0.0603  0.4519
17431SOL    HW163947   4.553   1.860   4.913  2.7432  2.0189  0.0532
17431SOL    HW263948   4.665   1.787   5.007  0.3977  0.3261  1.5767
17432SOL     OW63949   8.421   8.974   4.891  0.3757 -0.6103  0.2412
17432SOL    HW163950   8.390   8.879   4.890 -2.5426  0.2668  2.0761
17432SOL    HW263951   8.364   9.028   4.829  0.6258  0.3763  0.8700
17433SOL     OW63952   5.802   5.330   2.320  0.2131  0.3961 -0.5349
17433SOL    HW163953   5.706   5.309   2.342  0.8046  0.0992  1.9610
17433SOL    HW263954   5.829   5.278   2.239 -0.8877 -1.8725  0.4765
17434SOL     OW63955   9.757   6.114   8.119 -0.1519  0.2743 -0.6766
17434SOL    HW163956   9.711   6.108   8.031 -1.9323  0.7574  0.1882
17434SOL    HW263957   9.799   6.026   8.141 -2.8908 -1.0133 -0.3316
17435SOL     OW63958   9.056   8.555   0.989  0.1146  0.1355  0.1087
17435SOL    HW163959   8.985   8.602   0.937 -0.0163 -0.9124 -0.6899
17435SOL    HW263960   9.039   8.568   1.087 -2.3580 -1.7166 -0.0034
17436SOL     OW63961   8.402   0.903   4.037 -0.3764 -0.2859 -0.2098
17436SOL    HW163962   8.353   0.984   4.071 -1.1744 -1.1462  0.7193
17436SOL    HW263963   8.369   0.879   3.946  0.2101  0.7263 -0.6963
17437SOL     OW63964   8.433   4.023   1.542 -0.1455 -0.2194 -0.2334
17437SOL    HW163965   8.387   4.052   1.459 -0.0619 -0.4053 -0.3469
17437SOL    HW263966   8.528   4.053   1.540 -0.7142  1.7082  0.8098
17438SOL     OW63967   2.935   2.161   3.245 -0.4018 -0.3946  0.1481
17438SOL    HW163968   3.022   2.185   3.202  0.2348  1.0169  2.1269
17438SOL    HW263969   2.859   2.192   3.188  0.4258  1.2022 -0.1085
17439SOL     OW63970   2.895   7.835   6.210  0.6209 -0.2326  0.0067
17439SOL    HW163971   2.883   7.927   6.172  0.2626 -0.0209  0.6305
17439SOL    HW263972   2.893   7.768   6.135  2.2936  0.3779 -0.6003
17440SOL     OW63973   9.972   0.149   0.756 -0.2006  0.4422  0.2607
17440SOL    HW163974  10.005   0.073   0.812  0.9997  0.5827 -0.2314
17440SOL    HW263975   9.999   0.134   0.661  1.2047  2.1180  0.3692
17441SOL     OW63976   3.562   4.701   5.309  0.2504 -0.2834  0.1371
17441SOL    HW163977   3.586   4.795   5.334 -1.0041  0.3559 -0.9843
17441SOL    HW263978   3.497   4.702   5.233 -0.2378 -2.0572  0.4987
17442SOL     OW63979   2.602   3.995   0.368 -0.3889  1.3798  0.2794
17442SOL    HW163980   2.698   3.981   0.343 -0.4269 -1.4431  1.5226
17442SOL    HW263981   2.544   3.956   0.296 -0.5701  1.2452  0.4993
17443SOL     OW63982   1.879   0.574   4.343 -0.0031 -0.1855  0.0154
17443SOL    HW163983   1.899   0.635   4.419  0.0455 -0.5453  0.2965
17443SOL    HW263984   1.884   0.624   4.257  1.4144 -0.0956  0.1311
17444SOL     OW63985   0.612   2.453   3.394  0.7942 -0.1378 -0.1130
17444SOL    HW163986   0.573   2.522   3.455  0.4534  0.1994 -0.7066
17444SOL    HW263987   0.583   2.472   3.300  0.6996 -1.0964 -0.2785
17445SOL     OW63988   7.676   5.567   0.892  0.2764 -0.0902 -0.0663
17445SOL    HW163989   7.580   5.569   0.920  0.5517  0.0025  0.8915
17445SOL    HW263990   7.682   5.583   0.794 -0.7107 -0.4114 -0.1920
17446SOL     OW63991   4.191   1.198   4.805 -0.1673  0.1281 -0.4443
17446SOL    HW163992   4.261   1.248   4.857  0.0821  1.1206 -1.6981
17446SOL    HW263993   4.101   1.224   4.837  0.0221 -0.4268  0.5341
17447SOL     OW63994   9.360   4.004   0.648 -0.4169  0.5972 -0.0113
17447SOL    HW163995   9.395   4.090   0.684  0.1997  0.1413  0.5106
17447SOL    HW263996   9.411   3.978   0.566  0.6959 -0.2217  0.9251
17448SOL     OW63997   7.198   3.120   1.364  0.6502 -0.2020  0.0654
17448SOL    HW163998   7.165   3.194   1.305 -0.1451  0.2082  1.0101
17448SOL    HW263999   7.152   3.034   1.340 -1.8618  0.5316  1.9464
17449SOL     OW64000   6.502   2.358   1.645  0.9661 -0.2858 -0.7354
17449SOL    HW164001   6.530   2.334   1.737  0.2133  1.3541 -0.0573
17449SOL    HW264002   6.520   2.456   1.629 -0.6087 -0.1333 -1.6776
17450SOL     OW64003   9.401   9.414   2.647  0.2698  0.0096  0.0540
17450SOL    HW164004   9.434   9.329   2.688  2.9007  0.9917  0.0646
17450SOL    HW264005   9.301   9.410   2.638  0.3853 -3.3295 -0.5258
17451SOL     OW64006   7.922   1.507   3.518  0.8684  0.0042  0.2299
17451SOL    HW164007   7.964   1.450   3.448  1.1686  1.3587 -0.7137
17451SOL    HW264008   7.825   1.520   3.496  1.6655  3.0521 -1.7201
17452SOL     OW64009   7.425   8.987   4.481  0.5884  0.1396 -0.0174
17452SOL    HW164010   7.516   8.995   4.522  0.8046  1.8140 -0.7680
17452SOL    HW264011   7.392   9.078   4.457 -0.9510 -0.5348 -0.4934
17453SOL     OW64012   0.504   6.064   5.077 -0.5352 -0.0726  0.3048
17453SOL    HW164013   0.537   5.971   5.062 -1.4441 -0.5140  0.9823
17453SOL    HW264014   0.525   6.120   4.997 -0.1092 -0.8912 -0.1687
17454SOL     OW64015   2.772   3.023   0.109  0.0150 -0.4987 -0.1398
17454SOL    HW164016   2.819   3.033   0.196 -1.3338  0.4776  0.5043
17454SOL    HW264017   2.829   2.972   0.045  1.8460  0.4775  0.6754
17455SOL     OW64018   4.375  -0.003   3.290 -0.1083  0.1109  0.2419
17455SOL    HW164019   4.431   0.072   3.324  2.3553 -1.6282  0.2203
17455SOL    HW264020   4.352   0.014   3.194 -0.8530  1.5440  0.6665
17456SOL     OW64021   1.402   7.886   3.869 -0.2379  0.2667  0.2503
17456SOL    HW164022   1.469   7.813   3.874 -2.5659 -1.9558 -0.0578
17456SOL    HW264023   1.396   7.919   3.774  0.7476  0.8318  0.3733
17457SOL     OW64024   1.308   3.232   4.118 -0.4198  0.0600  0.1936
17457SOL    HW164025   1.367   3.288   4.060  0.3470 -0.7874  0.1554
17457SOL    HW264026   1.354   3.215   4.205 -0.7021 -0.4195  0.2509
17458SOL     OW64027   1.956   9.208   7.294  0.8084  0.1465 -0.3268
17458SOL    HW164028   2.038   9.152   7.309  0.6485  0.0335  0.1239
17458SOL    HW264029   1.917   9.235   7.382  0.7840  0.8244 -0.5362
17459SOL     OW64030   7.082   2.557   4.837 -0.3917  0.2443 -0.6807
17459SOL    HW164031   7.109   2.631   4.775  1.6956  0.3122  0.2814
17459SOL    HW264032   7.162   2.523   4.886 -1.9913  0.1367  1.9462
17460SOL     OW64033   5.496   0.998   6.231 -0.5377  0.6849  0.3515
17460SOL    HW164034   5.522   0.968   6.140  1.3233 -0.6847  1.3057
17460SOL    HW264035   5.398   0.986   6.244 -0.2991 -2.2560 -0.3308
17461SOL     OW64036   0.412   2.789   1.982  0.4048 -0.2001 -0.5999
17461SOL    HW164037   0.367   2.878   1.979  0.7837  0.1294  2.0690
17461SOL    HW264038   0.343   2.717   1.975 -0.1220  0.3169 -0.7533
17462SOL     OW64039   0.478   8.640   0.659 -0.5373  0.8527  0.2119
17462SOL    HW164040   0.550   8.699   0.624 -0.9190  1.3088  0.1892
17462SOL    HW264041   0.397   8.649   0.600 -0.0895 -0.8344 -0.6900
17463SOL     OW64042   0.180   6.575   6.027  0.3028  0.2204 -0.0111
17463SOL    HW164043   0.172   6.487   6.073  2.8559  0.1250  0.2814
17463SOL    HW264044   0.169   6.649   6.093 -0.7267  0.1318 -0.0722
17464SOL     OW64045   9.181   1.224   0.541 -0.0158 -0.0069 -0.6330
17464SOL    HW164046   9.083   1.213   0.526 -0.1390  1.6165 -1.1437
17464SOL    HW264047   9.197   1.301   0.603  0.9840  0.5997 -1.6339
17465SOL     OW64048   8.082   1.203   2.855 -0.2834 -0.0327  0.2827
17465SOL    HW164049   8.058   1.204   2.758 -0.3044  2.2062  0.2808
17465SOL    HW264050   8.121   1.114   2.879 -0.0868 -0.5406 -1.8219
17466SOL     OW64051   2.451   9.033   0.428  0.6892 -0.7362  0.1750
17466SOL    HW164052   2.384   9.021   0.355 -0.5500  1.3953  0.9002
17466SOL    HW264053   2.458   8.949   0.481 -0.2203 -1.5033 -0.9028
17467SOL     OW64054   9.058   0.962   0.328 -0.6044  0.3731 -0.1666
17467SOL    HW164055   9.100   1.044   0.290  0.8813 -0.5948 -0.6550
17467SOL    HW264056   8.990   0.927   0.264  0.6596 -0.2715 -1.1813
17468SOL     OW64057   2.220   8.903   3.001  0.4780  0.0212  0.0904
17468SOL    HW164058   2.246   8.998   3.021  0.8198 -0.5067  2.3410
17468SOL    HW264059   2.299   8.843   3.017  0.1156 -0.6946 -0.8205
17469SOL     OW64060   9.209   9.477   1.667 -0.5800 -0.0360  0.4102
17469SOL    HW164061   9.202   9.544   1.741 -0.1053  0.7138 -0.2138
17469SOL    HW264062   9.292   9.423   1.678 -0.2118  0.4700  0.0978
17470SOL     OW64063   9.428   0.310   1.595  0.2016  0.2772 -0.1798
17470SOL    HW164064   9.521   0.345   1.606  0.7383 -1.8854  2.8031
17470SOL    HW264065   9.370   0.347   1.668 -0.1530 -1.9357  0.6799
17471SOL     OW64066   9.461   3.478   5.107  0.0792  0.0438  0.4113
17471SOL    HW164067   9.497   3.492   5.015 -1.6889  0.7189 -0.1990
17471SOL    HW264068   9.474   3.383   5.134  0.3979 -0.2126 -0.6275
17472SOL     OW64069   9.433   1.360   1.737 -0.2569  0.2022 -0.4657
17472SOL    HW164070   9.522   1.315   1.745  1.0544  2.4655 -1.7762
17472SOL    HW264071   9.417   1.417   1.817 -1.0476 -1.0539  0.2862
17473SOL     OW64072   8.376   6.173   0.717  0.3828 -0.3749 -0.0201
17473SOL    HW164073   8.443   6.246   0.731  1.4510 -1.5869  1.2875
17473SOL    HW264074   8.348   6.136   0.805 -2.2586  0.3109 -0.5287
17474SOL     OW64075   0.615   0.253   4.720  0.1988 -0.1142  0.3618
17474SOL    HW164076   0.555   0.185   4.763 -2.3089  0.0390 -2.7441
17474SOL    HW264077   0.692   0.206   4.676 -0.9340 -0.8916 -0.8325
17475SOL     OW64078   0.535   7.481   3.552  0.9268 -0.4209 -0.1658
17475SOL    HW164079   0.570   7.537   3.476  1.6438  0.6383  0.9360
17475SOL    HW264080   0.594   7.491   3.631 -0.4655 -0.6047  0.9255
17476SOL     OW64081   1.094   8.674   7.629 -0.2010  0.3339  0.3079
17476SOL    HW164082   1.008   8.628   7.606 -0.6781  0.8304  1.0613
17476SOL    HW264083   1.086   8.772   7.612  0.8294  0.1524 -1.3278
17477SOL     OW64084   2.834   3.792   5.150  0.1962 -0.0662  0.0054
17477SOL    HW164085   2.765   3.864   5.141  0.8875  0.4841 -1.0182
17477SOL    HW264086   2.829   3.732   5.070 -0.6052 -1.3787  1.0108
17478SOL     OW64087   1.910   5.692   4.633 -0.1543 -0.0707 -0.7868
17478SOL    HW164088   1.880   5.606   4.675  1.3288 -0.3727 -0.3142
17478SOL    HW264089   2.002   5.680   4.595  0.5576  1.6494  0.3587
17479SOL     OW64090   0.113   6.824   7.281 -0.3732  0.0764 -0.4262
17479SOL    HW164091   0.112   6.911   7.330 -1.3869  0.4113 -1.0349
17479SOL    HW264092   0.045   6.762   7.320 -2.9762  1.2275 -2.9530
17480SOL     OW64093   1.762   7.291   1.991 -0.1797 -0.8820  0.8490
17480SOL    HW164094   1.789   7.315   1.898  2.2056  1.4486  2.0569
17480SOL    HW264095   1.742   7.193   1.996 -0.8297 -0.9550 -2.1874
17481SOL     OW64096   4.195   3.261   7.125 -0.2389 -0.1929 -0.7914
17481SOL    HW164097   4.211   3.259   7.224  1.4840  1.3272 -1.0251
17481SOL    HW264098   4.128   3.333   7.104  0.4824  0.4519 -0.8790
17482SOL     OW64099   6.658   9.083   3.842  0.0475 -0.1345  0.3280
17482SOL    HW164100   6.580   9.123   3.889  0.0674  0.1974  0.0762
17482SOL    HW264101   6.705   9.153   3.789  1.0716 -0.1240  1.2228
17483SOL     OW64102   0.579   6.216   6.521  0.2736 -0.1888 -0.6484
17483SOL    HW164103   0.651   6.284   6.505  0.6031 -0.3282  0.2535
17483SOL    HW264104   0.514   6.251   6.589  0.8458 -1.0819  0.3638
17484SOL     OW64105   7.390   9.880   0.904 -0.4255 -0.5257 -0.3650
17484SOL    HW164106   7.331   9.904   0.981  0.6832  2.6478 -0.4400
17484SOL    HW264107   7.334   9.873   0.821 -1.0177  0.3338 -0.0519
17485SOL     OW64108   6.385   1.612   3.602  0.4304  0.0780  0.5366
17485SOL    HW164109   6.414   1.591   3.508  0.3939 -0.2070  0.5882
17485SOL    HW264110   6.440   1.688   3.637 -0.9379  1.5278 -0.4341
17486SOL     OW64111   1.570   2.327   4.678  0.0487 -0.1071 -0.7072
17486SOL    HW164112   1.542   2.294   4.768 -1.5377 -0.7010 -1.3977
17486SOL    HW264113   1.513   2.405   4.652  1.2967  0.8242 -0.6955
17487SOL     OW64114   5.831   6.201   1.586  0.3826 -0.0779  0.2234
17487SOL    HW164115   5.847   6.132   1.656 -0.3243  0.7303  1.1970
17487SOL    HW264116   5.919   6.236   1.552  0.7459  0.7987  1.9847
17488SOL     OW64117   8.170   7.352   4.495 -0.6686 -0.1010  0.4740
17488SOL    HW164118   8.117   7.410   4.433 -0.0392  0.0307  0.0521
17488SOL    HW264119   8.233   7.409   4.547 -2.1065 -0.0501  2.1808
17489SOL     OW64120   7.615   5.045   7.333 -0.2277  0.0654 -0.3536
17489SOL    HW164121   7.592   5.020   7.427  1.0016  1.8700  0.4600
17489SOL    HW264122   7.533   5.072   7.284 -0.6202  0.9737  0.7902
17490SOL     OW64123   0.729   6.754   1.425 -0.1337  0.1432 -0.1371
17490SOL    HW164124   0.685   6.715   1.506  0.4494 -2.1144 -0.8491
17490SOL    HW264125   0.662   6.761   1.351 -0.1660  0.1665 -0.1053
17491SOL     OW64126   4.155   2.996   4.328  0.7845  0.3633 -0.0661
17491SOL    HW164127   4.151   3.075   4.266  0.9657  0.3822 -0.0544
17491SOL    HW264128   4.201   2.920   4.282  2.9411  1.0942  0.8246
17492SOL     OW64129   5.211   9.784   5.539 -0.0171  0.5084 -0.0448
17492SOL    HW164130   5.233   9.804   5.444 -0.9594  1.1910 -0.1346
17492SOL    HW264131   5.112   9.768   5.547  0.2629 -1.0397  0.5683
17493SOL     OW64132   9.563   3.823   5.665 -0.5657 -0.0207 -0.2238
17493SOL    HW164133   9.492   3.877   5.620  0.9377  2.8757  0.7376
17493SOL    HW264134   9.652   3.846   5.626  0.6935  2.0681  3.6275
17494SOL     OW64135   7.071   1.750   7.749  0.3460  0.3562  0.5425
17494SOL    HW164136   7.046   1.770   7.844 -0.5505  0.5815  0.2640
17494SOL    HW264137   6.989   1.728   7.697  1.0525 -1.7838  0.2790
17495SOL     OW64138   1.764   1.318   1.241 -0.2170  0.2243 -0.1183
17495SOL    HW164139   1.765   1.352   1.147 -2.5628  4.5422  1.2704
17495SOL    HW264140   1.853   1.279   1.264  1.2761  1.6154 -3.2656
17496SOL     OW64141   9.719   2.810   4.850  0.0250 -0.3868 -0.5233
17496SOL    HW164142   9.781   2.803   4.771 -0.1604 -2.1797 -0.5113
17496SOL    HW264143   9.721   2.725   4.902 -0.7889  0.3530  0.7285
17497SOL     OW64144   7.016   1.200   2.482 -0.0721 -0.4433 -0.1745
17497SOL    HW164145   7.045   1.148   2.402 -1.1635 -1.0549 -0.1882
17497SOL    HW264146   6.967   1.282   2.452  1.2547  0.3669 -0.1477
17498SOL     OW64147   1.922   8.218   5.134  0.2822 -0.0533 -0.5304
17498SOL    HW164148   1.982   8.296   5.148 -1.0566  0.8099  0.4884
17498SOL    HW264149   1.940   8.149   5.204  0.0613  0.2197 -0.2047
17499SOL     OW64150   2.579   7.713   4.255  0.0027 -0.2195 -0.0701
17499SOL    HW164151   2.519   7.729   4.334  1.9812 -0.8068  1.5756
17499SOL    HW264152   2.523   7.686   4.177 -1.9373 -0.4143  1.3358
17500SOL     OW64153   3.032   2.333   0.740 -0.5039 -0.2923 -0.4717
17500SOL    HW164154   2.937   2.323   0.770 -0.1882 -0.1757  0.6028
17500SOL    HW264155   3.051   2.429   0.721 -0.1977 -0.0969  0.7502
17501SOL     OW64156   0.503   7.842   5.398 -0.2884 -0.5599 -0.4262
17501SOL    HW164157   0.522   7.870   5.304  1.0010  0.6476  0.1665
17501SOL    HW264158   0.452   7.914   5.445  0.3894 -0.4904  0.2227
17502SOL     OW64159   3.764   0.623   7.958  0.1409  0.8846 -0.3638
17502SOL    HW164160   3.824   0.589   8.030  0.7154 -0.5971 -1.5156
17502SOL    HW264161   3.779   0.721   7.946  0.2336  1.0942  1.3230
17503SOL     OW64162   3.212   2.386   2.421 -0.2505  0.4931  0.0903
17503SOL    HW164163   3.264   2.303   2.401 -1.4621 -0.4748  0.8899
17503SOL    HW264164   3.253   2.463   2.373  1.0399 -0.5216 -0.4653
17504SOL     OW64165   7.955   1.458   5.426 -0.3512  0.0974  0.1433
17504SOL    HW164166   7.952   1.360   5.407  3.5301 -0.2758  0.9322
17504SOL    HW264167   7.938   1.474   5.523  1.7838 -0.1343  0.5945
17505SOL     OW64168   7.338   1.386   7.330 -0.4064 -0.0212  0.3728
17505SOL    HW164169   7.274   1.383   7.254  0.0185  3.1825 -0.1732
17505SOL    HW264170   7.293   1.423   7.411 -0.4302 -1.9744  1.2972
17506SOL     OW64171   3.147   6.523   7.933 -0.0903  0.0037 -0.6752
17506SOL    HW164172   3.090   6.457   7.982  0.2907  0.2565  0.1145
17506SOL    HW264173   3.117   6.528   7.838 -1.7296  0.5124 -0.1506
17507SOL     OW64174   9.050   1.436   0.762 -0.5085  0.0952 -0.3261
17507SOL    HW164175   9.023   1.527   0.792 -2.9231 -0.4133 -0.8448
17507SOL    HW264176   9.149   1.430   0.756 -0.3263  2.5565  0.1266
17508SOL     OW64177   9.141   8.172   7.139  0.2440 -0.2894 -0.1924
17508SOL    HW164178   9.046   8.167   7.169  0.4476 -1.4680  0.2753
17508SOL    HW264179   9.201   8.175   7.219  0.5541  1.5312 -0.4834
17509SOL     OW64180   2.277   9.151   5.122  0.2171 -0.2966  0.2516
17509SOL    HW164181   2.356   9.095   5.097 -0.1642 -0.6937 -0.0747
17509SOL    HW264182   2.247   9.127   5.214 -0.0788 -0.7868  0.0291
17510SOL     OW64183   9.442   3.392   1.013  0.3673  0.2960 -0.6793
17510SOL    HW164184   9.442   3.350   1.104 -0.0280  0.9488 -0.3676
17510SOL    HW264185   9.354   3.373   0.968  1.2112 -1.4814 -1.6269
17511SOL     OW64186   4.916   1.001   0.213 -0.0989 -0.4395  0.4346
17511SOL    HW164187   4.976   0.935   0.168 -1.0263  0.6522 -2.5257
17511SOL    HW264188   4.931   1.092   0.173 -1.3690  0.4874  1.9749
17512SOL     OW64189   1.687   2.696   2.608  0.4698 -0.3837  0.1146
17512SOL    HW164190   1.686   2.777   2.667 -1.5257 -1.4577  1.6543
17512SOL    HW264191   1.711   2.616   2.663 -3.5439 -1.7524  0.0640
17513SOL     OW64192   2.252   6.058   2.777  0.0095  0.6000 -0.6889
17513SOL    HW164193   2.213   6.148   2.760  0.2420  1.0701  1.1903
17513SOL    HW264194   2.348   6.067   2.806  0.1798 -0.2849 -0.9281
17514SOL     OW64195   0.884   7.521   3.419 -0.4017 -0.2995 -0.2032
17514SOL    HW164196   0.886   7.441   3.359 -0.8114 -0.2353 -0.3054
17514SOL    HW264197   0.910   7.493   3.512 -0.1309 -0.4709 -0.3306
17515SOL     OW64198   4.264   8.359   4.807 -0.0548 -0.2357  0.1926
17515SOL    HW164199   4.311   8.368   4.720  1.2176  1.4361  1.0330
17515SOL    HW264200   4.182   8.417   4.808 -0.4227 -0.7419 -0.1076
17516SOL     OW64201   4.108   5.949   8.174  0.0448 -0.0096  0.0531
17516SOL    HW164202   4.014   5.937   8.206  0.0410 -0.3805 -0.0914
17516SOL    HW264203   4.120   5.900   8.087 -0.6584  3.0206 -1.8319
17517SOL     OW64204   3.877   6.281   7.932  0.2820 -0.1268 -0.1633
17517SOL    HW164205   3.806   6.235   7.986 -1.1540  1.3218 -0.7668
17517SOL    HW264206   3.963   6.281   7.983 -0.7465  0.1636  1.6339
17518SOL     OW64207   2.342   5.049   3.452 -0.5766  0.7767  0.0818
17518SOL    HW164208   2.300   5.076   3.539 -0.3746  1.5969 -0.0709
17518SOL    HW264209   2.413   4.980   3.470 -0.6045  0.8669  0.5539
17519SOL     OW64210   0.559   9.719   5.417 -0.1853 -0.2467  0.3199
17519SOL    HW164211   0.568   9.764   5.506 -0.0127 -0.2210  0.2903
17519SOL    HW264212   0.503   9.775   5.356  0.0419 -0.0653  0.2781
17520SOL     OW64213   0.079   6.516   7.762 -0.0460  0.2932  0.3145
17520SOL    HW164214  -0.015   6.483   7.777 -0.1413  0.2457 -0.3692
17520SOL    HW264215   0.085   6.558   7.671  0.8061 -0.4750  0.0100
17521SOL     OW64216   5.413   7.495   5.601  0.1276  0.2732  0.6630
17521SOL    HW164217   5.318   7.499   5.633  0.0354  0.0610  0.4220
17521SOL    HW264218   5.470   7.452   5.670  0.0906  0.6140  0.9047
17522SOL     OW64219   8.795   9.712   3.279 -0.1877  0.0340  0.2422
17522SOL    HW164220   8.769   9.804   3.308 -1.1377 -0.1788  0.0622
17522SOL    HW264221   8.880   9.717   3.225  0.6411  0.6206  1.5747
17523SOL     OW64222   8.341   0.814   0.588 -0.3343 -0.3966  0.8292
17523SOL    HW164223   8.371   0.864   0.668 -0.1604  1.4432 -0.3660
17523SOL    HW264224   8.267   0.864   0.542  0.5200 -0.6985 -0.9329
17524SOL     OW64225   1.128   2.282   2.438  0.6665 -0.2800  0.2795
17524SOL    HW164226   1.189   2.345   2.487  0.8713 -0.7892  0.6896
17524SOL    HW264227   1.114   2.200   2.493  1.2406 -1.0473 -0.6921
17525SOL     OW64228   9.417   0.818   0.446  0.2872  0.5641  0.8293
17525SOL    HW164229   9.352   0.850   0.515  0.6320 -0.7832  1.8108
17525SOL    HW264230   9.435   0.720   0.460 -0.5156 -0.0135 -1.8875
17526SOL     OW64231   0.187   5.309   2.450  0.3277  0.0223  0.2627
17526SOL    HW164232   0.088   5.317   2.443  0.3378  0.0605  0.1615
17526SOL    HW264233   0.228   5.400   2.451  0.4298 -0.0062 -0.7115
17527SOL     OW64234   2.228   7.065   5.993 -0.2218  0.6906 -0.3494
17527SOL    HW164235   2.168   7.140   6.020 -1.4251 -0.1498 -0.6410
17527SOL    HW264236   2.291   7.097   5.922  0.0196  1.7142  0.3181
17528SOL     OW64237   4.972   9.309   4.366  0.8053  0.1158 -0.0435
17528SOL    HW164238   4.972   9.385   4.430  2.2107  0.8338 -0.8936
17528SOL    HW264239   4.897   9.320   4.301  0.3180  0.1791  0.5256
17529SOL     OW64240   6.884   1.052   7.058 -0.3278  0.1473 -0.3909
17529SOL    HW164241   6.865   1.138   7.106 -2.4794  0.0949 -1.0891
17529SOL    HW264242   6.827   1.047   6.976  0.6288 -1.4311 -0.9680
17530SOL     OW64243   9.088   5.831   6.344 -0.2028 -0.2887  0.1689
17530SOL    HW164244   8.990   5.823   6.360  0.2706 -2.7365  2.1460
17530SOL    HW264245   9.111   5.789   6.257 -0.9577  0.6672 -0.4967
17531SOL     OW64246   4.981   3.271   4.761  0.1974 -0.2216 -0.2600
17531SOL    HW164247   4.881   3.269   4.768  0.2985  0.8494  1.7699
17531SOL    HW264248   5.008   3.318   4.677 -0.9994 -1.1756 -1.1967
17532SOL     OW64249   4.126   6.424   0.400  0.2023  0.0549 -0.5688
17532SOL    HW164250   4.114   6.424   0.500  0.4474  0.2660 -0.5396
17532SOL    HW264251   4.047   6.469   0.358  0.3653  0.4675 -0.4363
17533SOL     OW64252   5.022   1.891   2.924 -0.4320  0.2868 -0.3978
17533SOL    HW164253   4.974   1.888   3.012  4.0074 -3.9745  2.1603
17533SOL    HW264254   5.079   1.974   2.921  0.6566 -0.3374  1.5766
17534SOL     OW64255   8.045   1.154   2.591 -0.0574  0.2554 -0.5458
17534SOL    HW164256   7.972   1.193   2.536  0.7273  0.1139 -1.6944
17534SOL    HW264257   8.133   1.190   2.561  0.2687  1.2584  1.5407
17535SOL     OW64258   7.067   5.877   1.452 -0.1101 -0.4022  0.1076
17535SOL    HW164259   7.039   5.792   1.407 -0.7718 -0.4850  0.6668
17535SOL    HW264260   7.036   5.955   1.397  0.1840 -0.5168 -0.2231
17536SOL     OW64261   6.722   2.602   3.235 -0.2350 -0.1517  0.4252
17536SOL    HW164262   6.788   2.564   3.301 -0.1713 -1.2261 -0.2528
17536SOL    HW264263   6.725   2.702   3.240  1.4892 -0.1779  0.3751
17537SOL     OW64264   1.594   1.899   6.687  0.1937  0.0072  0.0655
17537SOL    HW164265   1.678   1.861   6.648 -0.4226  0.4119 -1.7081
17537SOL    HW264266   1.580   1.992   6.652 -0.9710 -0.0475  0.3779
17538SOL     OW64267   4.145   6.474   2.277 -0.0769 -0.0220  0.0961
17538SOL    HW164268   4.064   6.532   2.269 -0.9577 -1.2892 -0.4041
17538SOL    HW264269   4.122   6.392   2.328  0.9063 -0.3747 -0.0211
17539SOL     OW64270   9.320   7.944   1.147  0.2097  0.1054 -0.7716
17539SOL    HW164271   9.302   7.848   1.126  1.4928  0.1001 -1.9070
17539SOL    HW264272   9.266   7.971   1.227  0.2978 -1.7201 -0.0688
17540SOL     OW64273   3.106   4.033   6.931 -0.5771  0.3632 -0.0355
17540SOL    HW164274   3.136   4.035   7.027  1.7363 -0.5834 -0.7091
17540SOL    HW264275   3.101   3.939   6.899 -0.3579  0.7124 -1.1307
17541SOL     OW64276   2.368   4.786   7.278  0.2761  0.9839  0.1673
17541SOL    HW164277   2.283   4.837   7.292  0.6751  1.2393  1.6905
17541SOL    HW264278   2.402   4.753   7.366 -0.1351 -2.1865 -0.7967
17542SOL     OW64279   2.051   5.117   7.844 -0.1179 -0.2376  0.0333
17542SOL    HW164280   2.058   5.147   7.939  0.4888  0.4050 -0.2163
17542SOL    HW264281   2.041   5.017   7.841  1.0486 -0.3785  0.7204
17543SOL     OW64282   0.221   6.873   3.401 -0.3948  0.2467  0.4764
17543SOL    HW164283   0.202   6.966   3.432  0.4174  0.2130  1.1012
17543SOL    HW264284   0.252   6.875   3.306 -0.7630  0.5745  0.3657
17544SOL     OW64285   4.281   4.766   1.744  0.0322  0.4303  0.1896
17544SOL    HW164286   4.364   4.726   1.703  0.0599  0.6822 -0.0063
17544SOL    HW264287   4.259   4.718   1.828  0.3653  0.3442  0.2294
17545SOL     OW64288   2.678   3.599   1.080  0.1579 -0.5399 -0.4844
17545SOL    HW164289   2.725   3.603   1.168 -1.4310 -0.6779  0.3830
17545SOL    HW264290   2.700   3.513   1.034 -0.6000 -1.3549  0.6736
17546SOL     OW64291   6.933   0.753   1.294  0.2153  0.2051  0.0108
17546SOL    HW164292   6.869   0.824   1.322 -1.2374 -1.7166  1.7939
17546SOL    HW264293   6.932   0.679   1.362  2.4531 -1.0431 -1.2463
17547SOL     OW64294   3.357   9.811   1.312 -0.4894  0.2878 -0.0104
17547SOL    HW164295   3.354   9.712   1.302 -0.9107  0.2723  0.2474
17547SOL    HW264296   3.290   9.854   1.252  0.2332  0.4663 -0.7004
17548SOL     OW64297   9.820   0.984   2.613  0.0031  0.0264 -0.9649
17548SOL    HW164298   9.910   0.956   2.580  0.2730  0.4019 -0.5426
17548SOL    HW264299   9.809   0.955   2.708  1.0210  2.9883  0.1004
17549SOL     OW64300   0.470   1.909   1.967  0.3761 -0.6499  0.2801
17549SOL    HW164301   0.411   1.876   1.894  0.1362  0.0653  0.1450
17549SOL    HW264302   0.508   1.998   1.942 -0.7757  0.2221  1.5769
17550SOL     OW64303   1.199   7.776   1.430  0.0274  0.6257  0.1106
17550SOL    HW164304   1.187   7.679   1.413  1.3444  0.6800 -1.2968
17550SOL    HW264305   1.111   7.823   1.421 -0.3667 -0.2363 -0.6182
17551SOL     OW64306   4.463   7.108   1.682  0.7685 -0.4873 -0.1754
17551SOL    HW164307   4.473   7.106   1.782 -0.7866  0.2842  0.0100
17551SOL    HW264308   4.410   7.028   1.653  1.7339 -1.0291 -0.4473
17552SOL     OW64309   4.810   0.569   1.801  0.0259 -0.1844 -0.1165
17552SOL    HW164310   4.890   0.614   1.761  0.0504  0.9875  1.2021
17552SOL    HW264311   4.726   0.607   1.761 -0.0596  3.0174  2.8323
17553SOL     OW64312   8.203   4.342   1.872  0.2521 -0.3188 -0.3002
17553SOL    HW164313   8.147   4.413   1.915  2.1155  0.8816  0.2307
17553SOL    HW264314   8.146   4.264   1.848 -1.2819 -0.0273  2.1699
17554SOL     OW64315   3.412   2.155   6.039  0.3137  0.6463 -0.7079
17554SOL    HW164316   3.477   2.187   6.108 -0.8929 -1.9086  1.7276
17554SOL    HW264317   3.319   2.176   6.069 -0.2534 -1.0913 -1.1794
17555SOL     OW64318   4.709   2.085   7.956 -0.2350  0.7440 -0.1085
17555SOL    HW164319   4.631   2.054   7.901 -0.0651 -1.6775  0.9975
17555SOL    HW264320   4.788   2.026   7.939  0.3306  1.0425  1.4472
17556SOL     OW64321   0.406   6.494   1.676  0.3926 -0.2124 -0.4438
17556SOL    HW164322   0.433   6.500   1.580  0.8813  2.1584 -0.1959
17556SOL    HW264323   0.435   6.406   1.714  2.2501 -0.2382 -1.8514
17557SOL     OW64324   1.305   9.919   0.952  0.0291 -0.0724 -0.6415
17557SOL    HW164325   1.379   9.860   0.917  0.3766  0.4860 -0.8538
17557SOL    HW264326   1.328  10.015   0.934  0.8694  0.3409  2.3269
17558SOL     OW64327   5.600   9.624   3.724 -0.5130  0.0189 -0.0337
17558SOL    HW164328   5.696   9.620   3.750 -0.4170 -0.9343 -0.5278
17558SOL    HW264329   5.587   9.580   3.635 -1.3620  0.3918 -0.1071
17559SOL     OW64330   0.156   1.663   5.634  0.5496 -0.1533  0.2624
17559SOL    HW164331   0.228   1.732   5.638 -1.3202  1.8083  1.7323
17559SOL    HW264332   0.084   1.692   5.571  1.8780 -3.0138 -2.7234
17560SOL     OW64333   4.379   4.304   1.405  0.2088  0.1222 -0.1227
17560SOL    HW164334   4.443   4.243   1.452 -0.7820 -0.7447  0.1115
17560SOL    HW264335   4.367   4.388   1.458 -1.3260 -1.0777  1.4831
17561SOL     OW64336   1.449   1.451   2.869  0.0527  0.3426  0.0469
17561SOL    HW164337   1.511   1.526   2.895  0.1361  0.1375  0.4412
17561SOL    HW264338   1.377   1.442   2.937  0.3300 -0.2620  0.2658
17562SOL     OW64339   6.832   9.801   3.068 -0.1440  0.3100  0.2014
17562SOL    HW164340   6.921   9.778   3.029 -0.4754 -0.7489  0.0298
17562SOL    HW264341   6.824   9.899   3.081  1.5476  0.2968  1.4217
17563SOL     OW64342   9.821   9.106   6.956 -0.4632  1.0379  0.1626
17563SOL    HW164343   9.773   9.028   6.916  0.7739  0.1438  0.3779
17563SOL    HW264344   9.858   9.080   7.046  1.6010  1.2274 -0.5864
17564SOL     OW64345   1.994   8.285   1.625  0.3783  0.2579 -0.0489
17564SOL    HW164346   2.015   8.371   1.671 -1.0439  1.0444 -0.8669
17564SOL    HW264347   2.052   8.274   1.545 -0.2605  1.0080 -0.6091
17565SOL     OW64348   2.925   5.285   4.566 -0.2097  0.7917 -0.2338
17565SOL    HW164349   2.930   5.205   4.506  1.6638 -0.3811  1.4150
17565SOL    HW264350   2.831   5.298   4.596 -0.8413  0.2837 -1.9459
17566SOL     OW64351   1.005   4.867   4.866 -0.4231  0.2402  1.0564
17566SOL    HW164352   0.984   4.906   4.956 -0.1020 -2.8777  2.5230
17566SOL    HW264353   1.065   4.788   4.877  0.1575  0.1918 -1.9818
17567SOL     OW64354   7.759   5.055   6.859  0.5665  0.6170  0.3160
17567SOL    HW164355   7.825   5.129   6.868  1.3438 -0.2317  1.7213
17567SOL    HW264356   7.799   4.979   6.809 -0.3475  1.2580 -1.4318
17568SOL     OW64357   5.890   0.525   2.229 -0.4110  0.3676 -0.6738
17568SOL    HW164358   5.934   0.601   2.276  1.5532  0.1098 -2.0155
17568SOL    HW264359   5.930   0.439   2.261 -0.6310  0.0716 -1.1913
17569SOL     OW64360   3.368   4.836   0.980  0.1106  0.2562  0.8675
17569SOL    HW164361   3.407   4.746   0.961  2.5405  1.3117  0.6881
17569SOL    HW264362   3.420   4.880   1.052 -0.3392  1.9922  0.1513
17570SOL     OW64363   3.312   9.934   3.842  0.1549 -0.5687  0.0595
17570SOL    HW164364   3.239   9.934   3.910  0.3117  0.2820  0.2344
17570SOL    HW264365   3.401   9.939   3.888  0.3194 -1.5176 -0.1554
17571SOL     OW64366   8.735   6.101   6.411  0.4264 -0.2351  0.0931
17571SOL    HW164367   8.670   6.079   6.483 -0.9742  1.2122 -0.7205
17571SOL    HW264368   8.792   6.179   6.439 -0.2115  0.4154 -0.4172
17572SOL     OW64369   3.081   6.548   5.538 -0.3770 -0.1458 -0.1200
17572SOL    HW164370   3.146   6.486   5.493  0.6644  1.0984 -0.3440
17572SOL    HW264371   3.120   6.581   5.624 -0.7845  0.4847 -0.1736
17573SOL     OW64372   9.958   0.345   1.298 -0.0230 -0.4588  0.0369
17573SOL    HW164373   9.912   0.257   1.295  0.8937 -0.9190 -0.5201
17573SOL    HW264374  10.004   0.356   1.386 -0.6971 -0.2420  0.3687
17574SOL     OW64375   4.628   7.153   2.166 -0.1442 -0.4203 -0.1734
17574SOL    HW164376   4.580   7.188   2.247 -0.4615  0.9549 -0.9291
17574SOL    HW264377   4.677   7.229   2.122 -0.8698 -0.9348 -1.8875
17575SOL     OW64378   6.814   4.394   0.102  0.0480 -0.4517 -0.3922
17575SOL    HW164379   6.743   4.324   0.118 -0.0220 -0.9640 -2.6968
17575SOL    HW264380   6.888   4.353   0.048  0.3728  1.0526 -1.0949
17576SOL     OW64381   6.316   8.110   3.693 -0.2175  0.5284 -0.1687
17576SOL    HW164382   6.308   8.114   3.593  1.6628 -1.4283 -0.4305
17576SOL    HW264383   6.285   8.020   3.725  1.8216  0.1232  0.7075
17577SOL     OW64384   2.826   8.368   6.807 -0.1632 -0.3176 -0.4705
17577SOL    HW164385   2.847   8.418   6.724  0.7224  1.2962  0.6960
17577SOL    HW264386   2.813   8.432   6.883 -3.1208 -1.5981  0.2119
17578SOL     OW64387   9.362   3.799   4.379  0.1758 -0.4334  0.4278
17578SOL    HW164388   9.285   3.861   4.364  0.6976 -0.0284 -0.5459
17578SOL    HW264389   9.372   3.739   4.300  1.3114 -0.0025  0.2395
17579SOL     OW64390   2.162   6.447   4.745  0.1272 -0.5709 -0.1534
17579SOL    HW164391   2.155   6.362   4.694 -0.8934 -1.0132  0.6860
17579SOL    HW264392   2.155   6.427   4.843  0.5707  0.4084  0.0805
17580SOL     OW64393   2.080   2.077   1.462  0.0429 -0.0146  0.2663
17580SOL    HW164394   2.163   2.116   1.502 -1.2377  2.4294  0.6067
17580SOL    HW264395   2.089   1.977   1.458  2.1875  0.0660  2.1025
17581SOL     OW64396   0.373   5.669   6.641  0.6289  0.6368 -0.2511
17581SOL    HW164397   0.331   5.578   6.639  1.3857  0.2895 -0.8021
17581SOL    HW264398   0.469   5.662   6.613  1.0090  1.4413  0.8230
17582SOL     OW64399   2.814   3.088   5.222  0.9108  0.5576  0.2446
17582SOL    HW164400   2.768   3.043   5.299 -0.1304 -0.7282 -1.0908
17582SOL    HW264401   2.771   3.176   5.204 -0.2812 -0.1064 -0.2310
17583SOL     OW64402   4.401   2.655   4.451  0.6726  0.6160 -0.4760
17583SOL    HW164403   4.318   2.639   4.504  1.4416 -1.4865  0.1157
17583SOL    HW264404   4.469   2.700   4.509  0.6570  0.5242 -0.3868
17584SOL     OW64405   8.526   9.523   3.479  0.1277  0.0524 -0.1787
17584SOL    HW164406   8.434   9.548   3.508  0.8880  1.5075  1.0337
17584SOL    HW264407   8.522   9.441   3.421 -1.7235 -0.9170  1.2948
17585SOL     OW64408   5.154   0.917   5.032 -0.9537 -0.0714 -0.1245
17585SOL    HW164409   5.101   0.975   5.094  1.6773  0.4441  1.6906
17585SOL    HW264410   5.156   0.823   5.066  1.7035  0.5075  1.3947
17586SOL     OW64411   8.354   1.909   7.848 -0.1925 -0.6262  0.6594
17586SOL    HW164412   8.350   1.964   7.766  0.0008  0.3658  1.3069
17586SOL    HW264413   8.318   1.817   7.829 -0.8300 -0.1765 -0.3242
17587SOL     OW64414   6.393   1.424   6.573  0.3134 -0.0281  0.3188
17587SOL    HW164415   6.396   1.484   6.652  3.3867 -0.7934  0.8613
17587SOL    HW264416   6.372   1.478   6.491  1.8309  1.5952  0.9688
17588SOL     OW64417   7.013   9.791   7.073 -0.0731  0.3541  0.4112
17588SOL    HW164418   6.915   9.769   7.076  0.1967 -1.0006 -0.4105
17588SOL    HW264419   7.043   9.793   6.978  0.2385  2.9474  0.5206
17589SOL     OW64420   3.168   8.574   0.389  0.4147 -0.0590 -0.3252
17589SOL    HW164421   3.072   8.575   0.358 -0.1701  1.3063  1.4728
17589SOL    HW264422   3.219   8.506   0.336 -2.0645 -2.4149  0.2113
17590SOL     OW64423   9.806   8.709   0.717 -0.0668 -0.0027 -0.3669
17590SOL    HW164424   9.815   8.709   0.617  0.7032 -0.5206 -0.3017
17590SOL    HW264425   9.714   8.679   0.742 -0.5554  0.9965 -0.9441
17591SOL     OW64426   4.985   5.732   0.566 -0.0579 -0.3493  0.0500
17591SOL    HW164427   5.024   5.672   0.636  1.0377 -0.3983 -0.5904
17591SOL    HW264428   5.004   5.827   0.589 -2.8653 -0.1495  1.7127
17592SOL     OW64429   4.276   8.657   3.991 -0.2468 -0.3202  0.5883
17592SOL    HW164430   4.324   8.729   3.942  0.3927 -0.8613  0.4223
17592SOL    HW264431   4.261   8.685   4.086 -0.6125  0.3120  0.3434
17593SOL     OW64432   4.268   7.573   2.064 -0.0440  0.3626  0.0257
17593SOL    HW164433   4.338   7.637   2.032  0.1417 -0.4568 -1.2299
17593SOL    HW264434   4.191   7.573   2.001 -0.2076 -0.3678  0.2147
17594SOL     OW64435   3.853   7.643   2.150 -0.1382  0.1021  0.1734
17594SOL    HW164436   3.900   7.555   2.159  1.8218  1.2047  1.1348
17594SOL    HW264437   3.904   7.713   2.200 -3.1300  1.2612  1.7782
17595SOL     OW64438   8.751   1.521   6.160 -0.2822 -0.0022  0.3918
17595SOL    HW164439   8.791   1.602   6.202  0.1771 -0.7511  1.4112
17595SOL    HW264440   8.654   1.514   6.185 -0.4374  0.4667 -0.0642
17596SOL     OW64441   1.796   9.208   7.546  0.3241  0.8148 -0.2855
17596SOL    HW164442   1.798   9.137   7.616  1.4815  1.6665  0.5756
17596SOL    HW264443   1.707   9.253   7.546  0.7016  1.5931  1.4604
17597SOL     OW64444   0.055   5.765   3.113  0.3075  0.6372  0.1741
17597SOL    HW164445   0.143   5.743   3.154  0.4037  0.7584  0.0345
17597SOL    HW264446   0.002   5.681   3.099  0.6903  0.4880 -0.4045
17598SOL     OW64447   8.443   8.331   3.223  0.1958 -0.7819 -0.2675
17598SOL    HW164448   8.392   8.412   3.252  0.1311 -0.2658 -1.8051
17598SOL    HW264449   8.385   8.273   3.166  0.8769 -0.9009 -0.8413
17599SOL     OW64450   1.700   0.681   0.808 -0.3077 -0.0264  0.4034
17599SOL    HW164451   1.714   0.616   0.883  0.0325 -0.7238 -0.2665
17599SOL    HW264452   1.773   0.749   0.808  0.0651 -0.4314  0.2782
17600SOL     OW64453   4.163   9.628   4.104 -0.1766  0.1628  0.2775
17600SOL    HW164454   4.260   9.619   4.129  0.0913 -0.6425 -0.9915
17600SOL    HW264455   4.144   9.722   4.076  0.7841 -0.1818 -1.6144
17601SOL     OW64456   1.573   1.764   3.209  0.0499  0.5736  0.1620
17601SOL    HW164457   1.563   1.726   3.117  0.5703  0.7290  0.0365
17601SOL    HW264458   1.549   1.861   3.208  2.2122  1.1310 -0.3006
17602SOL     OW64459   0.326   9.747   7.702  0.5527 -0.0877 -0.0788
17602SOL    HW164460   0.317   9.698   7.788 -0.9082  0.5334  0.1335
17602SOL    HW264461   0.241   9.739   7.650  0.5449  1.6262 -0.3514
17603SOL     OW64462   0.064   3.693   0.313 -0.2316  0.3654  0.0333
17603SOL    HW164463   0.082   3.786   0.279  0.2718  0.6528  1.0488
17603SOL    HW264464   0.146   3.637   0.302 -0.3184  0.2366  0.0420
17604SOL     OW64465   0.389   4.894   5.589 -0.4342 -0.2823  0.4816
17604SOL    HW164466   0.407   4.798   5.611  0.0564 -0.3071 -0.0211
17604SOL    HW264467   0.471   4.935   5.551 -1.1806 -0.1787 -1.0769
17605SOL     OW64468   9.587   5.101   7.069 -0.7421  0.6305 -0.4888
17605SOL    HW164469   9.603   5.196   7.039  0.4021  0.2337 -1.1691
17605SOL    HW264470   9.638   5.084   7.154  0.3186  0.1812 -1.1948
17606SOL     OW64471   5.251   7.485   5.973 -0.4339  0.4423  0.1921
17606SOL    HW164472   5.189   7.521   6.043 -1.0925  1.1926 -0.7548
17606SOL    HW264473   5.197   7.455   5.894  0.4282  1.3355 -0.7511
17607SOL     OW64474   3.115   3.628   6.355  0.0924  0.1672 -0.1576
17607SOL    HW164475   3.109   3.640   6.454 -1.1724  0.3466 -0.2439
17607SOL    HW264476   3.099   3.717   6.310  0.3146  0.0196 -0.5311
17608SOL     OW64477   9.006   1.682   4.401 -0.0233  0.3821 -0.0852
17608SOL    HW164478   8.952   1.606   4.364  0.5342 -0.2715  0.4312
17608SOL    HW264479   8.951   1.765   4.400 -1.5008 -0.5458  1.6391
17609SOL     OW64480   1.298   6.349   1.986 -0.6746  0.4088  0.1831
17609SOL    HW164481   1.327   6.263   2.028 -0.5851 -0.0926 -0.9060
17609SOL    HW264482   1.345   6.425   2.032 -0.5380 -0.1350  0.9555
17610SOL     OW64483   9.725   8.993   0.566  0.1329  0.3522 -0.7965
17610SOL    HW164484   9.774   8.945   0.639 -0.3819 -0.1453 -0.7683
17610SOL    HW264485   9.787   9.056   0.520  2.0369 -3.3256 -3.5693
17611SOL     OW64486   6.188   3.650   0.213  0.8455  0.5739 -0.1683
17611SOL    HW164487   6.094   3.615   0.220  0.9359  0.4096  0.2196
17611SOL    HW264488   6.189   3.727   0.149  0.1677  1.5435  0.9774
17612SOL     OW64489   9.769   8.991   2.681  0.2772  0.4636  0.3459
17612SOL    HW164490   9.733   8.930   2.610 -0.7185  1.4012  0.0252
17612SOL    HW264491   9.751   8.953   2.771  1.0502 -0.4642  0.1166
17613SOL     OW64492   8.264   9.511   3.565 -0.1777 -0.0154 -0.4605
17613SOL    HW164493   8.242   9.413   3.561 -1.4612  0.2867 -0.9005
17613SOL    HW264494   8.273   9.539   3.661  0.2914 -0.5821 -0.3351
17614SOL     OW64495   3.702   3.150   5.869  0.0215  0.0522 -0.1124
17614SOL    HW164496   3.615   3.143   5.820 -0.4253 -3.2082  0.9911
17614SOL    HW264497   3.755   3.067   5.853  2.8789  1.9095 -0.5850
17615SOL     OW64498   6.880   0.966   3.770  0.0115 -0.2250  0.3765
17615SOL    HW164499   6.964   0.976   3.824 -0.2876 -0.2113  0.8335
17615SOL    HW264500   6.870   0.871   3.741  0.0881 -0.2637  0.4766
17616SOL     OW64501   6.796   0.912   4.865 -0.3191 -0.8116 -0.1287
17616SOL    HW164502   6.787   0.999   4.913  0.0928 -0.0926 -1.3415
17616SOL    HW264503   6.709   0.889   4.821  0.1667  0.0140 -1.5313
17617SOL     OW64504   2.201   5.696   7.544 -0.1388  0.6422  0.3124
17617SOL    HW164505   2.298   5.721   7.538 -0.6066  2.2033 -1.3232
17617SOL    HW264506   2.157   5.712   7.456 -2.3631  2.0397  1.5980
17618SOL     OW64507   2.170   6.573   1.030 -0.4968 -0.4100 -0.1281
17618SOL    HW164508   2.159   6.667   0.999  2.5788  0.6033  1.6060
17618SOL    HW264509   2.177   6.572   1.130  0.6181 -2.3253 -0.2003
17619SOL     OW64510   0.437   3.119   1.624  0.2543 -0.3880 -0.6142
17619SOL    HW164511   0.366   3.049   1.637 -0.4308  0.7743  2.3418
17619SOL    HW264512   0.438   3.180   1.704  1.7390  2.1769 -2.5380
17620SOL     OW64513   5.322   4.155   7.914 -0.0747 -0.4379 -0.0904
17620SOL    HW164514   5.273   4.100   7.847  0.0459  0.7565 -1.1753
17620SOL    HW264515   5.332   4.249   7.880  2.2150 -0.4489  0.4626
17621SOL     OW64516   8.922   2.777   2.920  0.3649 -0.1982 -0.4386
17621SOL    HW164517   8.853   2.844   2.948  0.7006  0.4800 -1.2259
17621SOL    HW264518   8.967   2.808   2.836 -0.4102 -2.0503 -1.5802
17622SOL     OW64519   9.433   9.053   6.981 -0.3411 -0.0996  0.2100
17622SOL    HW164520   9.517   9.051   6.926  0.0561  1.0602  0.7647
17622SOL    HW264521   9.361   9.005   6.931 -0.3925  2.1529 -2.0081
17623SOL     OW64522   7.953   1.785   4.771  0.3529 -0.1148 -0.4079
17623SOL    HW164523   7.878   1.849   4.786  0.1713 -0.2579 -0.7059
17623SOL    HW264524   8.012   1.819   4.697  0.1398 -0.3962 -0.7057
17624SOL     OW64525   5.815   1.298   0.228 -0.0958 -0.2679 -0.4378
17624SOL    HW164526   5.850   1.391   0.239  0.2956 -0.2374 -1.8832
17624SOL    HW264527   5.876   1.234   0.275 -0.9540  0.3045  1.4778
17625SOL     OW64528   2.617   7.493   2.310  0.5993 -0.0729 -0.6945
17625SOL    HW164529   2.682   7.567   2.290  0.7610 -0.3835 -1.3054
17625SOL    HW264530   2.524   7.524   2.291  0.7703 -0.4478 -2.1688
17626SOL     OW64531   4.347   8.247   8.054  0.1985  0.5308  0.5121
17626SOL    HW164532   4.269   8.192   8.084  0.5248 -0.0073  0.3775
17626SOL    HW264533   4.346   8.335   8.100 -0.8523  0.7736  0.0243
17627SOL     OW64534   7.174   1.002   7.102  0.4911  0.5777  0.4290
17627SOL    HW164535   7.206   0.917   7.061  2.0407  1.4731 -0.2461
17627SOL    HW264536   7.076   1.013   7.084  1.0733  0.8314 -2.8409
17628SOL     OW64537   2.698   7.548   5.051 -0.2941  0.2872  0.4967
17628SOL    HW164538   2.793   7.524   5.030 -0.1367  0.6414  0.8041
17628SOL    HW264539   2.693   7.644   5.079 -0.7484  0.2804  0.4395
17629SOL     OW64540   3.217   0.152   3.657  0.4804  0.3613 -0.5095
17629SOL    HW164541   3.263   0.072   3.697  0.8706  0.7221 -0.2434
17629SOL    HW264542   3.222   0.147   3.557  3.1705  1.6113 -0.4689
17630SOL     OW64543   5.372   9.059   5.851 -0.1286 -0.5439 -0.3694
17630SOL    HW164544   5.349   9.019   5.940  0.1802 -0.9064 -0.4533
17630SOL    HW264545   5.471   9.062   5.840 -0.1273  0.9280 -0.0518
17631SOL     OW64546   3.918   4.313   8.127 -0.2674  0.2192 -0.1131
17631SOL    HW164547   3.876   4.403   8.124  1.0740  0.8052 -2.4388
17631SOL    HW264548   4.017   4.322   8.144  0.1025 -0.7088 -1.6363
17632SOL     OW64549   9.427   6.143   4.727 -0.1628  0.3916  0.2664
17632SOL    HW164550   9.419   6.111   4.822 -2.0825  0.5415  0.1825
17632SOL    HW264551   9.336   6.148   4.686  0.8520 -2.2494 -2.4633
17633SOL     OW64552   4.169   3.533   4.869  0.2292 -0.0726  0.1801
17633SOL    HW164553   4.127   3.473   4.937 -2.1965  1.9779  0.5330
17633SOL    HW264554   4.135   3.510   4.778 -0.7787  0.8107  0.3273
17634SOL     OW64555   5.167   6.071   0.628 -0.6009 -0.5380  0.1453
17634SOL    HW164556   5.067   6.062   0.622 -0.8920  2.8228 -0.7203
17634SOL    HW264557   5.203   6.096   0.539  0.5442  2.3659  1.3972
17635SOL     OW64558   2.185   3.344   7.550  0.3660  0.2787  0.5312
17635SOL    HW164559   2.180   3.437   7.586  1.4479  0.3267  0.5829
17635SOL    HW264560   2.279   3.311   7.556  0.2412 -0.3307 -0.7254
17636SOL     OW64561   0.741   3.686   5.023  0.2008 -0.2859  0.0595
17636SOL    HW164562   0.728   3.633   5.107  0.5246 -0.6863 -0.1368
17636SOL    HW264563   0.769   3.624   4.949 -3.1118 -0.4436 -1.1522
17637SOL     OW64564   9.575   8.036   1.701 -0.0422  0.3403 -0.2170
17637SOL    HW164565   9.504   8.052   1.632  1.5278 -0.0918 -1.9845
17637SOL    HW264566   9.609   8.124   1.736 -0.3698  0.5837 -0.5084
17638SOL     OW64567   2.427   4.599   2.913  0.1255 -0.0407  0.2841
17638SOL    HW164568   2.361   4.569   2.845 -0.0013 -0.1272  0.4437
17638SOL    HW264569   2.408   4.554   3.000 -0.2999  0.7904  0.6269
17639SOL     OW64570   5.519   9.850   2.056 -0.2651 -0.1399  0.4416
17639SOL    HW164571   5.589   9.919   2.073  0.0926 -0.4887  0.3884
17639SOL    HW264572   5.465   9.836   2.140  0.7236 -0.9830  0.9536
17640SOL     OW64573   1.583   8.490   4.915  0.1942  0.4190  0.8234
17640SOL    HW164574   1.564   8.501   5.012 -1.5420 -0.1823  0.5668
17640SOL    HW264575   1.506   8.446   4.870  1.8566 -1.2871 -0.4467
17641SOL     OW64576   9.958   2.777   7.968  0.0109  0.0686 -0.0219
17641SOL    HW164577  10.015   2.728   8.034  0.7092 -0.5544 -1.0635
17641SOL    HW264578   9.996   2.765   7.876 -0.5182  1.5519 -0.4439
17642SOL     OW64579   3.561   6.163   3.812  0.4373 -0.2135 -0.1266
17642SOL    HW164580   3.555   6.067   3.783 -1.8116  0.1159 -0.8346
17642SOL    HW264581   3.531   6.171   3.907 -1.2472  0.0253 -0.6513
17643SOL     OW64582   7.928   9.230   6.758  0.4972  0.3332 -0.1017
17643SOL    HW164583   7.969   9.313   6.720  1.7045  0.3868  1.2752
17643SOL    HW264584   8.000   9.160   6.769 -0.4388 -0.7768 -0.9103
17644SOL     OW64585   0.766   3.285   3.589 -0.0529 -0.4156 -0.1932
17644SOL    HW164586   0.727   3.378   3.590 -1.3326 -0.9365 -0.9175
17644SOL    HW264587   0.866   3.291   3.580 -0.0907  0.9027  0.1638
17645SOL     OW64588   3.117   4.861   0.952 -0.2714 -0.0289 -0.1993
17645SOL    HW164589   3.215   4.841   0.956 -0.1512  0.3180 -1.2864
17645SOL    HW264590   3.100   4.934   0.886 -1.2791 -0.1812 -0.1212
17646SOL     OW64591   3.940   3.774   6.272 -0.1205  0.0674 -0.4339
17646SOL    HW164592   4.025   3.773   6.324 -0.7419  0.8466  0.5949
17646SOL    HW264593   3.917   3.680   6.245  0.6973 -0.2244 -0.1256
17647SOL     OW64594   4.436   8.964   4.802  0.0858 -0.3009  0.3422
17647SOL    HW164595   4.407   8.975   4.897 -0.0661 -0.6961  0.3407
17647SOL    HW264596   4.436   8.867   4.778 -0.5535 -0.1508 -0.2790
17648SOL     OW64597   9.956   2.262   6.238  0.4808  0.0855 -0.0378
17648SOL    HW164598   9.863   2.290   6.265  0.1837  0.7423 -1.7071
17648SOL    HW264599  10.016   2.342   6.236  1.4492 -0.5528  2.4294
17649SOL     OW64600   9.119   6.831   5.291  0.1352  0.0586 -0.0029
17649SOL    HW164601   9.059   6.899   5.249 -0.0662  0.4317  0.8792
17649SOL    HW264602   9.204   6.826   5.239  0.5408  1.6829  0.4686
17650SOL     OW64603   2.930   0.136   7.957  0.5348 -0.1658  0.1613
17650SOL    HW164604   2.898   0.210   7.898 -3.8641 -0.7755  1.6060
17650SOL    HW264605   2.971   0.175   8.039 -0.0464  0.6997  0.0553
17651SOL     OW64606   0.509   3.945   6.015 -0.0616  0.5382  0.2814
17651SOL    HW164607   0.575   3.921   5.944 -0.8023  0.5467 -0.4272
17651SOL    HW264608   0.471   3.861   6.054  0.1133  0.5355  0.4449
17652SOL     OW64609   8.876   0.919   0.122  0.5650 -0.4422 -0.2608
17652SOL    HW164610   8.865   1.018   0.122 -0.7547 -0.5614  0.9966
17652SOL    HW264611   8.925   0.890   0.040  1.8073  1.3304 -0.1605
17653SOL     OW64612   3.543   9.387   7.377  0.3366 -0.5831  0.5769
17653SOL    HW164613   3.519   9.330   7.455 -2.1785 -0.6500 -0.1841
17653SOL    HW264614   3.462   9.437   7.346  1.8050  1.1562 -0.6079
17654SOL     OW64615   1.146   7.107   2.837 -0.4303  0.2022  0.3736
17654SOL    HW164616   1.143   7.012   2.806 -0.2039  0.4581 -0.4496
17654SOL    HW264617   1.150   7.168   2.758 -0.0580  0.8827  0.9057
17655SOL     OW64618   8.771   8.329   0.943  0.4719 -0.3696  0.1977
17655SOL    HW164619   8.738   8.312   0.850 -1.5296 -0.4205  0.8748
17655SOL    HW264620   8.819   8.416   0.946 -0.7384  0.3479 -0.6047
17656SOL     OW64621   0.348   9.448   7.421 -0.2161  0.3435  0.0538
17656SOL    HW164622   0.259   9.487   7.399  0.3481  1.0087 -1.0847
17656SOL    HW264623   0.359   9.360   7.375  0.3898  1.0586 -1.1682
17657SOL     OW64624   0.923   8.370   1.855  0.0519 -0.4120 -0.5458
17657SOL    HW164625   0.962   8.451   1.812 -4.7049  1.8621 -0.9059
17657SOL    HW264626   0.926   8.293   1.791  1.9423  0.2499 -1.2732
17658SOL     OW64627   1.724   4.340   0.262  0.2155 -0.0739 -0.3562
17658SOL    HW164628   1.731   4.241   0.274 -1.4543 -0.0928  0.5362
17658SOL    HW264629   1.785   4.386   0.326  0.4178 -0.5020 -0.2440
17659SOL     OW64630   3.064   3.386   2.611 -0.0619 -0.4035 -0.1869
17659SOL    HW164631   3.060   3.473   2.561 -0.2967  0.0522  0.5986
17659SOL    HW264632   3.159   3.356   2.619  0.0622  0.0056 -0.1049
17660SOL     OW64633   3.845   4.521   2.665  0.2823  0.6321 -0.5132
17660SOL    HW164634   3.760   4.506   2.615 -0.7634 -0.2022  1.4984
17660SOL    HW264635   3.880   4.613   2.644 -1.0193  0.9110 -1.4752
17661SOL     OW64636   9.501   6.139   4.196  0.2930  0.4488  0.7026
17661SOL    HW164637   9.572   6.166   4.131  0.4596  0.7794  1.0201
17661SOL    HW264638   9.532   6.160   4.289 -0.3989  1.0089  0.8112
17662SOL     OW64639   0.698   3.365   4.275 -0.3615 -0.8239 -0.2473
17662SOL    HW164640   0.618   3.412   4.237 -0.4723 -0.1108  0.8099
17662SOL    HW264641   0.668   3.287   4.329 -0.2377 -1.5297 -1.1960
17663SOL     OW64642   3.187   7.518   1.333  0.0519 -0.3919  0.2876
17663SOL    HW164643   3.283   7.492   1.347 -0.2125 -0.4823  2.0693
17663SOL    HW264644   3.138   7.441   1.292  0.1398 -1.3994  1.9817
17664SOL     OW64645   8.697   5.597   2.269 -0.4597  0.6118  0.3871
17664SOL    HW164646   8.696   5.632   2.362  0.5574 -1.2252  1.1241
17664SOL    HW264647   8.633   5.520   2.261 -1.2403  1.3494 -0.6898
17665SOL     OW64648   7.296   3.582   2.645  0.3400 -0.0744  0.1049
17665SOL    HW164649   7.236   3.548   2.717 -0.3919  2.0347  0.5426
17665SOL    HW264650   7.240   3.615   2.568  1.0850 -1.7115 -1.1613
17666SOL     OW64651   8.251   0.438   4.170  0.1688 -0.5265  0.0769
17666SOL    HW164652   8.219   0.528   4.141  1.0011 -0.7904 -1.7510
17666SOL    HW264653   8.255   0.434   4.270 -0.9682  1.0705  0.1930
17667SOL     OW64654   9.129   4.168   0.107  0.0333  0.4059 -0.5021
17667SOL    HW164655   9.072   4.129   0.035 -1.4371  0.8772  0.4002
17667SOL    HW264656   9.115   4.266   0.112  0.9832  0.5381 -0.3192
17668SOL     OW64657   0.262   9.307   0.911 -0.1249 -0.1633  0.6457
17668SOL    HW164658   0.254   9.403   0.937  1.8032  0.2071 -0.0243
17668SOL    HW264659   0.318   9.258   0.978 -2.1143 -1.1117  1.6406
17669SOL     OW64660   6.658   3.214   0.542 -0.3286  0.3477  0.7394
17669SOL    HW164661   6.704   3.182   0.624 -0.7691 -1.1901  0.4060
17669SOL    HW264662   6.717   3.279   0.494  0.1412  0.8647  1.9887
17670SOL     OW64663   7.793   3.070   1.648  0.1195  0.2218 -0.2825
17670SOL    HW164664   7.700   3.061   1.683  0.1144  0.4315 -0.2380
17670SOL    HW264665   7.795   3.139   1.575  0.3467  0.6602  0.1304
17671SOL     OW64666   3.781   4.918   2.055  0.2430  0.5642  0.2547
17671SOL    HW164667   3.871   4.953   2.029 -1.3474  2.7011 -2.5894
17671SOL    HW264668   3.734   4.984   2.112 -1.3942  1.6221 -2.2547
17672SOL     OW64669   4.838   7.685   1.869  0.6212  0.1006  0.1877
17672SOL    HW164670   4.913   7.735   1.826  2.1106 -0.6993  1.8319
17672SOL    HW264671   4.769   7.663   1.800  2.9063 -1.0505 -1.7888
17673SOL     OW64672   3.909   5.024   6.207  0.6038  0.0394  0.0575
17673SOL    HW164673   3.860   5.078   6.140  1.0036  0.1511 -0.1496
17673SOL    HW264674   3.861   5.026   6.295  0.8800  1.1300  0.1842
17674SOL     OW64675   2.052   0.356   0.958  0.0786 -0.1275  0.1915
17674SOL    HW164676   1.966   0.335   0.912  0.2561 -0.3027 -0.0662
17674SOL    HW264677   2.078   0.280   1.018  0.7282 -0.6654 -0.7520
17675SOL     OW64678   3.352   0.574   7.418 -0.5408  0.4376 -0.1811
17675SOL    HW164679   3.422   0.567   7.347 -1.5093 -1.1392 -1.0140
17675SOL    HW264680   3.282   0.640   7.389 -1.0794 -0.4066 -0.8474
17676SOL     OW64681   7.710   3.942   2.784  0.3851 -0.0659 -0.1804
17676SOL    HW164682   7.686   3.846   2.771 -1.2909  0.2634  0.3284
17676SOL    HW264683   7.701   3.991   2.697  2.8836 -0.6856 -0.8240
17677SOL     OW64684   2.564   4.040   3.906 -0.2122 -0.1087  0.3711
17677SOL    HW164685   2.502   3.966   3.878 -1.2567  0.4627  1.1178
17677SOL    HW264686   2.658   4.017   3.882 -0.7508 -0.8949 -0.9891
17678SOL     OW64687   2.729   0.278   4.373 -0.4587 -0.1666 -0.3672
17678SOL    HW164688   2.777   0.250   4.289 -1.7576  1.4480 -1.6712
17678SOL    HW264689   2.792   0.331   4.431  0.5240 -1.5138 -0.1713
17679SOL     OW64690   0.723   3.224   0.121 -0.1887  0.3764  0.1612
17679SOL    HW164691   0.804   3.269   0.084 -0.2449  1.1474  0.9637
17679SOL    HW264692   0.672   3.288   0.178 -0.6226 -0.5089  0.7832
17680SOL     OW64693   1.675   1.491   6.307 -0.3853 -0.1180  1.0102
17680SOL    HW164694   1.619   1.566   6.342 -1.7471 -0.3629 -0.6313
17680SOL    HW264695   1.631   1.404   6.327 -0.5878 -0.3122 -0.2588
17681SOL     OW64696   4.082   8.218   1.162  0.4110 -0.4391 -0.3192
17681SOL    HW164697   4.170   8.265   1.173  0.8363 -1.1712 -0.5059
17681SOL    HW264698   4.088   8.128   1.204 -1.1790  0.5896  2.2113
17682SOL     OW64699   9.720   2.785   2.131 -0.1835  0.0728 -0.1045
17682SOL    HW164700   9.720   2.868   2.074  1.1654  0.3911  0.3509
17682SOL    HW264701   9.800   2.730   2.109  1.2257  0.9650  2.5729
17683SOL     OW64702   2.138   5.052   3.177  0.2913 -0.3943 -0.6692
17683SOL    HW164703   2.192   5.057   3.261  1.9402  1.0631 -1.7772
17683SOL    HW264704   2.169   4.974   3.123  0.4151 -0.3098 -0.7204
17684SOL     OW64705   2.295   9.941   6.281 -0.1260 -0.0720 -0.1814
17684SOL    HW164706   2.228   9.989   6.224 -0.0710  1.2518  0.8391
17684SOL    HW264707   2.255   9.921   6.370  0.7571  0.5628  0.3733
17685SOL     OW64708   8.371   0.314   3.194  0.5156  0.2844  0.4326
17685SOL    HW164709   8.409   0.221   3.203  0.2183  0.2016  0.8232
17685SOL    HW264710   8.388   0.347   3.101  0.3635 -0.2743  0.2000
17686SOL     OW64711   2.360   0.444   7.625 -0.1215 -0.3579 -0.5615
17686SOL    HW164712   2.420   0.394   7.563  0.1504  1.4303 -1.7597
17686SOL    HW264713   2.348   0.537   7.593 -0.2902  0.5054  1.8588
17687SOL     OW64714   3.382   5.669   6.792  0.1491  0.0080 -0.5395
17687SOL    HW164715   3.410   5.653   6.887 -2.2463 -0.9906  0.0271
17687SOL    HW264716   3.414   5.594   6.735  1.0603  0.3006 -0.4242
17688SOL     OW64717   3.459   0.969   4.472  0.0715 -0.4552  0.1531
17688SOL    HW164718   3.398   0.892   4.492 -0.3013 -0.1645  0.1416
17688SOL    HW264719   3.404   1.048   4.443  0.4186 -0.0102  0.7177
17689SOL     OW64720   3.511   9.633   4.845 -0.1363  0.1772 -0.1205
17689SOL    HW164721   3.500   9.600   4.939 -1.9872  0.2719 -0.2744
17689SOL    HW264722   3.431   9.688   4.820  0.2547 -0.0010 -1.8209
17690SOL     OW64723   2.621   1.335   5.206 -0.3501 -0.7069  0.1094
17690SOL    HW164724   2.570   1.419   5.190  1.3398  0.2973 -0.1259
17690SOL    HW264725   2.613   1.309   5.302 -0.1785  0.1884  0.3672
17691SOL     OW64726   1.340   2.222   3.731 -0.1203 -0.5594 -0.2376
17691SOL    HW164727   1.400   2.279   3.787 -0.5054  0.2757 -0.6614
17691SOL    HW264728   1.312   2.273   3.650 -1.5412 -0.8713  0.0381
17692SOL     OW64729   9.324   0.822   4.134  0.3200 -0.6958 -0.3359
17692SOL    HW164730   9.354   0.771   4.054 -1.5230  0.9516 -2.1197
17692SOL    HW264731   9.319   0.760   4.213  2.5096 -2.2452 -1.3677
17693SOL     OW64732   8.823   7.080   5.485 -1.4408  0.4978 -0.6435
17693SOL    HW164733   8.800   6.984   5.502  1.6734 -0.3931 -1.0916
17693SOL    HW264734   8.822   7.097   5.386  0.8827  0.0727 -0.7861
17694SOL     OW64735   2.066   2.122   0.065  0.1419  0.1887 -0.0675
17694SOL    HW164736   2.079   2.075  -0.022 -0.0516 -0.6422  0.3503
17694SOL    HW264737   1.970   2.147   0.076 -0.2417 -1.5956  0.8496
17695SOL     OW64738   8.767   1.818   3.904 -0.5035 -0.4291  0.2947
17695SOL    HW164739   8.862   1.809   3.934 -0.6573 -3.2861  0.0799
17695SOL    HW264740   8.757   1.780   3.812 -1.7653  0.2278  0.1525
17696SOL     OW64741   2.030   7.056   6.670  0.6545 -0.1332  0.0167
17696SOL    HW164742   2.120   7.015   6.688  0.2327 -0.7656  0.7418
17696SOL    HW264743   2.032   7.105   6.583  0.9220 -2.5591 -1.4021
17697SOL     OW64744   9.244   6.468   6.232  0.0095 -0.3415 -0.3015
17697SOL    HW164745   9.324   6.526   6.241 -0.7636  0.6757  0.0747
17697SOL    HW264746   9.264   6.392   6.169  0.7426  0.8109 -1.4691
17698SOL     OW64747   3.911   9.037   7.247  0.4117 -0.1728 -0.2217
17698SOL    HW164748   4.011   9.039   7.251  0.4243 -0.2615 -0.4415
17698SOL    HW264749   3.879   9.115   7.193  0.3318  0.1803  0.3370
17699SOL     OW64750   8.563   2.156   2.573  0.2726 -0.3898 -0.1315
17699SOL    HW164751   8.498   2.080   2.575  1.0771 -1.0970 -0.4386
17699SOL    HW264752   8.568   2.197   2.664  0.2612 -1.0832  0.1877
17700SOL     OW64753   2.282   9.227   8.189 -0.1848  0.3124  0.7568
17700SOL    HW164754   2.260   9.280   8.107  2.5881 -2.1455 -1.6941
17700SOL    HW264755   2.362   9.266   8.234  0.8634 -0.8051 -0.1215
17701SOL     OW64756   1.855   1.342   0.409  0.5920 -0.5776 -0.5324
17701SOL    HW164757   1.846   1.254   0.455  0.4807 -0.1821  0.2169
17701SOL    HW264758   1.876   1.413   0.477 -0.2881  0.1369 -0.9998
17702SOL     OW64759   1.644   8.879   7.388 -0.1231  0.4738 -0.2729
17702SOL    HW164760   1.599   8.814   7.327 -0.9858  2.3301 -1.6946
17702SOL    HW264761   1.737   8.848   7.408 -0.1489 -0.6419 -1.7810
17703SOL     OW64762   2.546   1.460   2.960  0.1358  0.0990  0.0360
17703SOL    HW164763   2.540   1.500   2.869 -3.3824 -0.6313 -0.1109
17703SOL    HW264764   2.550   1.360   2.952  0.1889  0.0475  0.6874
17704SOL     OW64765   9.683   6.079   2.857 -0.1166 -0.4769 -0.4436
17704SOL    HW164766   9.609   6.115   2.914  0.4613  1.0471 -0.6444
17704SOL    HW264767   9.771   6.107   2.894  0.2959 -0.2361 -1.5743
17705SOL     OW64768   8.782   9.205   6.884 -0.2282  0.4264 -0.3616
17705SOL    HW164769   8.867   9.163   6.852 -0.7092 -1.8304  1.2030
17705SOL    HW264770   8.710   9.189   6.816  0.5170  2.1564 -1.5874
17706SOL     OW64771   0.098   3.037   7.161 -0.1160  0.5895 -0.2882
17706SOL    HW164772  -0.001   3.041   7.174 -0.1552 -0.4091 -0.2332
17706SOL    HW264773   0.123   2.947   7.124  0.9463  0.2317  1.2573
17707SOL     OW64774   8.625   3.790   3.942  0.3743  0.0497  0.1761
17707SOL    HW164775   8.672   3.761   3.859  1.2200  0.9871  0.3168
17707SOL    HW264776   8.689   3.837   4.002 -0.0261 -1.3858  1.7682
17708SOL     OW64777   4.535   2.223   2.359 -0.4158  0.3324  0.2047
17708SOL    HW164778   4.588   2.141   2.335 -0.0674  0.5104  0.3657
17708SOL    HW264779   4.483   2.254   2.279 -0.9334 -0.3344  0.2791
17709SOL     OW64780   3.602   0.116   2.909 -0.4991  0.5349  1.2404
17709SOL    HW164781   3.571   0.209   2.930 -1.9727  0.2440  0.3727
17709SOL    HW264782   3.592   0.099   2.811 -0.1756 -0.5287  1.3869
17710SOL     OW64783   6.155   4.550   7.716 -0.4952  0.1938  0.5950
17710SOL    HW164784   6.115   4.572   7.805 -0.1851 -0.6713  0.9602
17710SOL    HW264785   6.254   4.539   7.726 -0.5275 -0.4631  0.2615
17711SOL     OW64786   7.699   3.550   0.113 -0.1387 -0.3173 -0.6461
17711SOL    HW164787   7.648   3.582   0.193 -1.4167 -1.0882 -1.1438
17711SOL    HW264788   7.675   3.455   0.094  1.1733 -0.5523 -1.1443
17712SOL     OW64789   9.642   9.166   7.676  0.4012  0.0801 -0.3252
17712SOL    HW164790   9.584   9.247   7.673  1.9896  1.2402 -0.0884
17712SOL    HW264791   9.688   9.161   7.765 -0.4778 -1.6504  0.0510
17713SOL     OW64792   3.377   0.921   0.997  0.6976 -0.2858  0.1554
17713SOL    HW164793   3.316   0.888   1.069  0.0649  0.5201  0.0076
17713SOL    HW264794   3.456   0.861   0.989 -0.6029 -1.9635 -0.3709
17714SOL     OW64795   2.936   1.356   4.927 -0.3187 -0.0764 -0.0762
17714SOL    HW164796   2.992   1.279   4.955  1.3166  0.9026 -0.5356
17714SOL    HW264797   2.851   1.323   4.886  0.1018 -1.6082  0.2623
17715SOL     OW64798   6.052   1.400   5.221  0.0664 -0.5039 -0.2924
17715SOL    HW164799   6.145   1.392   5.183  0.3571  0.3673  0.2283
17715SOL    HW264800   6.057   1.435   5.315 -0.8229 -0.0168 -0.4220
17716SOL     OW64801   3.557   0.603   7.697  0.1481 -0.4113 -0.0356
17716SOL    HW164802   3.498   0.596   7.617  0.7521 -2.5719 -0.3304
17716SOL    HW264803   3.510   0.654   7.769 -1.1292 -0.0667 -1.0946
17717SOL     OW64804   5.589   7.442   5.371 -0.1363 -0.2204  0.5956
17717SOL    HW164805   5.601   7.533   5.333  1.7662 -0.1869  1.2143
17717SOL    HW264806   5.529   7.446   5.451 -0.3682  0.4243  0.3868
17718SOL     OW64807   0.604   4.536   1.051  0.1506  0.0852 -0.0955
17718SOL    HW164808   0.613   4.624   1.098 -1.3248 -0.6461  1.6321
17718SOL    HW264809   0.522   4.488   1.085  1.6582 -2.5466  0.0007
17719SOL     OW64810   3.012   8.786   6.989  0.0164  0.0776  0.0205
17719SOL    HW164811   3.035   8.883   6.995 -0.9804  0.3585 -0.5485
17719SOL    HW264812   3.058   8.745   6.910  1.4461 -0.2205  0.9807
17720SOL     OW64813   7.155   1.503   2.522  0.1984 -0.3352  0.2727
17720SOL    HW164814   7.084   1.504   2.593  0.5780  0.4580  0.6495
17720SOL    HW264815   7.129   1.565   2.448 -0.2033 -1.1735 -0.2976
17721SOL     OW64816   0.279   2.766   0.723  0.1296  0.0670 -0.0765
17721SOL    HW164817   0.274   2.846   0.783 -1.2818 -0.3029  0.3045
17721SOL    HW264818   0.227   2.784   0.640 -0.2324 -0.4794  0.0341
17722SOL     OW64819   1.807   0.218   5.901 -0.1859 -0.0009 -0.4247
17722SOL    HW164820   1.870   0.232   5.824 -0.7823 -2.1947 -1.3480
17722SOL    HW264821   1.841   0.142   5.957 -0.8424  0.2701  0.3404
17723SOL     OW64822   6.148   9.862   4.921 -0.0336  0.1540 -0.0268
17723SOL    HW164823   6.083   9.811   4.977 -2.3630  0.1809 -2.6321
17723SOL    HW264824   6.232   9.807   4.910 -0.0568 -0.4076  2.3084
17724SOL     OW64825   8.154   0.962   2.925  0.4090  0.3360 -0.1270
17724SOL    HW164826   8.158   0.889   2.993  1.6877 -0.0683 -0.6227
17724SOL    HW264827   8.132   0.923   2.836 -0.4958  0.7672 -0.0969
17725SOL     OW64828   3.156   7.756   1.195 -0.3028 -0.0912  0.5423
17725SOL    HW164829   3.201   7.833   1.240  1.1833 -0.1672 -0.8046
17725SOL    HW264830   3.168   7.674   1.251  0.2410  0.1276  0.7512
17726SOL     OW64831   7.504   3.077   7.813  0.1779 -0.2360  0.4922
17726SOL    HW164832   7.554   2.994   7.788 -0.2804  0.2640 -2.2303
17726SOL    HW264833   7.560   3.157   7.790 -0.0131  0.2447  1.6708
17727SOL     OW64834   5.040   1.448   5.148  0.4772  0.3638 -0.2656
17727SOL    HW164835   5.027   1.439   5.247 -0.6872  0.5840 -0.3937
17727SOL    HW264836   5.050   1.357   5.107  0.2296  0.2408 -0.0492
17728SOL     OW64837   7.633   3.645   3.594  0.1932 -0.2414 -0.4416
17728SOL    HW164838   7.583   3.646   3.681  0.3934  1.2150 -0.3316
17728SOL    HW264839   7.590   3.708   3.530  1.3926  0.3993 -0.6328
17729SOL     OW64840   2.530   5.441   0.686 -0.0296  0.3546  0.0198
17729SOL    HW164841   2.581   5.389   0.755 -0.2023  0.9539  0.6066
17729SOL    HW264842   2.594   5.490   0.627  0.0949  1.2656  0.8797
17730SOL     OW64843   8.427   3.255   3.300  0.5052 -0.1193  0.4880
17730SOL    HW164844   8.386   3.316   3.367  0.0752  0.7887 -0.5890
17730SOL    HW264845   8.518   3.289   3.275 -0.5714  1.2901 -1.6765
17731SOL     OW64846   7.446   6.256   5.177  0.4809 -0.1817  0.5038
17731SOL    HW164847   7.464   6.200   5.096 -0.2453  0.4701 -0.1207
17731SOL    HW264848   7.531   6.299   5.207  0.5554  0.4318 -0.5656
17732SOL     OW64849   2.322   4.725   4.674  0.0030  0.4355 -0.4393
17732SOL    HW164850   2.364   4.758   4.589  0.1970  0.2372 -0.4211
17732SOL    HW264851   2.389   4.729   4.748  0.7404 -2.1067 -0.9180
17733SOL     OW64852   7.285   0.330   7.211 -0.3030 -0.1023  0.5484
17733SOL    HW164853   7.380   0.312   7.185 -0.7555 -1.3296 -0.2936
17733SOL    HW264854   7.258   0.269   7.285 -0.6281 -0.1891  0.3588
17734SOL     OW64855   0.147   6.718   0.134  0.2368  0.1414  0.0811
17734SOL    HW164856   0.147   6.790   0.065  0.7211 -0.7463 -0.8637
17734SOL    HW264857   0.229   6.725   0.190  1.7764 -1.4410 -1.9099
17735SOL     OW64858   8.146   0.820   7.659 -0.1557  0.4518  0.6057
17735SOL    HW164859   8.063   0.765   7.645  0.0257  0.2450  0.3194
17735SOL    HW264860   8.206   0.774   7.724  0.1161  0.1735  0.1662
17736SOL     OW64861   6.782   6.687   5.902 -0.4274  0.0759  0.2274
17736SOL    HW164862   6.785   6.605   5.845 -0.4746 -1.1513  1.9516
17736SOL    HW264863   6.727   6.670   5.984  0.3979  1.4942  1.1235
17737SOL     OW64864   7.820   0.795   4.863 -1.1196 -0.6949 -0.2231
17737SOL    HW164865   7.830   0.757   4.771 -2.2047  0.6978 -0.9360
17737SOL    HW264866   7.723   0.804   4.885 -0.8580 -0.7685  0.9519
17738SOL     OW64867   8.810   8.018   1.219 -0.0173  0.4216  0.2717
17738SOL    HW164868   8.832   8.110   1.253 -1.2938  0.0924  2.0350
17738SOL    HW264869   8.789   8.023   1.122 -0.8283  2.1262  0.5176
17739SOL     OW64870   4.279   2.785   3.495  0.0334  0.2306  0.1609
17739SOL    HW164871   4.377   2.802   3.503  0.3336 -1.4411  0.2041
17739SOL    HW264872   4.241   2.766   3.586 -0.3406  0.9385  0.1529
17740SOL     OW64873   8.255   5.608   7.582 -0.3232  0.4479 -0.4695
17740SOL    HW164874   8.167   5.613   7.533 -0.8262 -0.3328  0.3339
17740SOL    HW264875   8.309   5.532   7.545 -0.5917  0.0248 -0.0034
17741SOL     OW64876   5.959   9.047   5.928 -0.3398  0.1252  0.3636
17741SOL    HW164877   5.960   9.053   5.828 -1.4275 -0.9114  0.2685
17741SOL    HW264878   5.871   9.079   5.962 -0.0067  0.3799  0.9855
17742SOL     OW64879   8.465   1.205   3.933 -0.1002  0.1118  0.1400
17742SOL    HW164880   8.545   1.152   3.961 -0.4378  0.4454  1.7402
17742SOL    HW264881   8.420   1.245   4.013 -1.1500  0.9727 -0.8466
17743SOL     OW64882   1.021   0.630   6.201 -0.0135 -0.0977 -0.3883
17743SOL    HW164883   1.072   0.704   6.244 -1.1378 -0.1043  0.9860
17743SOL    HW264884   1.083   0.553   6.181  0.5789  0.0235  0.9478
17744SOL     OW64885   4.579   1.408   5.721  0.1357 -0.3065 -0.1784
17744SOL    HW164886   4.575   1.332   5.657  0.5935 -0.5422  0.0694
17744SOL    HW264887   4.577   1.373   5.815 -0.9400  0.0593 -0.0664
17745SOL     OW64888   8.993   8.220   4.424 -0.3434  0.3170  0.2113
17745SOL    HW164889   8.904   8.261   4.445  0.2709  0.4924  2.6491
17745SOL    HW264890   9.063   8.291   4.420 -0.1467  0.0733 -0.7541
17746SOL     OW64891   8.450   2.075   4.604 -0.6461 -0.7661  0.1964
17746SOL    HW164892   8.485   2.099   4.694  0.2752 -1.2203 -0.0256
17746SOL    HW264893   8.438   1.975   4.598  0.7605 -0.9066 -0.6709
17747SOL     OW64894   7.991   4.639   0.255 -0.3109 -0.3383  0.5257
17747SOL    HW164895   8.004   4.723   0.307 -0.3683 -0.0334  0.0527
17747SOL    HW264896   8.024   4.561   0.308 -1.0932 -0.1206  1.3369
17748SOL     OW64897   1.583   9.848   5.790 -0.5793 -0.0040  0.0717
17748SOL    HW164898   1.581   9.921   5.721  0.6023 -0.6741 -0.6781
17748SOL    HW264899   1.535   9.879   5.872 -0.8276  1.3015 -0.5540
17749SOL     OW64900   1.720   7.904   6.702 -0.1276 -0.0262 -0.2266
17749SOL    HW164901   1.759   7.856   6.623  0.8784  0.1293  0.1619
17749SOL    HW264902   1.623   7.882   6.710  0.1891 -1.5457 -0.3952
17750SOL     OW64903   5.813   1.087   4.196  0.3243 -0.6668 -0.9368
17750SOL    HW164904   5.876   1.030   4.249  0.5792 -0.2539 -0.7892
17750SOL    HW264905   5.721   1.050   4.201  0.5980 -1.3955 -1.3213
17751SOL     OW64906   9.828   8.922   5.666  0.0373  0.1600  0.1177
17751SOL    HW164907   9.755   8.957   5.724 -0.3650 -0.1481 -0.2018
17751SOL    HW264908   9.842   8.983   5.588  0.2985  0.3562  0.3161
17752SOL     OW64909   9.491   3.374   4.830  0.5191 -0.3814 -0.1146
17752SOL    HW164910   9.471   3.284   4.869 -0.1623  0.8181  2.4037
17752SOL    HW264911   9.428   3.392   4.755  0.5927 -1.9459 -0.5777
17753SOL     OW64912   3.830   8.320   4.452  0.3679  0.6062 -0.0917
17753SOL    HW164913   3.895   8.385   4.413  0.5417  0.9712  0.7815
17753SOL    HW264914   3.745   8.321   4.399  1.5753 -0.9350 -2.1287
17754SOL     OW64915   0.560   9.442   5.414  0.7201 -0.1539  0.3360
17754SOL    HW164916   0.553   9.541   5.402 -1.7602 -0.3595 -0.2622
17754SOL    HW264917   0.617   9.422   5.494 -0.5621  1.8547  1.8118
17755SOL     OW64918   1.959   7.801   2.303 -0.6611  0.9150 -0.1285
17755SOL    HW164919   1.960   7.832   2.398  0.1697 -1.6399  0.7459
17755SOL    HW264920   2.052   7.801   2.267 -0.5517 -1.0207  0.0880
17756SOL     OW64921   3.620   5.338   0.269  0.4858  0.0342  0.3107
17756SOL    HW164922   3.586   5.358   0.177  1.2979  1.3848  0.2774
17756SOL    HW264923   3.662   5.248   0.271  0.0473 -0.1889 -0.5276
17757SOL     OW64924   9.306   4.468   3.961  0.2211  0.0547 -0.0391
17757SOL    HW164925   9.250   4.391   3.992 -2.3237  0.9372 -2.2914
17757SOL    HW264926   9.353   4.442   3.876  1.8789 -0.0750  0.9023
17758SOL     OW64927   9.431   8.237   0.436 -0.0382 -0.5247 -0.2864
17758SOL    HW164928   9.347   8.288   0.418  0.0414  0.1445  1.1737
17758SOL    HW264929   9.504   8.271   0.377  0.3650  2.0055  1.5908
17759SOL     OW64930   8.091   5.645   3.255  0.1868  0.3619 -0.1145
17759SOL    HW164931   8.008   5.698   3.266 -0.4125 -0.5785  0.0074
17759SOL    HW264932   8.170   5.706   3.248 -0.5803  1.2857 -0.8604
17760SOL     OW64933   1.154   4.695   4.589  0.3068  0.5024 -0.0738
17760SOL    HW164934   1.116   4.618   4.638  0.8422 -0.4627 -1.1476
17760SOL    HW264935   1.088   4.728   4.521 -0.1532  1.3812  0.7793
17761SOL     OW64936   3.178   9.837   7.054  0.4749 -0.0177  0.7063
17761SOL    HW164937   3.086   9.837   7.014 -0.8777 -1.1802  3.6790
17761SOL    HW264938   3.244   9.808   6.985 -1.4196  0.5996 -1.4098
17762SOL     OW64939   0.146   3.636   7.561  0.2049 -0.7145  0.1744
17762SOL    HW164940   0.175   3.686   7.479  0.2027 -0.8577  0.0848
17762SOL    HW264941   0.146   3.538   7.540 -0.2445 -0.7223  0.2045
17763SOL     OW64942   0.446   1.572   4.942 -0.2831  0.4351  0.6500
17763SOL    HW164943   0.414   1.660   4.976 -1.7806  0.6162 -1.1279
17763SOL    HW264944   0.485   1.584   4.850  1.2623 -0.4595  1.1629
17764SOL     OW64945   6.838   0.228   3.359 -0.2668  0.7669 -0.5206
17764SOL    HW164946   6.807   0.163   3.289  0.7099 -0.7631  0.4483
17764SOL    HW264947   6.760   0.255   3.416 -0.2559 -1.4482  0.5957
17765SOL     OW64948   4.064   8.510   4.598 -0.1442  0.5473  0.1003
17765SOL    HW164949   3.997   8.486   4.668 -0.5627  1.3204 -0.0306
17765SOL    HW264950   4.112   8.594   4.625  0.3188  0.3532 -0.1123
17766SOL     OW64951   8.623   6.197   7.483 -0.4173  0.7091 -0.6697
17766SOL    HW164952   8.714   6.235   7.497  0.3961 -0.4970 -2.4679
17766SOL    HW264953   8.566   6.262   7.434 -0.1614  1.0048 -0.5735
17767SOL     OW64954   4.895   2.851   3.833 -0.5141  0.0634  0.1866
17767SOL    HW164955   4.971   2.827   3.893 -0.6118 -1.1999 -0.1989
17767SOL    HW264956   4.808   2.835   3.880 -0.5693  0.3083  0.1719
17768SOL     OW64957   8.018   0.637   5.489  0.3974 -0.0346 -0.4241
17768SOL    HW164958   7.960   0.687   5.425  1.9822  1.1634 -0.9467
17768SOL    HW264959   8.076   0.574   5.438  0.3183 -0.4596  0.0077
17769SOL     OW64960   4.547   8.974   2.374  0.3699 -0.2923 -0.1012
17769SOL    HW164961   4.508   9.019   2.294  0.4962  0.4842  0.2692
17769SOL    HW264962   4.473   8.955   2.440  0.6268  1.3926  0.7031
17770SOL     OW64963   1.713   8.874   6.089  0.3847  0.2948 -0.6444
17770SOL    HW164964   1.787   8.827   6.042  0.2727 -0.4848 -0.0393
17770SOL    HW264965   1.694   8.829   6.176 -0.3013  0.9359 -0.4558
17771SOL     OW64966   7.730   0.574   7.866 -0.1905 -0.1228  0.0141
17771SOL    HW164967   7.689   0.625   7.942 -0.1599 -0.2685  0.1282
17771SOL    HW264968   7.711   0.621   7.780 -2.1111 -1.1083 -0.1281
17772SOL     OW64969   4.366   4.540   7.917 -0.4403  0.5822 -0.0471
17772SOL    HW164970   4.430   4.617   7.917 -0.3351  0.4961  0.3344
17772SOL    HW264971   4.288   4.562   7.975 -1.4441  1.2450 -1.6143
17773SOL     OW64972   2.029   2.440   3.598  0.1617  0.1378 -0.3772
17773SOL    HW164973   1.943   2.393   3.619  1.7507 -2.4064  0.5547
17773SOL    HW264974   2.074   2.394   3.521  2.0401 -0.2664  0.9477
17774SOL     OW64975   8.691   3.283   2.815 -0.4588  0.0486 -0.2701
17774SOL    HW164976   8.788   3.289   2.838 -0.4138 -0.4021 -0.3430
17774SOL    HW264977   8.679   3.225   2.735 -0.6781  1.1030 -1.0087
17775SOL     OW64978   9.012   6.496   5.412  0.1931 -0.2067  0.3578
17775SOL    HW164979   9.048   6.581   5.450  0.0464 -0.1238  0.3109
17775SOL    HW264980   8.981   6.437   5.486  0.7083 -0.4076  0.4187
17776SOL     OW64981   5.476   8.431   5.805  0.2013  0.1118 -0.3220
17776SOL    HW164982   5.546   8.361   5.793 -0.0480  0.1851 -2.4615
17776SOL    HW264983   5.399   8.413   5.744 -0.4500  1.5114  0.0491
17777SOL     OW64984   3.363   7.215   3.237  0.2246  0.3872 -0.4338
17777SOL    HW164985   3.446   7.246   3.191 -0.8238  0.3628 -2.3517
17777SOL    HW264986   3.370   7.116   3.255  0.7817  0.4641 -0.2136
17778SOL     OW64987   8.053   6.385   7.701 -0.2403 -0.3967  0.2964
17778SOL    HW164988   7.959   6.369   7.669 -0.5303 -1.4135  1.6242
17778SOL    HW264989   8.074   6.322   7.775  2.1919 -1.5441 -1.2959
17779SOL     OW64990   3.197   8.279   4.828  0.7223  0.0022 -0.6734
17779SOL    HW164991   3.269   8.223   4.869  0.8385  0.4395 -0.2684
17779SOL    HW264992   3.120   8.285   4.891  2.4568  3.9278  1.3224
17780SOL     OW64993   8.348   4.342   1.410 -0.3106  0.4015  0.3290
17780SOL    HW164994   8.269   4.398   1.385 -0.9990 -0.2955  0.9024
17780SOL    HW264995   8.375   4.362   1.504 -1.5629 -1.3355  1.0963
17781SOL     OW64996   7.905   0.229   6.116 -0.1746 -0.4992 -0.2366
17781SOL    HW164997   7.814   0.194   6.096 -0.6060  0.8925 -0.7721
17781SOL    HW264998   7.899   0.324   6.147  1.1016 -0.2744 -0.6007
17782SOL     OW64999   4.110   3.798   3.808  0.0935  0.2621  0.5441
17782SOL    HW165000   4.017   3.803   3.773  0.5857 -0.9453 -0.9901
17782SOL    HW265001   4.146   3.706   3.795  1.0365  0.3556  2.3601
17783SOL     OW65002   3.196   0.955   0.013  0.4289  0.2470  0.1722
17783SOL    HW165003   3.208   0.893   0.090 -0.5354  1.0645  0.9917
17783SOL    HW265004   3.188   1.049   0.046  2.2092  0.8661 -1.0841
17784SOL     OW65005   5.322   8.826   5.723 -0.2604  0.7992  0.2609
17784SOL    HW165006   5.346   8.920   5.750 -1.3210  1.8182 -2.1641
17784SOL    HW265007   5.252   8.829   5.652  0.8324 -1.8232 -0.9825
17785SOL     OW65008   1.610   6.003   2.593  0.1552  0.2305 -0.1307
17785SOL    HW165009   1.606   6.037   2.499 -3.5250 -1.4753 -0.6924
17785SOL    HW265010   1.667   5.921   2.597  0.7465  0.6062 -0.7644
17786SOL     OW65011   5.745   9.389   4.407  0.0017  0.2463 -0.7847
17786SOL    HW165012   5.728   9.364   4.503  0.5024 -0.2082 -0.8116
17786SOL    HW265013   5.836   9.429   4.399  1.7240 -3.6657 -1.7625
17787SOL     OW65014   9.558   9.205   3.454  0.2657 -0.4724 -0.0788
17787SOL    HW165015   9.636   9.173   3.399 -0.0428 -0.8515 -0.2910
17787SOL    HW265016   9.482   9.229   3.394  0.2192 -0.0900  0.1303
17788SOL     OW65017   1.854   0.613   1.897  0.3952  0.0240 -0.3508
17788SOL    HW165018   1.771   0.656   1.932 -0.3059 -0.3673 -1.5180
17788SOL    HW265019   1.934   0.652   1.944 -0.5659 -1.2734  2.4631
17789SOL     OW65020   8.806   7.503   2.911 -0.3979 -0.4263 -0.1310
17789SOL    HW165021   8.757   7.572   2.965 -0.9362 -0.9242  0.0254
17789SOL    HW265022   8.755   7.416   2.914  0.8486 -1.1420  0.6009
17790SOL     OW65023   0.651   8.258   7.516 -0.2085 -0.0844  0.1004
17790SOL    HW165024   0.610   8.167   7.517 -2.2172  0.8085  0.9637
17790SOL    HW265025   0.670   8.287   7.610 -0.8759  0.9404 -0.0685
17791SOL     OW65026   2.139   9.983   3.631  0.1387  0.4369  0.1748
17791SOL    HW165027   2.049  10.025   3.644 -0.4184 -0.6511 -0.1600
17791SOL    HW265028   2.210  10.049   3.657 -0.7588  1.0705  1.0449
17792SOL     OW65029   4.317   1.507   0.586  0.2280 -0.6870  1.2316
17792SOL    HW165030   4.406   1.510   0.631  0.0740 -0.2525  1.5101
17792SOL    HW265031   4.275   1.417   0.601  0.2077 -0.5722  1.9024
17793SOL     OW65032   3.631   2.610   1.980 -0.2656 -0.4000 -0.1523
17793SOL    HW165033   3.721   2.604   1.938 -0.0198 -1.8693  0.5399
17793SOL    HW265034   3.575   2.677   1.931  0.7021 -0.5590 -1.4917
17794SOL     OW65035   1.611   0.600   7.080 -0.1629 -0.5649 -0.6537
17794SOL    HW165036   1.593   0.554   7.166 -1.0179 -0.4329 -0.7573
17794SOL    HW265037   1.706   0.585   7.053  0.4006  0.2904  0.8466
17795SOL     OW65038   0.688   5.809   2.288 -1.1227 -0.1338 -0.8983
17795SOL    HW165039   0.663   5.831   2.194 -0.7246 -2.8181 -1.6806
17795SOL    HW265040   0.656   5.881   2.349 -0.3796  2.2229 -3.1956
17796SOL     OW65041   1.392   0.671   2.479 -0.0181  0.8290 -0.0223
17796SOL    HW165042   1.298   0.647   2.457  0.1731 -1.0276  1.0504
17796SOL    HW265043   1.395   0.715   2.569  0.1029  1.0801 -0.1499
17797SOL     OW65044   2.525   9.934   4.863 -0.8698 -0.1130 -0.5039
17797SOL    HW165045   2.469  10.000   4.813 -1.1705 -0.9038 -1.2278
17797SOL    HW265046   2.534   9.851   4.809 -0.4146 -0.6321  0.3624
17798SOL     OW65047   8.488   4.523   0.108 -0.1714 -0.2354 -0.1709
17798SOL    HW165048   8.516   4.431   0.135  1.3433  0.3689  0.3738
17798SOL    HW265049   8.416   4.556   0.169 -2.2944 -1.8876 -1.7053
17799SOL     OW65050   6.184   7.316   5.379  0.7624 -0.3338 -0.6419
17799SOL    HW165051   6.196   7.384   5.307  1.8201  0.5433  0.3374
17799SOL    HW265052   6.243   7.339   5.456 -0.0869 -1.4630  0.3599
17800SOL     OW65053   0.375   6.711   0.874  0.4362 -0.4649  0.2844
17800SOL    HW165054   0.461   6.755   0.847  0.5209  0.3054  1.7608
17800SOL    HW265055   0.395   6.634   0.935  0.0521  0.0738  1.0974
17801SOL     OW65056   6.895   4.677   0.574 -0.0317  0.4625  0.1139
17801SOL    HW165057   6.967   4.608   0.573 -0.1849  0.3066 -0.0980
17801SOL    HW265058   6.819   4.648   0.516 -0.8310  0.0355  1.3608
17802SOL     OW65059   9.434   2.430   3.652  0.4964 -0.1174  0.2962
17802SOL    HW165060   9.515   2.472   3.611  0.2268 -0.2987 -0.4272
17802SOL    HW265061   9.386   2.497   3.709  0.3457  0.4090 -0.4528
17803SOL     OW65062   8.683   3.534   0.246  0.0422  0.6700  0.3843
17803SOL    HW165063   8.585   3.551   0.259 -0.5219 -1.4236 -0.8745
17803SOL    HW265064   8.726   3.517   0.335 -1.1383 -0.4008  0.7715
17804SOL     OW65065   8.039   6.284   2.275 -0.8662 -0.0657  0.6181
17804SOL    HW165066   8.024   6.273   2.177 -1.1123  2.9222  0.2929
17804SOL    HW265067   7.951   6.285   2.322 -0.9212  1.7001  0.4943
17805SOL     OW65068   8.040   5.315   2.480 -0.3809  0.2444  0.0093
17805SOL    HW165069   7.942   5.298   2.495 -0.0570 -0.1773  1.7605
17805SOL    HW265070   8.062   5.408   2.508  0.0691 -0.2749  1.4206
17806SOL     OW65071   2.379   9.842   6.584  0.1162  0.7729 -0.2884
17806SOL    HW165072   2.425   9.929   6.571 -0.8131  1.3661  0.3060
17806SOL    HW265073   2.443   9.767   6.567  1.7268  1.5782  1.9645
17807SOL     OW65074   0.270   4.864   1.330  0.0296 -0.2137  0.4189
17807SOL    HW165075   0.194   4.895   1.274 -1.8591 -0.1461  2.9438
17807SOL    HW265076   0.294   4.934   1.397 -0.0085 -1.5944  1.9207
17808SOL     OW65077   7.400   8.027   3.108 -0.0152  0.4570  0.1170
17808SOL    HW165078   7.431   8.111   3.064  1.7107 -1.7756 -3.1672
17808SOL    HW265079   7.479   7.971   3.133 -1.1725 -1.3087 -0.0404
17809SOL     OW65080   0.920   5.724   5.482  0.4889  0.1477  0.0318
17809SOL    HW165081   0.973   5.708   5.398  0.3013 -1.4480  0.2064
17809SOL    HW265082   0.979   5.770   5.550  1.1083  0.0089 -0.4041
17810SOL     OW65083   3.227   6.618   0.924 -0.0763 -0.2392 -0.0243
17810SOL    HW165084   3.288   6.598   0.848 -1.5530  1.1462 -1.6159
17810SOL    HW265085   3.191   6.710   0.915  1.4611  0.8075  3.5931
17811SOL     OW65086   9.663   0.390   5.526  0.1683  0.4054 -0.8007
17811SOL    HW165087   9.758   0.373   5.550  0.2249  0.7523 -0.7727
17811SOL    HW265088   9.604   0.365   5.603  0.3078  1.0219 -0.4898
17812SOL     OW65089   2.173   5.272   5.556 -0.0484 -0.5187  0.0419
17812SOL    HW165090   2.093   5.304   5.505 -0.7033 -0.2575  1.2214
17812SOL    HW265091   2.240   5.233   5.492  0.7571  3.1225 -1.4678
17813SOL     OW65092   3.969   4.487   1.660 -0.2053  0.1134  0.0212
17813SOL    HW165093   3.988   4.482   1.562  1.1791 -1.8211  0.3655
17813SOL    HW265094   4.026   4.559   1.701  0.5257 -0.2818 -0.2971
17814SOL     OW65095   9.412   5.924   7.068 -0.5990  0.1319 -0.5549
17814SOL    HW165096   9.507   5.907   7.042 -0.7729 -0.4786 -0.7937
17814SOL    HW265097   9.397   5.897   7.163 -0.8929 -1.1125 -0.9541
17815SOL     OW65098   2.492   4.738   0.489  0.3730  0.0737 -0.0076
17815SOL    HW165099   2.522   4.661   0.545 -1.2049 -1.1475 -0.7883
17815SOL    HW265100   2.524   4.727   0.395 -0.6481 -0.1473 -0.3458
17816SOL     OW65101   3.190   9.946   5.619  0.1255 -0.0374  0.1214
17816SOL    HW165102   3.155   9.852   5.622  0.7941 -0.2414  3.9654
17816SOL    HW265103   3.254   9.955   5.542  0.8556 -3.0180  0.3214
17817SOL     OW65104   7.910   6.740   2.660 -0.2038  0.2158  0.3058
17817SOL    HW165105   7.993   6.735   2.605 -0.4350 -0.3917  0.0112
17817SOL    HW265106   7.879   6.835   2.664  1.4280  0.7244  1.8058
17818SOL     OW65107   2.629   1.949   2.844 -0.0742  0.2846  0.0236
17818SOL    HW165108   2.543   1.900   2.852 -0.3715  0.7894 -0.0431
17818SOL    HW265109   2.618   2.028   2.783  0.2189  0.8084  0.6365
17819SOL     OW65110   3.667   1.545   7.225 -0.6917 -0.4003 -0.2845
17819SOL    HW165111   3.650   1.515   7.319  0.0507  1.2931  0.4213
17819SOL    HW265112   3.721   1.476   7.176 -0.9956 -1.2442  0.5760
17820SOL     OW65113   9.060   7.350   1.329 -0.6085  0.4248  0.6015
17820SOL    HW165114   8.988   7.419   1.340 -0.1153  1.1780 -0.8527
17820SOL    HW265115   9.146   7.385   1.365 -0.8506 -0.3420  2.0044
17821SOL     OW65116   3.316   7.969   1.325 -0.1275  0.2654  0.3824
17821SOL    HW165117   3.327   8.064   1.353 -0.2651  0.5046 -0.3620
17821SOL    HW265118   3.306   7.911   1.406  0.2723  0.8420  0.8500
17822SOL     OW65119   6.411   7.819   3.477  0.2796  0.0326 -0.0606
17822SOL    HW165120   6.386   7.822   3.574  1.0685 -0.0225  0.1458
17822SOL    HW265121   6.510   7.808   3.468 -0.0160 -2.2480 -0.8694
17823SOL     OW65122   9.441   2.936   5.629 -0.2259 -0.3198 -0.2867
17823SOL    HW165123   9.376   2.968   5.560 -1.6172 -2.1094  0.1185
17823SOL    HW265124   9.426   2.838   5.645  0.7692 -0.1683  1.7890
17824SOL     OW65125   7.721   0.099   2.184  0.1755 -0.9764 -0.5697
17824SOL    HW165126   7.639   0.156   2.189  1.5657  1.0261 -0.2807
17824SOL    HW265127   7.798   0.146   2.227  1.4134 -2.9889 -0.5002
17825SOL     OW65128   4.101   6.226   0.830 -0.0807  0.8881  0.4871
17825SOL    HW165129   4.120   6.309   0.777  1.4297  0.5878  0.5416
17825SOL    HW265130   4.045   6.164   0.776  1.2423  0.6874 -0.6758
17826SOL     OW65131   3.540   2.886   6.248  0.1211  0.1124  0.1862
17826SOL    HW165132   3.446   2.893   6.212 -0.8961 -0.5381  2.6121
17826SOL    HW265133   3.579   2.978   6.257  0.1330  0.3266 -1.8311
17827SOL     OW65134   2.890   1.603   7.409 -0.1720 -0.4483 -0.0619
17827SOL    HW165135   2.943   1.687   7.399  0.0777 -0.6160 -0.1318
17827SOL    HW265136   2.934   1.543   7.475 -0.9215 -0.0666  0.8060
17828SOL     OW65137   4.544   8.046   5.277  0.1332  0.2279  0.1733
17828SOL    HW165138   4.577   8.055   5.371  1.1062 -1.2129 -0.0095
17828SOL    HW265139   4.510   7.953   5.263 -0.5633  0.6114 -0.7371
17829SOL     OW65140   9.138   3.245   6.775 -0.6505 -0.1036  0.0752
17829SOL    HW165141   9.125   3.156   6.818 -0.7160 -0.6798 -1.1056
17829SOL    HW265142   9.068   3.309   6.807 -0.3179 -0.3419  1.2798
17830SOL     OW65143   6.441   2.199   1.197  0.0329  0.2795  0.6502
17830SOL    HW165144   6.396   2.115   1.165 -1.1097  1.1448 -0.0377
17830SOL    HW265145   6.439   2.202   1.297  0.0469 -0.5009  0.6752
17831SOL     OW65146   2.339   2.308   7.645  0.4625  0.5321 -0.3131
17831SOL    HW165147   2.402   2.356   7.707 -0.9995 -0.1407  1.7649
17831SOL    HW265148   2.248   2.304   7.687 -0.1818 -1.3429 -1.8199
17832SOL     OW65149   7.964   7.932   3.376  0.1170  0.1774 -0.2840
17832SOL    HW165150   7.869   7.904   3.387 -0.1697  0.6542 -1.4082
17832SOL    HW265151   7.967   8.028   3.349  0.9960  0.6520  1.4750
17833SOL     OW65152   7.730   1.144   0.046 -0.1639  0.1284 -0.1525
17833SOL    HW165153   7.754   1.213   0.114 -1.1644  1.4698 -1.1177
17833SOL    HW265154   7.709   1.058   0.091 -1.2724  1.1230  1.2758
17834SOL     OW65155   4.924   9.343   5.065  0.2553 -0.0932  0.0056
17834SOL    HW165156   4.926   9.319   5.162  3.2484  0.0994  0.0470
17834SOL    HW265157   4.864   9.281   5.016  0.3735 -1.5384  1.6442
17835SOL     OW65158   0.382   4.504   3.715  0.1990 -0.1222  0.2786
17835SOL    HW165159   0.401   4.527   3.620 -0.1340 -0.6801  0.0721
17835SOL    HW265160   0.283   4.488   3.727  0.4609 -1.8900  0.2938
17836SOL     OW65161   9.043   9.805   0.125  0.3674  0.7105  0.5709
17836SOL    HW165162   9.048   9.895   0.082  1.3384  0.6993  0.6493
17836SOL    HW265163   9.028   9.735   0.055  1.7256  0.7152  0.2577
17837SOL     OW65164   2.376   6.769   6.940 -0.1633  0.5532  0.0740
17837SOL    HW165165   2.356   6.831   7.015  1.9442  2.1274 -0.6095
17837SOL    HW265166   2.337   6.679   6.959  0.1875  0.9856  2.9725
17838SOL     OW65167   0.975   6.185   7.292  0.3010  0.2069 -0.2992
17838SOL    HW165168   0.959   6.169   7.389 -0.2230 -0.1404 -0.4446
17838SOL    HW265169   0.961   6.282   7.271  1.6201  0.5131  0.2080
17839SOL     OW65170   7.757   7.862   3.736  0.1997  0.3038  0.0525
17839SOL    HW165171   7.820   7.808   3.679 -0.6726  1.2930 -1.8823
17839SOL    HW265172   7.810   7.926   3.791  1.1885 -1.8786  1.7174
17840SOL     OW65173   7.188   7.176   3.172  0.0719  0.0860  0.2551
17840SOL    HW165174   7.262   7.242   3.180  0.8490 -0.5214 -1.6403
17840SOL    HW265175   7.151   7.156   3.263  2.1410  0.4946  1.2224
17841SOL     OW65176   3.813   3.682   6.751 -0.1668 -0.1407  0.0925
17841SOL    HW165177   3.813   3.590   6.789 -0.0002  0.9816  2.9271
17841SOL    HW265178   3.906   3.718   6.751 -0.6842  1.2663  2.2025
17842SOL     OW65179   9.462   7.797   4.357  0.3617  0.3268 -0.7465
17842SOL    HW165180   9.454   7.717   4.298  0.8634  0.1422 -0.5660
17842SOL    HW265181   9.550   7.842   4.340 -0.1283  1.1347 -1.2194
17843SOL     OW65182   9.401   5.185   4.857  0.1046  0.1874  0.0389
17843SOL    HW165183   9.442   5.205   4.946 -1.0165  1.0420  0.3756
17843SOL    HW265184   9.349   5.100   4.862  0.9999 -0.3738 -0.1201
17844SOL     OW65185   3.716   9.629   2.407  0.4160  0.1342  0.4322
17844SOL    HW165186   3.736   9.544   2.358 -0.0547  0.3078 -0.0626
17844SOL    HW265187   3.617   9.636   2.422  0.5006  0.3616  0.9003
17845SOL     OW65188   6.995   4.946   0.495  0.1808  0.1188  0.6139
17845SOL    HW165189   6.946   4.986   0.573 -0.8170 -0.2702  0.2016
17845SOL    HW265190   6.960   4.853   0.479  0.5994  0.0890 -0.1079
17846SOL     OW65191   8.801   0.191   0.202  0.1031 -0.3901 -0.0328
17846SOL    HW165192   8.746   0.129   0.258 -0.6279 -0.9441 -1.3436
17846SOL    HW265193   8.891   0.203   0.244  0.4389 -2.7236  0.0075
17847SOL     OW65194   7.345   9.588   3.631 -0.2233  0.6734 -0.1600
17847SOL    HW165195   7.436   9.599   3.591  0.5541  3.1549  2.1190
17847SOL    HW265196   7.279   9.643   3.580 -0.4564 -0.9937 -1.7099
17848SOL     OW65197   8.075   7.919   5.785 -0.1955 -0.1891  0.0407
17848SOL    HW165198   7.978   7.930   5.763  0.0346  1.0259 -0.4006
17848SOL    HW265199   8.106   7.998   5.838  0.9989  0.2926 -1.3529
17849SOL     OW65200   8.826   4.527   0.339  0.3119 -0.3010  0.2946
17849SOL    HW165201   8.911   4.476   0.353  0.0733 -1.1974 -1.4387
17849SOL    HW265202   8.835   4.587   0.260 -0.5343 -0.0906  0.3509
17850SOL     OW65203   5.816   0.128   6.232  0.1696 -0.0506  0.0003
17850SOL    HW165204   5.883   0.141   6.159  0.3002 -0.9571 -0.0476
17850SOL    HW265205   5.735   0.084   6.194  0.4190 -0.9378  0.4920
17851SOL     OW65206   9.684   3.318   5.626 -0.1597  0.0551 -0.1476
17851SOL    HW165207   9.607   3.279   5.676 -0.0625  1.4011  1.0934
17851SOL    HW265208   9.769   3.274   5.655 -0.1055  0.8328  0.8794
17852SOL     OW65209   7.439   8.083   5.242  0.1057  0.6633  0.7355
17852SOL    HW165210   7.468   8.107   5.150  1.9629 -0.4982  0.9882
17852SOL    HW265211   7.340   8.071   5.245 -0.1164  1.9936 -0.7911
17853SOL     OW65212   3.730   4.241   7.071 -0.0823  0.1809  0.9299
17853SOL    HW165213   3.688   4.170   7.014  1.6750 -3.1074  3.5606
17853SOL    HW265214   3.810   4.279   7.024 -0.9867  0.3892 -0.4620
17854SOL     OW65215   1.772   8.690   4.842 -0.7647  0.0919 -1.3194
17854SOL    HW165216   1.867   8.662   4.849  0.1098  2.8529 -1.3259
17854SOL    HW265217   1.714   8.610   4.829  1.7357 -1.4716 -3.2799
17855SOL     OW65218   0.543   2.650   7.183 -0.2393  0.1265 -0.5094
17855SOL    HW165219   0.482   2.576   7.155 -1.0266  0.7532 -0.4662
17855SOL    HW265220   0.605   2.616   7.254  0.8704 -1.0879 -2.0124
17856SOL     OW65221   9.491   8.192   4.710  0.3006 -0.3740  0.3412
17856SOL    HW165222   9.507   8.278   4.757 -1.8732  0.1548  0.1412
17856SOL    HW265223   9.527   8.197   4.617  0.6661  0.1299  0.5106
17857SOL     OW65224   0.276   0.767   0.734 -0.0102  0.2577 -0.0559
17857SOL    HW165225   0.219   0.693   0.770 -0.2715  1.4431  2.0592
17857SOL    HW265226   0.254   0.782   0.638 -2.6702  0.1440  0.4889
17858SOL     OW65227   9.846   1.815   2.770 -0.7125  0.5358  0.7439
17858SOL    HW165228   9.847   1.726   2.816 -1.0753  1.6508  2.9983
17858SOL    HW265229   9.773   1.817   2.702 -0.1800 -1.1470  0.0733
17859SOL     OW65230   2.647   2.180   6.640 -0.1092  0.4266 -0.4089
17859SOL    HW165231   2.662   2.088   6.602  1.0677 -0.6122  2.4029
17859SOL    HW265232   2.578   2.228   6.585  1.0037 -1.2007 -3.3818
17860SOL     OW65233   2.454   9.878   7.669  0.3787 -0.3939 -0.1877
17860SOL    HW165234   2.518   9.899   7.743  1.1213  0.3056 -1.0203
17860SOL    HW265235   2.364   9.917   7.690  0.9265  0.9425 -0.2529
17861SOL     OW65236   1.608   8.971   3.425  0.1104  0.2001 -0.1446
17861SOL    HW165237   1.686   9.033   3.435  1.3757 -1.1580 -1.3758
17861SOL    HW265238   1.636   8.878   3.445 -0.8792 -0.4867 -1.8637
17862SOL     OW65239   9.557   7.917   6.476 -0.4072  0.3363  0.1467
17862SOL    HW165240   9.483   7.893   6.414 -2.4726 -0.3381  2.7777
17862SOL    HW265241   9.609   7.835   6.499 -0.7852  0.2478  0.7085
17863SOL     OW65242   9.880   8.417   2.876 -0.8849 -0.4365 -0.1028
17863SOL    HW165243   9.871   8.434   2.974 -1.3112 -1.1094 -0.0209
17863SOL    HW265244   9.867   8.503   2.826  0.6868  0.1668  0.4945
17864SOL     OW65245   1.588   8.896   0.096  0.0974  0.0163  0.6370
17864SOL    HW165246   1.523   8.866   0.166 -1.7046  1.0429 -0.5655
17864SOL    HW265247   1.579   8.839   0.014 -2.6958  3.1094 -1.3110
17865SOL     OW65248   3.422   3.795   3.564  0.2503 -0.1337 -0.8720
17865SOL    HW165249   3.328   3.827   3.570  0.2378 -0.1126 -1.1719
17865SOL    HW265250   3.459   3.783   3.656 -0.4588 -1.3686 -0.7343
17866SOL     OW65251   8.415   5.025   3.430 -0.0247 -0.5106 -0.0621
17866SOL    HW165252   8.431   5.118   3.397  0.8752 -0.3666  0.7545
17866SOL    HW265253   8.395   5.028   3.528 -2.4440 -0.9404 -0.5172
17867SOL     OW65254   0.472   8.871   7.708  0.0306  0.0211  0.4830
17867SOL    HW165255   0.447   8.801   7.775 -0.3029 -1.3048 -0.9755
17867SOL    HW265256   0.550   8.839   7.654 -0.5193  0.5062 -0.6136
17868SOL     OW65257   5.273   1.591   5.423  0.2747  0.4513 -0.0444
17868SOL    HW165258   5.224   1.660   5.476 -0.7651 -0.2122 -0.1255
17868SOL    HW265259   5.297   1.515   5.482 -0.6587 -0.1713 -0.4451
17869SOL     OW65260   2.061   6.206   0.238 -0.0651 -0.3336 -0.3141
17869SOL    HW165261   1.975   6.247   0.269 -0.1948 -1.4454  0.8345
17869SOL    HW265262   2.051   6.106   0.234  0.8952 -0.4046 -1.0397
17870SOL     OW65263   3.556   5.263   6.842  0.2347  0.0006 -0.3893
17870SOL    HW165264   3.625   5.206   6.886  0.1541 -0.9593 -1.4916
17870SOL    HW265265   3.597   5.349   6.813  0.5178  0.2240  0.6764
17871SOL     OW65266   5.540   7.634   4.976 -0.2164  0.4258 -0.1212
17871SOL    HW165267   5.570   7.545   5.010  0.5432  0.1056 -1.5610
17871SOL    HW265268   5.601   7.705   5.010  0.8340  0.0480 -1.1637
17872SOL     OW65269   3.438   3.950   6.444 -0.0264 -0.1407  0.0261
17872SOL    HW165270   3.418   3.911   6.354 -1.6377  0.4966  0.0975
17872SOL    HW265271   3.360   3.934   6.505  0.7275  0.1456  1.0716
17873SOL     OW65272   9.252   1.124   1.874  0.5756  0.3085 -0.0197
17873SOL    HW165273   9.154   1.143   1.867  0.4044 -0.7823 -0.7950
17873SOL    HW265274   9.298   1.202   1.914 -0.7593  0.4351  1.3295
17874SOL     OW65275   7.728   5.742   0.373 -0.6120 -0.3766  0.4868
17874SOL    HW165276   7.787   5.679   0.323 -2.1358 -0.3824 -1.3497
17874SOL    HW265277   7.760   5.836   0.360 -0.8877 -0.3971 -0.3374
17875SOL     OW65278   8.941   9.820   3.582  0.1216 -0.1745 -0.0377
17875SOL    HW165279   8.873   9.862   3.642 -2.0116 -3.0085 -0.3710
17875SOL    HW265280   8.986   9.891   3.529 -2.1425  1.8505  0.6413
17876SOL     OW65281   9.893   6.568   6.415 -0.0460 -0.2426 -0.2351
17876SOL    HW165282   9.931   6.504   6.482  0.4683  0.8184  0.4903
17876SOL    HW265283   9.856   6.516   6.337 -0.3244 -1.4590  0.6905
17877SOL     OW65284   9.985   3.807   2.560 -0.1073 -0.2371  0.7339
17877SOL    HW165285  10.064   3.836   2.506  1.6319 -1.8028  2.3842
17877SOL    HW265286   9.936   3.889   2.593  0.5216  0.7377 -0.7124
17878SOL     OW65287   3.019   1.449   1.689 -0.0947 -0.0045  0.2526
17878SOL    HW165288   2.991   1.452   1.785  1.2404  0.0720  0.6576
17878SOL    HW265289   3.013   1.355   1.655 -0.1185 -0.1110  0.5501
17879SOL     OW65290   3.641   1.501   6.395 -0.1575 -0.4996 -0.1077
17879SOL    HW165291   3.656   1.597   6.417 -1.9159 -0.3243  0.4633
17879SOL    HW265292   3.721   1.447   6.422  0.3706  0.6419  0.6462
17880SOL     OW65293   7.035   6.158   5.991 -0.3269 -0.2338 -0.2135
17880SOL    HW165294   7.007   6.070   5.954  0.2333 -1.1739  1.5486
17880SOL    HW265295   7.110   6.145   6.056  0.1975  1.6145 -0.4149
17881SOL     OW65296   4.865   1.662   7.140  0.3041  0.0361 -0.1172
17881SOL    HW165297   4.964   1.676   7.135  0.1564  1.4128  0.7043
17881SOL    HW265298   4.847   1.568   7.171  1.3478 -0.3188 -0.5654
17882SOL     OW65299   1.605   7.755   5.685  0.5408  0.2180 -0.1188
17882SOL    HW165300   1.630   7.706   5.769  1.5078 -0.6494 -0.9040
17882SOL    HW265301   1.508   7.740   5.665  1.2997 -3.1124 -1.4892
17883SOL     OW65302   0.254   7.797   3.223 -0.2024  0.2610 -0.0197
17883SOL    HW165303   0.232   7.874   3.163 -0.2799  0.8516  0.7658
17883SOL    HW265304   0.202   7.716   3.195 -0.0362  0.4607 -0.9129
17884SOL     OW65305   5.286   5.912   0.845 -0.3717 -0.4505 -0.2498
17884SOL    HW165306   5.268   5.989   0.784  1.3546  0.8046  0.7788
17884SOL    HW265307   5.268   5.940   0.940  0.5457 -1.2129  0.1542
17885SOL     OW65308   9.180   8.222   4.675  0.3948  0.0718 -0.3571
17885SOL    HW165309   9.139   8.211   4.585  1.3333  0.3756 -0.8224
17885SOL    HW265310   9.231   8.140   4.700  0.3746  0.0988 -0.2273
17886SOL     OW65311   1.231   7.288   2.628 -0.1312  0.6513 -0.0658
17886SOL    HW165312   1.149   7.272   2.573  0.3214  0.7419 -0.7704
17886SOL    HW265313   1.251   7.386   2.628 -0.9491  0.8288  1.4419
17887SOL     OW65314   9.527   5.813   0.029  0.1851  0.1755  0.6426
17887SOL    HW165315   9.601   5.825   0.095  0.7261  0.8583 -0.0822
17887SOL    HW265316   9.451   5.875   0.052 -0.3945 -0.8942  1.6912
17888SOL     OW65317   3.210   8.439   4.593  0.5448 -0.0357 -0.2354
17888SOL    HW165318   3.219   8.366   4.661  0.2748 -0.1150 -0.2815
17888SOL    HW265319   3.300   8.465   4.559  0.5503 -1.2783 -1.1940
17889SOL     OW65320   9.899   0.609   7.194 -0.7205 -0.5253  0.1226
17889SOL    HW165321   9.819   0.657   7.231  1.0283  1.3418  1.6485
17889SOL    HW265322   9.883   0.586   7.099 -2.8220  0.4091  0.2184
17890SOL     OW65323   9.255   2.227   4.631  0.4260  0.5785  0.5079
17890SOL    HW165324   9.343   2.254   4.591  0.0406 -0.4081 -1.0527
17890SOL    HW265325   9.260   2.132   4.661 -1.0338 -0.5111 -2.4776
17891SOL     OW65326   6.562   2.524   3.862 -0.3914  0.5330  0.6097
17891SOL    HW165327   6.537   2.446   3.804 -0.3472 -1.1279  2.7237
17891SOL    HW265328   6.480   2.578   3.883 -0.9012 -0.4795  1.2725
17892SOL     OW65329   8.001   8.509   7.317 -0.6000  0.0901 -0.3674
17892SOL    HW165330   8.065   8.435   7.334  0.7445  1.3484  0.1249
17892SOL    HW265331   7.908   8.478   7.336  0.1392 -0.8767  1.7501
17893SOL     OW65332   7.050   2.409   2.763  0.4723 -0.4464  0.1184
17893SOL    HW165333   7.116   2.459   2.707  1.3801 -2.1406 -0.3714
17893SOL    HW265334   6.967   2.393   2.709  1.6112 -2.6809 -1.0512
17894SOL     OW65335   7.315   8.996   2.637 -0.1908 -0.6855  0.0640
17894SOL    HW165336   7.296   9.026   2.544  1.2400  1.3765  0.4016
17894SOL    HW265337   7.232   8.956   2.677 -1.4852  0.6082 -1.2757
17895SOL     OW65338   3.468   6.626   1.930  0.8860  0.2498 -0.1587
17895SOL    HW165339   3.400   6.692   1.961 -0.1511 -0.3406 -1.1529
17895SOL    HW265340   3.555   6.644   1.975  0.6349  2.3387 -0.4821
17896SOL     OW65341   9.671   5.663   3.155  0.0243  0.3429 -0.1058
17896SOL    HW165342   9.741   5.593   3.171 -0.9976 -0.2768  1.7511
17896SOL    HW265343   9.691   5.710   3.069  1.4897 -1.3081 -0.7123
17897SOL     OW65344   0.258   7.428   8.150 -0.2839 -0.3568 -0.1068
17897SOL    HW165345   0.206   7.345   8.131  0.9052 -0.4893 -2.8835
17897SOL    HW265346   0.354   7.405   8.166  0.2168  0.5615 -1.7438
17898SOL     OW65347   8.257   6.104   4.933  0.5121 -0.3412 -0.7154
17898SOL    HW165348   8.327   6.074   4.997 -0.0387 -0.1758 -0.0303
17898SOL    HW265349   8.200   6.174   4.976 -0.0028 -0.3948 -1.3042
17899SOL     OW65350   7.228   7.878   5.230  0.1246  0.3206 -0.1352
17899SOL    HW165351   7.167   7.912   5.301 -0.4638 -0.7232 -0.1265
17899SOL    HW265352   7.191   7.792   5.194  1.0404  0.2356 -0.8674
17900SOL     OW65353   6.644   0.393   4.820 -0.1272  0.3691  0.0678
17900SOL    HW165354   6.606   0.484   4.834  0.5122  1.0126 -2.1744
17900SOL    HW265355   6.574   0.333   4.783 -0.3661  0.1367  0.8986
17901SOL     OW65356   8.801   3.416   7.212  0.1158  0.0059 -0.3589
17901SOL    HW165357   8.811   3.318   7.224  1.0553 -0.0029 -1.1560
17901SOL    HW265358   8.834   3.464   7.293 -1.2101 -0.3645  0.4144
17902SOL     OW65359   1.516   1.718   6.406  0.8316  0.0349  0.1172
17902SOL    HW165360   1.453   1.778   6.357 -1.7685  0.6367  3.9854
17902SOL    HW265361   1.598   1.770   6.433  0.5455  0.6931 -0.2737
17903SOL     OW65362   2.680   0.415   5.390  0.2876  0.1690 -0.4577
17903SOL    HW165363   2.628   0.361   5.456  0.3493  1.4768  0.6749
17903SOL    HW265364   2.722   0.354   5.322 -2.2376 -0.9440 -1.0586
17904SOL     OW65365   1.005   2.534   7.651  0.7729  0.0088  0.1146
17904SOL    HW165366   0.993   2.608   7.584  0.0609 -0.7258 -0.5849
17904SOL    HW265367   0.929   2.470   7.644  1.4297 -0.8491  0.6413
17905SOL     OW65368   4.931   6.835   1.464 -0.3836 -0.4040 -0.4831
17905SOL    HW165369   4.927   6.753   1.407  0.7022 -0.0632 -1.0721
17905SOL    HW265370   4.974   6.813   1.552  0.0680 -0.4448 -0.7078
17906SOL     OW65371   8.560   4.097   4.290  0.2376  0.1193 -0.1474
17906SOL    HW165372   8.527   4.111   4.196 -0.0233 -0.7954 -0.1966
17906SOL    HW265373   8.549   4.001   4.315  1.6367  0.0724  0.3196
17907SOL     OW65374   6.858   0.937   2.950 -0.5661 -0.0271  0.9833
17907SOL    HW165375   6.905   1.002   2.891 -0.6289 -1.4040 -0.6202
17907SOL    HW265376   6.800   0.987   3.015 -1.2561  1.5076 -0.7630
17908SOL     OW65377   0.583   9.680   1.971  0.8198  0.1406  0.2105
17908SOL    HW165378   0.600   9.746   2.044  2.5149 -1.8882  1.6951
17908SOL    HW265379   0.512   9.616   2.000 -0.0303  0.6217 -0.7853
17909SOL     OW65380   7.117   1.391   0.687 -0.2625  0.2480 -0.2777
17909SOL    HW165381   7.213   1.401   0.713 -0.2066 -1.4344  0.2387
17909SOL    HW265382   7.105   1.305   0.637 -1.6391  0.0546  0.3610
17910SOL     OW65383   2.384   1.507   0.296 -0.3341 -0.2322 -0.5592
17910SOL    HW165384   2.462   1.526   0.355 -1.3269 -0.9942  1.0291
17910SOL    HW265385   2.366   1.409   0.294 -1.2515 -0.0690 -0.9207
17911SOL     OW65386   3.323   7.384   5.302 -0.4297  0.6921  0.0702
17911SOL    HW165387   3.269   7.380   5.217  0.1380 -0.4867 -0.2403
17911SOL    HW265388   3.265   7.359   5.379 -1.0860  2.2573  0.1106
17912SOL     OW65389   0.797   0.001   3.387 -0.4395 -0.0333  0.1658
17912SOL    HW165390   0.733   0.069   3.423  1.2529  0.2692  2.7515
17912SOL    HW265391   0.879   0.048   3.353 -0.3763 -0.6287 -0.5165
17913SOL     OW65392   6.539   0.154   5.481  0.0554  0.1820 -0.0175
17913SOL    HW165393   6.558   0.062   5.448 -0.7788  0.5080 -1.4333
17913SOL    HW265394   6.623   0.209   5.478 -0.2023  0.4819 -2.5117
17914SOL     OW65395   9.530   5.568   0.603  0.0287 -0.3716  0.3039
17914SOL    HW165396   9.572   5.502   0.665 -1.2819 -0.9118  0.6120
17914SOL    HW265397   9.464   5.521   0.544 -2.2658  0.9508  1.7577
17915SOL     OW65398   4.856   1.290   6.101 -0.2411  0.0071  0.4293
17915SOL    HW165399   4.906   1.376   6.112 -0.6488  0.1207  1.3797
17915SOL    HW265400   4.919   1.219   6.069  0.1904  0.5422  0.0731
17916SOL     OW65401   3.165   7.771   3.051  0.0438  0.0609  0.5650
17916SOL    HW165402   3.194   7.740   3.141  0.5503  1.1806  0.7907
17916SOL    HW265403   3.200   7.709   2.981  0.1038 -0.5030  1.0947
17917SOL     OW65404   2.674   5.214   0.060  0.2287 -0.3351  0.7567
17917SOL    HW165405   2.577   5.190   0.063  0.3548 -0.8007  1.1326
17917SOL    HW265406   2.720   5.160  -0.011  0.2861 -0.3959  0.8390
17918SOL     OW65407   0.006   8.577   7.893 -0.3255  0.7929 -0.4087
17918SOL    HW165408   0.049   8.536   7.813  1.5185  0.1044  0.9100
17918SOL    HW265409  -0.053   8.653   7.865 -0.1116  0.2163 -2.4449
17919SOL     OW65410   3.060   7.558  -0.003  0.4569  0.3244 -0.0888
17919SOL    HW165411   3.078   7.472   0.045 -1.0163  0.4406  0.7101
17919SOL    HW265412   3.029   7.627   0.063 -0.3657  0.8692 -1.0294
17920SOL     OW65413   9.194   5.311   4.557 -0.5105  0.2266 -0.0317
17920SOL    HW165414   9.281   5.261   4.564 -1.3613 -1.2369  0.2126
17920SOL    HW265415   9.182   5.368   4.638  0.7452  1.3073 -0.5837
17921SOL     OW65416   0.582   8.247   0.775 -0.0225  0.0402  0.1385
17921SOL    HW165417   0.526   8.214   0.699 -0.7223 -2.0066  1.4929
17921SOL    HW265418   0.544   8.333   0.808 -1.4702 -0.5418  0.0371
17922SOL     OW65419   1.343   3.763   6.985 -0.4636 -0.2425 -0.4274
17922SOL    HW165420   1.244   3.771   6.995 -1.0429 -3.6685 -2.5598
17922SOL    HW265421   1.382   3.723   7.069 -0.6636  2.2531  0.8950
17923SOL     OW65422   8.540   7.958   2.848  0.1233  0.3108 -0.0418
17923SOL    HW165423   8.553   7.940   2.945 -0.9924  1.8893  0.4301
17923SOL    HW265424   8.616   7.919   2.796 -0.4122 -2.5019  1.2115
17924SOL     OW65425   1.133   0.425   3.119 -0.1372  0.0430 -0.5486
17924SOL    HW165426   1.043   0.383   3.111 -1.0076  1.1706  2.4917
17924SOL    HW265427   1.203   0.356   3.104 -1.5069 -1.3247 -0.8008
17925SOL     OW65428   2.485   8.930   7.791 -0.2574 -0.2837 -0.2215
17925SOL    HW165429   2.469   8.935   7.693 -0.8572  0.1640 -0.1063
17925SOL    HW265430   2.405   8.967   7.840  0.5254  0.6223  0.4008
17926SOL     OW65431   8.450   7.757   6.717  0.2746 -0.1108  0.3312
17926SOL    HW165432   8.502   7.737   6.800  1.1052  0.6714  0.0080
17926SOL    HW265433   8.482   7.699   6.642 -0.2251 -0.5583  0.4636
17927SOL     OW65434   0.965   7.074   3.735  0.2271 -0.3575  0.1871
17927SOL    HW165435   1.034   7.144   3.754 -0.8142  0.9722 -0.8270
17927SOL    HW265436   0.874   7.111   3.755 -0.1954 -2.2981  2.1374
17928SOL     OW65437   8.338   4.974   5.296 -0.1857 -0.2636 -0.1054
17928SOL    HW165438   8.386   4.931   5.220 -0.5921  0.5681 -0.8359
17928SOL    HW265439   8.249   4.929   5.309  0.7676 -1.8226  1.2671
17929SOL     OW65440   8.421   0.737   3.730  0.0197  0.5033  0.0478
17929SOL    HW165441   8.398   0.832   3.712  0.4461  0.6814  0.4198
17929SOL    HW265442   8.521   0.726   3.732 -0.0236 -0.0052 -0.2793
17930SOL     OW65443   2.861   4.856   1.850 -0.3412  0.0601  0.6541
17930SOL    HW165444   2.830   4.932   1.793 -0.4473 -0.2741  0.2630
17930SOL    HW265445   2.959   4.864   1.867 -0.2628  0.0266  0.2193
17931SOL     OW65446   2.923   6.481   1.862 -0.7493 -0.6742 -0.7419
17931SOL    HW165447   2.844   6.430   1.897 -1.2097  1.0617  0.8089
17931SOL    HW265448   3.006   6.427   1.878 -1.3799 -1.5833 -0.4487
17932SOL     OW65449   1.864   5.013   0.374 -0.1411 -0.2453 -0.2965
17932SOL    HW165450   1.771   5.007   0.337 -1.3125  0.9394  2.3413
17932SOL    HW265451   1.873   4.951   0.452 -0.1733  2.9254  2.3077
17933SOL     OW65452   9.082   3.658   6.582 -0.4139 -0.3794  0.7572
17933SOL    HW165453   9.081   3.751   6.544 -0.3606 -0.5970  0.2220
17933SOL    HW265454   9.060   3.662   6.679 -3.0219 -0.0657  0.1789
17934SOL     OW65455   3.618   8.069   2.160 -0.0841  0.2929 -0.1748
17934SOL    HW165456   3.626   8.105   2.067 -0.8242 -0.5524 -0.5642
17934SOL    HW265457   3.695   8.009   2.179 -0.7856 -0.8147 -0.8122
17935SOL     OW65458   9.975   9.046   1.439 -0.1486 -0.1337 -0.1001
17935SOL    HW165459   9.891   9.017   1.393  0.6604 -0.8522 -1.1359
17935SOL    HW265460   9.959   9.050   1.538 -0.7940 -2.3456 -0.0842
17936SOL     OW65461   1.926   3.334   7.623 -0.3892  0.4010 -0.2016
17936SOL    HW165462   2.026   3.342   7.618 -0.4985  1.2114 -1.2470
17936SOL    HW265463   1.885   3.422   7.602 -1.3463 -0.0869 -0.3874
17937SOL     OW65464   5.933   1.121   1.873  0.1069 -0.5906 -0.3176
17937SOL    HW165465   5.896   1.104   1.781  0.2639 -2.3130 -0.0643
17937SOL    HW265466   5.960   1.217   1.880  2.0636 -0.9013 -2.8080
17938SOL     OW65467   1.129   6.507   5.819 -0.0793 -0.6962  0.1544
17938SOL    HW165468   1.163   6.477   5.730  0.4221 -0.5047  0.2853
17938SOL    HW265469   1.205   6.535   5.877 -0.6341  2.1367 -0.4310
17939SOL     OW65470   5.749   6.191   1.042 -0.1712 -0.7906  0.2100
17939SOL    HW165471   5.659   6.209   1.082 -0.5929 -0.5605 -0.8252
17939SOL    HW265472   5.740   6.125   0.968  0.2584  0.4481 -0.9777
17940SOL     OW65473   7.582   3.415   3.462  0.4255  0.0014  0.2044
17940SOL    HW165474   7.658   3.354   3.442  1.2972  0.8260  0.9114
17940SOL    HW265475   7.613   3.486   3.526 -1.3520 -0.6082  1.8089
17941SOL     OW65476   2.545   0.345   8.067 -0.8151  0.2289 -0.1160
17941SOL    HW165477   2.498   0.300   8.143  0.0705 -1.2591 -0.4289
17941SOL    HW265478   2.482   0.409   8.021 -2.2416 -1.0476  0.0337
17942SOL     OW65479   3.608   9.508   5.749  0.0765 -0.1468  0.0932
17942SOL    HW165480   3.564   9.506   5.659  1.6568  2.7977 -0.7950
17942SOL    HW265481   3.683   9.442   5.752  0.3482  0.1149 -0.9352
17943SOL     OW65482   1.066   9.992   1.444 -0.3046  0.0040  0.4349
17943SOL    HW165483   1.124  10.059   1.492 -0.9820  0.0795  1.1621
17943SOL    HW265484   1.082   9.999   1.346 -0.2659  1.1439  0.5092
17944SOL     OW65485   8.992   2.271   5.596 -0.0276 -0.4326  0.6804
17944SOL    HW165486   9.063   2.310   5.655  0.9056  0.7227 -1.1735
17944SOL    HW265487   9.035   2.225   5.518 -1.3014  0.0641 -0.3333
17945SOL     OW65488   0.265   5.140   7.660  0.0964  0.0487  0.0365
17945SOL    HW165489   0.168   5.131   7.639  0.1404  1.3721 -0.7645
17945SOL    HW265490   0.278   5.214   7.726  0.5689 -0.0552  0.0592
17946SOL     OW65491   9.869   3.182   3.269  0.5138 -0.1424  0.1502
17946SOL    HW165492   9.844   3.140   3.357  0.9782 -0.9103 -0.0747
17946SOL    HW265493   9.892   3.278   3.283 -0.2353 -0.0438  0.7361
17947SOL     OW65494   6.939   9.011   5.629 -0.3427 -0.6905 -0.2322
17947SOL    HW165495   6.856   8.971   5.669 -0.0211 -0.7471  0.3877
17947SOL    HW265496   7.011   8.942   5.627 -0.5787 -0.9209 -1.6346
17948SOL     OW65497   8.095   2.537   5.056 -0.5588  0.0164  0.0422
17948SOL    HW165498   8.188   2.510   5.031 -0.1817 -0.0615  1.4802
17948SOL    HW265499   8.040   2.455   5.073 -0.2649  0.1022  1.4032
17949SOL     OW65500   3.738   1.669   6.136 -0.1430  0.3161  0.0848
17949SOL    HW165501   3.742   1.763   6.101 -1.0846  0.4161  0.2300
17949SOL    HW265502   3.692   1.668   6.225  0.2438 -0.2288  0.2801
17950SOL     OW65503   4.854   2.589   1.667  0.2050  0.0465  0.1385
17950SOL    HW165504   4.761   2.557   1.646  0.1950  0.5840 -0.6611
17950SOL    HW265505   4.850   2.680   1.708  0.3628 -0.0419  0.3508
17951SOL     OW65506   4.180   5.605   0.680 -0.7870 -0.0155 -0.1441
17951SOL    HW165507   4.234   5.651   0.750 -0.4695 -2.8678  1.5883
17951SOL    HW265508   4.094   5.572   0.720 -0.4842 -1.9200 -0.9762
17952SOL     OW65509   2.787   6.408   1.203  0.1314 -0.3917 -0.2954
17952SOL    HW165510   2.857   6.421   1.134 -0.4868 -2.7858 -1.4306
17952SOL    HW265511   2.817   6.338   1.268 -0.3194  0.0738  0.4165
17953SOL     OW65512   1.887   8.071   1.278 -0.0742 -0.0427 -0.1651
17953SOL    HW165513   1.891   8.069   1.178  0.1267 -0.2998 -0.1521
17953SOL    HW265514   1.844   8.156   1.308 -0.3089 -0.0492 -0.4746
17954SOL     OW65515   1.228   3.784   4.716  0.2901  0.0397 -0.4040
17954SOL    HW165516   1.187   3.731   4.790 -1.6406  1.9107 -0.0985
17954SOL    HW265517   1.325   3.800   4.737  0.1734 -0.8731  0.8882
17955SOL     OW65518   2.594   5.429   6.355 -0.0944  0.0483 -0.3391
17955SOL    HW165519   2.572   5.486   6.434  1.1690 -0.5945  0.4924
17955SOL    HW265520   2.557   5.337   6.369  0.2237 -0.0954 -0.4399
17956SOL     OW65521   5.016   1.036   6.117 -0.2617  0.3178 -0.3088
17956SOL    HW165522   4.931   0.985   6.107  0.3930 -0.7511 -0.5143
17956SOL    HW265523   5.060   1.045   6.028  0.1443  0.3492 -0.1048
17957SOL     OW65524   4.703   9.744   1.612 -0.7899  0.1986 -0.1057
17957SOL    HW165525   4.758   9.672   1.654 -2.8317 -1.1182  0.4076
17957SOL    HW265526   4.738   9.833   1.640 -0.2379 -0.6222  1.9262
17958SOL     OW65527   5.675   7.924   3.515  0.4185  0.5063  0.2416
17958SOL    HW165528   5.722   8.011   3.501  1.0758  0.3117  1.2087
17958SOL    HW265529   5.733   7.849   3.482 -0.7435  0.5343 -1.8992
17959SOL     OW65530   4.563   6.151   2.705 -0.5067  0.2961 -0.4360
17959SOL    HW165531   4.551   6.177   2.609 -0.1386  1.6989 -0.1178
17959SOL    HW265532   4.532   6.057   2.719 -0.9922  0.2444 -1.8307
17960SOL     OW65533   1.637   5.967   8.032  0.1147 -0.6820  0.2331
17960SOL    HW165534   1.615   5.956   7.936  2.6784 -0.3350 -0.4364
17960SOL    HW265535   1.644   6.065   8.054  0.5682 -0.7714  0.5051
17961SOL     OW65536   7.452   4.731   6.959 -0.1530 -0.0979 -0.9514
17961SOL    HW165537   7.510   4.686   6.891 -0.7397 -3.2152  0.5002
17961SOL    HW265538   7.505   4.749   7.042  0.1245  2.1619 -1.5777
17962SOL     OW65539   4.725   2.544   4.619  0.0019 -0.4505 -0.5275
17962SOL    HW165540   4.681   2.634   4.618  0.7238 -0.0948 -0.3985
17962SOL    HW265541   4.804   2.545   4.558 -0.6122 -1.3181 -1.3558
17963SOL     OW65542   2.423   0.493   5.829  0.2902  0.2145  0.0855
17963SOL    HW165543   2.511   0.448   5.819  0.5997  1.0325 -0.9082
17963SOL    HW265544   2.359   0.457   5.761 -0.1878 -0.4615  0.8795
17964SOL     OW65545   4.460   0.255   7.064 -0.2915 -0.4952  0.5550
17964SOL    HW165546   4.542   0.295   7.105  0.9272 -2.2694 -0.0849
17964SOL    HW265547   4.440   0.168   7.108 -1.9699  0.0287  0.8463
17965SOL     OW65548   3.223   1.368   7.794 -0.3054 -0.6068  0.5723
17965SOL    HW165549   3.267   1.288   7.754  0.4874  0.0648  0.0573
17965SOL    HW265550   3.230   1.445   7.730 -0.3460  0.0827  1.3804
17966SOL     OW65551   7.393   4.295   3.101 -0.4609 -0.1405  0.5171
17966SOL    HW165552   7.313   4.354   3.091 -0.2215  0.1646  0.3916
17966SOL    HW265553   7.386   4.218   3.038 -2.0002 -1.6370  2.4282
17967SOL     OW65554   6.681   4.717   2.367 -0.6222 -0.1523  0.1699
17967SOL    HW165555   6.686   4.623   2.400 -1.1158 -0.2692 -0.0933
17967SOL    HW265556   6.774   4.755   2.360 -0.4181 -0.6550  0.1610
17968SOL     OW65557   1.357   5.578   7.218  0.4124  0.6634 -0.0995
17968SOL    HW165558   1.338   5.642   7.144  0.1424  0.6603 -0.0337
17968SOL    HW265559   1.397   5.494   7.180 -0.8755  0.1699 -0.3790
17969SOL     OW65560   8.907   3.991   5.898 -0.0564  0.4777  0.1790
17969SOL    HW165561   8.935   3.894   5.901  0.1544  0.5753  1.9530
17969SOL    HW265562   8.893   4.018   5.803 -0.6020 -1.4380 -0.3174
17970SOL     OW65563   1.734   7.133   4.250 -0.2307 -0.3352  0.6256
17970SOL    HW165564   1.795   7.071   4.200 -0.9266 -0.4703 -0.0698
17970SOL    HW265565   1.753   7.127   4.347  2.8946  1.8432  0.2113
17971SOL     OW65566   0.300   6.207   0.325 -0.2908  0.0434 -0.3283
17971SOL    HW165567   0.315   6.156   0.241  1.2219  0.3076 -0.2238
17971SOL    HW265568   0.287   6.304   0.304  2.1622  0.4545 -0.1307
17972SOL     OW65569   8.685   8.937   2.073 -0.0548 -0.0218 -0.0238
17972SOL    HW165570   8.730   8.848   2.068  0.1859  0.0845  0.2736
17972SOL    HW265571   8.600   8.929   2.125  0.1749  0.0137  0.3513
17973SOL     OW65572   9.436   7.624   6.592 -0.2967 -0.0515 -0.3618
17973SOL    HW165573   9.359   7.665   6.543  0.3721 -0.6926 -1.9940
17973SOL    HW265574   9.517   7.682   6.581 -0.5746  0.7139  1.5024
17974SOL     OW65575   5.228   0.361   3.787 -0.1454 -0.6232  0.2967
17974SOL    HW165576   5.201   0.428   3.856  0.0791  0.0570 -0.2682
17974SOL    HW265577   5.327   0.365   3.773 -0.0131 -1.6456  0.8443
17975SOL     OW65578   6.991   2.149   0.364  0.0272  0.4415  0.3022
17975SOL    HW165579   6.898   2.182   0.349 -0.0916 -0.0058  0.0486
17975SOL    HW265580   6.996   2.100   0.452 -0.3501 -0.9005 -0.4123
17976SOL     OW65581   9.148   9.094   1.621 -0.4953  0.3024 -0.6557
17976SOL    HW165582   9.060   9.047   1.628 -0.3818 -0.0277 -1.4461
17976SOL    HW265583   9.159   9.155   1.700 -0.0212 -2.0165  1.0917
17977SOL     OW65584   0.022   3.360   3.635 -0.2565  0.0955  0.2425
17977SOL    HW165585  -0.018   3.421   3.567  1.0896 -0.3944 -0.9978
17977SOL    HW265586   0.076   3.414   3.700  0.7150  0.2576 -0.6985
17978SOL     OW65587   4.001   7.628   5.417 -0.6504 -0.4003  0.0894
17978SOL    HW165588   4.050   7.625   5.330 -1.3144 -1.0181 -0.2638
17978SOL    HW265589   3.960   7.719   5.429  1.3860  0.4436  0.8452
17979SOL     OW65590   1.945   8.885   2.973  0.5634 -0.1266  0.0806
17979SOL    HW165591   2.045   8.892   2.972  0.5765  0.1338 -3.1963
17979SOL    HW265592   1.906   8.977   2.971  0.3444 -0.2369 -2.5565
17980SOL     OW65593   0.273   9.358   6.395  0.0102 -0.4325 -0.1452
17980SOL    HW165594   0.355   9.363   6.453 -0.6528 -0.4605  0.8008
17980SOL    HW265595   0.250   9.450   6.362  0.3744 -0.4127 -0.3515
17981SOL     OW65596   9.274   6.752   6.997 -0.3518 -0.0403  0.0515
17981SOL    HW165597   9.255   6.765   6.900 -1.2057  0.9809  0.3452
17981SOL    HW265598   9.276   6.841   7.043  3.8328 -0.1894  0.3207
17982SOL     OW65599   2.127   9.229   6.656  0.0767 -0.2574  0.3630
17982SOL    HW165600   2.081   9.265   6.738  0.3359 -0.3660  0.5577
17982SOL    HW265601   2.192   9.297   6.623 -0.6814  0.1576 -0.2891
17983SOL     OW65602   1.586   7.198   4.831  0.0204  0.2935  0.7966
17983SOL    HW165603   1.529   7.195   4.749 -0.6276  1.7766  1.1717
17983SOL    HW265604   1.590   7.292   4.866  2.8725  0.2497  0.6874
17984SOL     OW65605   3.210   0.176   3.341 -0.2541 -0.2611 -0.0443
17984SOL    HW165606   3.159   0.157   3.257  1.6361 -2.1195 -0.8047
17984SOL    HW265607   3.164   0.249   3.392 -2.4007 -0.3302 -1.8090
17985SOL     OW65608   3.401   4.251   7.142 -0.0083 -0.3255  0.0630
17985SOL    HW165609   3.457   4.323   7.183  1.2239 -0.3806 -1.4805
17985SOL    HW265610   3.315   4.291   7.109 -0.8747 -0.2255  2.3489
17986SOL     OW65611   4.842   1.238   2.219 -0.3889 -0.2854  0.5336
17986SOL    HW165612   4.927   1.287   2.197 -0.6488 -0.6980 -1.4821
17986SOL    HW265613   4.809   1.268   2.308  1.4566  0.4609  0.9972
17987SOL     OW65614   1.836   5.994   2.390 -0.4378 -0.2376  0.1081
17987SOL    HW165615   1.905   5.968   2.458 -1.3764 -1.5916  0.5594
17987SOL    HW265616   1.852   6.089   2.361  0.7583 -0.0758  1.2387
17988SOL     OW65617   2.069   7.898   0.778  0.2593  0.4543  0.1960
17988SOL    HW165618   2.135   7.830   0.748 -0.4417 -0.6899  1.2141
17988SOL    HW265619   1.997   7.854   0.832  0.6202  2.1764  2.1855
17989SOL     OW65620   0.789   6.235   7.998 -0.1884  0.0175  0.3520
17989SOL    HW165621   0.869   6.176   8.006 -0.6238 -0.3946  1.8409
17989SOL    HW265622   0.802   6.299   7.923  2.1213  0.8994  1.4687
17990SOL     OW65623   7.775   4.516   3.173 -0.2685  0.5122 -0.1566
17990SOL    HW165624   7.783   4.488   3.077  2.5956 -0.2141  0.2762
17990SOL    HW265625   7.681   4.546   3.190 -0.8229  0.6777 -3.1868
17991SOL     OW65626   9.620   3.551   3.073 -0.4549 -0.0205 -0.2563
17991SOL    HW165627   9.586   3.612   3.002  0.5727  0.5254 -0.2929
17991SOL    HW265628   9.657   3.606   3.148 -0.6344 -0.5997  0.2592
17992SOL     OW65629   8.311   4.808   1.307 -0.5163 -0.2778 -0.1167
17992SOL    HW165630   8.362   4.786   1.224  1.2713 -0.7648  1.0753
17992SOL    HW265631   8.324   4.735   1.374 -3.1100 -0.5891  0.1027
17993SOL     OW65632   9.899   5.437   4.528  0.4784 -0.1574  0.2066
17993SOL    HW165633   9.864   5.447   4.435  0.3549  0.3964  0.3153
17993SOL    HW265634   9.868   5.350   4.566 -0.9357  0.4152  0.3744
17994SOL     OW65635   5.021   0.567   6.435  0.5414  0.1528  0.3780
17994SOL    HW165636   4.949   0.592   6.500  1.5229 -0.0343  1.5465
17994SOL    HW265637   5.073   0.649   6.409  0.0670  0.2495 -0.2875
17995SOL     OW65638   8.863   8.606   4.175 -0.3108 -0.6423 -0.1758
17995SOL    HW165639   8.797   8.620   4.101 -1.0442  2.4086  0.9984
17995SOL    HW265640   8.815   8.581   4.259 -0.0702  2.1543  0.8317
17996SOL     OW65641   1.452   6.490   0.715  0.1263  0.8020  0.4037
17996SOL    HW165642   1.372   6.546   0.696  0.1933  0.5970 -0.4951
17996SOL    HW265643   1.423   6.402   0.752  0.0179  1.3792  1.7201
17997SOL     OW65644   6.991   0.286   6.727  0.3337  0.2986  0.1531
17997SOL    HW165645   7.018   0.192   6.750 -0.3185  0.3286  1.0868
17997SOL    HW265646   7.050   0.320   6.654  0.9523 -0.6381  0.1948
17998SOL     OW65647   4.942   1.080   3.782 -0.5034 -0.1529  0.2572
17998SOL    HW165648   4.999   1.033   3.715  0.2631 -1.0118  1.4910
17998SOL    HW265649   4.996   1.150   3.828 -0.2439 -1.3454  1.8270
17999SOL     OW65650   2.379   7.767   6.870  0.0395  0.4070  0.0025
17999SOL    HW165651   2.429   7.722   6.795  1.0754 -1.0356  1.5268
17999SOL    HW265652   2.441   7.828   6.919 -0.3529  0.5134  0.3669
18000SOL     OW65653   1.854   0.962   2.323 -0.1752 -0.7485  0.0196
18000SOL    HW165654   1.899   0.880   2.286  2.1066  0.9803 -1.1448
18000SOL    HW265655   1.773   0.983   2.269  0.7885 -0.6544 -1.4042
18001SOL     OW65656   1.100   9.046   5.997  0.1649  0.7295  0.1916
18001SOL    HW165657   1.112   9.134   5.951  1.4407  1.1935  1.3741
18001SOL    HW265658   1.014   9.046   6.047  0.4417  1.5554  0.6905
18002SOL     OW65659   1.924   6.433   3.555 -0.8475 -0.4797  0.1235
18002SOL    HW165660   1.954   6.395   3.643  4.2771 -0.0399 -1.2810
18002SOL    HW265661   1.912   6.359   3.489  3.1500 -0.3305 -0.9081
18003SOL     OW65662   4.740   4.669   1.913 -0.1652  0.1538  0.0765
18003SOL    HW165663   4.800   4.710   1.982  0.3583 -2.1789  1.0464
18003SOL    HW265664   4.784   4.677   1.823  1.6463 -1.4741  0.7651
18004SOL     OW65665   8.798   0.467   0.633  0.5232 -0.5705 -0.2854
18004SOL    HW165666   8.787   0.420   0.721 -0.2219  0.1180 -0.0060
18004SOL    HW265667   8.744   0.419   0.563  2.6378 -2.2541 -0.8075
18005SOL     OW65668   3.719   8.929   2.883  0.3109 -0.3289 -0.3600
18005SOL    HW165669   3.628   8.937   2.923  0.8870 -0.3684  0.9961
18005SOL    HW265670   3.716   8.870   2.802 -0.7860 -0.7005 -0.0483
18006SOL     OW65671   8.153   8.136   1.759 -0.3786 -0.1052  0.3262
18006SOL    HW165672   8.096   8.212   1.789  2.5808  1.4874  2.2158
18006SOL    HW265673   8.227   8.171   1.701  0.8542 -1.5692  0.9784
18007SOL     OW65674   7.856   3.094   6.604 -0.0110 -0.6972 -0.2690
18007SOL    HW165675   7.776   3.080   6.663 -0.4018  0.7323 -0.4338
18007SOL    HW265676   7.878   3.009   6.556  0.6954 -2.0414  2.3963
18008SOL     OW65677   2.034   8.514   7.600  0.1610  0.2313  0.0872
18008SOL    HW165678   2.092   8.536   7.521 -0.2337 -0.3049 -0.3540
18008SOL    HW265679   1.969   8.442   7.575 -2.4328  2.5655 -0.2334
18009SOL     OW65680   3.682   7.719   2.435  0.4297 -0.3664  0.1492
18009SOL    HW165681   3.682   7.780   2.514 -0.0785  0.7965 -0.7455
18009SOL    HW265682   3.632   7.635   2.458  0.6887 -0.2474  1.2075
18010SOL     OW65683   3.034   3.246   1.515 -0.2975  0.4456 -0.2652
18010SOL    HW165684   3.060   3.226   1.610 -0.8623  0.8732 -0.0148
18010SOL    HW265685   3.115   3.242   1.457  0.0359  0.0769  0.2204
18011SOL     OW65686   2.630   5.781   8.020 -0.1560 -0.3760  0.3290
18011SOL    HW165687   2.608   5.844   8.094  1.9895 -2.1355  2.5116
18011SOL    HW265688   2.691   5.826   7.955 -1.5637  0.9643 -0.1081
18012SOL     OW65689   7.197   3.373   2.877  0.3185  0.2314 -0.0393
18012SOL    HW165690   7.201   3.455   2.935  1.3371  0.1210  0.0695
18012SOL    HW265691   7.157   3.298   2.929 -0.9509  0.7430 -0.2525
18013SOL     OW65692   7.447   2.109   3.192 -0.1035  0.3452  0.7065
18013SOL    HW165693   7.542   2.081   3.211 -0.4592 -1.1294  0.3915
18013SOL    HW265694   7.386   2.032   3.212 -0.9046  0.1174 -2.3958
18014SOL     OW65695   2.037   7.938   1.674  0.3881  0.6793 -0.3810
18014SOL    HW165696   2.079   7.952   1.764  1.3102 -0.2718 -0.6515
18014SOL    HW265697   1.943   7.908   1.686  0.4521  0.7172  0.2666
18015SOL     OW65698   9.829   5.830   6.187  0.0224  0.5319 -0.1375
18015SOL    HW165699   9.894   5.760   6.218  0.8439  1.6131  0.6516
18015SOL    HW265700   9.807   5.815   6.091 -2.4462 -2.8296  0.8312
18016SOL     OW65701   3.629   8.876   0.785  0.0827 -0.0677  0.0855
18016SOL    HW165702   3.538   8.840   0.768  0.5486 -1.0952 -0.2929
18016SOL    HW265703   3.650   8.870   0.882 -0.9136  1.8047  0.4525
18017SOL     OW65704   9.900   4.365   3.791  0.4352  0.3673 -0.2867
18017SOL    HW165705   9.918   4.374   3.889  2.1160  1.1731 -0.6518
18017SOL    HW265706   9.830   4.432   3.765  1.1033  1.2390  0.0909
18018SOL     OW65707   0.715   4.724   0.216 -0.2315 -0.3583  0.1779
18018SOL    HW165708   0.732   4.652   0.283 -2.0123  0.0494  1.1171
18018SOL    HW265709   0.768   4.805   0.240 -0.6316 -0.3170  0.9411
18019SOL     OW65710   8.585   4.330   2.376 -0.8132  0.0129  0.4656
18019SOL    HW165711   8.520   4.399   2.344 -0.2313  0.4929  0.3060
18019SOL    HW265712   8.539   4.241   2.381 -1.0005 -0.0252 -1.4379
18020SOL     OW65713   7.904   2.701   1.238  0.1415  0.5941  0.4449
18020SOL    HW165714   7.898   2.654   1.149  0.6839  2.2039 -0.4720
18020SOL    HW265715   7.816   2.744   1.259  0.6021  1.9466 -0.3214
18021SOL     OW65716   9.143   0.614   5.108  0.1558  0.0477 -0.4969
18021SOL    HW165717   9.044   0.622   5.118  0.3142  1.0714  0.3778
18021SOL    HW265718   9.179   0.695   5.060  0.3883 -1.0497 -2.2169
18022SOL     OW65719   7.786   9.687   6.614 -0.7482  0.4463  0.0551
18022SOL    HW165720   7.740   9.600   6.596 -0.0692  0.2303 -0.6483
18022SOL    HW265721   7.748   9.728   6.697 -0.6118 -0.8364  0.7665
18023SOL     OW65722   2.437   5.500   3.719 -0.3628 -0.3358 -0.6505
18023SOL    HW165723   2.353   5.462   3.682 -0.8218  0.9440 -0.9377
18023SOL    HW265724   2.453   5.590   3.680  0.1387  0.2370  0.8423
18024SOL     OW65725   0.447   3.533   2.758 -0.1308  0.2189 -0.0497
18024SOL    HW165726   0.436   3.433   2.753 -1.2200  0.3679 -1.0417
18024SOL    HW265727   0.544   3.556   2.759  0.1461 -0.8115 -1.0785
18025SOL     OW65728   6.106   0.851   2.926 -0.6173  0.1087  0.1326
18025SOL    HW165729   6.141   0.855   3.020  2.5900  1.0213 -1.0652
18025SOL    HW265730   6.148   0.774   2.878 -0.8899  0.7066 -1.0885
18026SOL     OW65731   2.171   5.543   2.077  0.2840  0.2523  0.6029
18026SOL    HW165732   2.227   5.625   2.067  1.4111 -0.5917 -0.3302
18026SOL    HW265733   2.183   5.485   1.996  0.9810 -1.6922  2.0578
18027SOL     OW65734   3.528   1.837   3.162  0.0892  0.2241  0.3231
18027SOL    HW165735   3.527   1.766   3.233 -1.6787  1.1869  1.2853
18027SOL    HW265736   3.436   1.848   3.125  0.1832  2.5097  0.6942
18028SOL     OW65737   9.869   7.959   3.704  0.8653 -0.1032  0.5039
18028SOL    HW165738   9.872   7.915   3.614 -1.3782 -0.8396  0.7500
18028SOL    HW265739   9.779   7.944   3.745  2.1310 -0.4748  3.2364
18029SOL     OW65740   9.384   6.591   6.539  0.3300  0.1687 -0.1147
18029SOL    HW165741   9.467   6.549   6.576 -1.0028  0.2206  3.0774
18029SOL    HW265742   9.316   6.520   6.522 -0.0297  0.4665  0.1049
18030SOL     OW65743   5.030   3.643   7.131  0.6066  0.0404 -0.2097
18030SOL    HW165744   4.970   3.590   7.071  1.6808  1.5798 -2.7299
18030SOL    HW265745   5.082   3.709   7.077  0.5419  2.5390  2.6319
18031SOL     OW65746   2.834   0.795   0.868 -0.4681  0.6113 -0.6041
18031SOL    HW165747   2.792   0.885   0.859 -0.1402  1.0879  2.3244
18031SOL    HW265748   2.919   0.791   0.815 -1.6990  1.1874 -2.6946
18032SOL     OW65749   2.118   2.681   8.139  0.0418  0.0518 -0.7982
18032SOL    HW165750   2.137   2.591   8.178  0.5063  0.6753  0.4247
18032SOL    HW265751   2.031   2.678   8.090 -0.3743 -0.8235 -0.0189
18033SOL     OW65752   2.965   9.745   0.295  0.4586 -0.7242  0.5099
18033SOL    HW165753   2.922   9.822   0.341  1.8628 -0.0251  0.6709
18033SOL    HW265754   2.905   9.711   0.222  1.6516  3.3914 -2.5640
18034SOL     OW65755   2.446   3.326   3.355  0.0158 -0.6060 -0.0569
18034SOL    HW165756   2.435   3.324   3.256 -0.6539  0.2203 -0.0092
18034SOL    HW265757   2.522   3.266   3.382  1.2970  0.4791 -1.2037
18035SOL     OW65758   4.509   4.370   3.190  0.3705  0.0967  0.0505
18035SOL    HW165759   4.608   4.360   3.176  0.4546 -1.4529  1.5573
18035SOL    HW265760   4.492   4.419   3.275 -0.1464 -0.5214  0.3092
18036SOL     OW65761   9.918   5.848   1.498  0.1406 -0.4171 -0.2147
18036SOL    HW165762   9.932   5.885   1.406  0.8548 -0.6656 -0.2088
18036SOL    HW265763   9.999   5.867   1.554  0.1050 -1.1093  0.0771
18037SOL     OW65764   2.873   5.827   1.480  0.0760 -0.5067  0.2390
18037SOL    HW165765   2.909   5.877   1.559  1.0232 -0.1508 -0.4016
18037SOL    HW265766   2.948   5.807   1.417 -0.5887 -1.2411 -0.3239
18038SOL     OW65767   2.237   6.503   6.977 -0.1188  0.3515  0.1448
18038SOL    HW165768   2.203   6.453   7.057 -1.3674 -0.9053 -1.1530
18038SOL    HW265769   2.330   6.471   6.956 -0.3582 -0.4122  0.2006
18039SOL     OW65770   8.265   5.513   8.038 -0.0525 -0.1745 -0.5158
18039SOL    HW165771   8.224   5.548   8.122 -0.9360 -2.7268  0.1412
18039SOL    HW265772   8.255   5.581   7.965 -1.2062  1.1628  0.8656
18040SOL     OW65773   2.841   0.915   5.618  0.6237 -0.0927 -0.1896
18040SOL    HW165774   2.868   0.943   5.526 -0.5813 -2.6372 -1.3596
18040SOL    HW265775   2.919   0.873   5.665  0.3769 -1.8766 -1.3257
18041SOL     OW65776   8.047   9.976   6.178 -0.0908 -0.2359  0.2289
18041SOL    HW165777   7.993  10.035   6.238  0.3520  0.2354  0.1626
18041SOL    HW265778   8.010   9.981   6.085  0.5397  0.6746  0.0267
18042SOL     OW65779   3.067   3.997   3.830  0.4687  0.9231 -0.0887
18042SOL    HW165780   3.078   3.943   3.913 -0.1517  1.0289  0.0690
18042SOL    HW265781   3.090   4.092   3.847  1.2229  0.7762 -0.2758
18043SOL     OW65782   1.492   5.983   4.550  0.1939 -0.0135 -0.5284
18043SOL    HW165783   1.566   5.917   4.560  0.3901  0.4800  1.5827
18043SOL    HW265784   1.406   5.941   4.578  0.0192  0.0549 -0.9664
18044SOL     OW65785   4.919   9.426   3.272  0.4793 -0.6360  0.3027
18044SOL    HW165786   4.829   9.467   3.286  0.7159  0.0633 -0.2049
18044SOL    HW265787   4.989   9.496   3.282  0.7995 -0.5584 -2.1817
18045SOL     OW65788   3.676   3.808   6.185  0.2470  0.7673  0.8638
18045SOL    HW165789   3.771   3.791   6.212  0.2936  0.8164  0.7266
18045SOL    HW265790   3.670   3.821   6.087  0.1746  1.3013  0.9371
18046SOL     OW65791   2.551   1.280   7.218 -0.6247  0.2368  0.1081
18046SOL    HW165792   2.641   1.238   7.229 -0.3754  0.1756 -1.9887
18046SOL    HW265793   2.483   1.228   7.270  0.5551  0.3799  1.8343
18047SOL     OW65794   9.125   7.481   2.615  0.0285 -0.2193  0.6477
18047SOL    HW165795   9.029   7.456   2.628 -0.4826  1.2675 -0.1505
18047SOL    HW265796   9.131   7.578   2.591  1.7771 -0.1572  1.2985
18048SOL     OW65797   5.561   0.044   2.326 -0.2864 -0.2398 -0.7441
18048SOL    HW165798   5.604   0.086   2.247 -0.2819 -2.2796 -1.8504
18048SOL    HW265799   5.464   0.029   2.307 -0.0002 -1.9475 -0.8633
18049SOL     OW65800   1.535   2.366   7.541 -0.0129 -0.4317 -0.1356
18049SOL    HW165801   1.591   2.366   7.623 -1.8486 -1.1653  1.1368
18049SOL    HW265802   1.468   2.440   7.547 -0.8409 -1.1472 -0.4934
18050SOL     OW65803   4.097   5.816   7.941  0.0693  0.1858 -0.2924
18050SOL    HW165804   4.051   5.835   7.854  0.2020 -1.3265 -0.7027
18050SOL    HW265805   4.111   5.718   7.950  1.1364  0.4439  0.9032
18051SOL     OW65806   8.751   5.008   7.076 -0.2816 -0.1256 -0.3702
18051SOL    HW165807   8.666   4.996   7.026 -0.7289 -0.8609  0.5394
18051SOL    HW265808   8.772   4.925   7.128  2.0058 -0.6793 -2.0979
18052SOL     OW65809   2.931   8.914   7.729  0.1677 -0.1879  0.3876
18052SOL    HW165810   2.860   8.857   7.689  0.8064 -0.1154 -0.8789
18052SOL    HW265811   2.970   8.973   7.659  0.6670  0.6196  1.3230
18053SOL     OW65812   0.250   9.413   4.437 -0.9343  0.3704  0.4616
18053SOL    HW165813   0.226   9.501   4.479 -1.3302  0.5244 -0.0717
18053SOL    HW265814   0.339   9.383   4.470 -1.2240  0.5019  1.3843
18054SOL     OW65815   5.371   1.992   8.119  0.2534  0.5500  0.2693
18054SOL    HW165816   5.389   1.986   8.217  3.0619  0.0625 -0.2409
18054SOL    HW265817   5.457   1.993   8.069 -1.1374 -1.6992 -2.3506
18055SOL     OW65818   7.129   8.860   5.739  0.6120  0.1095  0.2586
18055SOL    HW165819   7.079   8.885   5.822  0.5693  0.7490  0.0468
18055SOL    HW265820   7.203   8.926   5.724  0.8699 -0.2372  0.0100
18056SOL     OW65821   8.143   0.643   6.344  0.1525  0.2647  0.1840
18056SOL    HW165822   8.159   0.565   6.284  2.8332  1.7505 -1.1239
18056SOL    HW265823   8.190   0.629   6.431  0.3081  0.2288  0.0947
18057SOL     OW65824   8.452   4.272   4.700  0.1729 -0.3561 -0.6045
18057SOL    HW165825   8.404   4.346   4.747 -0.7223 -1.5946  0.4853
18057SOL    HW265826   8.477   4.301   4.608  0.0198  1.3647 -0.1249
18058SOL     OW65827   2.875   5.301   0.481 -0.0283 -0.7344 -0.0889
18058SOL    HW165828   2.855   5.385   0.531 -0.5315 -2.2961  2.3744
18058SOL    HW265829   2.851   5.313   0.384 -0.9918  1.6117  0.4283
18059SOL     OW65830   6.341   1.412   3.394 -0.7500 -0.2284 -0.3864
18059SOL    HW165831   6.289   1.485   3.351 -0.0971  0.3558 -0.2038
18059SOL    HW265832   6.279   1.346   3.436 -1.4432 -1.3125 -2.9979
18060SOL     OW65833   8.505   9.903   6.689  0.0133  0.7085  0.0025
18060SOL    HW165834   8.422   9.847   6.681 -0.9872  1.7682  2.6171
18060SOL    HW265835   8.498   9.981   6.626  0.2078 -0.6115 -1.6804
18061SOL     OW65836   8.284   5.153   2.833  0.1965  0.3851 -0.0745
18061SOL    HW165837   8.244   5.220   2.896  1.9012  1.8027 -0.4696
18061SOL    HW265838   8.368   5.116   2.872 -0.2620 -0.8683 -0.2596
18062SOL     OW65839   6.463   9.671   4.980 -0.2603  0.0918 -0.3820
18062SOL    HW165840   6.539   9.609   4.999 -1.0495 -0.3743  1.3505
18062SOL    HW265841   6.453   9.736   5.055 -1.3131  0.3917 -0.7704
18063SOL     OW65842   8.040   6.695   7.189  0.5549  0.0945  0.0979
18063SOL    HW165843   8.056   6.621   7.125 -0.0916  0.0218  0.0244
18063SOL    HW265844   8.056   6.783   7.143  2.5428 -0.0111  0.5141
18064SOL     OW65845   8.656   1.532   0.837 -0.6497  0.1084  0.2721
18064SOL    HW165846   8.718   1.460   0.808 -1.6022 -0.7725  0.4198
18064SOL    HW265847   8.655   1.537   0.937 -0.2518  0.6273  0.2548
18065SOL     OW65848   4.707   4.214   1.830  0.1806 -0.3986  0.3208
18065SOL    HW165849   4.695   4.302   1.876 -1.3368 -0.9771  1.0584
18065SOL    HW265850   4.644   4.208   1.753  1.1843 -0.3313 -0.5199
18066SOL     OW65851   1.362   0.181   0.947  0.0311  0.1364 -0.2385
18066SOL    HW165852   1.268   0.213   0.958 -0.3038 -0.8553 -0.1292
18066SOL    HW265853   1.411   0.239   0.883 -0.3966  1.1883  0.3801
18067SOL     OW65854   8.142   5.846   7.419 -0.4367  0.1006  0.1262
18067SOL    HW165855   8.233   5.814   7.447  0.1434  0.8693 -0.8912
18067SOL    HW265856   8.150   5.928   7.364 -1.8431  1.0303  1.2515
18068SOL     OW65857   8.464   3.390   1.621  0.3364 -0.1033 -0.4376
18068SOL    HW165858   8.383   3.355   1.574 -0.5138  0.2674  0.7087
18068SOL    HW265859   8.526   3.432   1.555  0.9267 -2.8645 -1.6900
18069SOL     OW65860   3.436   0.298   5.462  0.4671 -0.2137 -0.3841
18069SOL    HW165861   3.512   0.293   5.397  0.1700  0.8455 -0.8267
18069SOL    HW265862   3.354   0.329   5.416  0.1753  0.2479  0.4292
18070SOL     OW65863   0.914   8.630   6.705  0.1638  0.1804  0.2985
18070SOL    HW165864   0.976   8.707   6.723 -1.1975  1.0237  1.5594
18070SOL    HW265865   0.902   8.620   6.606 -0.4490  2.2882  0.1177
18071SOL     OW65866   0.344   2.933   3.351  0.7813 -0.1624  0.2256
18071SOL    HW165867   0.338   3.032   3.362  0.3397  0.0892 -2.0141
18071SOL    HW265868   0.254   2.893   3.363  0.7728 -0.1775  0.1123
18072SOL     OW65869   3.310   9.882   3.574  0.4190  0.1693 -0.7760
18072SOL    HW165870   3.301   9.793   3.527  2.6324 -0.4517 -0.0716
18072SOL    HW265871   3.286   9.871   3.670 -1.8278  0.9414 -1.2011
18073SOL     OW65872   8.099   4.628   5.825  0.2495 -0.0091 -0.2145
18073SOL    HW165873   8.183   4.665   5.864  0.3316 -1.3632  0.9210
18073SOL    HW265874   8.091   4.530   5.847 -1.7140  0.1360 -0.1224
18074SOL     OW65875   3.844   8.479   6.024  0.5041  0.4678  0.2714
18074SOL    HW165876   3.768   8.525   5.979 -0.0289 -1.6105 -1.0318
18074SOL    HW265877   3.921   8.472   5.961  1.3465  1.4695  1.1731
18075SOL     OW65878   4.396   5.055   3.274 -0.2517 -0.1992  0.2586
18075SOL    HW165879   4.336   5.050   3.354  0.3219  2.1167  0.8585
18075SOL    HW265880   4.461   4.979   3.277  0.3662  0.3888  2.4959
18076SOL     OW65881   8.147   5.033   3.292  0.1803  0.1246  0.3051
18076SOL    HW165882   8.139   5.113   3.233 -1.4366  0.1021  0.4728
18076SOL    HW265883   8.244   5.013   3.309  0.6529  0.7171 -1.5406
18077SOL     OW65884   1.315   6.329   5.635  0.5655 -0.0958  0.5196
18077SOL    HW165885   1.329   6.254   5.699 -1.4234 -0.0305  1.0328
18077SOL    HW265886   1.303   6.292   5.543 -0.5533 -0.4266  0.7930
18078SOL     OW65887   2.694   3.966   4.794  0.0763 -0.0685  0.0775
18078SOL    HW165888   2.767   4.015   4.744  1.3972  0.4168  2.3946
18078SOL    HW265889   2.731   3.881   4.832 -0.1915  0.8011  2.3584
18079SOL     OW65890   2.886   0.438   4.544 -0.0732  0.0036 -0.0372
18079SOL    HW165891   2.852   0.378   4.616  1.0177 -0.8051 -0.1859
18079SOL    HW265892   2.882   0.533   4.574 -0.6399 -0.2434  0.6682
18080SOL     OW65893   5.003   8.068   3.423 -0.6951  0.0305 -0.2005
18080SOL    HW165894   4.978   8.163   3.442  0.0706  0.0951  0.4623
18080SOL    HW265895   5.099   8.063   3.395 -1.3071 -0.2855 -2.3103
18081SOL     OW65896   1.736   3.552   6.824  0.4879 -0.1395 -0.0963
18081SOL    HW165897   1.827   3.513   6.813  1.3080  1.8008 -0.3937
18081SOL    HW265898   1.690   3.553   6.735  0.8816  0.5181 -0.3028
18082SOL     OW65899   9.909   5.825   2.809  0.1830  0.1226  0.3471
18082SOL    HW165900   9.819   5.828   2.766  0.7680  2.1823 -0.8130
18082SOL    HW265901   9.940   5.730   2.816 -0.8923 -0.4008 -1.6979
18083SOL     OW65902   4.093   9.452   3.700  0.0341  0.1565  0.2787
18083SOL    HW165903   4.006   9.434   3.655  0.3426  0.9408 -0.6529
18083SOL    HW265904   4.093   9.411   3.792 -0.7753 -1.0563 -0.2509
18084SOL     OW65905   0.223   8.324   6.382 -0.2875  0.3262  0.8805
18084SOL    HW165906   0.206   8.231   6.352  0.1877  0.3833  0.4163
18084SOL    HW265907   0.185   8.388   6.315 -1.7267  0.4776  1.8276
18085SOL     OW65908   0.884   5.871   5.038  0.3289 -0.6307  0.0618
18085SOL    HW165909   0.905   5.967   5.018  0.0979 -0.5184  0.3560
18085SOL    HW265910   0.789   5.852   5.010 -0.2204 -0.2974  1.6494
18086SOL     OW65911   0.530   9.792   4.685  0.4442 -0.3484  0.7903
18086SOL    HW165912   0.512   9.834   4.596 -1.0771 -1.1185  0.7085
18086SOL    HW265913   0.497   9.853   4.757  3.4891  1.2048  0.9669
18087SOL     OW65914   7.776   2.306   4.328  0.5055 -0.2194  0.4760
18087SOL    HW165915   7.858   2.261   4.364  0.0749 -0.7215  0.8580
18087SOL    HW265916   7.698   2.244   4.338  0.1949  0.0145 -0.4519
18088SOL     OW65917   5.577   8.651   5.204 -0.1971 -0.4820 -0.4274
18088SOL    HW165918   5.611   8.725   5.145  2.1528 -0.4740  0.8749
18088SOL    HW265919   5.569   8.567   5.150 -1.0570  0.2470 -1.4633
18089SOL     OW65920   0.490   4.273   5.004 -0.2898 -0.5766  0.7313
18089SOL    HW165921   0.513   4.282   4.907 -0.5483  0.9284  0.7853
18089SOL    HW265922   0.420   4.203   5.016  1.5264 -2.5295  0.1404
18090SOL     OW65923   2.889   1.172   6.837 -0.0818  0.4568  0.3643
18090SOL    HW165924   2.890   1.138   6.743  1.5557  0.9231  0.1903
18090SOL    HW265925   2.913   1.098   6.900 -0.6207  0.2830  0.3666
18091SOL     OW65926   8.082   1.164   0.684  0.0485 -0.1821  0.9351
18091SOL    HW165927   7.997   1.202   0.649  1.6097  1.5995 -0.9883
18091SOL    HW265928   8.125   1.108   0.614  1.8747  1.2370  0.8891
18092SOL     OW65929   1.093   1.130   6.432 -0.0026 -0.1766 -0.0172
18092SOL    HW165930   1.108   1.223   6.398  0.2078 -0.2897 -0.2330
18092SOL    HW265931   1.177   1.096   6.472 -0.0468 -0.3197 -0.0470
18093SOL     OW65932   9.441   0.185   0.390  0.2880 -0.0334  0.4027
18093SOL    HW165933   9.428   0.087   0.406 -0.8182 -0.2084 -1.3444
18093SOL    HW265934   9.397   0.237   0.463  1.7660 -0.8496  1.8821
18094SOL     OW65935   4.855   0.812   6.348  0.3423 -0.1126 -0.1749
18094SOL    HW165936   4.897   0.803   6.438  0.8814 -1.2077 -0.5307
18094SOL    HW265937   4.761   0.844   6.358  0.5002  0.0760  0.7527
18095SOL     OW65938   2.322   6.179   0.871  0.0611 -0.6319 -0.0073
18095SOL    HW165939   2.365   6.252   0.925 -0.4729  0.1078 -0.5720
18095SOL    HW265940   2.368   6.172   0.783  0.2275 -1.1034  0.1170
18096SOL     OW65941   3.341   1.106   3.803  0.8192 -0.3725  0.5181
18096SOL    HW165942   3.313   1.036   3.738 -0.9259  1.0719 -0.3431
18096SOL    HW265943   3.441   1.113   3.804  1.0468 -3.0642  0.8823
18097SOL     OW65944   0.872   4.145   5.049 -0.4292 -0.3151 -0.0863
18097SOL    HW165945   0.872   4.113   5.144 -2.7748  0.3055  0.1646
18097SOL    HW265946   0.837   4.072   4.990  1.7558 -0.9750 -0.6036
18098SOL     OW65947   0.116   3.586   1.554 -0.0651  0.2629 -0.6713
18098SOL    HW165948   0.173   3.666   1.569  0.3596 -0.0763 -0.4651
18098SOL    HW265949   0.140   3.543   1.467  2.1406 -1.6442  0.8077
18099SOL     OW65950   0.512   7.188   4.088  0.1404  0.5384 -0.4295
18099SOL    HW165951   0.529   7.103   4.038  0.0243 -0.1300  0.6360
18099SOL    HW265952   0.487   7.166   4.183 -2.0025  1.6646 -0.7039
18100SOL     OW65953   8.063   2.265   7.397 -0.1046 -0.3008 -0.0397
18100SOL    HW165954   8.103   2.316   7.321 -0.7144 -2.2191 -1.6661
18100SOL    HW265955   8.098   2.172   7.398 -2.4855 -1.2299  0.1229
18101SOL     OW65956   9.204   8.568   3.158 -0.1183 -0.5084  0.3397
18101SOL    HW165957   9.185   8.470   3.169  0.4284 -0.5938  0.5370
18101SOL    HW265958   9.261   8.582   3.078 -0.2367 -0.3421  0.2833
18102SOL     OW65959   8.778   6.852   1.632  0.3687 -0.4039 -0.6136
18102SOL    HW165960   8.688   6.877   1.596  0.4928 -0.6132 -1.0733
18102SOL    HW265961   8.785   6.880   1.728 -0.3280 -0.7487 -0.4639
18103SOL     OW65962   7.029   0.450   2.654  0.2023  0.6822  0.1583
18103SOL    HW165963   6.935   0.476   2.631 -0.0300 -2.1069 -2.5649
18103SOL    HW265964   7.027   0.375   2.720  0.4099 -0.0731 -0.6685
18104SOL     OW65965   1.737   7.010   2.015  0.2547 -0.2560 -0.4329
18104SOL    HW165966   1.683   6.927   2.001  0.2679 -0.3295 -0.0625
18104SOL    HW265967   1.754   7.022   2.113  3.5053 -1.8821 -0.7440
18105SOL     OW65968   2.892   1.998   0.326 -0.3359 -0.1940 -0.2657
18105SOL    HW165969   2.795   2.001   0.350  0.0780  0.1200  1.4268
18105SOL    HW265970   2.939   1.932   0.385  0.7086  0.6120 -0.1793
18106SOL     OW65971   6.259   0.322   4.152  0.3164  0.0144  0.2394
18106SOL    HW165972   6.209   0.275   4.224 -0.3942 -0.1307 -0.3345
18106SOL    HW265973   6.206   0.402   4.122  1.0147  0.5712  0.4792
18107SOL     OW65974   8.100   3.274   5.035  0.0162  0.7429  0.0197
18107SOL    HW165975   8.126   3.329   4.956 -2.4307 -0.6400 -1.8091
18107SOL    HW265976   8.019   3.313   5.078 -0.3519 -0.1198  0.1190
18108SOL     OW65977   7.844   4.741   1.471  0.2697  0.5118 -0.8796
18108SOL    HW165978   7.787   4.660   1.455  0.9449 -0.3126  0.8051
18108SOL    HW265979   7.790   4.813   1.515  0.8730 -0.8489  2.2059
18109SOL     OW65980   0.741   9.981   6.536 -0.4489  0.7347  0.8123
18109SOL    HW165981   0.753   9.909   6.605 -0.0342  1.1909  1.2247
18109SOL    HW265982   0.805   9.966   6.461  0.4836  1.3380  1.4668
18110SOL     OW65983   2.672   8.933   3.618 -0.0465 -0.3480 -0.1222
18110SOL    HW165984   2.680   9.028   3.647 -0.2937 -0.5609  0.6363
18110SOL    HW265985   2.723   8.874   3.681 -1.9545 -0.9842  0.8675
18111SOL     OW65986   8.948   8.178   7.404  0.0146  0.0528  0.1200
18111SOL    HW165987   8.849   8.193   7.411 -0.2222 -1.9473  1.8733
18111SOL    HW265988   8.980   8.134   7.488  2.4708  0.9679 -0.2985
18112SOL     OW65989   8.630   6.769   6.170 -0.0025 -0.0516 -0.3210
18112SOL    HW165990   8.635   6.787   6.268 -1.0130  0.1167 -0.2873
18112SOL    HW265991   8.706   6.814   6.123  1.4254 -1.4988  0.5618
18113SOL     OW65992   3.131   6.382   2.438  0.3259 -0.2179 -0.5099
18113SOL    HW165993   3.118   6.338   2.349  0.1514 -1.4534  0.1317
18113SOL    HW265994   3.053   6.441   2.457 -0.6804 -1.6376 -0.1871
18114SOL     OW65995   1.085   0.458   6.435 -0.0818 -0.0506 -0.3196
18114SOL    HW165996   1.143   0.376   6.432  1.7907  1.2387  0.0630
18114SOL    HW265997   1.009   0.447   6.371 -0.4696 -2.5337  0.5039
18115SOL     OW65998   9.850   2.247   3.144 -0.2788 -0.0362  0.1349
18115SOL    HW165999   9.909   2.229   3.222 -1.3070 -2.1164  0.4805
18115SOL    HW266000   9.847   2.165   3.086 -1.9536  0.4166 -0.4404
18116SOL     OW66001   6.064   2.768   7.864  0.0732  0.6370 -0.0193
18116SOL    HW166002   6.032   2.717   7.944  0.4935 -1.5587 -1.2118
18116SOL    HW266003   6.162   2.785   7.872  0.1469  0.2747 -0.1217
18117SOL     OW66004   5.221   2.146   5.049  0.1190 -0.1786 -0.1291
18117SOL    HW166005   5.153   2.128   5.119  1.2510  0.5594  1.2007
18117SOL    HW266006   5.186   2.215   4.985  0.3266  1.6249  1.6553
18118SOL     OW66007   7.403   6.559   7.716  0.4033  0.0239  0.2890
18118SOL    HW166008   7.480   6.589   7.660 -0.0927 -0.0676 -0.4471
18118SOL    HW266009   7.431   6.482   7.774  0.8454 -0.0397 -0.0136
18119SOL     OW66010   3.467   2.873   6.952  0.6753  0.2461 -0.2788
18119SOL    HW166011   3.457   2.882   7.051 -0.7983  1.0006 -0.4825
18119SOL    HW266012   3.392   2.921   6.907 -0.3971 -2.6926 -1.7244
18120SOL     OW66013   0.551   5.116   4.283 -0.0612  0.1056 -0.3059
18120SOL    HW166014   0.650   5.110   4.273  0.1047  0.4954  0.9865
18120SOL    HW266015   0.510   5.146   4.197  0.8578 -0.9375 -1.1123
18121SOL     OW66016   7.142   2.138   3.524 -0.0120  0.5352 -0.4036
18121SOL    HW166017   7.204   2.065   3.550 -1.5352 -0.1198  1.5272
18121SOL    HW266018   7.187   2.226   3.537  0.3175  0.0928  1.6045
18122SOL     OW66019   2.003   3.142   2.844 -0.7079 -0.6282  0.8471
18122SOL    HW166020   1.965   3.133   2.753 -1.5389 -0.5936  1.1836
18122SOL    HW266021   1.974   3.065   2.901  0.0280 -0.7942  1.0042
18123SOL     OW66022   7.636   3.927   3.141 -0.6274 -0.2393  0.0504
18123SOL    HW166023   7.665   3.995   3.074 -1.3400 -0.5913 -0.6179
18123SOL    HW266024   7.706   3.918   3.212 -0.5546  1.2422  0.1825
18124SOL     OW66025   0.725   2.105   0.142  0.5358 -0.2095 -0.2185
18124SOL    HW166026   0.626   2.107   0.157  0.8547 -1.3931  2.3135
18124SOL    HW266027   0.750   2.019   0.097  0.6827 -1.0380  1.4224
18125SOL     OW66028   7.984   2.953   7.866 -0.0529 -0.1267  0.1425
18125SOL    HW166029   8.057   2.958   7.797 -0.3922  0.6666 -0.1521
18125SOL    HW266030   7.976   2.858   7.898  0.2217 -0.4668 -0.7822
18126SOL     OW66031   6.565   1.202   6.558 -0.6212 -0.4498 -0.2356
18126SOL    HW166032   6.540   1.138   6.631 -0.3601  0.7506  0.9369
18126SOL    HW266033   6.499   1.278   6.557  1.7270  1.7099  1.5692
18127SOL     OW66034   1.468   3.997   1.605 -0.5010  0.7622 -0.6449
18127SOL    HW166035   1.537   3.929   1.581  0.1432  1.7073 -1.5235
18127SOL    HW266036   1.484   4.028   1.699  3.3465  4.5275 -2.3935
18128SOL     OW66037   4.474   5.316   3.861  0.1277  0.3073 -0.2179
18128SOL    HW166038   4.483   5.381   3.937 -1.0297  0.6697 -0.3697
18128SOL    HW266039   4.475   5.223   3.897  1.2157  0.4308  0.0672
18129SOL     OW66040   4.982   1.116   7.785 -0.4977 -0.5544  0.0519
18129SOL    HW166041   4.989   1.061   7.868  0.5286  0.7537  0.8577
18129SOL    HW266042   5.068   1.166   7.771 -1.0044 -0.0416 -1.2683
18130SOL     OW66043   1.382   1.798   7.368 -0.3685  0.1965 -0.1290
18130SOL    HW166044   1.370   1.719   7.309  0.3004  0.4490 -0.6166
18130SOL    HW266045   1.437   1.773   7.448 -0.0837  0.1892 -0.3272
18131SOL     OW66046   2.865   5.367   1.107 -0.6445 -0.0943 -0.1941
18131SOL    HW166047   2.885   5.276   1.144  0.0542 -0.0731 -0.5196
18131SOL    HW266048   2.854   5.431   1.183 -2.7154 -0.7594  0.0981
18132SOL     OW66049   3.749   7.403   4.741  0.1775 -0.1306  0.4642
18132SOL    HW166050   3.848   7.399   4.758  0.1423  0.6828  0.8985
18132SOL    HW266051   3.729   7.482   4.683 -0.0696 -1.0703 -0.7531
18133SOL     OW66052   8.487   0.138   2.916  0.1092 -0.0667 -0.4762
18133SOL    HW166053   8.481   0.238   2.915  0.3335 -0.0068  2.0994
18133SOL    HW266054   8.562   0.110   2.975  0.2835 -1.7759 -1.4818
18134SOL     OW66055   9.995   6.123   4.260 -0.0020 -0.1234 -0.3376
18134SOL    HW166056   9.900   6.097   4.276 -0.3126  0.3709 -1.3588
18134SOL    HW266057  10.018   6.108   4.164  0.6892  0.6142 -0.2892
18135SOL     OW66058   7.776   2.349   1.514  0.5563 -0.3480 -0.4187
18135SOL    HW166059   7.832   2.282   1.563  1.9850  0.0266 -1.5215
18135SOL    HW266060   7.831   2.429   1.493 -1.1881  1.3222  1.1115
18136SOL     OW66061   7.129   5.036   7.253 -0.7369 -0.3775 -0.4444
18136SOL    HW166062   7.150   5.130   7.280 -0.8428 -0.0912 -1.3701
18136SOL    HW266063   7.030   5.020   7.260 -0.7390 -0.3694 -0.4561
18137SOL     OW66064   7.247   2.596   5.484 -0.3568  0.0445  0.2133
18137SOL    HW166065   7.329   2.594   5.425  0.5946 -0.1202  1.5270
18137SOL    HW266066   7.166   2.579   5.428  0.5334 -0.1034 -1.0630
18138SOL     OW66067   3.934   8.939   7.992  0.0458  0.6418  0.8506
18138SOL    HW166068   3.856   8.965   7.935 -0.7157 -1.0469  1.1092
18138SOL    HW266069   4.014   8.992   7.964 -0.2427 -0.3558 -1.9735
18139SOL     OW66070   2.373   5.828   6.715 -0.5916  0.1031  0.6281
18139SOL    HW166071   2.278   5.861   6.717 -0.4825  0.3971  1.1854
18139SOL    HW266072   2.381   5.746   6.772 -0.5359  0.0173  0.4959
18140SOL     OW66073   0.910   9.497   2.526 -0.0226  0.1557  0.5564
18140SOL    HW166074   1.008   9.515   2.537 -0.3188  1.5458  1.0787
18140SOL    HW266075   0.890   9.477   2.430  1.0157 -1.8110  0.7184
18141SOL     OW66076   6.350   7.839   4.003 -0.0698  0.5868  0.0680
18141SOL    HW166077   6.350   7.936   4.028 -1.7588  0.5254  0.3559
18141SOL    HW266078   6.413   7.789   4.064 -0.4798  1.2284  1.0242
18142SOL     OW66079   2.079   1.415   5.759  0.0420 -0.1225  0.4455
18142SOL    HW166080   2.100   1.318   5.773 -0.2937  0.0419  2.1624
18142SOL    HW266081   2.128   1.448   5.678  0.5266 -1.6024  0.1152
18143SOL     OW66082   1.751   7.589   2.355 -0.1049 -0.0566  0.2099
18143SOL    HW166083   1.829   7.637   2.315 -1.1477  1.5685  0.1145
18143SOL    HW266084   1.783   7.503   2.396  1.8088  0.8230  0.6117
18144SOL     OW66085   0.877   2.307   1.876 -0.4177  0.0697  0.2318
18144SOL    HW166086   0.904   2.404   1.877  0.9329 -0.2933 -0.2713
18144SOL    HW266087   0.825   2.287   1.959 -0.0243  1.0377  0.7267
18145SOL     OW66088   1.113   6.674   3.469  1.0263  0.4197 -0.7215
18145SOL    HW166089   1.056   6.753   3.446 -0.5224 -0.7202 -0.8477
18145SOL    HW266090   1.160   6.641   3.387 -0.2265 -0.2828 -1.1605
18146SOL     OW66091   0.614   8.497   4.349 -0.1135 -0.4006  0.7859
18146SOL    HW166092   0.571   8.423   4.402  1.2929 -0.3889  1.9761
18146SOL    HW266093   0.679   8.457   4.284 -1.4380 -0.3777 -0.5774
18147SOL     OW66094   0.068   6.984   4.733  0.0657 -0.6124  0.4254
18147SOL    HW166095   0.150   7.036   4.709 -0.3154 -0.2007  0.0231
18147SOL    HW266096   0.088   6.886   4.727  0.7695 -0.5183  1.1403
18148SOL     OW66097   6.431   2.178   4.884  0.5963 -0.1505 -0.2287
18148SOL    HW166098   6.463   2.273   4.887  1.8687 -0.5750  0.0524
18148SOL    HW266099   6.364   2.162   4.956 -1.6736  1.2464 -1.9663
18149SOL     OW66100   3.163   2.944   7.142 -0.3844 -0.0293  0.4416
18149SOL    HW166101   3.111   3.022   7.108 -0.9980  0.1271  1.7321
18149SOL    HW266102   3.251   2.976   7.179  0.1146 -0.1552 -0.6212
18150SOL     OW66103   0.953   4.646   5.604 -0.5700  0.2959  0.3279
18150SOL    HW166104   0.932   4.743   5.610  0.5300  0.6021 -0.5677
18150SOL    HW266105   0.877   4.598   5.559 -0.7741  0.8680  0.0545
18151SOL     OW66106   8.609   2.845   0.458  0.2658 -0.0896  0.6100
18151SOL    HW166107   8.685   2.781   0.466 -1.0630 -1.7030  0.4355
18151SOL    HW266108   8.526   2.805   0.497 -0.9011  0.9814 -0.6775
18152SOL     OW66109   0.103   6.550   6.744 -0.0730 -0.1933 -0.8948
18152SOL    HW166110   0.146   6.553   6.834 -1.6774  1.1109 -0.1250
18152SOL    HW266111   0.111   6.640   6.701 -0.4222 -0.4468 -1.4968
18153SOL     OW66112   2.667   3.774   4.449  0.2129 -0.7205 -0.0176
18153SOL    HW166113   2.670   3.682   4.488  0.0734  0.0893  1.9363
18153SOL    HW266114   2.753   3.821   4.468 -0.2498  0.0403  0.2110
18154SOL     OW66115   2.241   3.029   2.175 -0.0181  0.1289  0.1036
18154SOL    HW166116   2.238   3.067   2.267  4.1269  1.6712 -0.3061
18154SOL    HW266117   2.195   3.091   2.112  0.8199  1.1504  0.4858
18155SOL     OW66118   2.966   7.178   2.614 -0.1792  0.0979 -0.5300
18155SOL    HW166119   3.026   7.110   2.571 -0.3321  0.3199 -1.1009
18155SOL    HW266120   2.947   7.252   2.549 -2.8416 -1.0435 -1.1369
18156SOL     OW66121   7.541   4.814   7.931 -0.3428  0.5776  0.3056
18156SOL    HW166122   7.607   4.882   7.899 -1.4763  1.6589  0.2177
18156SOL    HW266123   7.557   4.796   8.028  1.9991 -1.4261 -0.4158
18157SOL     OW66124   8.039   9.933   4.389 -0.6844 -0.3875  0.4524
18157SOL    HW166125   8.086   9.965   4.307 -0.4780 -0.1785  0.6539
18157SOL    HW266126   7.961   9.876   4.363 -0.0156 -1.1581  0.1291
18158SOL     OW66127   9.538   0.999   7.008 -0.4503 -0.0209 -0.5900
18158SOL    HW166128   9.491   1.068   6.954  1.1592  0.7331 -1.0401
18158SOL    HW266129   9.626   0.977   6.966  0.1211 -0.5818  0.8522
18159SOL     OW66130   0.395   2.038   0.894  0.0093 -0.4480 -0.1083
18159SOL    HW166131   0.296   2.049   0.901 -0.0908 -0.9519 -0.6796
18159SOL    HW266132   0.416   1.946   0.859  0.6446  0.0787 -1.1098
18160SOL     OW66133   2.312   5.233   2.587  0.3936 -0.5717 -0.4448
18160SOL    HW166134   2.246   5.294   2.631  1.9106 -0.0426  1.1462
18160SOL    HW266135   2.292   5.227   2.489 -1.4966  0.2213 -0.1243
18161SOL     OW66136   2.036   6.969   2.025  0.0379  0.1974  0.0250
18161SOL    HW166137   2.040   6.869   2.017 -1.5524  0.0107  1.2147
18161SOL    HW266138   1.942   6.999   2.012  0.3370  1.4450  0.7092
18162SOL     OW66139   3.359   2.237   3.977 -0.9413  0.3184  0.3847
18162SOL    HW166140   3.319   2.324   4.004 -1.3237  0.6257 -1.1309
18162SOL    HW266141   3.457   2.250   3.961 -0.7847  0.2170  1.2250
18163SOL     OW66142   8.707   6.999   0.283 -0.6431 -0.2027 -0.3134
18163SOL    HW166143   8.730   7.001   0.186  0.1075  0.0745 -0.1287
18163SOL    HW266144   8.690   6.904   0.311 -1.1076 -0.2566 -0.7704
18164SOL     OW66145   3.024   0.325   3.722  0.3359 -0.0797 -0.2377
18164SOL    HW166146   3.015   0.369   3.812  1.7071  2.0408 -1.1120
18164SOL    HW266147   3.101   0.261   3.725  0.0406 -0.4204  0.2496
18165SOL     OW66148   3.698   2.999   2.455 -0.2901  0.0538  0.0965
18165SOL    HW166149   3.793   3.029   2.454 -0.5506  0.9223  0.6305
18165SOL    HW266150   3.681   2.938   2.378  0.9557 -0.8922  0.5541
18166SOL     OW66151   0.530   4.933   7.398 -0.3715 -0.6517 -0.0975
18166SOL    HW166152   0.574   4.890   7.319  1.1107 -0.1588  0.4412
18166SOL    HW266153   0.457   4.874   7.432  0.1236 -1.6694 -0.7623
18167SOL     OW66154   8.953   2.602   7.006 -0.2451  0.1911  0.2115
18167SOL    HW166155   9.002   2.544   6.940 -0.2029  0.5629 -0.0902
18167SOL    HW266156   9.019   2.640   7.071 -0.3993 -0.8297  0.9681
18168SOL     OW66157   8.596   6.017   1.817  0.1057 -0.1649 -0.2673
18168SOL    HW166158   8.671   6.058   1.764 -0.7020  1.6498 -0.0220
18168SOL    HW266159   8.546   5.952   1.758  1.2596 -0.6647 -0.7186
18169SOL     OW66160   4.992   1.078   0.913  0.3533  0.4198 -0.0152
18169SOL    HW166161   4.915   1.018   0.935 -1.1653  2.2931 -0.0311
18169SOL    HW266162   5.022   1.061   0.820  1.0581 -1.4678  0.5321
18170SOL     OW66163   0.525   1.338   1.608  0.0296 -0.0826 -0.5597
18170SOL    HW166164   0.617   1.324   1.647  0.1889  1.4155 -0.3966
18170SOL    HW266165   0.529   1.322   1.509  1.0077  2.3315 -0.9413
18171SOL     OW66166   7.237   2.813   5.066  0.8020 -0.0793  0.2181
18171SOL    HW166167   7.268   2.820   4.971  0.6947 -3.8686 -0.2055
18171SOL    HW266168   7.137   2.817   5.069  0.7121 -1.5324 -0.0837
18172SOL     OW66169   1.045   3.896   3.014 -0.1367 -0.4553 -0.4318
18172SOL    HW166170   1.061   3.940   2.926  1.0063  1.1964  0.5690
18172SOL    HW266171   0.975   3.947   3.064  1.9063  0.8503  1.1475
18173SOL     OW66172   4.206   2.228   5.623  0.0856  0.2966 -0.5685
18173SOL    HW166173   4.217   2.304   5.688 -1.9186  0.9425 -0.9469
18173SOL    HW266174   4.258   2.149   5.655  0.3713  1.1118  1.0251
18174SOL     OW66175   4.417   3.779   6.760 -0.3373 -0.3046 -0.2015
18174SOL    HW166176   4.405   3.764   6.662 -1.5744 -0.2335 -0.0634
18174SOL    HW266177   4.515   3.787   6.780 -0.0920  0.1306 -1.4927
18175SOL     OW66178   3.344   8.087   4.509  0.4189  0.3983 -0.3369
18175SOL    HW166179   3.385   7.999   4.485 -1.8365 -1.8288  3.4852
18175SOL    HW266180   3.261   8.101   4.455 -1.7554 -2.0857  2.2455
18176SOL     OW66181   2.487   0.610   4.622 -0.2861 -0.1546  0.1072
18176SOL    HW166182   2.538   0.696   4.626 -1.7903  0.7924 -0.8749
18176SOL    HW266183   2.455   0.593   4.529  0.2051 -1.9146  0.2341
18177SOL     OW66184   0.174   2.563   1.167  0.4831  0.0925 -0.1804
18177SOL    HW166185   0.227   2.626   1.224 -0.0579  0.5185 -0.1407
18177SOL    HW266186   0.206   2.470   1.181  0.6355  0.2462  0.5006
18178SOL     OW66187   1.489   5.539   8.170 -0.2935 -0.0643 -0.5156
18178SOL    HW166188   1.506   5.463   8.232  1.9485  0.2056 -0.7743
18178SOL    HW266189   1.391   5.555   8.164 -0.5966 -0.7111  2.1871
18179SOL     OW66190   3.260   2.636   6.074 -0.2587 -0.0529  0.2242
18179SOL    HW166191   3.258   2.735   6.085  2.6169  0.6880 -4.7471
18179SOL    HW266192   3.341   2.598   6.119  1.6579  0.6283 -2.5650
18180SOL     OW66193   5.630   9.529   3.474  0.2722  0.0696  0.1518
18180SOL    HW166194   5.705   9.551   3.411 -0.1581 -1.4098 -0.9003
18180SOL    HW266195   5.642   9.435   3.507 -1.2924 -0.2824 -0.2711
18181SOL     OW66196   9.658   9.320   6.986  0.2635  0.2532  0.0670
18181SOL    HW166197   9.712   9.236   6.994  1.0458  0.6714 -0.6096
18181SOL    HW266198   9.568   9.307   7.027 -0.0146 -1.2624 -0.9895
18182SOL     OW66199   8.465   7.473   3.050 -0.6935 -0.3522 -0.0231
18182SOL    HW166200   8.494   7.561   3.010 -1.7822 -0.1194 -0.3230
18182SOL    HW266201   8.520   7.399   3.010  0.0072  0.1535 -0.0163
18183SOL     OW66202   9.949   0.400   6.458  0.1297  0.4724  0.0718
18183SOL    HW166203   9.941   0.304   6.488 -1.2532 -0.6331 -3.5861
18183SOL    HW266204   9.861   0.445   6.470 -0.0406  0.4223 -0.9766
18184SOL     OW66205   3.234   0.595   2.996 -0.3942 -0.7053 -0.0607
18184SOL    HW166206   3.164   0.635   3.054  2.1545  1.5188  1.6164
18184SOL    HW266207   3.229   0.634   2.904  1.7236  3.3394  1.3991
18185SOL     OW66208   0.727   6.961   5.861  0.3035  0.1975  0.5258
18185SOL    HW166209   0.630   6.978   5.876  0.5683  2.2955 -0.0183
18185SOL    HW266210   0.739   6.902   5.781 -0.5173 -0.4075  0.8361
18186SOL     OW66211   8.736   5.538   5.848  0.2749  0.1787  0.1207
18186SOL    HW166212   8.738   5.439   5.830  0.1050  0.2523 -0.3151
18186SOL    HW266213   8.818   5.580   5.809  0.0493  0.2958 -0.2327
18187SOL     OW66214   9.235   8.520   7.948 -0.8386  0.0300  0.2388
18187SOL    HW166215   9.171   8.578   7.998 -1.1783 -1.4779  1.6149
18187SOL    HW266216   9.259   8.563   7.861 -3.0716  1.0126  0.0876
18188SOL     OW66217   4.976   7.763   6.889  1.2494  0.8584 -0.3061
18188SOL    HW166218   4.960   7.764   6.791 -0.6965  0.7345  0.0014
18188SOL    HW266219   4.988   7.669   6.920  1.4989  0.8728 -0.3547
18189SOL     OW66220   2.414   1.998   0.140 -0.1375  0.7979  0.6345
18189SOL    HW166221   2.429   1.905   0.104 -0.0709  0.0057  2.6176
18189SOL    HW266222   2.345   1.995   0.212 -0.1356  2.3018  0.7117
18190SOL     OW66223   7.006   4.449   1.707 -0.0092 -0.0176 -0.4255
18190SOL    HW166224   7.093   4.497   1.717  0.8161 -1.9265  2.4313
18190SOL    HW266225   7.023   4.355   1.680 -1.0332 -0.8697  1.7762
18191SOL     OW66226   7.080   0.450   1.744 -0.0353 -0.3992  0.2340
18191SOL    HW166227   7.121   0.506   1.816 -0.2706  1.7138 -1.2028
18191SOL    HW266228   6.982   0.441   1.760 -0.2187  0.7191 -0.2055
18192SOL     OW66229   2.386   9.962   1.469 -0.1762  0.1264  0.6020
18192SOL    HW166230   2.324   9.884   1.458 -2.4684  1.9552  0.2617
18192SOL    HW266231   2.333  10.046   1.482  2.2213  1.8400 -0.2652
18193SOL     OW66232   7.665   6.658   1.912  0.3260 -0.0863  0.2300
18193SOL    HW166233   7.670   6.670   1.813  0.6216 -0.8395  0.1498
18193SOL    HW266234   7.626   6.740   1.954 -1.2409 -0.3751 -0.6426
18194SOL     OW66235   2.648   0.363   2.861  0.2934  0.6771  0.4747
18194SOL    HW166236   2.586   0.441   2.871  0.9480  1.0913  1.2839
18194SOL    HW266237   2.721   0.386   2.796 -0.0641  0.3905 -0.0354
18195SOL     OW66238   0.609   9.929   3.186 -0.2461  0.0320 -0.4229
18195SOL    HW166239   0.524   9.886   3.216  0.8713 -1.8345  0.1613
18195SOL    HW266240   0.675   9.930   3.262  1.3260 -1.3647 -1.7208
18196SOL     OW66241   3.033   7.670   1.698 -0.0866 -0.5150 -0.4655
18196SOL    HW166242   3.051   7.572   1.688  0.8601 -0.5907  1.7867
18196SOL    HW266243   2.938   7.689   1.673 -0.2472 -1.9900 -1.0113
18197SOL     OW66244   3.986   7.386   1.643 -0.5200 -0.3194  0.4210
18197SOL    HW166245   3.912   7.418   1.702 -0.7651  0.0072 -0.0534
18197SOL    HW266246   3.948   7.359   1.554 -0.1949 -1.0817  0.5131
18198SOL     OW66247   6.788   2.595   2.945  0.1387  0.4289  0.0890
18198SOL    HW166248   6.768   2.574   3.041  1.9629 -0.7836  0.2241
18198SOL    HW266249   6.887   2.589   2.929  0.1039  2.8655 -1.3482
18199SOL     OW66250   1.386   8.387   0.800 -0.4008 -0.2480  0.4810
18199SOL    HW166251   1.312   8.328   0.832 -1.2671  0.4692 -0.1768
18199SOL    HW266252   1.348   8.465   0.751  0.8267 -0.2586 -0.5124
18200SOL     OW66253   1.321   4.887   2.302 -0.0987  0.1627 -0.1948
18200SOL    HW166254   1.306   4.954   2.231  0.6751  0.3663 -0.1650
18200SOL    HW266255   1.368   4.930   2.380  0.2055 -0.3507 -0.0898
18201SOL     OW66256   8.201   1.762   1.310 -0.6438  0.4400 -0.8846
18201SOL    HW166257   8.278   1.763   1.374  0.1630 -0.8458 -1.8028
18201SOL    HW266258   8.120   1.727   1.356  0.0240 -0.8398 -0.6605
18202SOL     OW66259   8.509   1.458   0.081 -0.2527 -0.3244 -0.3233
18202SOL    HW166260   8.434   1.438   0.144 -0.1785 -0.9225 -0.4252
18202SOL    HW266261   8.482   1.533   0.020 -0.8341 -0.6522 -0.4739
18203SOL     OW66262   1.785   4.612   3.142 -0.3524 -0.4205 -0.6316
18203SOL    HW166263   1.695   4.654   3.134 -0.8417 -0.9606  1.6298
18203SOL    HW266264   1.782   4.518   3.106 -0.8010 -0.5684 -0.2104
18204SOL     OW66265   7.908   5.612   6.653 -0.6022  0.1848 -0.1801
18204SOL    HW166266   7.861   5.526   6.668  0.1781 -0.3972 -1.0618
18204SOL    HW266267   7.956   5.638   6.737 -0.9359 -0.1648  0.1220
18205SOL     OW66268   9.459   1.826   1.431 -0.1090 -0.3619  0.1162
18205SOL    HW166269   9.411   1.760   1.373  0.2912  0.9081 -1.7212
18205SOL    HW266270   9.477   1.910   1.378  0.6333  0.6815  1.9661
18206SOL     OW66271   2.616   8.701   4.604 -0.6037 -0.3826 -0.1355
18206SOL    HW166272   2.709   8.734   4.591 -1.1017 -0.0495 -3.1963
18206SOL    HW266273   2.551   8.774   4.582 -1.6316 -0.4296  2.5073
18207SOL     OW66274   3.008   7.527   4.125  0.2677  0.5707  0.4764
18207SOL    HW166275   2.946   7.568   4.192 -1.3985  0.2557 -0.8419
18207SOL    HW266276   3.055   7.449   4.166 -2.3494 -0.9663  0.6803
18208SOL     OW66277   3.844   5.697   1.212  0.3736 -0.1761  0.0191
18208SOL    HW166278   3.800   5.654   1.133 -1.6933  1.4348  0.2217
18208SOL    HW266279   3.905   5.769   1.181 -2.3332  2.1686 -0.1358
18209SOL     OW66280   6.891   4.870   8.144  0.8696  0.0309 -0.3258
18209SOL    HW166281   6.947   4.909   8.070  0.3713  1.5091  0.0624
18209SOL    HW266282   6.942   4.874   8.230 -0.0292  1.9338  0.1462
18210SOL     OW66283   0.658   0.815   6.711  0.8377  0.0414 -0.2409
18210SOL    HW166284   0.751   0.835   6.680  0.5338  0.4806 -0.8625
18210SOL    HW266285   0.603   0.781   6.635 -0.2501  2.2728 -0.4783
18211SOL     OW66286   4.253   5.382   2.601 -0.0929 -0.0591 -0.1179
18211SOL    HW166287   4.164   5.386   2.645  0.1433 -0.0703  0.3688
18211SOL    HW266288   4.317   5.332   2.660 -0.2201 -1.5887 -1.2412
18212SOL     OW66289   8.197   5.445   1.194 -0.0039  0.1453 -0.3017
18212SOL    HW166290   8.291   5.425   1.222  0.2403  1.5674 -0.1013
18212SOL    HW266291   8.149   5.359   1.174  0.4310 -0.7994  2.4679
18213SOL     OW66292   9.154   7.165   0.831  0.0766 -0.3829  0.4607
18213SOL    HW166293   9.113   7.074   0.825 -0.4908 -0.2011  1.5531
18213SOL    HW266294   9.190   7.180   0.922 -1.3341  1.1091  0.8019
18214SOL     OW66295   1.572   5.098   2.182  0.0794 -0.1667 -0.2062
18214SOL    HW166296   1.561   5.118   2.085  1.9197 -0.3540 -0.4717
18214SOL    HW266297   1.526   5.168   2.236  1.1999  1.3706 -1.1928
18215SOL     OW66298   8.280   7.285   1.039 -0.1448 -0.2344 -0.3902
18215SOL    HW166299   8.280   7.381   1.069 -1.6116 -0.5592  0.7312
18215SOL    HW266300   8.290   7.281   0.940 -2.6472  1.2330 -0.7644
18216SOL     OW66301   3.542   3.237   6.526  0.0032  0.6228  0.1154
18216SOL    HW166302   3.625   3.181   6.526  0.5743  1.4638 -0.2746
18216SOL    HW266303   3.462   3.177   6.534  0.5988 -0.2563 -0.3949
18217SOL     OW66304   6.624   9.204   7.214 -0.1349  0.8792  0.2364
18217SOL    HW166305   6.524   9.207   7.206 -0.2272  0.3054  1.1083
18217SOL    HW266306   6.654   9.109   7.211  0.1763  0.8854  2.3288
18218SOL     OW66307   3.195   4.827   5.005  0.7973  0.0788 -0.3118
18218SOL    HW166308   3.155   4.751   4.953  0.0200  1.7481 -2.2504
18218SOL    HW266309   3.164   4.914   4.965  1.4027  1.4236  2.0594
18219SOL     OW66310   1.944   9.500   5.543  0.5846 -0.6002 -0.1043
18219SOL    HW166311   2.033   9.460   5.564  0.7715 -0.2643 -0.2474
18219SOL    HW266312   1.871   9.441   5.579  0.8081 -1.7720 -1.5090
18220SOL     OW66313   8.769   8.573   2.312 -0.4968 -0.0707 -0.0422
18220SOL    HW166314   8.849   8.512   2.317 -0.8445 -0.4008  1.8011
18220SOL    HW266315   8.705   8.539   2.243 -0.2900 -1.3196  0.3681
18221SOL     OW66316   9.581   3.883   0.464 -0.5262  0.0796  0.2046
18221SOL    HW166317   9.499   3.826   0.458 -0.0346 -0.6339  0.2372
18221SOL    HW266318   9.627   3.866   0.550 -0.3157  0.4525  0.1671
18222SOL     OW66319   4.362   5.442   0.912  0.4624  0.8911 -0.4273
18222SOL    HW166320   4.429   5.478   0.846  0.3636  4.3511  1.2711
18222SOL    HW266321   4.384   5.476   1.003 -1.0916 -1.5219  0.8827
18223SOL     OW66322   2.826   9.903   4.276  0.2439 -0.5815 -0.4868
18223SOL    HW166323   2.788   9.812   4.293 -0.5443 -0.5051 -1.7419
18223SOL    HW266324   2.773   9.948   4.204  0.3635  1.0416  0.4140
18224SOL     OW66325   8.412   1.704   4.929 -0.0387 -0.5619  0.3797
18224SOL    HW166326   8.432   1.713   5.026  1.6087 -2.3364  0.2271
18224SOL    HW266327   8.324   1.660   4.916  0.0261 -0.8910  1.0710
18225SOL     OW66328   0.818   7.236   3.984  0.0999 -0.6001 -0.1878
18225SOL    HW166329   0.791   7.153   4.032 -2.6486  0.7333  0.6560
18225SOL    HW266330   0.778   7.236   3.892 -1.4549  0.5668  0.4492
18226SOL     OW66331   0.746   1.250   0.281  0.0661  0.3392 -0.0747
18226SOL    HW166332   0.775   1.301   0.200 -0.4587 -0.6204 -0.8798
18226SOL    HW266333   0.684   1.176   0.253 -1.5423  1.1070  1.4024
18227SOL     OW66334   8.318   6.743   7.822 -0.4221 -0.4279 -0.5178
18227SOL    HW166335   8.271   6.807   7.883  0.2415 -0.4773  0.0593
18227SOL    HW266336   8.392   6.698   7.872  0.1970 -0.3946 -1.3871
18228SOL     OW66337   4.959   8.306   6.814  0.0462  0.1649 -0.4782
18228SOL    HW166338   4.881   8.246   6.798 -1.0737  1.4639 -0.0664
18228SOL    HW266339   4.983   8.304   6.911 -1.1726  1.7268 -0.1117
18229SOL     OW66340   8.336   6.774   5.263  0.3419  0.2760 -0.0647
18229SOL    HW166341   8.435   6.783   5.277 -0.0426  1.1833  2.3702
18229SOL    HW266342   8.293   6.864   5.276 -1.1646 -0.7528  2.4107
18230SOL     OW66343   0.301   6.251   3.700 -0.3968 -0.2487  0.0747
18230SOL    HW166344   0.341   6.342   3.687  0.8895 -1.0586 -1.7532
18230SOL    HW266345   0.212   6.248   3.656  0.3039 -0.3824 -1.3634
18231SOL     OW66346   9.474   7.622   4.148  0.2510  0.1608  0.2508
18231SOL    HW166347   9.452   7.631   4.050  1.0707  2.4981  0.2517
18231SOL    HW266348   9.568   7.592   4.158 -0.4205 -1.9577  0.3180
18232SOL     OW66349   8.290   8.198   5.195  0.0581  0.2380  0.5028
18232SOL    HW166350   8.252   8.136   5.127  0.9040 -0.6986  0.8801
18232SOL    HW266351   8.261   8.170   5.286 -0.7831  1.2828  0.5622
18233SOL     OW66352   7.211   9.684   5.355  0.4447 -0.1613  0.4447
18233SOL    HW166353   7.299   9.728   5.373 -0.3678  1.6074  0.1800
18233SOL    HW266354   7.187   9.624   5.432  2.0532 -0.9685  0.3318
18234SOL     OW66355   5.723   3.167   0.159 -0.2677  0.5651  0.2617
18234SOL    HW166356   5.752   3.086   0.108 -0.2340  0.7726 -0.0480
18234SOL    HW266357   5.649   3.142   0.222 -0.3284  0.3191  0.0899
18235SOL     OW66358   7.351   7.976   4.913 -0.2725  0.3104  0.1089
18235SOL    HW166359   7.384   7.886   4.943  0.3864  0.2942 -0.6306
18235SOL    HW266360   7.400   8.003   4.830 -0.7953  1.1500  0.0672
18236SOL     OW66361   7.993   0.248   6.421 -0.0160  0.4271  0.6002
18236SOL    HW166362   8.020   0.282   6.331  1.4817  1.6874  1.4954
18236SOL    HW266363   8.074   0.215   6.469 -0.9366 -1.0623  1.1511
18237SOL     OW66364   5.288   2.848   4.780  0.2539 -0.6987 -0.1421
18237SOL    HW166365   5.386   2.857   4.763 -0.0264  1.0990 -0.9426
18237SOL    HW266366   5.255   2.931   4.826 -1.0258 -0.9683 -0.5576
18238SOL     OW66367   1.107   4.307   3.102  0.7496 -0.1536 -0.2505
18238SOL    HW166368   1.028   4.291   3.042  0.3811 -0.1140  0.2177
18238SOL    HW266369   1.090   4.389   3.157 -0.0187 -1.5966  1.7080
18239SOL     OW66370   2.334   1.837   5.876 -0.1671 -0.4313 -0.3778
18239SOL    HW166371   2.431   1.857   5.890  0.0219 -0.9036 -0.9569
18239SOL    HW266372   2.325   1.764   5.808 -0.9558  0.0843 -0.8351
18240SOL     OW66373   2.607   7.912   6.735  0.5179 -0.3233  0.1184
18240SOL    HW166374   2.629   7.814   6.731 -0.6411 -0.7159  2.6878
18240SOL    HW266375   2.547   7.935   6.658 -0.5079 -1.9979  0.3773
18241SOL     OW66376   3.512   1.640   5.083  0.0389  0.4150 -0.3768
18241SOL    HW166377   3.592   1.701   5.078  0.0930  0.2918 -1.1707
18241SOL    HW266378   3.481   1.633   5.177  0.0683  1.6328 -0.2727
18242SOL     OW66379   7.788   6.447   5.828  0.4311  0.1056 -0.4289
18242SOL    HW166380   7.863   6.389   5.795  0.9099  0.3504  0.2275
18242SOL    HW266381   7.820   6.540   5.840 -0.1668  0.3623 -0.8265
18243SOL     OW66382   7.548   7.474   4.476  0.9320  0.4004  0.3878
18243SOL    HW166383   7.472   7.532   4.444  1.4712  0.7444 -0.2798
18243SOL    HW266384   7.522   7.378   4.466  0.9198  0.5009 -0.7067
18244SOL     OW66385   0.644   3.644   6.066  0.3131 -0.4782 -0.1851
18244SOL    HW166386   0.643   3.698   5.981 -1.4445  0.2239  0.2512
18244SOL    HW266387   0.697   3.693   6.135  0.7789 -0.4891 -0.5339
18245SOL     OW66388   5.875   4.837   1.109 -0.6076  0.0416  0.1140
18245SOL    HW166389   5.783   4.877   1.106 -0.4892  0.3710  0.6582
18245SOL    HW266390   5.919   4.847   1.020 -1.6058 -1.3376 -0.5415
18246SOL     OW66391   0.547   9.450   1.221  0.0008  0.2212  0.0854
18246SOL    HW166392   0.568   9.493   1.309  0.7431  0.7574 -0.3474
18246SOL    HW266393   0.632   9.428   1.174 -0.3619 -2.0413  0.4452
18247SOL     OW66394   7.772   6.285   2.495  0.9385 -0.0621  0.3878
18247SOL    HW166395   7.800   6.380   2.503 -2.5429  1.0775 -0.2171
18247SOL    HW266396   7.731   6.269   2.405 -1.1991 -1.3228  1.5238
18248SOL     OW66397   9.195   1.873   0.573 -0.3331 -0.2827  0.5586
18248SOL    HW166398   9.168   1.962   0.610  0.5449  0.1262  0.2269
18248SOL    HW266399   9.226   1.814   0.648  0.6120  0.2422  0.5804
18249SOL     OW66400   9.856   6.130   4.695 -0.1331  0.5067  0.2448
18249SOL    HW166401   9.874   6.227   4.711 -0.9669  0.1562  3.8732
18249SOL    HW266402   9.940   6.077   4.708 -0.0717  0.5796  0.1367
18250SOL     OW66403   1.384   2.251   1.928 -0.2209  0.5001  0.1731
18250SOL    HW166404   1.301   2.230   1.980  1.3086  0.1711  2.5586
18250SOL    HW266405   1.428   2.165   1.900  0.9199  0.5903  1.6004
18251SOL     OW66406   1.687   2.695   0.101 -0.3860 -0.0054  0.0139
18251SOL    HW166407   1.682   2.790   0.133  0.3583  0.6812 -1.8909
18251SOL    HW266408   1.606   2.645   0.134 -1.3937  1.5917  0.0043
18252SOL     OW66409   3.958   3.224   0.746  0.2645 -0.3638 -0.0560
18252SOL    HW166410   3.916   3.238   0.656 -0.7217 -2.5183  0.0611
18252SOL    HW266411   3.887   3.202   0.813  1.0141  1.0684  1.2491
18253SOL     OW66412   6.788   2.922   0.279 -0.2465  0.0219 -0.2949
18253SOL    HW166413   6.825   2.830   0.297  0.2866  0.1392 -0.7827
18253SOL    HW266414   6.862   2.982   0.247 -0.9076  0.1919 -1.5274
18254SOL     OW66415   4.188   4.681   8.062 -0.4376 -0.6869 -0.3094
18254SOL    HW166416   4.118   4.724   8.006 -0.2176 -0.7054 -0.5961
18254SOL    HW266417   4.173   4.706   8.158 -0.0722  0.3745 -0.5162
18255SOL     OW66418   1.463   8.677   3.823  0.3435 -0.2979 -0.5269
18255SOL    HW166419   1.560   8.685   3.797  0.3206  0.8260 -0.2668
18255SOL    HW266420   1.454   8.606   3.893  1.3465  1.2280  1.2119
18256SOL     OW66421   4.690   0.592   7.080  0.3121  0.2206 -0.0436
18256SOL    HW166422   4.685   0.569   6.983  0.4021 -0.4469  0.1095
18256SOL    HW266423   4.767   0.544   7.122  0.0702  0.2475  0.4322
18257SOL     OW66424   0.972   6.232   5.435 -0.1388 -0.3954 -0.1241
18257SOL    HW166425   0.905   6.167   5.400 -0.9921  0.8004 -0.7720
18257SOL    HW266426   1.001   6.293   5.361  0.8236 -0.1802  0.4192
18258SOL     OW66427   9.051   7.361   5.730 -0.4021 -0.8050 -0.1531
18258SOL    HW166428   9.106   7.392   5.808  0.3251 -1.7874 -0.2553
18258SOL    HW266429   8.995   7.436   5.696  1.6271  0.5334 -0.6727
18259SOL     OW66430   0.692   8.718   7.918  0.0335  0.2150  0.0830
18259SOL    HW166431   0.599   8.713   7.956 -0.6101 -1.8430 -1.6418
18259SOL    HW266432   0.753   8.663   7.975 -0.4394 -0.8826 -0.4407
18260SOL     OW66433   7.650   4.734   1.727 -0.3388 -0.3877  0.1612
18260SOL    HW166434   7.616   4.680   1.651 -2.3130  0.5856  0.3142
18260SOL    HW266435   7.745   4.709   1.747  0.6288  0.2503 -3.4150
18261SOL     OW66436   5.575   9.277   4.611  0.7072  0.3587  0.3544
18261SOL    HW166437   5.653   9.268   4.673  0.0504 -0.4479  1.0700
18261SOL    HW266438   5.541   9.187   4.586  1.7367  0.6363 -2.1979
18262SOL     OW66439   8.456   3.045   7.937  0.0535 -0.1948  0.1777
18262SOL    HW166440   8.394   3.020   7.863  0.5488 -1.6505  0.2552
18262SOL    HW266441   8.404   3.078   8.015 -0.5808 -0.8393  0.0225
18263SOL     OW66442   2.690   9.114   2.760  0.3049 -0.3916 -0.2326
18263SOL    HW166443   2.701   9.068   2.849  1.8224 -0.6483 -0.5444
18263SOL    HW266444   2.627   9.191   2.771  0.8795 -0.1018  1.1855
18264SOL     OW66445   0.848   3.450   4.892 -0.0709 -0.4337 -0.0455
18264SOL    HW166446   0.861   3.381   4.963 -0.9160 -1.2749 -0.6903
18264SOL    HW266447   0.891   3.418   4.807 -1.0049 -0.4526 -0.5148
18265SOL     OW66448   0.954   0.701   5.118  0.8581 -0.1831 -0.5002
18265SOL    HW166449   0.864   0.696   5.161  0.7480  1.0017 -0.5736
18265SOL    HW266450   0.996   0.610   5.117 -0.3908 -0.7668 -0.5811
18266SOL     OW66451   0.271   6.206   5.475 -0.3881  0.2793 -0.8044
18266SOL    HW166452   0.227   6.279   5.528 -2.2209  0.5536 -2.6282
18266SOL    HW266453   0.368   6.202   5.498 -0.5780  2.2578  0.4618
18267SOL     OW66454   0.380   3.722   6.989  0.3614 -0.0178  0.2196
18267SOL    HW166455   0.342   3.804   6.947  0.4139 -0.4477 -0.6806
18267SOL    HW266456   0.378   3.647   6.923 -1.2615 -1.1994  1.5860
18268SOL     OW66457   0.376   1.812   7.796  0.2687 -0.2599 -0.0975
18268SOL    HW166458   0.287   1.776   7.824  0.1119  0.7386  0.6825
18268SOL    HW266459   0.418   1.749   7.730  0.0862 -1.9798  1.3999
18269SOL     OW66460   9.762   4.107   1.160 -0.4009 -0.2556  0.8579
18269SOL    HW166461   9.861   4.105   1.167 -0.4505 -1.5477  1.4278
18269SOL    HW266462   9.727   4.013   1.158 -1.4749  0.1445 -1.2965
18270SOL     OW66463   6.221   9.115   4.653 -0.2125  0.3697 -0.2690
18270SOL    HW166464   6.146   9.167   4.695 -0.4786  0.2424 -0.5818
18270SOL    HW266465   6.203   9.017   4.663 -1.2889  0.3233 -2.4517
18271SOL     OW66466   0.733   0.939   2.238  0.2631  0.4294 -0.4374
18271SOL    HW166467   0.706   0.898   2.325 -1.2410  0.3411 -0.9324
18271SOL    HW266468   0.677   0.901   2.164  1.1112  0.9459 -1.3643
18272SOL     OW66469   3.247   0.829   5.435 -0.3400  0.0832 -0.1596
18272SOL    HW166470   3.281   0.803   5.526 -0.0401  1.0726  0.0152
18272SOL    HW266471   3.179   0.762   5.405 -0.6778 -0.0725  0.9329
18273SOL     OW66472   0.200   5.401   4.199  0.8324 -0.4310 -0.0973
18273SOL    HW166473   0.144   5.480   4.175 -0.1121 -1.3771 -1.0784
18273SOL    HW266474   0.233   5.356   4.116  3.8346  0.6276  0.4520
18274SOL     OW66475   2.429   2.764   5.746  0.0558  0.0842 -0.7132
18274SOL    HW166476   2.424   2.679   5.799 -0.3242  1.4738  1.5619
18274SOL    HW266477   2.507   2.761   5.684  2.4896 -0.3524  2.2533
18275SOL     OW66478   5.882   0.945   7.892  0.2503  0.0320  0.4166
18275SOL    HW166479   5.945   1.020   7.913  0.3614  0.0377  0.0756
18275SOL    HW266480   5.801   0.982   7.846  0.0587  0.0076  0.7315
18276SOL     OW66481   4.514   9.511   3.879  0.4228  0.0913  0.1719
18276SOL    HW166482   4.519   9.421   3.837  3.4126  0.5046 -0.5085
18276SOL    HW266483   4.474   9.576   3.814  0.0400 -0.3672 -0.0503
18277SOL     OW66484   4.446   3.888   4.348 -0.1138  0.2875  0.8130
18277SOL    HW166485   4.389   3.807   4.363  0.1562  0.2421  1.6235
18277SOL    HW266486   4.441   3.915   4.251  1.1546 -1.7282  0.1538
18278SOL     OW66487   4.600   5.358   2.736  0.5072 -0.1031  0.4673
18278SOL    HW166488   4.599   5.458   2.744 -0.5192 -0.0066 -0.7289
18278SOL    HW266489   4.683   5.322   2.779 -0.2921  1.0654  3.1137
18279SOL     OW66490   7.786   0.837   1.014  0.7851  0.3689 -0.2386
18279SOL    HW166491   7.845   0.853   1.093 -0.0122  0.4892  0.3400
18279SOL    HW266492   7.829   0.875   0.932  1.0091  1.4139  0.3587
18280SOL     OW66493   9.576   3.575   4.329  0.2351  0.0928  0.0335
18280SOL    HW166494   9.561   3.586   4.231  0.6432 -0.3356 -0.0800
18280SOL    HW266495   9.570   3.478   4.353  1.3840  0.0586  0.2239
18281SOL     OW66496   7.540   4.083   2.031 -0.3469 -0.5314 -0.0759
18281SOL    HW166497   7.624   4.031   2.043  0.5881  0.6699 -1.3420
18281SOL    HW266498   7.554   4.178   2.057 -0.9812 -0.0686 -1.3450
18282SOL     OW66499   0.026   3.679   5.344 -0.1826 -0.1551  0.1810
18282SOL    HW166500   0.009   3.689   5.442 -0.0656 -0.0775  0.1939
18282SOL    HW266501   0.078   3.758   5.311 -2.5236  1.1640 -0.4688
18283SOL     OW66502   6.949   0.697   7.939 -0.1633 -0.4408  0.3985
18283SOL    HW166503   6.960   0.706   7.840 -0.1199  0.1104  0.4516
18283SOL    HW266504   6.953   0.600   7.965  0.7313 -0.5185 -0.0268
18284SOL     OW66505   2.364   1.816   1.961 -0.4628  0.2878  0.4521
18284SOL    HW166506   2.354   1.879   2.038  0.1526  3.5939 -2.0096
18284SOL    HW266507   2.274   1.798   1.921 -0.5977 -0.0062  0.8943
18285SOL     OW66508   5.205   5.625   1.375  0.2202  0.1710  0.1745
18285SOL    HW166509   5.113   5.657   1.352 -0.2169 -0.0320  1.5676
18285SOL    HW266510   5.265   5.703   1.392  0.2710  0.3000 -0.5726
18286SOL     OW66511   1.055   8.567   1.683 -0.6198  0.0171  0.6660
18286SOL    HW166512   1.037   8.513   1.601  0.0479  0.4783  0.2070
18286SOL    HW266513   1.138   8.622   1.669  0.6142 -1.3748  2.3999
18287SOL     OW66514   5.394   8.370   6.347  0.0693  0.2679  0.2569
18287SOL    HW166515   5.395   8.364   6.247  1.1525  1.1946  0.2019
18287SOL    HW266516   5.488   8.375   6.381 -0.1666 -2.7362  1.5179
18288SOL     OW66517   7.818   6.836   4.301  0.7873 -0.1533 -0.5069
18288SOL    HW166518   7.866   6.917   4.268  1.5992  0.4772  2.1066
18288SOL    HW266519   7.839   6.822   4.398 -1.6195 -1.8462 -0.1878
18289SOL     OW66520   8.516   7.822   7.924 -0.4891 -0.0408 -0.0411
18289SOL    HW166521   8.474   7.826   8.015  1.4656 -0.4704  0.9215
18289SOL    HW266522   8.448   7.842   7.855 -2.6155 -2.1171  1.3575
18290SOL     OW66523   7.163   5.303   7.310 -0.1966 -0.4641 -0.3580
18290SOL    HW166524   7.239   5.361   7.280  0.2358 -0.2990  1.0076
18290SOL    HW266525   7.090   5.360   7.348 -1.0362 -0.6203 -1.6880
18291SOL     OW66526   8.717   6.669   1.363  0.6703 -0.0093  0.3589
18291SOL    HW166527   8.662   6.750   1.385  0.7796  0.2799 -0.3950
18291SOL    HW266528   8.723   6.610   1.443  1.5699  1.2958  1.2646
18292SOL     OW66529   8.186   8.012   6.977  0.4316 -0.5527 -0.0460
18292SOL    HW166530   8.162   7.926   6.932 -0.9957 -0.9279  1.3553
18292SOL    HW266531   8.281   8.035   6.957  0.3522 -1.6132 -1.7562
18293SOL     OW66532   5.827   9.735   1.656  0.4292 -0.3023 -0.2908
18293SOL    HW166533   5.844   9.833   1.665  0.1429  0.1548 -3.9604
18293SOL    HW266534   5.762   9.719   1.582  0.3603 -3.2661  0.3549
18294SOL     OW66535   0.738   8.894   0.779 -0.3037 -0.3739  0.0435
18294SOL    HW166536   0.789   8.816   0.813  1.1168  1.0006  1.1572
18294SOL    HW266537   0.678   8.929   0.851 -2.8477 -1.9429 -1.2317
18295SOL     OW66538   4.663   2.019   6.439  0.4558 -0.0927 -0.5104
18295SOL    HW166539   4.611   1.986   6.360  1.1217  0.6987 -1.2987
18295SOL    HW266540   4.759   1.994   6.428 -0.1505 -3.9754  2.2676
18296SOL     OW66541   0.362   0.009   3.953 -0.0404 -1.0881  0.1749
18296SOL    HW166542   0.356   0.045   4.046 -1.1204 -0.1322 -0.2492
18296SOL    HW266543   0.457  -0.005   3.928  0.2844 -0.6736  1.1630
18297SOL     OW66544   1.642   8.933   6.380 -0.0577  0.0481  0.0599
18297SOL    HW166545   1.551   8.956   6.413 -0.3321 -1.4621  0.3500
18297SOL    HW266546   1.682   9.013   6.335 -0.8554  1.2148  1.3997
18298SOL     OW66547   0.700   0.379   3.619 -0.4935 -0.0192 -0.8120
18298SOL    HW166548   0.615   0.407   3.663 -0.3336  0.7154 -0.9683
18298SOL    HW266549   0.770   0.449   3.634  0.0704 -0.6017 -0.7207
18299SOL     OW66550   0.826   1.728   7.099 -0.5645 -0.1636 -0.1850
18299SOL    HW166551   0.819   1.815   7.049  1.1271 -0.0747 -0.2956
18299SOL    HW266552   0.757   1.725   7.171 -1.7484  0.5451 -1.2830
18300SOL     OW66553   4.982   0.681   7.401 -0.4639 -0.5990 -0.2005
18300SOL    HW166554   4.887   0.650   7.404 -0.1749 -1.4211  0.5670
18300SOL    HW266555   4.990   0.768   7.451 -0.9457 -0.1623 -0.8801
18301SOL     OW66556   7.670   2.843   1.380 -0.1811 -0.3177  0.1039
18301SOL    HW166557   7.727   2.816   1.458  1.3589 -0.6963 -1.1265
18301SOL    HW266558   7.616   2.924   1.405  2.2371  1.1616  0.7290
18302SOL     OW66559   1.069   9.696   0.114 -0.1213 -0.2489 -0.6903
18302SOL    HW166560   1.144   9.660   0.058 -0.5556  1.2008 -2.2295
18302SOL    HW266561   1.098   9.699   0.210  1.5260 -0.4305 -1.1630
18303SOL     OW66562   4.560   1.177   1.039 -0.0135  0.5655 -0.0781
18303SOL    HW166563   4.657   1.194   1.052 -0.0012  0.2214  0.2884
18303SOL    HW266564   4.540   1.171   0.941 -0.0937  3.0957 -0.2454
18304SOL     OW66565   5.978   0.053   6.861 -0.6781 -0.5689 -0.1778
18304SOL    HW166566   5.985   0.119   6.786 -0.6805  0.2061  0.4970
18304SOL    HW266567   5.885   0.054   6.898 -0.0041  0.9780  1.5604
18305SOL     OW66568   9.315   5.281   7.597  0.5846  0.0536  0.2798
18305SOL    HW166569   9.311   5.325   7.507 -1.9502  0.6806  0.6533
18305SOL    HW266570   9.337   5.184   7.586  0.0438  0.0688 -1.0572
18306SOL     OW66571   2.895   8.534   4.948 -0.0282 -0.0206  0.1800
18306SOL    HW166572   2.806   8.532   4.902  1.4858 -0.7218 -2.8847
18306SOL    HW266573   2.913   8.626   4.983 -0.3639  1.1531 -2.5627
18307SOL     OW66574   9.254   6.281   3.707 -0.2520 -0.1461 -0.2720
18307SOL    HW166575   9.268   6.345   3.782 -0.2944  0.9528 -1.1859
18307SOL    HW266576   9.334   6.282   3.647 -0.8936  0.1837 -1.1258
18308SOL     OW66577   4.183   2.909   3.807  0.0996  0.1591 -0.1179
18308SOL    HW166578   4.245   2.980   3.840  0.6297 -0.6010  0.5506
18308SOL    HW266579   4.089   2.941   3.813  0.4274  1.3580 -1.2377
18309SOL     OW66580   9.339   7.640   1.276 -0.1308 -0.2595  0.2791
18309SOL    HW166581   9.273   7.690   1.332 -0.1815  0.2990 -0.2779
18309SOL    HW266582   9.328   7.665   1.180  0.1714 -0.9750  0.0529
18310SOL     OW66583   0.046   7.260   0.476 -0.0268  0.0053  0.3960
18310SOL    HW166584  -0.001   7.324   0.537  0.9353  0.0355  1.1224
18310SOL    HW266585   0.134   7.235   0.516  0.6749  0.1196 -1.0456
18311SOL     OW66586   7.453   0.886   0.013  0.0647 -0.0106  0.3237
18311SOL    HW166587   7.508   0.860   0.092 -0.4361  1.2307  1.0932
18311SOL    HW266588   7.385   0.955   0.040  0.1371  0.7172 -1.2586
18312SOL     OW66589   9.100   2.214   3.925 -0.9171  0.5012 -0.1695
18312SOL    HW166590   9.081   2.132   3.871 -1.4362 -0.9997  2.2154
18312SOL    HW266591   9.199   2.224   3.938 -0.8643  0.1760 -0.3231
18313SOL     OW66592   5.942   1.112   3.663  0.2248 -0.4281  0.8512
18313SOL    HW166593   5.946   1.089   3.761 -0.7666 -0.9591  0.7785
18313SOL    HW266594   5.949   1.028   3.609  0.4646 -0.1665  0.4731
18314SOL     OW66595   7.052   2.082   2.697 -0.0302  0.2671  0.1261
18314SOL    HW166596   7.110   2.051   2.773  0.0117  0.2411  0.0831
18314SOL    HW266597   6.971   2.126   2.735  1.0807  2.2997  0.1760
18315SOL     OW66598   4.136   1.191   4.540  0.4968  0.2017  0.6797
18315SOL    HW166599   4.159   1.179   4.637 -0.7062 -1.7885  0.7492
18315SOL    HW266600   4.207   1.149   4.484  0.0705 -0.6727  0.7733
18316SOL     OW66601   3.465   0.817   7.983 -0.0028 -0.1978 -0.1611
18316SOL    HW166602   3.561   0.837   7.965  0.8710  0.1341  4.1429
18316SOL    HW266603   3.414   0.902   7.994 -0.0656 -0.3376  0.7122
18317SOL     OW66604   7.158   6.422   5.166  0.3415 -0.0005 -0.1994
18317SOL    HW166605   7.254   6.427   5.194  0.6520 -0.2742 -1.1842
18317SOL    HW266606   7.137   6.330   5.134 -0.2955  0.0219  0.1447
18318SOL     OW66607   8.531   8.532   6.566 -0.0660 -0.0275 -0.3268
18318SOL    HW166608   8.449   8.488   6.531 -0.1759 -0.2642  0.2345
18318SOL    HW266609   8.568   8.479   6.642  0.0802  0.5831  0.0292
18319SOL     OW66610   3.991   1.433   7.863 -0.4983 -0.5185  0.5372
18319SOL    HW166611   4.087   1.414   7.844 -0.3958 -1.5161  1.9775
18319SOL    HW266612   3.967   1.523   7.826  0.6567 -0.7737 -0.8889
18320SOL     OW66613   0.565   6.643   7.687 -0.3971  0.4620  0.1380
18320SOL    HW166614   0.511   6.725   7.707  1.8112  2.3045 -1.1710
18320SOL    HW266615   0.520   6.590   7.616 -1.5843  0.8383  0.6020
18321SOL     OW66616   8.582   1.079   3.063 -0.3631  0.0577 -0.0307
18321SOL    HW166617   8.526   1.092   2.981 -0.9459  2.4801  0.7241
18321SOL    HW266618   8.552   1.142   3.135  2.0456  0.0097  1.0636
18322SOL     OW66619   6.053   2.373   3.758  0.4181  0.1858  0.1017
18322SOL    HW166620   5.976   2.349   3.699  0.2018  1.0604  0.0180
18322SOL    HW266621   6.018   2.416   3.841  0.6302 -2.2187  1.4939
18323SOL     OW66622   9.138   9.532   7.206  0.2398 -0.2122 -0.2339
18323SOL    HW166623   9.064   9.520   7.272  0.2133 -0.3667 -0.2924
18323SOL    HW266624   9.204   9.598   7.242 -1.7185  2.6128 -1.7090
18324SOL     OW66625   2.568   5.793   6.180 -0.3854 -0.0675  0.3924
18324SOL    HW166626   2.501   5.867   6.172 -0.2550  0.0418  0.2955
18324SOL    HW266627   2.643   5.823   6.240 -0.4774 -0.2281  0.5857
18325SOL     OW66628   5.470   8.642   4.567 -0.2480  0.1288  0.0929
18325SOL    HW166629   5.484   8.637   4.666 -0.0449  0.3700  0.0782
18325SOL    HW266630   5.375   8.663   4.547 -0.7872 -2.1897  0.1893
18326SOL     OW66631   7.585   5.108   0.230  0.0897  0.1747 -0.2312
18326SOL    HW166632   7.495   5.152   0.235  0.4680  0.9642 -0.3768
18326SOL    HW266633   7.573   5.009   0.226 -0.7031  0.1665  1.8100
18327SOL     OW66634   8.463   1.025   7.393  0.1839  0.5915 -0.1039
18327SOL    HW166635   8.473   1.083   7.473  0.1133 -0.2268  0.5124
18327SOL    HW266636   8.429   0.935   7.422 -1.3005  0.7719 -1.2207
18328SOL     OW66637   1.844   5.185   7.025  0.6340  0.1775 -0.4515
18328SOL    HW166638   1.936   5.145   7.024  0.4830 -0.3987  2.8432
18328SOL    HW266639   1.850   5.282   7.003  2.1871  0.4095  0.9326
18329SOL     OW66640   0.640   6.815   4.634  0.4551 -0.2758  0.8884
18329SOL    HW166641   0.693   6.759   4.572  0.1931 -1.5343  1.7849
18329SOL    HW266642   0.689   6.901   4.652  1.4725 -0.7758  0.5352
18330SOL     OW66643   8.087   1.196   1.571 -0.1121  0.5942 -0.2676
18330SOL    HW166644   8.069   1.231   1.479  1.1912  1.6961 -0.1258
18330SOL    HW266645   8.044   1.107   1.582  0.1403  0.2171 -2.1198
18331SOL     OW66646   9.364   8.591   2.936  0.6516  0.7587  0.3487
18331SOL    HW166647   9.300   8.625   2.866  2.2079  0.1234 -1.4233
18331SOL    HW266648   9.420   8.518   2.896  0.4909 -0.7138  2.7470
18332SOL     OW66649   8.987   4.248   0.356 -0.0972  0.4283 -0.4345
18332SOL    HW166650   9.024   4.324   0.410  0.4156  1.2315 -1.9008
18332SOL    HW266651   9.058   4.211   0.297 -0.4305 -1.0128  0.0437
18333SOL     OW66652   2.729   9.892   7.159  0.2085 -0.0368  0.6051
18333SOL    HW166653   2.701   9.988   7.154 -0.9965 -0.4580 -1.3561
18333SOL    HW266654   2.799   9.875   7.089  0.2679 -0.6297  0.8110
18334SOL     OW66655   8.012   0.274   7.521 -0.3853 -0.1548  0.0596
18334SOL    HW166656   8.032   0.339   7.595 -0.1023  0.3358 -0.4431
18334SOL    HW266657   7.916   0.247   7.526 -0.3526 -0.1715  0.6470
18335SOL     OW66658   5.627   4.933   1.060  0.2215 -0.7743 -0.2074
18335SOL    HW166659   5.612   5.031   1.066 -0.2410 -0.9194  1.1326
18335SOL    HW266660   5.574   4.896   0.983 -1.2461 -0.2958  0.5504
18336SOL     OW66661   0.782   2.497   1.208 -0.1133  0.7680  0.0577
18336SOL    HW166662   0.684   2.481   1.207  0.0663 -0.4825  0.5283
18336SOL    HW266663   0.810   2.548   1.127 -0.5516 -2.6213 -2.2959
18337SOL     OW66664   4.636   0.180   3.128  0.4471  0.0921  0.5348
18337SOL    HW166665   4.571   0.200   3.055  1.2492  1.6908  0.2344
18337SOL    HW266666   4.593   0.197   3.217  0.4571  1.2130  0.3361
18338SOL     OW66667   8.726   3.944   5.320  0.1267 -0.5582  0.1050
18338SOL    HW166668   8.684   3.888   5.249  2.2378 -2.8277  0.5621
18338SOL    HW266669   8.750   4.033   5.282 -0.6775 -0.9853 -1.4561
18339SOL     OW66670   9.378   1.496   1.030  0.7182 -0.5698  0.3037
18339SOL    HW166671   9.445   1.514   0.958  0.3432 -0.1675  0.0545
18339SOL    HW266672   9.423   1.451   1.107  1.2817 -0.2642  0.1514
18340SOL     OW66673   4.431   0.966   1.176 -0.1772 -0.2209  0.0221
18340SOL    HW166674   4.470   1.046   1.130  1.6183 -1.7775 -1.1898
18340SOL    HW266675   4.502   0.920   1.230 -0.9761 -1.5319 -0.0199
18341SOL     OW66676   1.861   6.467   2.546  0.0116  0.2653 -0.6186
18341SOL    HW166677   1.879   6.393   2.610  1.1755  0.3122 -0.8855
18341SOL    HW266678   1.774   6.511   2.569 -1.1506 -1.7602 -1.0009
18342SOL     OW66679   4.319   8.427   1.209  0.1323  0.4791  0.0171
18342SOL    HW166680   4.408   8.446   1.250  0.5940  1.8019 -1.5344
18342SOL    HW266681   4.260   8.507   1.217 -1.4164 -0.8343  2.2215
18343SOL     OW66682   6.109   7.758   3.596 -0.2394 -0.2481 -0.1015
18343SOL    HW166683   6.133   7.717   3.508 -0.2842 -0.6977  0.0916
18343SOL    HW266684   6.084   7.853   3.583  1.2097  0.1126 -0.3720
18344SOL     OW66685   0.109   9.986   2.048 -0.4404 -0.2529 -0.3834
18344SOL    HW166686   0.176  10.027   2.109 -1.7689  1.5425 -0.0922
18344SOL    HW266687   0.045   9.930   2.101 -1.1370  0.6914 -0.2210
18345SOL     OW66688   2.152   9.612   5.049 -0.3841  0.3563 -0.0529
18345SOL    HW166689   2.166   9.645   4.955 -0.3417 -0.6240 -0.4061
18345SOL    HW266690   2.093   9.530   5.046 -1.5659  1.1608  0.9083
18346SOL     OW66691   1.425   9.394   4.134  0.1927  0.2495 -0.0642
18346SOL    HW166692   1.362   9.472   4.129  2.3700  2.0240 -0.2218
18346SOL    HW266693   1.422   9.355   4.226 -1.3928  0.0579 -0.1699
18347SOL     OW66694   2.552   6.256   0.145  0.0315 -0.3746 -0.0888
18347SOL    HW166695   2.543   6.183   0.212 -1.8791  0.5603  0.6879
18347SOL    HW266696   2.590   6.338   0.189 -0.0684 -0.1420 -0.4327
18348SOL     OW66697   7.190   0.093   5.003 -0.7361  0.1363 -0.0260
18348SOL    HW166698   7.125   0.017   5.001  1.3193 -1.6420 -0.7360
18348SOL    HW266699   7.230   0.107   4.912  1.5940 -0.3390  0.8814
18349SOL     OW66700   3.193   8.060   3.075 -0.1654  0.0227  0.3771
18349SOL    HW166701   3.225   8.056   3.170 -1.2546  0.6503  0.7767
18349SOL    HW266702   3.175   7.968   3.042 -0.3674 -0.1546  0.9733
18350SOL     OW66703   9.931   8.465   3.623  0.3306  0.7485  0.5099
18350SOL    HW166704  10.029   8.452   3.608  0.5762  1.0428  1.7911
18350SOL    HW266705   9.913   8.559   3.650 -0.0561  0.2425  2.1019
18351SOL     OW66706   7.975   8.502   2.255 -0.1419 -0.1542 -0.2125
18351SOL    HW166707   7.911   8.485   2.329  1.5096 -1.8231  0.8936
18351SOL    HW266708   8.049   8.561   2.288  0.7698 -1.1659 -0.4138
18352SOL     OW66709   9.871   0.887   6.208  0.0145  0.2136  0.4022
18352SOL    HW166710   9.880   0.893   6.108 -0.1259 -0.3979  0.3512
18352SOL    HW266711   9.912   0.802   6.240  0.5051  0.6470  0.9280
18353SOL     OW66712   1.311   6.527   7.566  0.4756  0.3950  0.2377
18353SOL    HW166713   1.363   6.612   7.568 -0.7581  1.2567 -2.3570
18353SOL    HW266714   1.351   6.464   7.499  0.0342 -0.1596  0.4888
18354SOL     OW66715   3.665   2.065   6.561  0.1589 -0.3492 -0.1278
18354SOL    HW166716   3.743   2.009   6.590  1.0279  1.5120  1.1593
18354SOL    HW266717   3.646   2.046   6.464  0.8556 -2.3592  0.0927
18355SOL     OW66718   0.079   1.895   1.328 -0.8149  0.0572  0.3444
18355SOL    HW166719   0.006   1.829   1.314 -1.5875  1.3110 -1.8529
18355SOL    HW266720   0.071   1.968   1.260 -1.2593  3.5656  3.9808
18356SOL     OW66721   3.708   0.347   3.290  0.1787 -0.0071 -0.2825
18356SOL    HW166722   3.679   0.334   3.195 -2.3145 -0.1588  0.4713
18356SOL    HW266723   3.718   0.444   3.309  0.5159  0.0302 -0.6482
18357SOL     OW66724   1.767   8.496   4.013 -0.9887  0.1740 -0.1747
18357SOL    HW166725   1.762   8.530   3.919  0.9801 -1.1179 -0.7764
18357SOL    HW266726   1.744   8.399   4.015  0.5393 -0.1894  0.4284
18358SOL     OW66727   8.438   8.088   6.927  0.4479  0.1753 -0.7926
18358SOL    HW166728   8.401   8.171   6.885 -0.6309 -1.1275 -2.4521
18358SOL    HW266729   8.503   8.045   6.865  1.1873 -0.1159  0.1703
18359SOL     OW66730   3.740   4.217   7.623 -0.0063 -0.2418  0.1344
18359SOL    HW166731   3.702   4.297   7.576  0.0942 -0.4508 -0.3062
18359SOL    HW266732   3.665   4.157   7.652 -0.0541 -0.2542 -0.0144
18360SOL     OW66733   2.163   1.770   7.637 -0.4636 -0.2059 -0.3256
18360SOL    HW166734   2.074   1.813   7.647 -1.5480 -2.7491  1.5036
18360SOL    HW266735   2.234   1.841   7.631 -2.2891  1.8130  1.2120
18361SOL     OW66736   9.471   0.196   1.078  0.3725 -0.0927 -0.2123
18361SOL    HW166737   9.566   0.185   1.047  0.9595  2.3454  0.5547
18361SOL    HW266738   9.469   0.200   1.178 -0.4438  0.4348 -0.2440
18362SOL     OW66739   2.829   1.911   4.262  0.0880  0.2517  0.6708
18362SOL    HW166740   2.836   1.888   4.165 -1.9291 -2.0275  1.0419
18362SOL    HW266741   2.743   1.960   4.279  0.8324  1.4078  1.1833
18363SOL     OW66742   3.246   2.698   5.811 -0.4308 -0.2717  0.3487
18363SOL    HW166743   3.246   2.663   5.905 -0.8224 -1.6291 -0.1419
18363SOL    HW266744   3.189   2.639   5.753 -0.4627  0.7428 -0.6775
18364SOL     OW66745   5.462   1.300   7.844 -0.3144  0.4047  0.2297
18364SOL    HW166746   5.472   1.373   7.776  0.2352  0.6611  0.5807
18364SOL    HW266747   5.526   1.316   7.919  0.0234 -0.5937  0.1645
18365SOL     OW66748   9.676   4.771   7.913 -0.4525 -0.5157 -0.1468
18365SOL    HW166749   9.746   4.716   7.868 -0.4461 -0.8664  0.2879
18365SOL    HW266750   9.614   4.712   7.965 -1.0116 -0.1988 -0.4433
18366SOL     OW66751   4.629   7.015   0.579 -0.0880  0.0405 -0.0629
18366SOL    HW166752   4.544   7.062   0.602  1.1761  0.4699  4.1592
18366SOL    HW266753   4.705   7.080   0.581  0.7078 -0.8337 -1.2422
18367SOL     OW66754   4.703   8.205   3.738 -0.1707 -0.2999 -0.3441
18367SOL    HW166755   4.763   8.126   3.722  0.0422 -0.2936  0.3948
18367SOL    HW266756   4.713   8.270   3.663  1.6033  0.2288  0.2997
18368SOL     OW66757   2.734   8.069   1.198  0.4145  0.4138  0.3855
18368SOL    HW166758   2.641   8.074   1.163 -0.1536 -1.5061  1.5888
18368SOL    HW266759   2.733   8.072   1.298  1.6037 -0.2288  0.4289
18369SOL     OW66760   9.920   9.423   4.280 -0.8911  0.3296  0.3659
18369SOL    HW166761   9.986   9.481   4.232  0.3193 -1.5565 -0.3177
18369SOL    HW266762   9.905   9.339   4.228 -3.8775  0.7073  0.5178
18370SOL     OW66763   8.805   0.005   7.117 -0.2867  0.3931  0.3207
18370SOL    HW166764   8.718   0.049   7.094 -0.8543 -0.2046  1.2684
18370SOL    HW266765   8.818  -0.075   7.059 -0.7430  0.0351  0.7162
18371SOL     OW66766   3.248   8.183   1.056 -0.8803  0.1972  0.2689
18371SOL    HW166767   3.159   8.139   1.071 -1.3633  0.4613 -1.6827
18371SOL    HW266768   3.317   8.141   1.115 -2.4813  0.6352  2.5310
18372SOL     OW66769   7.717   5.390   6.738  0.2205 -0.3996 -0.5750
18372SOL    HW166770   7.628   5.364   6.776  0.1610 -1.1355 -1.2010
18372SOL    HW266771   7.788   5.375   6.807  0.1063 -1.6910 -0.7223
18373SOL     OW66772   3.841   0.944   0.697  0.1045 -0.6948  0.0066
18373SOL    HW166773   3.938   0.932   0.718 -0.2113  0.7776  2.4194
18373SOL    HW266774   3.831   0.971   0.601  2.3277  2.4428  0.5942
18374SOL     OW66775   7.291   2.552   8.022 -0.1856 -0.3867  0.3150
18374SOL    HW166776   7.225   2.477   8.018  1.2261 -1.6544  0.3721
18374SOL    HW266777   7.350   2.540   8.102  0.9145  0.0426 -0.4126
18375SOL     OW66778   9.101   0.923   5.917  0.1012 -0.7696  0.4525
18375SOL    HW166779   9.051   0.942   6.002  0.1745  0.6279  0.1940
18375SOL    HW266780   9.179   0.864   5.937 -0.4969 -1.3190  1.1853
18376SOL     OW66781   3.874   9.875   7.696  0.7023  0.7618 -0.1993
18376SOL    HW166782   3.834   9.964   7.717  1.0862  1.0153 -0.5461
18376SOL    HW266783   3.928   9.843   7.774  0.5547  0.8216 -0.0713
18377SOL     OW66784   3.787   1.507   3.115  0.1654 -0.1189 -0.2579
18377SOL    HW166785   3.725   1.456   3.056 -0.0557  0.7124 -0.7568
18377SOL    HW266786   3.735   1.551   3.188  0.2628  0.0018 -0.2616
18378SOL     OW66787   2.240   2.729   7.395  0.5917  0.3611 -0.0027
18378SOL    HW166788   2.191   2.669   7.332  0.5952 -1.9196  2.0754
18378SOL    HW266789   2.175   2.771   7.459  1.0361 -0.6370  1.1201
18379SOL     OW66790   4.645   1.542   7.432  0.1004  0.2048 -0.2604
18379SOL    HW166791   4.680   1.631   7.402  3.6531 -1.2882 -0.7732
18379SOL    HW266792   4.676   1.525   7.526 -3.2807  0.8584  1.0325
18380SOL     OW66793   4.954   0.862   5.292  0.5837 -0.3463  0.5766
18380SOL    HW166794   4.940   0.769   5.258 -0.1499  0.2601 -0.8388
18380SOL    HW266795   4.866   0.909   5.299  0.8781  0.0127  1.9731
18381SOL     OW66796   4.708   4.499   5.814 -0.3229 -0.1127 -0.0078
18381SOL    HW166797   4.801   4.469   5.830  0.0513  1.3572  0.7075
18381SOL    HW266798   4.656   4.427   5.768  1.5781 -0.3696 -1.7779
18382SOL     OW66799   3.803   3.512   7.282 -0.3600 -0.2666 -0.5983
18382SOL    HW166800   3.759   3.601   7.268  0.3923  0.4356  1.3854
18382SOL    HW266801   3.830   3.503   7.378 -2.4676 -3.5808 -0.2640
18383SOL     OW66802   8.961   5.552   5.678  0.2428  0.0891 -0.0522
18383SOL    HW166803   9.044   5.504   5.650  0.1089 -0.2338  0.0930
18383SOL    HW266804   8.908   5.578   5.597  0.0459 -0.4958 -0.1171
18384SOL     OW66805   5.694   8.873   4.268 -0.0816  0.4668 -0.2272
18384SOL    HW166806   5.647   8.897   4.352 -0.8478  1.3660 -0.9028
18384SOL    HW266807   5.758   8.798   4.285  1.8326  2.4815  1.7423
18385SOL     OW66808   0.552   5.304   6.403  0.0928 -0.6590 -0.6318
18385SOL    HW166809   0.565   5.225   6.343  0.8455 -1.0954  0.0976
18385SOL    HW266810   0.505   5.275   6.486 -0.7401 -0.1002 -0.9070
18386SOL     OW66811   8.551   0.228   2.136 -0.5537  0.5737  0.1212
18386SOL    HW166812   8.600   0.316   2.141 -1.5799  1.1350  0.5927
18386SOL    HW266813   8.459   0.244   2.100 -0.5663 -0.3957 -0.2816
18387SOL     OW66814   0.990   3.615   2.975 -0.8241 -0.1094 -0.3931
18387SOL    HW166815   1.003   3.714   2.977 -1.1233 -0.0528 -1.0133
18387SOL    HW266816   0.915   3.590   3.036 -0.1057 -0.0623  0.5168
18388SOL     OW66817   3.191   6.299   6.612  0.3708 -0.0371 -0.1390
18388SOL    HW166818   3.224   6.389   6.584 -0.0744  0.2581  0.2853
18388SOL    HW266819   3.239   6.270   6.695  0.5783 -0.2331 -0.3252
18389SOL     OW66820   9.306   0.820   4.516  0.4615  0.5072  0.6419
18389SOL    HW166821   9.397   0.818   4.557  0.5165 -1.3980  0.4502
18389SOL    HW266822   9.302   0.755   4.440 -1.7200 -1.1059  2.0801
18390SOL     OW66823   3.488   8.301   4.551  0.6556 -0.1696  0.0562
18390SOL    HW166824   3.557   8.275   4.619 -0.5360  1.3630  1.8981
18390SOL    HW266825   3.427   8.224   4.534  1.0428 -0.6049  0.6267
18391SOL     OW66826   1.116   9.879   0.343 -0.0529  0.1188  0.0767
18391SOL    HW166827   1.052   9.896   0.418 -0.6608  0.7175 -0.5739
18391SOL    HW266828   1.091   9.935   0.264  0.3892 -0.7521 -0.6911
18392SOL     OW66829   5.882   4.683   7.582 -0.6909 -0.3254  0.2098
18392SOL    HW166830   5.881   4.692   7.482 -1.7454 -0.3717  0.2140
18392SOL    HW266831   5.970   4.646   7.610  0.3136  1.4273 -0.5435
18393SOL     OW66832   2.760   3.840   0.979  0.6390  0.1464  0.1787
18393SOL    HW166833   2.685   3.905   0.992  0.6048  0.3981 -1.1805
18393SOL    HW266834   2.744   3.758   1.033  0.5132  1.1330  1.6579
18394SOL     OW66835   9.940   5.495   3.122  0.1660  0.0222 -0.2565
18394SOL    HW166836   9.940   5.407   3.169  3.0884 -0.1266 -0.4627
18394SOL    HW266837  10.001   5.491   3.043  0.9013  2.4255  0.1295
18395SOL     OW66838   4.277   1.918   4.643  0.4275  0.5850  0.4133
18395SOL    HW166839   4.250   1.978   4.568  1.5814  0.7859  0.1527
18395SOL    HW266840   4.350   1.960   4.696  1.2577 -0.5899  0.2180
18396SOL     OW66841   0.666   3.821   2.761  0.9599  0.1427  0.1647
18396SOL    HW166842   0.667   3.771   2.675 -0.2055 -0.7914  0.6824
18396SOL    HW266843   0.671   3.757   2.838  2.2117  0.9735  0.8048
18397SOL     OW66844   2.879   5.077   2.936 -0.1093  0.1869  0.4918
18397SOL    HW166845   2.861   5.002   3.001  1.5934  0.2025  1.0101
18397SOL    HW266846   2.793   5.124   2.915 -1.0445 -1.2781  0.9441
18398SOL     OW66847   4.527   3.540   7.826  0.1495  1.4764  0.0222
18398SOL    HW166848   4.627   3.545   7.827  0.1003  2.6544 -0.3381
18398SOL    HW266849   4.497   3.481   7.901  1.1667 -0.1697 -0.8405
18399SOL     OW66850   3.321   1.517   3.390 -0.5861  0.4055  0.2765
18399SOL    HW166851   3.246   1.531   3.325 -1.2767  0.6647  1.1142
18399SOL    HW266852   3.286   1.467   3.470  0.3323 -0.2246  0.2829
18400SOL     OW66853   6.868   1.492   7.445  0.0020 -0.6704 -0.3002
18400SOL    HW166854   6.875   1.444   7.357 -2.1061 -0.9521 -0.3376
18400SOL    HW266855   6.861   1.426   7.519  1.3649 -0.4267  0.0577
18401SOL     OW66856   3.615   1.242   5.970  0.6356 -0.2033 -0.0315
18401SOL    HW166857   3.592   1.159   5.920  1.7057  0.7168 -2.1135
18401SOL    HW266858   3.704   1.231   6.015 -0.6677 -1.3014  2.3452
18402SOL     OW66859   5.693   0.191   2.966  0.0462 -0.0642  0.1367
18402SOL    HW166860   5.666   0.179   3.062 -1.0045 -0.7966 -0.2432
18402SOL    HW266861   5.612   0.209   2.911  0.6580  0.4167 -0.6032
18403SOL     OW66862   6.395   9.724   7.217  0.3202  0.1768  0.0357
18403SOL    HW166863   6.331   9.702   7.144 -0.0822 -1.5898  0.8783
18403SOL    HW266864   6.402   9.646   7.280 -0.5629  2.2083  2.7714
18404SOL     OW66865   2.934   9.213   2.870  0.0920  0.0511 -0.2360
18404SOL    HW166866   2.870   9.255   2.934  0.4110 -0.7933  0.6546
18404SOL    HW266867   2.900   9.122   2.844 -0.1312  0.4624 -1.4208
18405SOL     OW66868   3.308   2.101   2.002 -0.5372 -0.3823 -0.3150
18405SOL    HW166869   3.215   2.137   2.017 -1.0901 -2.2376  0.7897
18405SOL    HW266870   3.303   2.016   1.949  0.6447  0.1457 -1.3074
18406SOL     OW66871   3.781   1.263   2.950 -0.0159  0.3823  0.4720
18406SOL    HW166872   3.707   1.221   3.002 -0.4012  1.1624  0.5601
18406SOL    HW266873   3.771   1.242   2.853  1.1683 -1.7766  0.7902
18407SOL     OW66874   5.449   1.792   5.048 -0.4767  0.2642  0.1639
18407SOL    HW166875   5.477   1.763   4.957 -0.4126  0.8672 -0.0132
18407SOL    HW266876   5.368   1.740   5.077  0.4979 -1.1135  0.4582
18408SOL     OW66877   2.744   0.375   0.079 -0.1948  0.2328 -0.1155
18408SOL    HW166878   2.701   0.384  -0.010  0.3081 -1.2735 -0.5246
18408SOL    HW266879   2.831   0.326   0.070  0.0414  0.3865  1.1452
18409SOL     OW66880   8.743   3.001   2.983 -0.3216  0.1224  0.1272
18409SOL    HW166881   8.713   3.082   2.931  1.2307  0.4986 -0.1904
18409SOL    HW266882   8.680   2.987   3.060 -0.0367  2.2450  0.7928
18410SOL     OW66883   9.072   8.642   8.141 -0.4299  0.2302  0.3605
18410SOL    HW166884   8.974   8.637   8.121 -0.7038  1.5443  1.3558
18410SOL    HW266885   9.096   8.734   8.169  0.7849 -0.4822  1.7159
18411SOL     OW66886   4.139   1.555   7.176 -0.3383  0.1551 -0.4784
18411SOL    HW166887   4.205   1.614   7.221  0.2398  0.5311 -1.8175
18411SOL    HW266888   4.104   1.599   7.094 -0.8579 -0.8221 -0.7995
18412SOL     OW66889   5.853   1.372   3.653  0.0004  0.0706 -0.0730
18412SOL    HW166890   5.935   1.430   3.653  0.3014 -0.3550  0.2264
18412SOL    HW266891   5.880   1.276   3.648 -0.4896 -0.0610 -0.1838
18413SOL     OW66892   8.244   3.894   4.625 -0.0965  0.4359 -0.4257
18413SOL    HW166893   8.205   3.936   4.706  0.5471  0.4867 -0.1375
18413SOL    HW266894   8.337   3.928   4.611 -0.1269  0.2660 -1.0613
18414SOL     OW66895   9.282   6.535   0.011 -0.0983 -0.1388  0.0616
18414SOL    HW166896   9.368   6.485   0.015  0.1402  0.1957 -0.6590
18414SOL    HW266897   9.273   6.593   0.092  0.0091 -0.7162  0.4918
18415SOL     OW66898   3.194   5.326   7.856  0.1730  0.0920  0.4770
18415SOL    HW166899   3.261   5.314   7.930  0.0516 -0.1750  0.5469
18415SOL    HW266900   3.111   5.273   7.878  0.3799 -0.4917 -0.1502
18416SOL     OW66901   9.179   5.180   6.051 -0.5018 -0.2073  0.7437
18416SOL    HW166902   9.245   5.247   6.016  0.2589 -1.1463  0.3586
18416SOL    HW266903   9.130   5.219   6.129 -0.2785  0.9072  0.3300
18417SOL     OW66904   8.080   8.638   2.974  0.4756 -0.9890 -0.3909
18417SOL    HW166905   8.041   8.722   2.935  0.6459 -0.0032  1.5015
18417SOL    HW266906   8.174   8.627   2.943  1.6924  1.5017  2.1641
18418SOL     OW66907   3.963   5.762   2.751  0.4485  0.3786 -0.2010
18418SOL    HW166908   3.895   5.699   2.713 -1.0168  1.0345  1.2724
18418SOL    HW266909   3.968   5.750   2.850  0.6457  2.1013  0.0076
18419SOL     OW66910   6.365   9.613   2.118 -0.5487  0.1178  0.5673
18419SOL    HW166911   6.286   9.560   2.150  0.6076  0.2325  3.8616
18419SOL    HW266912   6.369   9.700   2.167  2.2974 -0.4238  1.4310
18420SOL     OW66913   9.208   6.687   4.363  0.0178 -0.4525 -0.1679
18420SOL    HW166914   9.125   6.743   4.353 -0.6958 -1.5868 -0.6919
18420SOL    HW266915   9.257   6.714   4.446  0.5449  2.0709 -1.2367
18421SOL     OW66916   2.682   3.297   3.819 -0.6202 -0.2319 -0.2176
18421SOL    HW166917   2.596   3.342   3.797 -0.9089 -0.6571  0.0285
18421SOL    HW266918   2.664   3.206   3.857 -0.1267  0.2004  1.1220
18422SOL     OW66919   8.119   0.415   1.221  0.4432 -0.0797 -0.0236
18422SOL    HW166920   8.164   0.439   1.135 -0.2550  0.7283 -0.1711
18422SOL    HW266921   8.059   0.336   1.206  0.5144 -0.0996 -0.2127
18423SOL     OW66922   8.502   6.177   4.226 -0.1196 -0.1064  0.5130
18423SOL    HW166923   8.551   6.095   4.256  0.2014  0.3801  1.3288
18423SOL    HW266924   8.409   6.153   4.200  0.4336 -0.9841 -0.7030
18424SOL     OW66925   2.370   4.680   6.691 -0.4757  0.2033  0.2982
18424SOL    HW166926   2.388   4.734   6.608  2.6873 -0.1453  0.6803
18424SOL    HW266927   2.350   4.741   6.767 -1.8848  0.5991 -0.3875
18425SOL     OW66928   9.292   2.613   7.562 -0.1950 -0.3232  0.1064
18425SOL    HW166929   9.216   2.650   7.615 -0.3357 -2.2324  1.2641
18425SOL    HW266930   9.350   2.556   7.620 -0.3350 -2.4328 -1.7151
18426SOL     OW66931   1.454   6.080   4.918 -0.2054  0.2100  0.3137
18426SOL    HW166932   1.548   6.049   4.932 -0.7192 -1.1145  0.9744
18426SOL    HW266933   1.449   6.139   4.838  1.0501 -0.3490 -0.1791
18427SOL     OW66934   1.899   9.747   7.243  0.0994  0.2658 -0.2304
18427SOL    HW166935   1.852   9.691   7.176 -0.7601  1.1002 -0.3383
18427SOL    HW266936   1.859   9.733   7.334  0.0051  0.5629 -0.2251
18428SOL     OW66937   1.569   9.472   2.191  0.2099  0.4008  0.0091
18428SOL    HW166938   1.651   9.509   2.233  0.4210  0.2654 -0.2813
18428SOL    HW266939   1.561   9.375   2.214  1.0283 -0.0032 -1.3252
18429SOL     OW66940   0.997   6.492   2.603  0.1559 -0.0109  0.4174
18429SOL    HW166941   0.928   6.422   2.580  0.1478 -0.5447  2.0089
18429SOL    HW266942   1.070   6.450   2.657  1.1459  0.8149 -0.2615
18430SOL     OW66943   6.774   1.598   0.484 -0.1457 -0.0779 -0.6581
18430SOL    HW166944   6.689   1.647   0.502  0.6965  1.1265  0.1039
18430SOL    HW266945   6.833   1.602   0.564  0.2078 -1.8102 -0.8115
18431SOL     OW66946   4.517   9.660   1.922  0.3933  0.2151 -0.0890
18431SOL    HW166947   4.553   9.593   1.987  2.1869  0.4482 -0.8177
18431SOL    HW266948   4.475   9.613   1.845  1.1701 -0.0711 -0.3397
18432SOL     OW66949   3.300   1.036   1.890 -0.1645  0.3342  0.1074
18432SOL    HW166950   3.279   1.111   1.827 -0.9802 -0.3539 -0.4652
18432SOL    HW266951   3.241   0.958   1.868  1.5993 -0.9434 -0.1826
18433SOL     OW66952   1.848   9.594   7.848 -0.6143 -0.0880  0.4780
18433SOL    HW166953   1.875   9.549   7.763 -1.6583  0.2336 -0.0361
18433SOL    HW266954   1.757   9.564   7.874 -0.5539  0.2985  1.1487
18434SOL     OW66955   4.914   9.484   7.637 -0.6210 -0.7978  0.6383
18434SOL    HW166956   4.889   9.562   7.694  0.6059  0.5886 -0.6913
18434SOL    HW266957   4.869   9.491   7.548 -0.2210 -1.4176  0.3792
18435SOL     OW66958   1.131   9.662   1.928 -0.2730  0.2802  0.0084
18435SOL    HW166959   1.149   9.737   1.865  1.3319 -0.6662 -0.6929
18435SOL    HW266960   1.211   9.648   1.987 -1.3438  0.4421  1.5134
18436SOL     OW66961   6.153   4.767   2.123 -0.3890  0.4970  0.2558
18436SOL    HW166962   6.180   4.862   2.109 -0.4365  0.1833 -2.1596
18436SOL    HW266963   6.231   4.715   2.156  0.8774  0.4970 -2.5708
18437SOL     OW66964   7.797   6.080   1.713 -0.2348 -0.0081  0.0971
18437SOL    HW166965   7.734   6.146   1.754 -0.4492 -0.4003  0.4082
18437SOL    HW266966   7.818   6.107   1.619 -1.1311 -0.0552 -0.1209
18438SOL     OW66967   0.017   4.263   1.541 -0.4841  0.9224 -0.6718
18438SOL    HW166968   0.080   4.322   1.592  0.7658 -0.1311 -0.9673
18438SOL    HW266969  -0.075   4.301   1.545 -0.1190  1.6627  1.0781
18439SOL     OW66970   9.265   6.830   2.996 -0.1918  0.4624 -0.9402
18439SOL    HW166971   9.273   6.928   2.981 -1.5066  0.3436 -2.5036
18439SOL    HW266972   9.312   6.781   2.923 -0.8801 -0.0873 -1.0222
18440SOL     OW66973   1.501   2.012   3.257 -0.6337 -0.2791  0.1619
18440SOL    HW166974   1.485   2.041   3.351  1.0985  0.8134  0.1334
18440SOL    HW266975   1.539   2.088   3.204  2.5387 -2.0912 -0.2927
18441SOL     OW66976   1.845   2.556   5.339 -0.2877 -0.1387 -0.2268
18441SOL    HW166977   1.895   2.478   5.377 -1.1530 -0.4697  0.2590
18441SOL    HW266978   1.776   2.523   5.275 -0.6666  0.2263 -0.0105
18442SOL     OW66979   0.222   9.101   2.299  0.0386 -0.1687  0.0060
18442SOL    HW166980   0.202   9.110   2.201 -1.2426 -2.0153  0.0620
18442SOL    HW266981   0.263   9.011   2.316  1.1241  0.5161  1.0313
18443SOL     OW66982   3.059   3.447   7.844 -0.4712  0.2738 -0.1305
18443SOL    HW166983   3.120   3.370   7.828 -1.6083 -1.0481  1.7606
18443SOL    HW266984   2.974   3.415   7.885 -0.8388  2.5669  0.9710
18444SOL     OW66985   4.817   2.181   1.307  0.1256 -0.2830  0.1729
18444SOL    HW166986   4.845   2.131   1.226  0.7877  0.2233  0.0775
18444SOL    HW266987   4.722   2.210   1.298  0.1991 -0.2235 -0.4282
18445SOL     OW66988   6.841   8.795   6.852  0.2635 -0.3179 -0.4048
18445SOL    HW166989   6.769   8.739   6.893  0.5886  0.0982  0.7642
18445SOL    HW266990   6.930   8.765   6.888  0.6331 -0.5443 -1.5084
18446SOL     OW66991   3.574   2.441   5.504 -0.5453 -0.2662 -0.1163
18446SOL    HW166992   3.585   2.532   5.546 -1.3974 -1.0637  1.8860
18446SOL    HW266993   3.652   2.384   5.529 -1.8885 -1.2892  1.9025
18447SOL     OW66994   8.266   3.179   4.499  0.8809  0.7076 -0.1433
18447SOL    HW166995   8.209   3.106   4.537  0.1607  1.4101  0.1196
18447SOL    HW266996   8.340   3.138   4.445  0.4641 -0.2198 -0.0223
18448SOL     OW66997   7.801   6.195   6.616 -0.3349  0.2987  0.0546
18448SOL    HW166998   7.706   6.219   6.596 -0.1187 -0.0796 -1.4646
18448SOL    HW266999   7.808   6.096   6.631 -0.0730  0.2384 -0.4683
18449SOL     OW67000   3.349   2.868   3.264  0.1648  0.1559 -0.1608
18449SOL    HW167001   3.386   2.838   3.352  2.6798  0.6737 -1.0093
18449SOL    HW267002   3.312   2.961   3.274 -2.0115 -0.7857  0.9557
18450SOL     OW67003   4.359   2.853   1.953  0.1160  0.0574  0.5594
18450SOL    HW167004   4.371   2.841   2.052  0.9858  1.7232  0.6666
18450SOL    HW267005   4.298   2.930   1.936  2.8396  2.0737 -0.2476
18451SOL     OW67006   7.581   2.016   5.322  0.1637  0.0740  0.2108
18451SOL    HW167007   7.605   2.077   5.397 -0.9285  1.9372 -0.9167
18451SOL    HW267008   7.513   1.949   5.353  0.6823  0.0148  1.2152
18452SOL     OW67009   4.379   9.023   6.046 -0.0959  0.4957  0.0565
18452SOL    HW167010   4.403   9.114   6.080  2.1463  0.0329 -0.2112
18452SOL    HW267011   4.397   9.019   5.948 -2.0837  0.3639 -0.3224
18453SOL     OW67012   3.222   9.050   0.146  0.5947 -0.2250  0.0434
18453SOL    HW167013   3.189   9.144   0.133 -2.4378 -1.1956  0.2864
18453SOL    HW267014   3.144   8.989   0.156  2.5190 -2.8614 -0.5232
18454SOL     OW67015   6.602   9.910   1.356  0.5759  0.5053  0.1609
18454SOL    HW167016   6.675   9.944   1.415  2.3029 -0.9465 -1.0994
18454SOL    HW267017   6.641   9.871   1.273 -1.6770  0.1732 -0.7865
18455SOL     OW67018   9.616   1.556   0.854 -0.0888 -0.1765 -0.0069
18455SOL    HW167019   9.643   1.652   0.857 -1.2260  0.1181  0.9750
18455SOL    HW267020   9.694   1.501   0.826  0.9496  0.8848  0.7561
18456SOL     OW67021   1.690   1.768   5.484 -0.3047 -0.1996 -0.2172
18456SOL    HW167022   1.689   1.796   5.580 -2.5857  0.3495 -0.3825
18456SOL    HW267023   1.766   1.705   5.469  0.0116 -0.3866  1.9721
18457SOL     OW67024   1.086   7.561   0.050 -0.0947 -0.1195  0.7660
18457SOL    HW167025   1.145   7.480   0.042 -0.4675 -0.3310  0.1300
18457SOL    HW267026   1.024   7.550   0.127  0.1013 -0.2774  0.9021
18458SOL     OW67027   2.548   2.376   5.690 -0.0404  0.6964  0.1742
18458SOL    HW167028   2.474   2.350   5.627 -0.1493 -0.0343  0.6007
18458SOL    HW267029   2.611   2.300   5.701 -0.6350  0.4107  1.8162
18459SOL     OW67030   1.529   0.311   5.850 -0.2531 -0.0021 -0.2651
18459SOL    HW167031   1.623   0.280   5.868 -0.4474 -0.5926 -0.2498
18459SOL    HW267032   1.527   0.364   5.765 -0.0567 -0.7347 -0.7307
18460SOL     OW67033   3.659   9.042   5.070  0.0588  0.1731  0.1027
18460SOL    HW167034   3.678   9.024   4.973 -0.8599  1.1066 -0.2555
18460SOL    HW267035   3.573   9.092   5.078 -2.0277 -3.5528  1.6792
18461SOL     OW67036   0.630   7.488   6.295 -0.2418 -0.9743  0.3368
18461SOL    HW167037   0.553   7.430   6.270 -0.0658 -1.6633  1.3463
18461SOL    HW267038   0.716   7.437   6.285  0.1475 -0.0398 -1.3154
18462SOL     OW67039   0.624   0.200   2.482 -0.3731 -0.0058 -0.5144
18462SOL    HW167040   0.678   0.123   2.447  0.4999  0.5693 -0.4420
18462SOL    HW267041   0.666   0.286   2.454 -0.8614  0.4499  0.1354
18463SOL     OW67042   2.036   0.125   4.120 -0.0829 -0.4871  0.1464
18463SOL    HW167043   2.090   0.208   4.134 -2.4365  0.8486  1.6816
18463SOL    HW267044   1.999   0.125   4.027 -1.8802  1.3427  0.8190
18464SOL     OW67045   9.075   3.973   3.888 -0.3358  0.2766  0.3065
18464SOL    HW167046   9.060   3.964   3.790 -1.1188 -1.6650  0.5945
18464SOL    HW267047   8.989   3.961   3.936  0.3902 -0.8552  1.3535
18465SOL     OW67048   8.333   0.073   8.190 -0.3638 -0.1389  0.0931
18465SOL    HW167049   8.326  -0.023   8.160 -0.1764 -0.2300  0.3503
18465SOL    HW267050   8.386   0.125   8.123 -0.0541 -0.3181  0.1987
18466SOL     OW67051   3.546   4.676   1.671 -0.7021  0.1537 -0.5469
18466SOL    HW167052   3.590   4.700   1.585  0.0149 -0.4835 -0.3653
18466SOL    HW267053   3.615   4.645   1.736 -1.1683  1.0983  0.4250
18467SOL     OW67054   7.968   4.403   7.371  0.4171  0.3824 -0.2795
18467SOL    HW167055   8.056   4.403   7.419  1.3301  1.4705 -1.9136
18467SOL    HW267056   7.978   4.449   7.283 -1.2698 -1.4443 -1.4627
18468SOL     OW67057   0.805   0.890   1.728 -0.0170 -0.4639  0.6476
18468SOL    HW167058   0.842   0.851   1.644 -1.0747 -0.7844  0.3256
18468SOL    HW267059   0.793   0.989   1.717 -0.5141 -0.5625  0.2827
18469SOL     OW67060   2.244   2.623   6.471 -0.3953 -0.2328  0.0106
18469SOL    HW167061   2.322   2.612   6.410 -0.1490  1.5114 -0.0268
18469SOL    HW267062   2.275   2.614   6.566 -0.4214 -0.9810 -0.0490
18470SOL     OW67063   2.587   4.983   1.818  0.6086  0.1667  0.2650
18470SOL    HW167064   2.648   4.929   1.761  1.5874  0.3669  1.1125
18470SOL    HW267065   2.497   4.990   1.774  1.0627 -0.4939 -0.7723
18471SOL     OW67066   4.463   5.848   2.783  0.0775  0.7114 -0.0879
18471SOL    HW167067   4.478   5.751   2.763 -0.0129  0.1078  2.5906
18471SOL    HW267068   4.376   5.877   2.744 -0.3691 -0.5428 -0.0429
18472SOL     OW67069   2.790   5.180   4.069  0.4541 -0.1743 -0.0307
18472SOL    HW167070   2.835   5.091   4.080  1.3691  0.1069 -1.3840
18472SOL    HW267071   2.772   5.219   4.159  0.3672 -1.5614  0.5742
18473SOL     OW67072   8.932   6.704   6.480 -0.1361  0.0135 -0.6758
18473SOL    HW167073   8.928   6.623   6.539 -1.5637 -0.1469 -0.9720
18473SOL    HW267074   8.946   6.675   6.385 -0.1869  0.1305 -0.7185
18474SOL     OW67075   0.735   4.900   7.671  0.0102 -0.4067  0.6852
18474SOL    HW167076   0.804   4.938   7.611 -0.3884 -0.8378 -0.0580
18474SOL    HW267077   0.709   4.967   7.740 -1.1717  0.9120 -1.0080
18475SOL     OW67078   2.446   0.902   1.999  0.1387 -0.2940  0.8931
18475SOL    HW167079   2.521   0.961   1.971 -1.7085  2.4083  1.4574
18475SOL    HW267080   2.481   0.810   2.017  3.0943  0.6165  0.0805
18476SOL     OW67081   2.628   2.199   5.452  0.1293 -0.2009  0.0483
18476SOL    HW167082   2.560   2.261   5.412  0.4735 -0.1298 -0.4207
18476SOL    HW267083   2.708   2.194   5.394 -0.5025 -2.2604 -0.7093
18477SOL     OW67084   0.546   2.666   2.519 -0.2588  0.4467  0.0932
18477SOL    HW167085   0.479   2.735   2.547  0.5769  1.6838 -0.8993
18477SOL    HW267086   0.537   2.649   2.421 -1.7901 -2.3432  0.6792
18478SOL     OW67087   4.650   9.616   5.696 -0.1286 -0.5299 -0.3975
18478SOL    HW167088   4.630   9.548   5.626  1.2433  0.1119 -1.4218
18478SOL    HW267089   4.726   9.585   5.753 -0.8442 -0.7730  0.4452
18479SOL     OW67090   0.056   8.035   2.714 -0.0997  0.3772 -0.0050
18479SOL    HW167091   0.117   8.027   2.636 -0.0775  2.0289 -0.1616
18479SOL    HW267092   0.028   7.943   2.744  1.0416 -0.3135 -1.0243
18480SOL     OW67093   6.042   3.047   0.210  0.3775  0.1640  0.0191
18480SOL    HW167094   6.034   3.043   0.310 -1.5407 -1.2994 -0.1668
18480SOL    HW267095   6.139   3.051   0.184  1.0552 -2.8645  1.8340
18481SOL     OW67096   9.805   5.913   7.329 -0.2854  0.0181 -0.4790
18481SOL    HW167097   9.857   5.897   7.413 -1.1992  1.7080  0.4262
18481SOL    HW267098   9.743   5.836   7.314  1.1375 -1.1400 -0.5825
18482SOL     OW67099   2.639   4.245   4.345 -0.2215 -0.1324 -0.3756
18482SOL    HW167100   2.628   4.222   4.248 -1.3846 -0.5669 -0.1527
18482SOL    HW267101   2.597   4.173   4.401  2.9091 -1.3453  0.5384
18483SOL     OW67102   8.238   0.462   5.312  0.4630  0.0146  0.3238
18483SOL    HW167103   8.242   0.398   5.235 -0.6011 -0.4261  0.6361
18483SOL    HW267104   8.294   0.542   5.291 -0.0360  0.0224 -1.0303
18484SOL     OW67105   4.544   4.706   5.329 -0.7135 -0.8842  0.4343
18484SOL    HW167106   4.535   4.659   5.241 -0.6249  0.1396 -0.1309
18484SOL    HW267107   4.631   4.681   5.372  0.6950  1.0181 -1.2349
18485SOL     OW67108   8.403   3.297   0.291 -0.1555 -0.1976  0.1258
18485SOL    HW167109   8.487   3.315   0.239 -0.3213 -1.2596 -0.5242
18485SOL    HW267110   8.326   3.343   0.246  0.1586  1.2116  1.0158
18486SOL     OW67111   2.831   9.567   7.422  0.2402  0.3502  0.2634
18486SOL    HW167112   2.827   9.591   7.519 -0.1875  0.3993  0.2310
18486SOL    HW267113   2.820   9.468   7.411 -2.2212  0.6117  0.0862
18487SOL     OW67114   6.521   8.612   3.778  0.7067  0.1424 -0.2144
18487SOL    HW167115   6.544   8.618   3.876  1.0781  0.8487 -0.3371
18487SOL    HW267116   6.538   8.701   3.735 -1.4417  0.4205 -0.5102
18488SOL     OW67117   1.426   9.683   0.652 -0.1282 -0.7267  0.2141
18488SOL    HW167118   1.401   9.691   0.749  1.2164  0.0797  0.5027
18488SOL    HW267119   1.487   9.605   0.640  0.3918 -0.3099  0.1521
18489SOL     OW67120   2.573   3.623   8.132 -0.0663  0.0520  0.0218
18489SOL    HW167121   2.637   3.588   8.064  0.6786  0.0914  0.6955
18489SOL    HW267122   2.608   3.709   8.170  0.3500 -0.8280  1.6584
18490SOL     OW67123   5.901   9.176   4.215  0.4728 -0.1226 -0.3822
18490SOL    HW167124   5.848   9.249   4.257 -1.0926 -1.3618 -0.1706
18490SOL    HW267125   5.853   9.142   4.134  0.5254 -1.8374  0.2896
18491SOL     OW67126   3.761   4.236   5.840 -0.0989 -0.3523  0.2400
18491SOL    HW167127   3.806   4.325   5.826  2.0431 -1.2804  0.9892
18491SOL    HW267128   3.774   4.207   5.935 -0.7778 -1.4842 -0.0044
18492SOL     OW67129   9.852   6.456   4.079 -0.5681  0.4268  0.4910
18492SOL    HW167130   9.779   6.389   4.092 -0.5535  0.6205  1.6637
18492SOL    HW267131   9.895   6.442   3.990 -2.1905  0.4665 -0.3217
18493SOL     OW67132   5.153   8.774   2.190 -0.1345  0.3463 -0.0047
18493SOL    HW167133   5.075   8.733   2.144  1.2922 -0.6533 -1.5611
18493SOL    HW267134   5.235   8.763   2.134  1.4493 -0.0383  2.3287
18494SOL     OW67135   1.881   8.202   7.228  0.1938 -0.1934 -0.2573
18494SOL    HW167136   1.801   8.258   7.206  0.2967  1.0021  2.2793
18494SOL    HW267137   1.856   8.105   7.223 -1.2371  0.1597 -0.0819
18495SOL     OW67138   9.755   1.572   3.350  0.1625 -0.3097 -0.0778
18495SOL    HW167139   9.667   1.531   3.373  0.2555 -0.6421 -0.3142
18495SOL    HW267140   9.753   1.602   3.254 -1.4572  4.1812  1.2121
18496SOL     OW67141   0.564   4.904   4.999  0.2019 -0.1911  0.0892
18496SOL    HW167142   0.567   4.816   5.047  0.3504 -0.3273 -0.1680
18496SOL    HW267143   0.490   4.960   5.037  0.1470 -0.4020  0.2966
18497SOL     OW67144   0.670   3.663   2.976  0.3448  0.4896  0.4936
18497SOL    HW167145   0.712   3.596   2.915 -0.2557  0.8071 -0.2882
18497SOL    HW267146   0.613   3.617   3.043 -0.6049  0.2396 -0.4655
18498SOL     OW67147   4.083   7.581   5.664 -0.0034  0.6929  0.0977
18498SOL    HW167148   4.148   7.506   5.676 -1.9921 -1.1860 -0.6127
18498SOL    HW267149   4.068   7.598   5.567 -2.4529 -0.6106  0.2081
18499SOL     OW67150   0.006   0.320   1.773 -0.4461 -0.2508 -0.5894
18499SOL    HW167151  -0.025   0.244   1.830 -0.0612 -0.3749 -0.5463
18499SOL    HW267152  -0.065   0.341   1.706 -0.4573 -0.8084 -0.7600
18500SOL     OW67153   3.452   2.391   7.532  0.3661 -0.1353  0.0504
18500SOL    HW167154   3.477   2.453   7.606 -2.2782  0.5641  0.4009
18500SOL    HW267155   3.487   2.426   7.445  1.7592  0.0874  0.6990
18501SOL     OW67156   3.842   2.541   1.707  0.1743 -0.3204  0.9670
18501SOL    HW167157   3.873   2.566   1.615 -1.2792 -0.8914  0.2926
18501SOL    HW267158   3.884   2.455   1.735  0.4518 -0.2577  0.7364
18502SOL     OW67159   9.673   4.077   4.547 -0.3774 -0.6679 -0.3492
18502SOL    HW167160   9.635   4.071   4.639 -0.3207 -0.2443 -0.2950
18502SOL    HW267161   9.673   3.987   4.505  0.8633 -1.1169  0.5721
18503SOL     OW67162   0.890   1.798   5.706 -0.3890 -0.4097 -0.0689
18503SOL    HW167163   0.892   1.699   5.715  1.0650 -0.1236  3.3574
18503SOL    HW267164   0.797   1.831   5.724 -0.2568 -0.9410  1.6409
18504SOL     OW67165   3.723   1.698   3.921  0.0459 -0.5216 -0.0436
18504SOL    HW167166   3.703   1.600   3.928 -1.5916 -0.3686 -2.1261
18504SOL    HW267167   3.778   1.716   3.840 -0.9384  0.4581 -0.5038
18505SOL     OW67168   1.537   0.902   7.054 -0.5777 -0.5623  0.3063
18505SOL    HW167169   1.482   0.899   6.970  1.1654 -0.6928 -0.8517
18505SOL    HW267170   1.584   0.814   7.066 -0.8805 -0.5763  1.4839
18506SOL     OW67171   2.155   0.503   2.710  0.3243 -0.6305 -0.5473
18506SOL    HW167172   2.147   0.602   2.715 -0.6287 -0.7126 -0.2804
18506SOL    HW267173   2.248   0.478   2.682  0.8510  0.3060  0.3192
18507SOL     OW67174   2.567   7.779   7.432 -0.4125 -0.1809  0.5609
18507SOL    HW167175   2.650   7.834   7.429  0.2044 -1.1251  0.0650
18507SOL    HW267176   2.558   7.726   7.347 -0.3264 -1.8048  1.5468
18508SOL     OW67177   8.114   2.812   2.643 -0.2036  0.2358 -0.7127
18508SOL    HW167178   8.125   2.903   2.604  1.3877 -0.3024 -1.5690
18508SOL    HW267179   8.201   2.762   2.636 -1.1625 -1.4803 -0.5937
18509SOL     OW67180   0.165   3.283   1.619 -0.1179  0.1946 -0.3520
18509SOL    HW167181   0.137   3.379   1.630  2.1706  0.7447  0.8721
18509SOL    HW267182   0.197   3.268   1.526  0.1439  0.7834 -0.3573
18510SOL     OW67183   2.670   8.191   0.019 -0.1458 -0.3488 -0.3995
18510SOL    HW167184   2.752   8.233  -0.018 -0.1950  0.6150  0.5605
18510SOL    HW267185   2.687   8.160   0.113 -1.0411  0.3699  0.0088
18511SOL     OW67186   4.762   9.779   4.016  0.0104 -0.2653  0.0374
18511SOL    HW167187   4.766   9.773   4.116 -1.1683  0.0722  0.1113
18511SOL    HW267188   4.833   9.721   3.976  0.5245 -0.3555  1.0714
18512SOL     OW67189   3.955   1.682   2.614 -0.4597 -0.1288 -0.3536
18512SOL    HW167190   4.035   1.732   2.582 -0.4702  0.7519  0.9469
18512SOL    HW267191   3.983   1.596   2.656 -0.2555 -0.1077 -0.4485
18513SOL     OW67192   7.679   3.686   4.433 -0.1490 -0.5031 -0.0710
18513SOL    HW167193   7.701   3.593   4.464 -1.4835 -0.4119  1.1465
18513SOL    HW267194   7.711   3.752   4.500 -0.0408 -0.1251 -0.4951
18514SOL     OW67195   2.797   6.897   3.108  0.1387 -0.4698  0.4477
18514SOL    HW167196   2.875   6.860   3.159 -0.0947 -0.8182  0.5537
18514SOL    HW267197   2.810   6.878   3.011 -1.1256 -2.9461  0.7391
18515SOL     OW67198   3.246   1.792   2.819 -0.1689  0.3864  0.0000
18515SOL    HW167199   3.170   1.767   2.758 -0.1584  1.9654 -0.6927
18515SOL    HW267200   3.304   1.859   2.773  0.8664  0.2237  1.0656
18516SOL     OW67201   0.926   5.775   2.418  0.4008 -0.2404 -0.1492
18516SOL    HW167202   0.851   5.779   2.352  0.6379  4.3555 -0.3294
18516SOL    HW267203   1.008   5.737   2.374  0.0440  1.0524 -2.0087
18517SOL     OW67204   9.770   6.985   4.769  0.0997  0.5442  0.1815
18517SOL    HW167205   9.870   6.972   4.766  0.4753  3.0374  0.8377
18517SOL    HW267206   9.735   6.989   4.676  0.5357 -0.7477 -0.0575
18518SOL     OW67207   9.417   4.566   0.883 -0.0311 -0.2739  0.2843
18518SOL    HW167208   9.318   4.560   0.901 -0.1827 -0.3906 -0.5715
18518SOL    HW267209   9.464   4.590   0.968 -0.9920  1.6162  0.3347
18519SOL     OW67210   1.191   7.166   4.603 -0.1792 -0.5514  0.2781
18519SOL    HW167211   1.100   7.208   4.598  0.2023  0.3326  0.6846
18519SOL    HW267212   1.181   7.066   4.605 -1.2202 -0.4452  1.6303
18520SOL     OW67213   2.253   3.883   1.101  0.6576 -0.2084  0.0164
18520SOL    HW167214   2.268   3.793   1.058  3.8566 -0.2544  1.1011
18520SOL    HW267215   2.229   3.870   1.197  0.0020  0.0850 -0.1047
18521SOL     OW67216   0.456   7.001   1.693  0.2162  0.0195  0.4795
18521SOL    HW167217   0.496   6.909   1.702  1.2183  0.2958 -0.9620
18521SOL    HW267218   0.528   7.065   1.665 -1.1271  0.6657 -1.5042
18522SOL     OW67219   2.863   0.365   7.828  0.1452  0.6944  0.5700
18522SOL    HW167220   2.949   0.411   7.806  0.4531 -0.1825 -0.1034
18522SOL    HW267221   2.790   0.433   7.840  1.0367  1.4759  1.6872
18523SOL     OW67222   5.588   8.739   3.954  0.3951 -0.3803  0.6481
18523SOL    HW167223   5.580   8.784   3.866 -0.6248 -0.8100  0.5128
18523SOL    HW267224   5.583   8.640   3.941  1.0475 -0.4773  1.1059
18524SOL     OW67225   1.574   5.652   3.574 -0.0485  0.6819  0.5289
18524SOL    HW167226   1.481   5.623   3.554  0.0814  0.4866  0.2177
18524SOL    HW267227   1.598   5.730   3.516 -0.2129  1.0835  0.9964
18525SOL     OW67228   9.156   3.765   7.070 -0.6903 -0.2051  0.2937
18525SOL    HW167229   9.149   3.751   6.972  1.4841  3.2607 -0.4471
18525SOL    HW267230   9.251   3.749   7.099 -1.3484 -1.3787  1.9075
18526SOL     OW67231   0.111   9.477   1.245  0.3648 -0.5587  0.2307
18526SOL    HW167232   0.104   9.400   1.308  1.1748 -0.1953  0.7800
18526SOL    HW267233   0.128   9.561   1.296 -0.9925  0.0731 -0.3285
18527SOL     OW67234   3.695   2.284   7.174  0.3664  0.1189  0.6647
18527SOL    HW167235   3.663   2.369   7.216  0.6262  1.1694 -1.2366
18527SOL    HW267236   3.650   2.206   7.218 -0.4672  1.2619  1.8764
18528SOL     OW67237   9.393   6.612   2.858  0.0656 -0.4756 -0.4835
18528SOL    HW167238   9.434   6.617   2.766  0.2324 -0.1898 -0.3969
18528SOL    HW267239   9.428   6.531   2.906  2.3459  0.9986  0.4397
18529SOL     OW67240   8.676   3.758   5.505 -0.0985 -0.3912  0.0857
18529SOL    HW167241   8.713   3.829   5.445  0.3362 -0.4286  0.3085
18529SOL    HW267242   8.705   3.668   5.473 -1.2988 -0.5227 -0.6505
18530SOL     OW67243   3.425   5.671   2.722  0.0779  0.1486 -0.2947
18530SOL    HW167244   3.370   5.641   2.799 -0.2366  0.5324 -0.3665
18530SOL    HW267245   3.365   5.709   2.651  0.6505  3.7536  1.0541
18531SOL     OW67246   9.975   6.295   1.132 -0.2560 -0.8810  0.1013
18531SOL    HW167247  10.064   6.310   1.176 -0.9426  0.7906  0.9646
18531SOL    HW267248   9.907   6.273   1.202 -1.1736  0.9517 -0.1820
18532SOL     OW67249   6.694   4.153   7.883  0.0099  0.2430 -0.5525
18532SOL    HW167250   6.720   4.076   7.941 -2.3810  1.3306  2.1185
18532SOL    HW267251   6.641   4.120   7.806 -0.5516 -0.8629  0.2918
18533SOL     OW67252   4.771   8.859   6.165  0.2545 -0.8418 -0.3227
18533SOL    HW167253   4.736   8.904   6.247 -0.7455 -2.1140 -0.0397
18533SOL    HW267254   4.694   8.826   6.110  0.9647 -1.8664 -0.7065
18534SOL     OW67255   0.021   9.360   0.069 -0.1071 -0.7661 -0.2099
18534SOL    HW167256   0.078   9.318   0.139 -0.4830 -0.4443  0.2920
18534SOL    HW267257   0.058   9.339  -0.022  0.3425 -1.2330  0.0813
18535SOL     OW67258   9.538   7.253   3.393  0.1544  0.2983  0.1280
18535SOL    HW167259   9.509   7.241   3.488 -0.4285  1.3757  0.0879
18535SOL    HW267260   9.632   7.286   3.390  0.7005 -1.2073  0.2964
18536SOL     OW67261   9.305   7.313   5.482  0.1455 -0.1476 -0.1228
18536SOL    HW167262   9.282   7.217   5.493  0.9695 -0.3904 -0.4891
18536SOL    HW267263   9.349   7.328   5.394 -0.7907  0.7274 -0.4617
18537SOL     OW67264   6.478   0.049   3.310 -0.1043 -0.3440 -0.1507
18537SOL    HW167265   6.475  -0.005   3.395  0.5563  1.3224  0.9590
18537SOL    HW267266   6.407   0.120   3.314 -0.9909 -1.1411 -1.6150
18538SOL     OW67267   7.273   6.062   6.124  0.3204  0.2625 -0.1964
18538SOL    HW167268   7.327   6.128   6.071 -2.2930  2.0553 -0.7218
18538SOL    HW267269   7.257   6.098   6.215  0.1274 -0.3257  0.0020
18539SOL     OW67270   9.425   2.453   0.491  0.5360 -0.4127  0.1586
18539SOL    HW167271   9.386   2.372   0.447 -1.3242  0.7912 -0.4875
18539SOL    HW267272   9.416   2.446   0.590 -0.8317 -0.4008  0.0356
18540SOL     OW67273   0.537   0.876   1.017 -0.3685  0.2330 -0.0938
18540SOL    HW167274   0.551   0.844   0.924 -2.5788 -1.6219  0.1837
18540SOL    HW267275   0.527   0.797   1.078 -2.9675  1.4244  1.0719
18541SOL     OW67276   3.475   6.428   6.651  0.1510  0.0108 -0.2558
18541SOL    HW167277   3.532   6.424   6.569  1.3263  1.8591  0.4284
18541SOL    HW267278   3.514   6.369   6.722  0.1314 -0.2244 -0.4415
18542SOL     OW67279   7.593   1.275   0.553 -0.2887 -0.3143 -0.2020
18542SOL    HW167280   7.677   1.324   0.574 -1.4209  1.2902  0.6326
18542SOL    HW267281   7.605   1.178   0.574  1.5794 -0.2218 -0.7813
18543SOL     OW67282   6.940   9.099   2.340 -0.6028  0.2741 -0.0340
18543SOL    HW167283   6.928   9.048   2.254 -1.2568 -0.6141  0.5749
18543SOL    HW267284   6.893   9.186   2.334 -1.7626 -0.3497 -0.0953
18544SOL     OW67285   7.033   4.180   1.959  0.2201 -0.1334  0.2516
18544SOL    HW167286   7.020   4.109   1.890 -0.0856 -0.6471  0.8444
18544SOL    HW267287   7.122   4.223   1.946  0.1621 -0.2274 -0.4691
18545SOL     OW67288   7.304   1.495   1.524 -0.3894 -0.3790 -0.4147
18545SOL    HW167289   7.225   1.482   1.584 -1.4012  1.4709 -1.2962
18545SOL    HW267290   7.312   1.592   1.500  2.7521 -0.3697  0.4586
18546SOL     OW67291   2.493   6.850   7.256  0.1288 -0.1838  0.1933
18546SOL    HW167292   2.463   6.928   7.202  1.9997  0.3889 -0.0372
18546SOL    HW267293   2.478   6.869   7.353  0.1909  0.2735  0.1128
18547SOL     OW67294   6.941   4.795   2.397 -0.4717  1.0265  0.0914
18547SOL    HW167295   6.991   4.733   2.457  0.0631 -0.3094 -1.6974
18547SOL    HW267296   6.984   4.886   2.400  1.9528 -0.0383 -1.2377
18548SOL     OW67297   9.927   4.210   2.968  0.4137  0.1443  0.0195
18548SOL    HW167298   9.858   4.138   2.957  1.4179 -0.7108 -0.6903
18548SOL    HW267299   9.892   4.295   2.928 -0.7125  0.0317  0.7248
18549SOL     OW67300   0.867   6.621   6.747  0.1819  0.4595  0.8251
18549SOL    HW167301   0.904   6.551   6.687  1.0446  0.7176  1.0412
18549SOL    HW267302   0.773   6.600   6.770 -0.6990  1.1922 -1.9145
18550SOL     OW67303   5.370   8.570   7.212  0.1615  0.0771  0.2182
18550SOL    HW167304   5.318   8.523   7.141  0.1421  1.1062 -0.4477
18550SOL    HW267305   5.314   8.575   7.295 -1.1528  1.9597 -0.7658
18551SOL     OW67306   6.251   8.600   5.340 -0.7610 -0.1767  0.6583
18551SOL    HW167307   6.266   8.506   5.307 -0.9649  0.4917 -1.3521
18551SOL    HW267308   6.198   8.597   5.425 -3.1393 -1.7646 -0.8235
18552SOL     OW67309   9.756   7.250   5.186 -0.3716 -0.3030 -0.2278
18552SOL    HW167310   9.825   7.298   5.133 -0.5151 -0.6849 -0.7613
18552SOL    HW267311   9.744   7.158   5.150 -0.7816 -0.4201  0.1939
18553SOL     OW67312   9.441   7.222   3.643 -0.3027  0.0851 -0.2797
18553SOL    HW167313   9.388   7.277   3.708  0.2234  0.1001  0.1481
18553SOL    HW267314   9.478   7.142   3.689  1.4736  0.9638 -0.1176
18554SOL     OW67315   0.333   0.685   6.902  0.8091 -0.1011  0.3101
18554SOL    HW167316   0.328   0.709   6.805  1.0229  1.1338  0.5934
18554SOL    HW267317   0.282   0.752   6.956 -0.7256 -1.7174  0.9216
18555SOL     OW67318   9.931   6.830   6.337 -0.1760 -0.7557 -0.2408
18555SOL    HW167319   9.914   6.741   6.380 -0.3412 -1.0691 -0.9511
18555SOL    HW267320   9.890   6.831   6.246 -0.6670  0.2566 -0.0133
18556SOL     OW67321   1.356   5.912   3.773 -0.0739  0.1983  0.5154
18556SOL    HW167322   1.265   5.942   3.799 -0.6973 -0.5058 -0.7972
18556SOL    HW267323   1.424   5.963   3.825 -1.1619  2.1333  0.1006
18557SOL     OW67324   4.667   3.345   3.585  0.5520 -0.0212 -0.3847
18557SOL    HW167325   4.745   3.403   3.606  0.1616  0.2832  0.2069
18557SOL    HW267326   4.644   3.355   3.488  1.3536 -0.2454 -0.6037
18558SOL     OW67327   2.755   0.261   6.675  0.2787 -0.1872 -0.2319
18558SOL    HW167328   2.753   0.174   6.725  2.5353 -0.8287 -1.2193
18558SOL    HW267329   2.825   0.320   6.715  0.4385  0.2303 -1.1326
18559SOL     OW67330   6.684   2.384   1.874  0.3954  0.1131 -0.3673
18559SOL    HW167331   6.671   2.466   1.930  1.2936 -0.4560  0.7165
18559SOL    HW267332   6.752   2.402   1.803  1.0773  0.1232  0.2813
18560SOL     OW67333   1.988   9.044   3.634 -0.2719 -0.4156 -0.9231
18560SOL    HW167334   2.002   9.142   3.644 -1.8085 -0.2991  0.2016
18560SOL    HW267335   2.012   9.017   3.541  0.2640  1.0057 -1.2119
18561SOL     OW67336   9.527   5.439   5.366  0.0157 -0.4372  0.4107
18561SOL    HW167337   9.578   5.360   5.333 -1.1784 -0.8385 -0.4526
18561SOL    HW267338   9.439   5.445   5.320  0.8310  2.4317 -0.8704
18562SOL     OW67339   9.206   0.066   1.050  0.8432  0.1312 -0.0968
18562SOL    HW167340   9.293   0.113   1.066 -0.4088  2.0778  1.2282
18562SOL    HW267341   9.148   0.123   0.992  0.2279 -0.9026 -0.4990
18563SOL     OW67342   4.303   1.610   1.660 -0.3165 -0.1754  0.0350
18563SOL    HW167343   4.314   1.531   1.721  2.1613  1.0739  1.2659
18563SOL    HW267344   4.384   1.619   1.603 -1.7231 -0.0557 -1.9915
18564SOL     OW67345   9.751   1.471   5.970  0.1825  0.4403 -0.2773
18564SOL    HW167346   9.729   1.399   6.036  0.3719  1.1886  0.6088
18564SOL    HW267347   9.667   1.499   5.924 -0.2104  0.9934  0.7552
18565SOL     OW67348   5.387   9.795   3.782  0.2145 -0.6552  0.0020
18565SOL    HW167349   5.470   9.756   3.743 -0.7914 -0.8304 -2.0609
18565SOL    HW267350   5.410   9.852   3.860  2.2086 -1.1572 -0.2009
18566SOL     OW67351   0.161   3.362   7.544  0.0767 -0.2334  0.1101
18566SOL    HW167352   0.141   3.402   7.455  0.2896 -1.0315 -0.2999
18566SOL    HW267353   0.260   3.361   7.559  0.0110  0.4700  0.6278
18567SOL     OW67354   1.229   3.802   4.063 -0.0012  0.0683  0.4741
18567SOL    HW167355   1.158   3.732   4.065 -0.1975  0.1948 -0.9800
18567SOL    HW267356   1.191   3.888   4.029  0.2992  0.8155  2.0033
18568SOL     OW67357   4.988   3.856   4.942  0.5000 -0.1212 -0.6254
18568SOL    HW167358   4.909   3.827   4.888 -0.0962  1.7218 -0.7919
18568SOL    HW267359   5.019   3.946   4.910  3.0996 -1.0945 -1.0128
18569SOL     OW67360   2.688   5.006   1.259  0.2537  0.0607 -0.5770
18569SOL    HW167361   2.615   4.969   1.202 -1.0368 -1.3869  1.9527
18569SOL    HW267362   2.649   5.072   1.324  1.6885  1.6104 -1.2550
18570SOL     OW67363   3.166   4.630   0.778  0.4008 -0.6053  0.4163
18570SOL    HW167364   3.154   4.715   0.830  0.6743 -0.2818 -0.0393
18570SOL    HW267365   3.083   4.574   0.786  0.3947 -0.5040  1.0915
18571SOL     OW67366   3.775   8.641   5.383 -0.0046 -0.1464  0.4104
18571SOL    HW167367   3.753   8.610   5.290 -2.3839 -2.7453  1.7802
18571SOL    HW267368   3.874   8.637   5.397  0.4039  0.5087 -2.0699
18572SOL     OW67369   1.504   9.435   3.042  0.2924  0.4552 -0.2571
18572SOL    HW167370   1.434   9.503   3.060 -1.4032 -0.3482 -3.5371
18572SOL    HW267371   1.475   9.347   3.080 -0.6645  0.0439 -1.9157
18573SOL     OW67372   4.066   7.542   6.173  0.4958  0.0429  0.0945
18573SOL    HW167373   4.029   7.619   6.224  2.5293  0.8152  0.4519
18573SOL    HW267374   4.074   7.566   6.076 -1.2435 -0.6301 -0.2329
18574SOL     OW67375   8.847   8.820   4.489  0.1122 -0.2526 -0.5797
18574SOL    HW167376   8.869   8.837   4.585 -0.9194  0.5158 -0.4770
18574SOL    HW267377   8.783   8.889   4.456  0.3614 -0.5825 -1.7912
18575SOL     OW67378   3.928   3.244   3.309 -0.0023 -0.1642  0.2173
18575SOL    HW167379   3.922   3.303   3.228 -0.7553  1.6202  1.5520
18575SOL    HW267380   4.013   3.191   3.306  0.0769  0.0367 -1.6204
18576SOL     OW67381   8.368   0.893   2.253 -0.0839 -0.2427 -0.0360
18576SOL    HW167382   8.279   0.875   2.295 -1.0735  0.2350 -1.8782
18576SOL    HW267383   8.410   0.806   2.226 -0.5614 -0.3842 -0.3211
18577SOL     OW67384   4.745   0.890   4.106  0.2321 -0.2062 -0.7881
18577SOL    HW167385   4.667   0.841   4.144 -0.1982  1.7342  0.9202
18577SOL    HW267386   4.807   0.917   4.179  1.6088 -0.1552 -1.9431
18578SOL     OW67387   5.239   1.017   6.290 -0.3566 -0.1210  0.8625
18578SOL    HW167388   5.149   1.035   6.250 -0.7474 -0.2484  1.6772
18578SOL    HW267389   5.255   1.082   6.365 -0.5539 -1.2965  1.9278
18579SOL     OW67390   9.095   8.786   5.236  0.0069 -0.4242  0.6639
18579SOL    HW167391   9.008   8.736   5.229 -0.3760  0.2160  0.7873
18579SOL    HW267392   9.090   8.849   5.313  0.8305 -0.8621  1.0831
18580SOL     OW67393   1.144   8.903   5.578 -0.1128 -0.0227  0.4347
18580SOL    HW167394   1.062   8.942   5.536  0.1111 -1.1583 -1.0931
18580SOL    HW267395   1.127   8.886   5.675 -2.6794 -2.8843 -0.4390
18581SOL     OW67396   8.389   9.457   1.840  0.0134 -0.2188  0.2440
18581SOL    HW167397   8.442   9.447   1.755 -0.0431  1.3922 -0.0034
18581SOL    HW267398   8.451   9.451   1.918  0.4054  0.4886 -0.0032
18582SOL     OW67399   1.718   7.924   2.284  0.6214 -0.1116 -0.0740
18582SOL    HW167400   1.637   7.905   2.228 -0.0490  1.6948  0.2513
18582SOL    HW267401   1.793   7.863   2.256 -0.6292 -1.3459 -0.8268
18583SOL     OW67402   9.485   2.352   5.376 -0.1434  0.1409  0.3723
18583SOL    HW167403   9.423   2.418   5.419 -0.8016  1.8920 -3.1229
18583SOL    HW267404   9.569   2.398   5.349 -1.2697 -0.0027 -3.5807
18584SOL     OW67405   6.803   2.636   1.018 -0.2709 -0.1453 -0.2018
18584SOL    HW167406   6.712   2.613   0.983 -1.2052  2.1675  0.6054
18584SOL    HW267407   6.834   2.565   1.081 -1.7846 -0.6359 -0.0017
18585SOL     OW67408   2.833   7.248   2.834  0.1143 -0.0961 -0.2236
18585SOL    HW167409   2.882   7.295   2.908 -1.6581  0.4787  0.6146
18585SOL    HW267410   2.896   7.230   2.758  1.6371  0.5126  0.8697
18586SOL     OW67411   1.545   4.791   7.881 -0.1427  0.6523 -0.2655
18586SOL    HW167412   1.613   4.806   7.809  1.1346  0.5765  0.9105
18586SOL    HW267413   1.498   4.877   7.900 -0.9340  0.5342 -1.6244
18587SOL     OW67414   4.116   7.855   3.772  0.6240 -0.2098 -0.0288
18587SOL    HW167415   4.131   7.950   3.744  1.6542 -0.2433  0.4018
18587SOL    HW267416   4.092   7.852   3.869 -2.3260 -0.1531 -0.6965
18588SOL     OW67417   3.974   4.205   6.625  0.0724 -0.4483 -0.3036
18588SOL    HW167418   3.886   4.230   6.664 -0.3644 -0.9946 -0.9196
18588SOL    HW267419   3.964   4.118   6.575  1.4816 -1.7752  1.6356
18589SOL     OW67420   0.777   8.421   4.126 -0.1052  0.5458  0.0767
18589SOL    HW167421   0.810   8.338   4.170  0.4982 -0.1692 -1.6681
18589SOL    HW267422   0.845   8.454   4.060 -1.1280  1.3616 -0.6038
18590SOL     OW67423   8.604   1.107   0.573  0.9424 -0.3643 -0.2964
18590SOL    HW167424   8.553   1.086   0.657 -0.5425 -1.4125 -1.4448
18590SOL    HW267425   8.642   1.023   0.535  0.4868 -0.0688 -1.4060
18591SOL     OW67426   0.587   9.493   0.860  0.1682  0.3011  0.4355
18591SOL    HW167427   0.634   9.572   0.897  0.3840 -0.1539  1.1439
18591SOL    HW267428   0.495   9.519   0.832  0.2972  0.8408  0.5210
18592SOL     OW67429   3.361   9.633   1.804  0.2827  0.5409 -0.5703
18592SOL    HW167430   3.412   9.567   1.858  1.2545  1.3054 -0.5494
18592SOL    HW267431   3.313   9.586   1.730  2.4732  0.0382 -1.6840
18593SOL     OW67432   3.059   1.655   2.639  0.3001 -0.2471 -0.1821
18593SOL    HW167433   3.030   1.571   2.685 -0.8488  0.0744 -0.3074
18593SOL    HW267434   2.993   1.679   2.569  0.2812  1.1346  0.3027
18594SOL     OW67435   9.609   4.615   3.058  0.1450 -0.3975  0.4906
18594SOL    HW167436   9.560   4.626   3.144  1.7677 -2.4623  1.7265
18594SOL    HW267437   9.578   4.533   3.011  1.7112 -1.2022  0.8307
18595SOL     OW67438   4.333   5.908   3.299 -0.2397 -0.3614 -0.2973
18595SOL    HW167439   4.414   5.955   3.334  0.3618 -0.7550 -1.1426
18595SOL    HW267440   4.262   5.908   3.369  0.2486  0.5831  0.2130
18596SOL     OW67441   9.628   6.404   2.427  0.1068 -0.1835 -0.7747
18596SOL    HW167442   9.714   6.440   2.391  0.2661  0.5603  0.3352
18596SOL    HW267443   9.644   6.355   2.512 -0.0315 -3.4873 -2.5638
18597SOL     OW67444   0.914   3.493   1.378 -0.1582  0.2085 -0.1345
18597SOL    HW167445   0.934   3.424   1.309  2.7953 -0.3743  1.2244
18597SOL    HW267446   0.954   3.581   1.350  0.7173  0.0617  0.6413
18598SOL     OW67447   3.460   6.140   3.535  0.1125  0.4364 -0.5131
18598SOL    HW167448   3.514   6.175   3.611 -1.4996 -1.1658  1.4410
18598SOL    HW267449   3.509   6.155   3.449  1.6068  3.0287  0.7139
18599SOL     OW67450   3.379   6.590   5.630  0.1122 -0.1794  0.5997
18599SOL    HW167451   3.411   6.666   5.573 -1.4192  0.4837  0.5897
18599SOL    HW267452   3.373   6.507   5.576  1.7795 -0.3097  0.5987
18600SOL     OW67453   1.146   5.584   5.724 -0.3568  0.4366  0.3878
18600SOL    HW167454   1.132   5.673   5.768 -0.3785  0.5632  0.1272
18600SOL    HW267455   1.107   5.587   5.632  1.4165  0.7953 -0.3602
18601SOL     OW67456   3.835   6.400   0.853 -0.4246 -0.3569  0.1754
18601SOL    HW167457   3.852   6.475   0.789 -0.7230 -1.7821 -1.6339
18601SOL    HW267458   3.897   6.407   0.931 -0.1739  1.5208 -0.1804
18602SOL     OW67459   2.436   9.729   0.797  0.3758 -0.4109  0.0312
18602SOL    HW167460   2.466   9.635   0.778  0.7359 -0.2055 -0.4360
18602SOL    HW267461   2.446   9.784   0.714  2.6137  0.6879  0.9933
18603SOL     OW67462   4.727   2.469   0.683 -0.2417 -0.2340 -0.3847
18603SOL    HW167463   4.734   2.569   0.682 -3.0528 -0.0007  0.1076
18603SOL    HW267464   4.695   2.436   0.595  0.8577 -0.7214 -0.6049
18604SOL     OW67465   4.440   5.030   7.592 -0.0261  0.0756 -0.1744
18604SOL    HW167466   4.411   4.987   7.677  0.0921 -0.3039 -0.3286
18604SOL    HW267467   4.381   5.109   7.573  1.9786  2.2005  1.9965
18605SOL     OW67468   1.886   3.509   4.785 -0.1177  0.3186  0.1933
18605SOL    HW167469   1.845   3.596   4.757  0.3702  0.8192  1.0251
18605SOL    HW267470   1.969   3.527   4.838  0.3269 -0.6679 -0.1688
18606SOL     OW67471   7.481   5.293   6.284  0.3350 -0.2843 -0.0564
18606SOL    HW167472   7.427   5.341   6.353  0.2356 -0.8686  0.2709
18606SOL    HW267473   7.576   5.285   6.314  0.7190  1.1686 -0.8448
18607SOL     OW67474   1.638   5.576   6.315 -0.1267 -0.6630 -0.1532
18607SOL    HW167475   1.724   5.556   6.361 -0.3177  0.7323  0.8705
18607SOL    HW267476   1.567   5.513   6.347  0.2359 -1.0480 -0.1091
18608SOL     OW67477   9.287   3.547   2.957  0.5088  0.4185  0.2299
18608SOL    HW167478   9.277   3.495   3.042 -2.5260 -0.6751 -0.7261
18608SOL    HW267479   9.327   3.636   2.978 -0.6088  0.3612  2.8969
18609SOL     OW67480   9.999   1.790   6.346  0.3778  0.1035 -0.0456
18609SOL    HW167481   9.930   1.859   6.325 -0.0475 -0.2135  0.2837
18609SOL    HW267482  10.066   1.786   6.272  1.2090  1.8512  0.5999
18610SOL     OW67483   2.811   8.845   7.322 -0.7614  0.2303 -0.7076
18610SOL    HW167484   2.816   8.778   7.395 -1.7836  0.5179 -0.3657
18610SOL    HW267485   2.721   8.842   7.280 -0.1498 -0.0126 -2.0422
18611SOL     OW67486   0.311   6.892   3.805 -0.7729 -0.2076 -0.2123
18611SOL    HW167487   0.289   6.861   3.712 -0.8984  0.0758 -0.2756
18611SOL    HW267488   0.296   6.816   3.869 -0.3901 -0.4969 -0.4616
18612SOL     OW67489   1.738   3.130   6.201 -0.6747 -0.0911 -0.0429
18612SOL    HW167490   1.745   3.170   6.110 -1.8138  0.6628  0.1923
18612SOL    HW267491   1.762   3.199   6.270 -2.1881  0.0659  0.3430
18613SOL     OW67492   1.002   8.861   6.896  0.4374  0.1518  0.2184
18613SOL    HW167493   0.914   8.886   6.936 -0.1725 -0.9004 -0.4458
18613SOL    HW267494   1.076   8.904   6.949 -0.4342  0.4110  1.2510
18614SOL     OW67495   1.140   0.753   0.125 -0.2543  0.2751  0.4034
18614SOL    HW167496   1.236   0.726   0.133 -0.1585  0.2848 -0.6695
18614SOL    HW267497   1.124   0.835   0.180 -0.0259 -0.6521  1.8609
18615SOL     OW67498   4.306   8.036   4.421  0.8442  0.0406 -0.0030
18615SOL    HW167499   4.367   8.064   4.346 -1.4042  1.3438 -1.4198
18615SOL    HW267500   4.250   8.114   4.449 -2.0434 -1.7641 -0.5842
18616SOL     OW67501   9.731   1.557   7.582  0.1948  0.1113  0.0277
18616SOL    HW167502   9.680   1.639   7.607 -3.2294 -1.6506 -0.9143
18616SOL    HW267503   9.767   1.567   7.490  1.6826  1.4110  0.7353
18617SOL     OW67504   0.409   2.107   5.306  0.6922  0.3098  0.3423
18617SOL    HW167505   0.337   2.169   5.275  0.8532 -0.0841 -0.8336
18617SOL    HW267506   0.423   2.119   5.404 -0.6743  0.6967  0.4979
18618SOL     OW67507   3.110   5.814   5.721 -0.2038 -0.2064  0.4785
18618SOL    HW167508   3.016   5.795   5.692 -0.6711  1.1630  1.0242
18618SOL    HW267509   3.166   5.733   5.707 -1.4142 -0.9724 -0.0767
18619SOL     OW67510   7.898   4.093   6.167 -0.3690  0.3081  0.5639
18619SOL    HW167511   7.884   3.996   6.190 -0.7427 -0.0699 -1.1698
18619SOL    HW267512   7.917   4.145   6.251  2.0536 -1.6273  1.2770
18620SOL     OW67513   2.708   9.043   4.603 -0.0714 -0.4899 -0.0019
18620SOL    HW167514   2.761   8.960   4.587 -0.3849 -0.9366  1.3114
18620SOL    HW267515   2.611   9.022   4.607 -0.1035 -0.1505  0.9985
18621SOL     OW67516   0.766   0.122   5.461  0.1287  0.2316 -0.0001
18621SOL    HW167517   0.802   0.199   5.513  0.0103 -0.6034  1.3232
18621SOL    HW267518   0.820   0.040   5.480 -1.4716 -0.6613  0.7813
18622SOL     OW67519   7.926   4.671   1.778  0.6729 -0.3437 -0.0850
18622SOL    HW167520   7.943   4.608   1.702 -0.5153  0.2860 -0.8913
18622SOL    HW267521   7.987   4.750   1.771  0.6490 -0.3472 -0.3226
18623SOL     OW67522   9.371   3.784   0.087  0.0483  0.5512  0.2258
18623SOL    HW167523   9.419   3.697   0.100  0.0713  0.5531  0.1523
18623SOL    HW267524   9.407   3.830   0.006 -1.5517 -0.4669 -1.1202
18624SOL     OW67525   0.681   9.052   2.415  0.1511 -0.3316  0.7096
18624SOL    HW167526   0.661   9.143   2.377 -0.3265 -0.5155  0.5138
18624SOL    HW267527   0.605   8.991   2.394  0.1205 -0.5669  1.5328
18625SOL     OW67528   5.852   9.551   2.833  0.8627  0.3499 -0.3828
18625SOL    HW167529   5.925   9.560   2.900  0.0370 -0.7025  0.6762
18625SOL    HW267530   5.869   9.471   2.775  0.1415 -0.3916  0.4088
18626SOL     OW67531   0.525   2.451   1.100  0.1064  0.3610  0.5950
18626SOL    HW167532   0.445   2.429   1.156 -0.1351  0.5678  0.3335
18626SOL    HW267533   0.538   2.380   1.032 -0.1720  0.5955  0.2949
18627SOL     OW67534   8.740   1.661   1.844  0.0068 -0.8217  0.1106
18627SOL    HW167535   8.729   1.734   1.777  2.7045 -0.0005  0.5219
18627SOL    HW267536   8.756   1.574   1.796 -2.2212 -1.0225 -0.3485
18628SOL     OW67537   4.708   6.022   2.324  0.5152 -0.1655  0.9113
18628SOL    HW167538   4.722   6.000   2.228 -0.9796 -0.1707  0.6769
18628SOL    HW267539   4.795   6.019   2.373  1.3749  0.4196 -0.5596
18629SOL     OW67540   0.084   9.900   0.727  0.1675 -0.5307  0.0219
18629SOL    HW167541   0.165   9.897   0.786 -0.5891 -1.9382  1.0238
18629SOL    HW267542   0.113   9.901   0.631  1.4174  2.1526  0.3749
18630SOL     OW67543   9.102   5.025   3.989  0.3912 -0.1063 -0.6761
18630SOL    HW167544   9.013   4.981   3.979  0.0768  0.3570  0.0036
18630SOL    HW267545   9.161   4.998   3.913 -0.8114  0.7775 -1.9535
18631SOL     OW67546   4.672   5.932   2.964  0.2172  0.1468  0.4740
18631SOL    HW167547   4.622   5.980   3.036 -0.4701 -0.7365  0.5937
18631SOL    HW267548   4.607   5.890   2.901  0.8175  0.4014 -0.3117
18632SOL     OW67549   7.534   8.291   5.840  0.0101  0.3419  0.3630
18632SOL    HW167550   7.588   8.295   5.756 -0.4023 -0.5372  0.0460
18632SOL    HW267551   7.543   8.377   5.890  1.0018  0.5209 -0.1182
18633SOL     OW67552   9.959   9.972   3.656  0.5607 -1.1044 -0.2970
18633SOL    HW167553   9.957   9.931   3.747 -0.5469 -1.1225 -0.3261
18633SOL    HW267554   9.941   9.901   3.587 -3.1001 -0.2994 -0.2445
18634SOL     OW67555   1.733   3.786   1.304  0.2405 -0.5714  0.2201
18634SOL    HW167556   1.655   3.724   1.291  0.0225 -0.2500 -0.0031
18634SOL    HW267557   1.798   3.774   1.228 -0.3475  0.2850 -0.4221
18635SOL     OW67558   0.710   4.419   5.809 -0.1462 -0.2130  0.1453
18635SOL    HW167559   0.804   4.432   5.840  0.3422  0.7932 -1.6452
18635SOL    HW267560   0.678   4.329   5.836  0.9425 -0.1516  1.7357
18636SOL     OW67561   7.750   6.971   5.208 -0.4991  0.8211  0.4769
18636SOL    HW167562   7.754   7.016   5.297  1.5158  2.2175 -0.2849
18636SOL    HW267563   7.765   7.038   5.136  2.4923 -0.9775 -0.7057
18637SOL     OW67564   8.676   3.380   6.674  0.5251  0.3057  0.5375
18637SOL    HW167565   8.649   3.441   6.749 -0.2827 -0.8834  1.2300
18637SOL    HW267566   8.715   3.434   6.599  1.8099  1.4603  2.0054
18638SOL     OW67567   8.002   1.740   2.027  0.1957 -0.7926  0.1881
18638SOL    HW167568   8.005   1.835   1.996  1.0174 -0.3357  1.6174
18638SOL    HW267569   7.931   1.691   1.976 -1.3341  0.9867  0.5325
18639SOL     OW67570   1.191   9.089   1.913 -0.0154 -0.2031  0.1180
18639SOL    HW167571   1.108   9.049   1.876  1.2339 -2.1404 -0.6524
18639SOL    HW267572   1.223   9.162   1.853  0.1776 -1.1093 -0.8895
18640SOL     OW67573   6.703   7.710   3.203 -0.3002 -0.0163 -0.0732
18640SOL    HW167574   6.718   7.625   3.152 -0.1501 -0.3182  0.4768
18640SOL    HW267575   6.791   7.745   3.235 -0.3705  0.3031 -0.2265
18641SOL     OW67576   1.986   3.375   0.048 -0.1864  0.3600  0.0219
18641SOL    HW167577   2.035   3.380  -0.039  0.0732 -2.4679 -0.0450
18641SOL    HW267578   2.052   3.363   0.123 -0.6654 -2.6718  0.0133
18642SOL     OW67579   3.139   6.735   5.247 -0.1077 -0.5682 -0.5177
18642SOL    HW167580   3.046   6.709   5.221 -0.9780  3.0015 -1.2037
18642SOL    HW267581   3.136   6.811   5.312  2.3313  1.1582 -2.3420
18643SOL     OW67582   0.542   6.100   5.689 -0.2238  0.0791 -0.0419
18643SOL    HW167583   0.546   6.139   5.598  0.0618  1.3666  0.5095
18643SOL    HW267584   0.608   6.025   5.697  0.0181  0.2175 -0.7527
18644SOL     OW67585   2.804   5.199   6.684 -0.3796  0.2018 -0.2479
18644SOL    HW167586   2.871   5.134   6.719 -0.9862 -0.2708  0.0542
18644SOL    HW267587   2.787   5.181   6.587 -0.7612 -0.2739 -0.0925
18645SOL     OW67588   7.926   9.283   5.699 -0.1660  0.4414  0.4245
18645SOL    HW167589   7.895   9.353   5.764 -2.4213  0.8832 -1.0925
18645SOL    HW267590   8.026   9.286   5.694 -0.0865  2.0914  1.9904
18646SOL     OW67591   0.935   1.320   3.117  0.1374 -0.2330 -0.1592
18646SOL    HW167592   0.997   1.392   3.150  0.6253 -0.0256 -1.5223
18646SOL    HW267593   0.841   1.356   3.116  0.3173  0.2352 -0.4076
18647SOL     OW67594   7.269   5.615   7.589  0.2864 -0.0083  0.2211
18647SOL    HW167595   7.194   5.549   7.590 -0.1104  0.4393  0.4968
18647SOL    HW267596   7.314   5.612   7.500  0.3309 -0.7136  0.2660
18648SOL     OW67597   9.835   4.913   1.422 -0.2818 -0.3676  0.3311
18648SOL    HW167598   9.756   4.890   1.365 -0.9938  0.7205  0.8540
18648SOL    HW267599   9.834   5.011   1.442 -0.0577 -0.7353  2.2104
18649SOL     OW67600   7.505   5.679   6.362  0.0078 -0.1853  0.2163
18649SOL    HW167601   7.569   5.609   6.394 -0.7100 -0.9846 -0.0666
18649SOL    HW267602   7.510   5.685   6.262 -1.4747 -1.3894  0.0352
18650SOL     OW67603   3.884   9.834   1.178 -0.4073 -0.0826  0.6257
18650SOL    HW167604   3.786   9.819   1.167 -0.0620 -1.0065 -1.3360
18650SOL    HW267605   3.899   9.923   1.221 -2.0678  0.7606 -0.4808
18651SOL     OW67606   2.817   9.589   0.710  0.6444  0.0743  0.2253
18651SOL    HW167607   2.880   9.654   0.751  0.0593  1.0047 -0.3357
18651SOL    HW267608   2.865   9.539   0.637  1.6885 -1.6089  2.0185
18652SOL     OW67609   7.832   7.608   2.189 -0.4870 -0.1585  0.6847
18652SOL    HW167610   7.880   7.524   2.166  0.2467  0.4913 -0.1634
18652SOL    HW267611   7.884   7.658   2.259 -1.1661 -0.6328  1.5443
18653SOL     OW67612   5.241   0.830   5.824 -0.1928 -0.2343  0.2891
18653SOL    HW167613   5.155   0.782   5.843  0.6181 -1.1085  1.7316
18653SOL    HW267614   5.300   0.772   5.769 -0.4729  0.3392 -0.6375
18654SOL     OW67615   9.233   7.572   5.007  0.4235  0.1288  0.6254
18654SOL    HW167616   9.151   7.627   4.992  0.2261  0.3354  2.3276
18654SOL    HW267617   9.306   7.604   4.947 -0.7972 -0.2131 -1.0728
18655SOL     OW67618   7.234   1.072   4.847  0.6376  0.3263  0.4195
18655SOL    HW167619   7.215   1.073   4.945 -1.1745  2.6163  0.0592
18655SOL    HW267620   7.302   1.142   4.825  2.0794 -1.0944  0.1979
18656SOL     OW67621   0.852   9.625   4.529  0.9672  0.5055 -0.1180
18656SOL    HW167622   0.790   9.555   4.563  1.2134  1.0395  1.4820
18656SOL    HW267623   0.800   9.698   4.484  0.5768  0.1597 -0.2220
18657SOL     OW67624   6.007   4.746   1.359  0.5814  0.6196  0.2497
18657SOL    HW167625   6.095   4.793   1.356  0.3124  1.2472  1.7061
18657SOL    HW267626   5.946   4.784   1.290  0.8707  1.3767  0.4116
18658SOL     OW67627   0.580   5.886   7.462  0.3419 -0.4604  0.0645
18658SOL    HW167628   0.498   5.829   7.459  0.2810 -0.5541  2.5480
18658SOL    HW267629   0.645   5.855   7.392 -1.5791 -0.5773 -1.7149
18659SOL     OW67630   0.319   4.104   1.804 -0.1782 -0.4590 -0.2451
18659SOL    HW167631   0.248   4.076   1.868  0.7159 -2.1070  0.0557
18659SOL    HW267632   0.310   4.202   1.785 -1.6508 -0.3604  0.8689
18660SOL     OW67633   9.042   3.473   3.666  0.1492  0.1372  0.3765
18660SOL    HW167634   9.018   3.505   3.758  0.1781 -0.1479  0.4868
18660SOL    HW267635   9.114   3.403   3.674 -0.8636 -0.9335  0.2514
18661SOL     OW67636   2.376   1.244   0.274  0.4716  0.2803  0.3067
18661SOL    HW167637   2.292   1.202   0.308  0.0705  1.0994  0.3297
18661SOL    HW267638   2.422   1.180   0.212  0.5398 -0.7102  1.3509
18662SOL     OW67639   8.586   6.581   4.615 -0.5206 -0.4770 -0.0295
18662SOL    HW167640   8.601   6.520   4.693  3.0542  1.9303  1.3037
18662SOL    HW267641   8.646   6.553   4.540  0.9677  1.2018  0.5086
18663SOL     OW67642   9.956   0.309   2.776  0.0028  0.2153  0.2348
18663SOL    HW167643   9.943   0.214   2.803  1.4364 -0.5629 -1.6932
18663SOL    HW267644  10.048   0.321   2.739 -0.6637  2.0036 -0.9371
18664SOL     OW67645   4.931   9.434   2.999  0.7271  0.3368  0.3149
18664SOL    HW167646   4.953   9.422   3.095  1.5015 -1.4176 -0.0613
18664SOL    HW267647   4.967   9.357   2.946  0.6442  1.4571 -1.4305
18665SOL     OW67648   1.494   0.735   1.422  0.6673 -0.1332  0.3846
18665SOL    HW167649   1.406   0.764   1.460  0.7105 -1.1755  1.2922
18665SOL    HW267650   1.535   0.812   1.372 -1.3598  0.0000 -1.1811
18666SOL     OW67651   4.957   2.204   4.170 -0.1025 -0.1195 -0.0807
18666SOL    HW167652   5.053   2.215   4.146 -0.5745  2.3238 -1.0295
18666SOL    HW267653   4.948   2.191   4.268  1.1737 -0.2754  0.0222
18667SOL     OW67654   1.271   9.949   6.172  0.6572  0.0829  0.1121
18667SOL    HW167655   1.300   9.856   6.195 -0.5451 -0.1437  0.7382
18667SOL    HW267656   1.258   9.956   6.073 -2.0298 -1.2442  0.3252
18668SOL     OW67657   9.275   8.651   7.407  0.3001  0.5371  0.1066
18668SOL    HW167658   9.374   8.650   7.393  0.2730  1.1908 -0.1488
18668SOL    HW267659   9.232   8.579   7.352  0.6032  0.4471 -0.0112
18669SOL     OW67660   0.960   6.329   0.062  0.2673  0.5477 -0.7499
18669SOL    HW167661   0.971   6.426   0.080 -1.3444  0.2479  2.0931
18669SOL    HW267662   0.889   6.315  -0.006 -0.0215  1.3253 -0.6070
18670SOL     OW67663   2.759   0.916   7.393 -0.0275 -0.2891  0.3510
18670SOL    HW167664   2.720   0.867   7.315 -0.2939 -0.3575  0.5267
18670SOL    HW267665   2.802   0.851   7.455  0.9645 -0.1563 -0.1706
18671SOL     OW67666   8.093   1.746   6.342 -0.7236  0.4002  0.5783
18671SOL    HW167667   8.055   1.785   6.426  1.9604  0.1849  1.9386
18671SOL    HW267668   8.162   1.808   6.305 -0.1011 -0.6796 -0.0794
18672SOL     OW67669   8.959   2.712   1.370  0.1156 -0.3615 -0.0970
18672SOL    HW167670   8.935   2.617   1.352  0.5882 -0.8663  1.8572
18672SOL    HW267671   8.901   2.748   1.443  0.8960  0.4388  0.1344
18673SOL     OW67672   7.277   6.785   5.428 -0.6246  0.3057 -0.4042
18673SOL    HW167673   7.272   6.867   5.372  0.9882  0.5377 -0.2154
18673SOL    HW267674   7.233   6.802   5.516 -3.3395 -0.1163 -1.6043
18674SOL     OW67675   0.146   9.931   0.049 -0.2629 -0.4996 -0.0714
18674SOL    HW167676   0.212   9.856   0.050  0.1080 -0.1612  1.2884
18674SOL    HW267677   0.185  10.008  -0.002 -0.5615 -1.1300 -1.2872
18675SOL     OW67678   6.819   9.729   5.499 -0.0388  0.3006  0.1581
18675SOL    HW167679   6.849   9.656   5.438 -1.5103 -0.1560 -0.0275
18675SOL    HW267680   6.748   9.694   5.561 -0.9741  1.6514 -0.1323
18676SOL     OW67681   7.122   3.152   5.467 -0.0272  0.7375  0.3397
18676SOL    HW167682   7.196   3.219   5.458  0.5267  0.0646 -0.1073
18676SOL    HW267683   7.131   3.083   5.396 -1.6227  1.1559 -0.2907
18677SOL     OW67684   9.068   9.196   0.706  0.3446  0.2747 -0.0818
18677SOL    HW167685   9.054   9.110   0.755  1.5408 -0.3108 -0.7394
18677SOL    HW267686   8.981   9.227   0.667 -0.4775  0.3890  1.7981
18678SOL     OW67687   8.828   8.408   0.303 -0.2768  0.4954 -0.2467
18678SOL    HW167688   8.871   8.356   0.229  1.2638 -0.2101  1.1083
18678SOL    HW267689   8.892   8.476   0.338 -1.4746  1.7582 -0.4474
18679SOL     OW67690   8.972   0.637   3.455 -0.9561  0.1629  0.2189
18679SOL    HW167691   9.034   0.714   3.439 -2.4685  1.2920 -0.3099
18679SOL    HW267692   8.883   0.657   3.415 -1.5855 -1.5746  0.7038
18680SOL     OW67693   2.569   3.012   6.601  0.6107  0.4356 -0.9202
18680SOL    HW167694   2.591   2.976   6.510 -0.2777 -0.5907 -0.7364
18680SOL    HW267695   2.512   3.094   6.591 -1.5459 -1.0650 -1.2737
18681SOL     OW67696   8.755   6.826   4.865 -0.0470  0.5024 -0.5097
18681SOL    HW167697   8.696   6.776   4.928 -1.0810  0.8319 -1.2209
18681SOL    HW267698   8.820   6.763   4.823  0.6892  0.2838  0.9136
18682SOL     OW67699   2.725   4.673   1.719  0.8622 -0.1829  0.5004
18682SOL    HW167700   2.792   4.744   1.740  0.6322  0.3229 -0.4589
18682SOL    HW267701   2.673   4.699   1.637 -0.2667 -0.7385  1.0302
18683SOL     OW67702   9.520   5.611   6.374 -0.2897  0.4035  0.5037
18683SOL    HW167703   9.458   5.689   6.381 -2.2494 -1.0529 -0.2192
18683SOL    HW267704   9.551   5.602   6.279  0.0272  0.3713  0.6110
18684SOL     OW67705   9.039   9.361   1.297  0.2062  0.4498 -0.6434
18684SOL    HW167706   9.081   9.302   1.228  0.0966 -1.7707  1.1414
18684SOL    HW267707   8.944   9.380   1.271 -0.6102 -2.3804  0.0421
18685SOL     OW67708   3.458   8.690   1.666  0.1289  0.3633  0.1469
18685SOL    HW167709   3.483   8.762   1.731 -0.6357  0.4275  0.3702
18685SOL    HW267710   3.513   8.608   1.683 -1.1222 -0.1298  1.8244
18686SOL     OW67711   3.266   1.020   5.241  1.1005  0.6919 -0.4056
18686SOL    HW167712   3.357   1.061   5.238  0.5311  2.0011 -0.0416
18686SOL    HW267713   3.267   0.942   5.304  1.2401  2.5462  1.9622
18687SOL     OW67714   9.907   9.431   5.865  0.0801  0.1781  0.2107
18687SOL    HW167715   9.843   9.384   5.804  1.4019  0.7554 -1.6423
18687SOL    HW267716   9.876   9.420   5.960 -2.4846  0.0141 -0.5967
18688SOL     OW67717   9.476   1.144   7.232  0.2517  0.4828  0.0022
18688SOL    HW167718   9.517   1.094   7.156  0.5158  1.2580 -0.3688
18688SOL    HW267719   9.377   1.140   7.225  0.2599 -0.4603  0.2893
18689SOL     OW67720   8.325   9.910   2.844 -0.1213 -0.6883 -0.5642
18689SOL    HW167721   8.259   9.985   2.855  0.0958 -0.3858 -1.3450
18689SOL    HW267722   8.418   9.945   2.857 -0.2199 -1.6741  3.5832
18690SOL     OW67723   0.792   2.191   2.109  0.4351  0.3637  0.3965
18690SOL    HW167724   0.760   2.133   2.184 -1.1565 -2.1876 -2.1611
18690SOL    HW267725   0.889   2.172   2.090  0.2673 -0.5204  0.4263
18691SOL     OW67726   7.277   3.550   6.183 -0.1772  0.1526  0.3262
18691SOL    HW167727   7.356   3.508   6.137 -1.1153 -1.6182  0.2670
18691SOL    HW267728   7.271   3.646   6.159  0.8943 -0.1341 -1.1463
18692SOL     OW67729   0.012   9.905   4.037  0.2193 -0.4204  0.0581
18692SOL    HW167730   0.055   9.960   3.966  0.2285 -0.4013  0.0779
18692SOL    HW267731  -0.081   9.938   4.053  0.6376  0.3682  0.9110
18693SOL     OW67732   5.581   3.138   0.872  0.0334 -0.5067 -0.4322
18693SOL    HW167733   5.643   3.160   0.797  0.4627 -1.0673 -0.2413
18693SOL    HW267734   5.631   3.087   0.942 -0.6371 -0.9318 -0.2662
18694SOL     OW67735   1.344   4.656   5.695  0.0480  0.2613  0.0520
18694SOL    HW167736   1.354   4.597   5.775  1.5514 -0.0758 -0.3666
18694SOL    HW267737   1.435   4.680   5.660 -0.5906  1.0392 -1.0888
18695SOL     OW67738   6.974   9.347   3.233 -0.4803  0.1597 -0.3828
18695SOL    HW167739   7.073   9.336   3.248 -0.5007  1.3543  0.6635
18695SOL    HW267740   6.931   9.257   3.233  0.4545 -0.2983  0.1890
18696SOL     OW67741   2.082   2.874   7.609  0.0648  0.3642  0.2504
18696SOL    HW167742   2.122   2.922   7.687  0.4287  2.8819 -1.4520
18696SOL    HW267743   1.987   2.904   7.595 -0.5223 -1.2294  0.6478
18697SOL     OW67744   9.189   1.342   2.980 -0.1504  0.2324  0.8331
18697SOL    HW167745   9.231   1.433   2.973 -0.8887  0.4460 -1.4656
18697SOL    HW267746   9.124   1.331   2.905  2.4015 -3.5105 -0.9147
18698SOL     OW67747   2.204   7.154   2.549 -0.8889  0.2598  0.6979
18698SOL    HW167748   2.279   7.103   2.507 -1.1567  0.4048  0.0337
18698SOL    HW267749   2.229   7.178   2.643  0.2421  1.0029  0.2231
18699SOL     OW67750   2.182   6.868   7.275 -0.6166  0.3395 -0.3596
18699SOL    HW167751   2.266   6.824   7.308 -0.4004  0.6833 -0.4489
18699SOL    HW267752   2.145   6.927   7.346  0.1255  1.4705 -0.8987
18700SOL     OW67753   9.335   8.923   1.782 -0.3326  0.1178 -0.7357
18700SOL    HW167754   9.392   8.842   1.788 -3.0608 -1.8134  0.1277
18700SOL    HW267755   9.300   8.933   1.689  0.5939  0.7307 -1.0205
18701SOL     OW67756   0.461   6.780   6.828  0.1651 -0.3499 -0.3188
18701SOL    HW167757   0.420   6.792   6.918 -0.7375 -0.0354 -0.7605
18701SOL    HW267758   0.507   6.864   6.801 -3.2547  1.1136 -1.9670
18702SOL     OW67759   8.525   8.819   2.779  0.3654  0.1670  0.5398
18702SOL    HW167760   8.602   8.761   2.805 -0.7002 -1.0475  1.0751
18702SOL    HW267761   8.511   8.814   2.680  1.5021  1.0808  0.3218
18703SOL     OW67762   4.956   3.027   1.139  1.0518 -0.1124  0.3388
18703SOL    HW167763   4.892   2.966   1.187 -0.2290  0.8640 -0.0750
18703SOL    HW267764   4.998   3.089   1.205  0.4275  0.2322  0.4200
18704SOL     OW67765   3.007   2.678   0.147 -0.0876 -0.0683  0.0740
18704SOL    HW167766   2.969   2.764   0.181 -0.3140  0.0426 -0.4428
18704SOL    HW267767   3.011   2.612   0.221  0.4434  0.5059  0.5638
18705SOL     OW67768   7.847   9.569   7.235 -0.7856  0.3994 -0.2433
18705SOL    HW167769   7.939   9.540   7.263 -1.0775  0.0941  0.4058
18705SOL    HW267770   7.850   9.665   7.207 -0.0717  0.1144 -1.1662
18706SOL     OW67771   7.728   1.191   5.241 -0.1823 -0.3665  0.0882
18706SOL    HW167772   7.710   1.102   5.200  1.3311 -0.3792 -0.5627
18706SOL    HW267773   7.779   1.179   5.326 -0.7272 -0.1663  0.4463
18707SOL     OW67774   7.895   4.810   3.704  0.1957  0.1738 -0.1374
18707SOL    HW167775   7.959   4.875   3.663 -0.2878  0.2974 -0.7012
18707SOL    HW267776   7.898   4.723   3.654  0.9603 -0.3031  0.7134
18708SOL     OW67777   9.371   2.047   6.385  0.0288  0.2005 -0.2672
18708SOL    HW167778   9.358   2.040   6.484  2.8550 -0.7070  0.0806
18708SOL    HW267779   9.368   1.956   6.344 -1.1915  0.5789 -1.0560
18709SOL     OW67780   0.677   4.612   7.659 -0.4261  0.6196 -0.3082
18709SOL    HW167781   0.671   4.706   7.694 -0.6289  0.3030  0.5063
18709SOL    HW267782   0.701   4.615   7.562 -2.3970  1.5748 -0.7993
18710SOL     OW67783   3.353   8.583   4.331 -0.2353  0.7070  0.0141
18710SOL    HW167784   3.415   8.559   4.256 -1.1750  0.6231 -0.7483
18710SOL    HW267785   3.357   8.682   4.347 -0.2548  0.7716 -0.3639
18711SOL     OW67786   2.616   4.287   3.659  0.0342  0.1954  0.5003
18711SOL    HW167787   2.607   4.195   3.697 -2.0556 -0.3623 -1.2464
18711SOL    HW267788   2.670   4.283   3.576  1.2813  0.8103  1.2682
18712SOL     OW67789   5.542   4.270   0.518 -0.0335 -0.4528 -0.0424
18712SOL    HW167790   5.539   4.364   0.484  1.2567  0.0213  1.1042
18712SOL    HW267791   5.637   4.242   0.528 -0.4084 -1.2726  1.2717
18713SOL     OW67792   3.516   8.289   3.864  0.2964 -0.0034  0.0145
18713SOL    HW167793   3.494   8.191   3.870 -1.8694  0.4386 -0.3342
18713SOL    HW267794   3.464   8.338   3.934  0.7170  1.0071 -0.3850
18714SOL     OW67795   1.994   4.376   6.901 -0.5435  0.8687 -0.0382
18714SOL    HW167796   2.084   4.400   6.866 -0.7206  0.0986 -1.0407
18714SOL    HW267797   1.923   4.419   6.845 -0.8159  0.2098 -0.2085
18715SOL     OW67798   3.595   4.480   5.492  0.6465  0.0790 -0.2406
18715SOL    HW167799   3.608   4.548   5.419 -0.7420  0.9143  0.2811
18715SOL    HW267800   3.628   4.391   5.460  1.2105  0.6992 -1.4364
18716SOL     OW67801   8.601   0.854   4.809  0.5267  0.4230  0.1978
18716SOL    HW167802   8.561   0.904   4.886  1.1429  0.3623  0.5644
18716SOL    HW267803   8.638   0.919   4.743 -0.4013  0.4826 -0.2631
18717SOL     OW67804   0.387   3.791   2.816 -0.5848  0.5511 -0.0959
18717SOL    HW167805   0.397   3.709   2.759  1.9599  0.2318  0.7634
18717SOL    HW267806   0.464   3.852   2.800  0.1342  0.4771  2.9425
18718SOL     OW67807   3.904   3.797   0.911 -0.4171  0.3670 -0.0534
18718SOL    HW167808   3.950   3.879   0.879  0.0223 -0.1435 -0.7261
18718SOL    HW267809   3.913   3.724   0.843  1.8054 -1.1964  1.8510
18719SOL     OW67810   7.918   4.403   3.374  0.2199 -0.1301  0.0580
18719SOL    HW167811   7.844   4.368   3.432 -0.2531  0.2206 -0.3300
18719SOL    HW267812   7.879   4.445   3.292  0.9107 -1.0984 -0.7808
18720SOL     OW67813   5.139   8.472   2.162 -0.1547 -0.0124 -0.3418
18720SOL    HW167814   5.141   8.381   2.120  0.2982 -0.0938 -0.1588
18720SOL    HW267815   5.197   8.471   2.244 -0.4574  0.3351 -0.1245
18721SOL     OW67816   6.753   2.761   0.525  0.5420 -0.1329 -0.1757
18721SOL    HW167817   6.763   2.853   0.487 -1.1594 -0.5932 -1.8173
18721SOL    HW267818   6.688   2.764   0.601  1.1840  0.1657  0.3682
18722SOL     OW67819   8.823   3.266   1.790 -0.1646  0.4656  0.1853
18722SOL    HW167820   8.859   3.193   1.848 -1.4654 -0.5506 -0.2771
18722SOL    HW267821   8.746   3.310   1.837  0.1653  1.0678  0.1605
18723SOL     OW67822   4.101   2.623   1.894  0.1343 -0.2238 -0.4105
18723SOL    HW167823   4.038   2.620   1.817  1.1301 -0.1376 -1.2328
18723SOL    HW267824   4.147   2.535   1.904  0.2419 -0.1352 -0.1144
18724SOL     OW67825   1.778   2.550   2.830 -0.2579 -0.0550  0.1019
18724SOL    HW167826   1.862   2.603   2.817 -1.1398  1.6348  1.1459
18724SOL    HW267827   1.796   2.476   2.894  0.9537 -0.9918 -1.2726
18725SOL     OW67828   0.404   2.519   6.375 -0.3137 -0.6014  0.6201
18725SOL    HW167829   0.359   2.436   6.407  0.0877 -0.6432  1.0806
18725SOL    HW267830   0.368   2.597   6.426  0.1330 -0.6352  0.9915
18726SOL     OW67831   2.765   7.262   2.290  0.1416  0.4272  0.0390
18726SOL    HW167832   2.732   7.183   2.342 -0.1660  0.6052  0.1191
18726SOL    HW267833   2.702   7.339   2.304  0.2286  0.5693 -0.3448
18727SOL     OW67834   4.249   5.063   7.989  0.3393 -0.2402 -0.1132
18727SOL    HW167835   4.305   5.072   8.071 -0.7611 -0.8436  0.7073
18727SOL    HW267836   4.293   4.998   7.927  0.4629 -0.8571  0.6110
18728SOL     OW67837   6.868   1.586   3.502  0.3836  0.5952  0.5643
18728SOL    HW167838   6.927   1.506   3.490 -0.8086 -0.2596  0.2848
18728SOL    HW267839   6.919   1.669   3.478  1.0735 -0.2308 -0.8944
18729SOL     OW67840   2.685   2.906   0.474  0.2070 -0.0448  0.8133
18729SOL    HW167841   2.740   2.929   0.554 -0.4900  1.1737  0.9681
18729SOL    HW267842   2.710   2.816   0.440  1.2942 -0.0954  1.7315
18730SOL     OW67843   1.774   1.607   3.298 -0.2204  0.0413  0.3507
18730SOL    HW167844   1.711   1.677   3.265  1.4341  0.9517 -0.9530
18730SOL    HW267845   1.818   1.638   3.382  1.6070  1.2445 -1.0136
18731SOL     OW67846   6.675   5.487   1.277 -0.5792  0.1607 -0.3140
18731SOL    HW167847   6.584   5.493   1.238 -0.6763 -1.5451 -0.4087
18731SOL    HW267848   6.671   5.432   1.361  0.3554  0.1009 -0.3042
18732SOL     OW67849   0.273   5.260   3.925  1.1552  0.4250  0.2765
18732SOL    HW167850   0.236   5.172   3.954  0.7942  0.9920  1.5796
18732SOL    HW267851   0.205   5.308   3.870  1.4261 -0.1848 -0.6016
18733SOL     OW67852   1.688   1.566   2.657  0.4154 -0.2352  0.9811
18733SOL    HW167853   1.705   1.471   2.631  0.3366 -0.1881  0.7552
18733SOL    HW267854   1.714   1.627   2.582 -2.5195 -0.2719 -0.1672
18734SOL     OW67855   5.190   2.300   3.838  0.4147 -0.1513 -0.1963
18734SOL    HW167856   5.095   2.295   3.867  0.3424  0.4514 -0.3185
18734SOL    HW267857   5.226   2.392   3.857  0.5053  0.1134 -1.5820
18735SOL     OW67858   1.981   3.233   3.889 -0.0133 -0.1478  0.0304
18735SOL    HW167859   2.053   3.272   3.831  0.5714  0.7311  1.3348
18735SOL    HW267860   2.022   3.169   3.954 -0.7265 -1.4748 -0.7848
18736SOL     OW67861   1.344   2.351   5.031 -0.1500 -0.1420  0.2247
18736SOL    HW167862   1.285   2.362   4.951  1.6526  0.5751 -1.0249
18736SOL    HW267863   1.351   2.254   5.055 -1.4639 -0.2679  0.1152
18737SOL     OW67864   8.242   5.904   4.734  0.5154  0.0058 -0.2728
18737SOL    HW167865   8.275   5.953   4.815  1.2340 -0.8294 -0.0461
18737SOL    HW267866   8.183   5.964   4.680 -0.9561  0.2106  1.4970
18738SOL     OW67867   2.911   9.125   3.207  0.6835 -0.2697  0.0804
18738SOL    HW167868   2.874   9.051   3.263  1.0225 -0.7388 -0.3051
18738SOL    HW267869   2.837   9.183   3.174  0.5225  0.3222  1.4383
18739SOL     OW67870   4.176   3.764   4.083  0.2574 -0.0136  0.0756
18739SOL    HW167871   4.090   3.740   4.038  0.5911 -0.6318 -0.2356
18739SOL    HW267872   4.253   3.730   4.029  0.7415  1.7609 -0.3771
18740SOL     OW67873   6.065   2.062   4.104 -0.0346 -0.3244  0.3048
18740SOL    HW167874   6.164   2.055   4.114 -0.1545 -0.3189  1.5228
18740SOL    HW267875   6.032   1.984   4.050  0.5481 -0.6654  0.4374
18741SOL     OW67876   0.334   0.268   2.664  0.0481 -0.4110 -0.0221
18741SOL    HW167877   0.287   0.193   2.619  1.0766 -0.9397 -0.2428
18741SOL    HW267878   0.274   0.348   2.668 -0.8088 -1.0279 -0.3948
18742SOL     OW67879   9.582   2.374   7.157 -0.4114  0.2081 -0.2040
18742SOL    HW167880   9.492   2.409   7.132 -0.1914  1.9792  1.3598
18742SOL    HW267881   9.587   2.359   7.255  0.3165 -1.9602 -0.5466
18743SOL     OW67882   6.346   0.631   1.624  0.6679 -0.3732  0.2525
18743SOL    HW167883   6.386   0.558   1.568  0.6733 -0.1537 -0.0276
18743SOL    HW267884   6.320   0.593   1.713  1.2423 -0.5840  0.3389
18744SOL     OW67885   3.308   6.389   5.451 -0.8436  0.2414  0.2922
18744SOL    HW167886   3.338   6.428   5.364 -1.6867 -1.1470 -0.6450
18744SOL    HW267887   3.376   6.323   5.483 -0.8989  0.1851  0.2936
18745SOL     OW67888   0.545   7.727   2.166  0.0503  0.0502 -0.2996
18745SOL    HW167889   0.613   7.783   2.119  0.4344 -0.5026 -0.4082
18745SOL    HW267890   0.523   7.646   2.111 -0.1366 -0.1575  0.0754
18746SOL     OW67891   1.894   9.722   2.005  0.4044  0.4730 -0.3243
18746SOL    HW167892   1.896   9.670   2.091  2.8429  2.0794  0.6470
18746SOL    HW267893   1.949   9.805   2.015  2.0430 -0.0798 -3.9812
18747SOL     OW67894   7.733   1.827   4.526  0.2183  0.0188  0.3938
18747SOL    HW167895   7.716   1.732   4.552  1.2659 -0.6724 -1.3673
18747SOL    HW267896   7.651   1.865   4.484 -1.7476  1.3811  5.1748
18748SOL     OW67897   1.588   8.254   2.227 -0.1536 -0.7315 -0.2284
18748SOL    HW167898   1.600   8.327   2.159 -1.9604 -0.2913 -0.1121
18748SOL    HW267899   1.677   8.224   2.260  0.6093  1.8302  0.1583
18749SOL     OW67900   3.489   3.119   2.883  0.0087 -0.1710  0.3302
18749SOL    HW167901   3.396   3.140   2.913  0.3088 -0.4336  1.4805
18749SOL    HW267902   3.486   3.067   2.798 -0.9147 -0.5013  0.5626
18750SOL     OW67903   8.174   0.714   6.030 -0.1000 -0.1447 -0.1012
18750SOL    HW167904   8.251   0.735   6.090 -0.9398  0.8158  0.6689
18750SOL    HW267905   8.206   0.662   5.950  1.0997 -0.9939  0.9237
18751SOL     OW67906   0.332   0.657   4.886  0.4886  0.2695 -0.2545
18751SOL    HW167907   0.335   0.695   4.794 -0.4596 -0.2209 -0.4976
18751SOL    HW267908   0.412   0.598   4.901 -0.2413 -1.0394 -1.3940
18752SOL     OW67909   8.619   9.361   6.588 -0.1428  0.5204 -0.1385
18752SOL    HW167910   8.566   9.345   6.504 -0.2546 -2.5990  0.4890
18752SOL    HW267911   8.571   9.320   6.666  0.2984  2.8218  1.3818
18753SOL     OW67912   1.080   8.504   2.732  0.3608 -0.0780  0.1269
18753SOL    HW167913   1.008   8.436   2.722  1.3111 -0.8232 -1.7373
18753SOL    HW267914   1.049   8.591   2.695 -0.3695  0.1812  1.3183
18754SOL     OW67915   9.092   7.618   2.966  0.6614  0.0455  0.1054
18754SOL    HW167916   9.003   7.578   2.945  1.4847 -1.5419 -0.4654
18754SOL    HW267917   9.082   7.716   2.984 -1.1427 -0.0634 -0.2499
18755SOL     OW67918   0.165   5.404   2.925  0.4147 -0.2415  0.1692
18755SOL    HW167919   0.163   5.338   2.850 -0.0222  0.1895 -0.1995
18755SOL    HW267920   0.205   5.361   3.006 -2.2620 -1.7897  0.7245
18756SOL     OW67921   3.099   0.543   0.602  0.2258  0.1035  0.2726
18756SOL    HW167922   3.190   0.521   0.637  0.1216  0.6622  0.9038
18756SOL    HW267923   3.107   0.600   0.521  0.4452 -0.1932  0.0846
18757SOL     OW67924   9.283   1.294   2.287 -0.2315 -0.4873 -0.3869
18757SOL    HW167925   9.370   1.279   2.334 -0.6289  1.1970  0.9362
18757SOL    HW267926   9.258   1.390   2.292 -2.2626 -0.9780 -0.5920
18758SOL     OW67927   1.104   4.421   3.817 -0.1780  0.1431  0.1476
18758SOL    HW167928   1.035   4.365   3.772  0.9280 -0.9993 -0.1718
18758SOL    HW267929   1.064   4.465   3.898 -0.4050 -3.3245  2.0474
18759SOL     OW67930   0.311   6.384   4.173  0.0905 -0.3414  0.0670
18759SOL    HW167931   0.306   6.475   4.215  0.5958 -0.5281  0.5332
18759SOL    HW267932   0.256   6.384   4.089 -0.4258  0.2111  0.3945
18760SOL     OW67933   3.994   0.916   3.046  0.3889  0.0350  0.1975
18760SOL    HW167934   4.020   0.936   2.951 -1.0416  1.5516  0.1164
18760SOL    HW267935   4.052   0.969   3.108 -1.5742  2.4289  0.0455
18761SOL     OW67936   0.622   5.709   1.389 -0.0572  0.1321 -0.0661
18761SOL    HW167937   0.604   5.624   1.339 -0.3741  0.2295 -0.1190
18761SOL    HW267938   0.639   5.783   1.325 -0.6808  0.3045 -0.0321
18762SOL     OW67939   6.041   9.307   6.223 -0.5321  0.0013 -0.2450
18762SOL    HW167940   6.074   9.400   6.240 -0.1941  0.1784 -1.8054
18762SOL    HW267941   5.986   9.277   6.300  1.9974  0.2829  1.7502
18763SOL     OW67942   1.866   7.727   4.209  0.6861 -0.2887  0.1209
18763SOL    HW167943   1.878   7.805   4.148 -1.4594  0.5538  0.7136
18763SOL    HW267944   1.818   7.757   4.292 -1.0889 -2.4200 -0.0946
18764SOL     OW67945   9.399   8.359   3.419  0.1713 -0.5773 -0.3880
18764SOL    HW167946   9.308   8.345   3.459  0.1091  1.0662  0.0871
18764SOL    HW267947   9.421   8.457   3.419  1.0011 -0.7273 -2.5771
18765SOL     OW67948   2.424   8.282   1.281  0.4083 -0.6539  0.0537
18765SOL    HW167949   2.413   8.377   1.253  1.2128 -0.3917  0.6057
18765SOL    HW267950   2.441   8.225   1.201  2.5290  0.0611 -0.0270
18766SOL     OW67951   1.586   5.847   2.937 -0.2429  0.0194  0.3529
18766SOL    HW167952   1.507   5.908   2.942 -0.2349 -0.0801  2.0512
18766SOL    HW267953   1.569   5.777   2.868 -1.8128 -0.2376  0.9685
18767SOL     OW67954   9.835   4.778   3.096  0.2334 -0.0863  0.2918
18767SOL    HW167955   9.903   4.769   3.024 -1.0676 -1.0792 -0.8445
18767SOL    HW267956   9.765   4.706   3.085  0.0388 -0.2595  2.5505
18768SOL     OW67957   2.481   3.476   5.389  1.1889 -0.2504 -0.2074
18768SOL    HW167958   2.482   3.563   5.438 -0.8320 -1.2006  1.5685
18768SOL    HW267959   2.406   3.476   5.323  0.0148 -1.3175  1.1008
18769SOL     OW67960   0.571   6.013   2.442  0.1426  0.7793  0.0941
18769SOL    HW167961   0.482   6.050   2.417  0.1923  0.1857 -1.0379
18769SOL    HW267962   0.588   6.028   2.539 -0.9564  1.3703  0.2046
18770SOL     OW67963   9.117   9.953   5.482  0.0874 -0.1522 -0.0569
18770SOL    HW167964   9.204   9.912   5.457  0.5202  1.2550 -0.8825
18770SOL    HW267965   9.058   9.883   5.524  0.8051 -1.6043 -1.4312
18771SOL     OW67966   1.425   3.336   2.200 -0.7542 -0.6871  0.0130
18771SOL    HW167967   1.504   3.318   2.258  0.3809 -1.8618 -1.8424
18771SOL    HW267968   1.359   3.392   2.250  1.2286  0.2968  1.5901
18772SOL     OW67969   4.607   4.353   5.583 -0.0234 -0.6132  0.1080
18772SOL    HW167970   4.624   4.258   5.557  0.8786 -0.7724  1.2556
18772SOL    HW267971   4.576   4.404   5.503 -1.0630 -1.9997 -0.3843
18773SOL     OW67972   5.382   1.852   3.905 -0.0683  0.4300  0.3670
18773SOL    HW167973   5.427   1.930   3.948  0.9510  1.3215 -2.2449
18773SOL    HW267974   5.303   1.884   3.852  1.9405  0.1383 -2.9833
18774SOL     OW67975   3.226   9.718   7.757 -0.1189  0.3454 -0.4290
18774SOL    HW167976   3.301   9.740   7.694 -1.8656 -0.6202 -2.9002
18774SOL    HW267977   3.165   9.797   7.765  0.3054  0.5961  0.3715
18775SOL     OW67978   7.078   3.874   7.416  0.2273  0.1848  0.2533
18775SOL    HW167979   7.023   3.866   7.499  0.2512 -1.5574  0.1354
18775SOL    HW267980   7.038   3.942   7.355 -1.7585 -0.9496  0.2303
18776SOL     OW67981   3.369   3.458   2.429  0.2303  0.1042 -0.0816
18776SOL    HW167982   3.363   3.542   2.374 -0.8930  0.0566 -0.0414
18776SOL    HW267983   3.348   3.480   2.524  1.9890  0.1513  0.3246
18777SOL     OW67984   3.015   9.026   0.794  0.5453  0.6790  0.1596
18777SOL    HW167985   3.097   9.004   0.847 -0.7259 -1.6063  1.2441
18777SOL    HW267986   2.993   8.949   0.733 -1.7355  0.5033  1.1340
18778SOL     OW67987   3.292   1.157   4.375 -0.2709 -0.5204  0.3957
18778SOL    HW167988   3.203   1.113   4.387  0.2172 -1.5585  0.1678
18778SOL    HW267989   3.313   1.163   4.277  1.2896 -3.0255  0.5512
18779SOL     OW67990   6.521   3.297   1.235  0.1444 -0.0238 -0.3022
18779SOL    HW167991   6.597   3.348   1.275 -0.0795  1.4991 -1.7502
18779SOL    HW267992   6.460   3.360   1.188 -0.1970 -1.6145 -2.0657
18780SOL     OW67993   1.571   8.519   7.522 -0.1347  0.4000  0.2329
18780SOL    HW167994   1.600   8.536   7.428  0.7575  0.1980  0.4752
18780SOL    HW267995   1.503   8.446   7.524  0.1784  0.1028 -0.2007
18781SOL     OW67996   5.843   8.686   6.131  0.4444 -0.5400  0.4718
18781SOL    HW167997   5.901   8.672   6.210  1.0950 -0.4258  0.0216
18781SOL    HW267998   5.896   8.729   6.058 -0.3328  0.0410  0.2327
18782SOL     OW67999   7.830   6.502   2.310 -0.1830 -0.1724 -0.0945
18782SOL    HW168000   7.775   6.541   2.384 -1.7106 -0.1338 -1.2280
18782SOL    HW268001   7.895   6.571   2.277 -1.0775  0.5537 -0.3363
18783SOL     OW68002   1.885   1.780   0.005  0.1847  0.0379 -0.2899
18783SOL    HW168003   1.860   1.691   0.043 -0.2699 -0.2924 -1.3428
18783SOL    HW268004   1.980   1.802   0.030 -0.5068  0.4455  2.1378
18784SOL     OW68005   7.973   1.364   7.664 -0.4189 -0.3009  0.3098
18784SOL    HW168006   7.889   1.391   7.618 -1.4527 -0.2987  2.1438
18784SOL    HW268007   8.004   1.439   7.724  0.7696 -0.3848 -0.1798
18785SOL     OW68008   2.830   6.288   4.306 -0.0123  0.6836 -0.2301
18785SOL    HW168009   2.833   6.197   4.265 -0.3528  0.1591  0.8902
18785SOL    HW268010   2.914   6.305   4.356 -0.0649  0.8743 -0.2067
18786SOL     OW68011   8.940   1.416   8.157 -0.2211 -0.2806  0.1197
18786SOL    HW168012   9.030   1.454   8.177  0.3169 -1.5180  0.0688
18786SOL    HW268013   8.873   1.453   8.221  0.1454  1.3121 -0.3826
18787SOL     OW68014   8.253   5.768   6.117 -0.4020 -0.2682  0.1056
18787SOL    HW168015   8.204   5.853   6.134 -0.5571 -0.1487 -0.9098
18787SOL    HW268016   8.240   5.740   6.022 -1.3165 -2.0497  0.7235
18788SOL     OW68017   9.389   1.720   0.425 -0.2237  0.0746 -0.2632
18788SOL    HW168018   9.421   1.756   0.338 -0.1980  0.8873  0.0860
18788SOL    HW268019   9.289   1.728   0.431 -0.0089  2.2079  0.7689
18789SOL     OW68020   0.030   1.512   0.044 -0.4373 -0.6041  0.7586
18789SOL    HW168021   0.121   1.543   0.072 -0.8919  1.7819 -0.2864
18789SOL    HW268022   0.035   1.416   0.015  1.4392 -0.9272  2.0910
18790SOL     OW68023   3.138   5.332   3.970 -0.5735 -0.0300  0.2225
18790SOL    HW168024   3.155   5.297   3.878 -2.1901  0.2082 -0.1931
18790SOL    HW268025   3.093   5.262   4.025  0.5528 -0.2343  0.8950
18791SOL     OW68026   0.378   5.873   5.881  0.1829  0.4862  0.2226
18791SOL    HW168027   0.375   5.890   5.979  0.2578 -0.0760  0.3276
18791SOL    HW268028   0.394   5.958   5.832 -0.8465  0.9256  0.6425
18792SOL     OW68029   1.781   7.422   7.699 -0.6415  0.0756  0.0680
18792SOL    HW168030   1.875   7.429   7.731 -0.5900  1.3701 -0.3036
18792SOL    HW268031   1.723   7.387   7.772 -0.2589  1.4634  1.0582
18793SOL     OW68032   7.005   7.574   3.330  0.9191 -0.3297  0.3171
18793SOL    HW168033   7.043   7.664   3.350  1.0252 -0.7794  2.2847
18793SOL    HW268034   7.065   7.503   3.367 -0.7735 -1.0982  1.7358
18794SOL     OW68035   0.953   9.023   1.814  0.3110 -0.6505  0.2000
18794SOL    HW168036   0.985   9.054   1.725  0.3295  1.4141  0.8945
18794SOL    HW268037   0.905   8.936   1.804  0.6234 -0.6175 -1.7585
18795SOL     OW68038   8.935   6.619   4.798 -0.3473  0.3717 -0.1839
18795SOL    HW168039   8.944   6.530   4.843  0.2317 -0.0991 -1.2094
18795SOL    HW268040   8.942   6.606   4.699  0.3645  1.6448 -0.2987
18796SOL     OW68041   6.654   3.786   0.994 -0.1414  0.7063  0.8534
18796SOL    HW168042   6.701   3.861   1.041 -1.2466  0.7865  1.8650
18796SOL    HW268043   6.673   3.700   1.042  1.4255  0.2605 -0.5209
18797SOL     OW68044   7.234   6.856   4.714  0.3136 -0.1707 -0.0785
18797SOL    HW168045   7.281   6.767   4.709 -1.6416 -1.3980  2.1790
18797SOL    HW268046   7.271   6.908   4.791  2.1243  1.4462 -1.9722
18798SOL     OW68047   8.305   7.847   7.501  0.0955 -0.1793  0.1885
18798SOL    HW168048   8.254   7.846   7.415 -0.0363 -0.6795  0.2731
18798SOL    HW268049   8.386   7.904   7.490 -0.2846  0.3196 -0.0585
18799SOL     OW68050   5.855   1.740   3.153 -0.4141 -0.4813 -0.1930
18799SOL    HW168051   5.897   1.654   3.184 -0.1472 -0.0562  0.6364
18799SOL    HW268052   5.875   1.812   3.219  0.0720  0.4251 -1.3071
18800SOL     OW68053   9.773   2.482   3.787 -0.6661  0.2712 -0.1331
18800SOL    HW168054   9.776   2.448   3.693  0.0719  0.4003 -0.1606
18800SOL    HW268055   9.824   2.568   3.792  0.3980 -0.3976  0.6558
18801SOL     OW68056   0.669   0.971   2.846  0.1276  0.3059 -0.7881
18801SOL    HW168057   0.683   1.049   2.785 -0.2414  1.6439  0.8294
18801SOL    HW268058   0.571   0.961   2.866  0.5120  1.8097  2.0732
18802SOL     OW68059   9.723   2.094   4.796  0.4819 -0.2263  0.0846
18802SOL    HW168060   9.641   2.084   4.852 -0.7287  1.6685 -1.2949
18802SOL    HW268061   9.804   2.088   4.854 -0.7204  1.2638  1.9786
18803SOL     OW68062   0.743   4.519   4.787  0.2745  0.2148 -0.4646
18803SOL    HW168063   0.825   4.526   4.844 -0.4666  0.0578  0.6290
18803SOL    HW268064   0.715   4.423   4.780 -1.1553  0.5126  1.0787
18804SOL     OW68065   0.919   3.054   1.581 -0.0367  0.3985 -0.1743
18804SOL    HW168066   0.897   3.151   1.582 -2.5354 -0.1436  1.9135
18804SOL    HW268067   1.012   3.040   1.616 -0.1849  1.9127  0.8582
18805SOL     OW68068   9.203   1.045   6.677 -0.0149 -0.4714 -0.3786
18805SOL    HW168069   9.164   0.954   6.673 -1.2030 -0.0582  1.3759
18805SOL    HW268070   9.147   1.103   6.736  2.2733  0.6139  0.8024
18806SOL     OW68071   7.638   4.236   5.489 -0.0843 -0.1287  0.3786
18806SOL    HW168072   7.647   4.181   5.406 -0.2459  0.8837 -0.3299
18806SOL    HW268073   7.542   4.259   5.504 -0.0926 -0.5872  1.0344
18807SOL     OW68074   4.940   6.045   2.511  0.3527  0.0475  0.1029
18807SOL    HW168075   4.982   6.125   2.468  1.4234 -0.4526  0.1937
18807SOL    HW268076   4.897   6.072   2.597  2.4470  0.1960  1.1509
18808SOL     OW68077   3.129   4.112   4.858  0.0824 -0.4913 -0.0078
18808SOL    HW168078   3.146   4.208   4.881  0.6178 -0.2733 -1.2892
18808SOL    HW268079   3.165   4.054   4.931 -1.4257  0.3076  1.4361
18809SOL     OW68080   9.374   5.386   3.605  0.1510 -0.2476  0.0466
18809SOL    HW168081   9.427   5.303   3.619  1.0202  0.3229  0.2155
18809SOL    HW268082   9.403   5.455   3.672 -1.4801 -0.2417  0.7812
18810SOL     OW68083   1.479   4.747   1.337 -0.2103  0.3438  0.4224
18810SOL    HW168084   1.520   4.697   1.260  0.3016 -0.3915  1.1670
18810SOL    HW268085   1.394   4.790   1.307  0.0826  0.2255 -0.6115
18811SOL     OW68086   3.053   4.516   3.922  0.0248 -0.3968  0.6198
18811SOL    HW168087   2.955   4.516   3.900  0.3485  0.1703 -0.8901
18811SOL    HW268088   3.105   4.498   3.839  1.2437  0.1181  1.2681
18812SOL     OW68089   2.972   4.828   2.560  0.3580 -0.2463 -0.2462
18812SOL    HW168090   2.885   4.842   2.512  0.8482 -0.3354 -1.1882
18812SOL    HW268091   2.956   4.818   2.658 -0.6445  0.1947 -0.3653
18813SOL     OW68092   2.437   6.963   1.135 -0.3770 -0.1680 -0.0172
18813SOL    HW168093   2.487   6.878   1.152 -2.0905 -0.8521  1.7333
18813SOL    HW268094   2.492   7.040   1.167 -0.7541 -0.9747  2.6848
18814SOL     OW68095   9.408   9.398   6.393 -0.2898  0.0589  0.1331
18814SOL    HW168096   9.454   9.470   6.445 -1.4166  0.6646  0.3218
18814SOL    HW268097   9.459   9.313   6.400 -0.0090  0.3385  1.5707
18815SOL     OW68098   1.761   2.758   6.518 -0.4511  0.0850  0.2365
18815SOL    HW168099   1.744   2.787   6.424  0.8223  0.5214  0.1341
18815SOL    HW268100   1.702   2.680   6.540  0.9827 -1.6395 -1.7637
18816SOL     OW68101   8.262   0.344   2.285 -0.1178  0.1988 -0.1904
18816SOL    HW168102   8.254   0.339   2.186 -0.1427  2.0507 -0.2965
18816SOL    HW268103   8.352   0.381   2.310 -0.3022  0.2107  0.4727
18817SOL     OW68104   2.479   8.917   6.013  0.1387 -0.4389 -0.7630
18817SOL    HW168105   2.481   8.838   5.953  0.7183 -1.7513  0.9310
18817SOL    HW268106   2.517   8.892   6.102  1.4736  2.0735 -0.5778
18818SOL     OW68107   8.987   7.143   4.608  0.3647 -0.7219  0.4886
18818SOL    HW168108   8.966   7.183   4.697 -0.1697 -0.2381  0.1491
18818SOL    HW268109   8.940   7.195   4.536 -0.7664 -2.2775  0.0786
18819SOL     OW68110   7.902   1.202   4.189 -0.2970  0.4206  0.0350
18819SOL    HW168111   7.804   1.206   4.167 -0.4165 -0.4431  0.3955
18819SOL    HW268112   7.917   1.238   4.281 -0.4822 -0.9109  0.5922
18820SOL     OW68113   8.901   2.857   4.859 -0.2733 -0.6841  0.3755
18820SOL    HW168114   8.908   2.773   4.913 -0.6588 -1.1121 -0.2306
18820SOL    HW268115   8.874   2.834   4.766  2.1837 -0.1160 -0.5033
18821SOL     OW68116   1.071   0.265   0.880  0.6173 -0.0664 -0.3330
18821SOL    HW168117   1.110   0.330   0.946 -0.1795 -0.1055  0.1828
18821SOL    HW268118   1.001   0.209   0.925 -0.2128  0.1697 -1.3088
18822SOL     OW68119   4.638   2.805   5.248 -0.6056 -0.5041 -0.4175
18822SOL    HW168120   4.666   2.778   5.156 -1.7192 -2.7215 -0.1359
18822SOL    HW268121   4.696   2.760   5.316  1.5158  2.6454  0.0129
18823SOL     OW68122   0.761   3.164   6.032  0.3703  0.1167 -0.1166
18823SOL    HW168123   0.770   3.262   6.050 -1.8445  0.6268 -1.6285
18823SOL    HW268124   0.852   3.121   6.035  1.4170  2.2952  0.0395
18824SOL     OW68125   9.021   8.171   5.845 -0.0307  0.4736  0.1697
18824SOL    HW168126   8.955   8.101   5.874 -1.1353  1.9081  1.1816
18824SOL    HW268127   9.042   8.158   5.748 -3.5378  1.2800 -0.7966
18825SOL     OW68128   6.834   3.294   0.257 -0.0954 -0.3219  0.4413
18825SOL    HW168129   6.778   3.356   0.311  0.6159  1.8778 -1.2523
18825SOL    HW268130   6.777   3.248   0.188 -0.3804 -0.5308  0.8163
18826SOL     OW68131   0.201   3.887   1.944 -0.0195  0.0614  0.1929
18826SOL    HW168132   0.214   3.824   1.867  0.3397  0.6338 -0.2111
18826SOL    HW268133   0.180   3.834   2.027  1.3190 -0.6638  0.0830
18827SOL     OW68134   5.154   3.921   8.037  0.4437 -0.1694  0.0764
18827SOL    HW168135   5.057   3.933   8.057  0.6347 -0.1234  1.0006
18827SOL    HW268136   5.209   3.956   8.113  1.0857 -3.6229  1.3144
18828SOL     OW68137   3.401   1.764   0.367  0.4098  0.3255 -0.4236
18828SOL    HW168138   3.435   1.773   0.274  0.6821  1.2737 -0.2359
18828SOL    HW268139   3.462   1.813   0.430  0.8401 -1.2137  0.3857
18829SOL     OW68140   4.631   5.356   7.082 -0.1077  0.0643 -0.0625
18829SOL    HW168141   4.617   5.260   7.108  0.9473  0.2089  1.1058
18829SOL    HW268142   4.726   5.381   7.101 -0.2995  1.2522 -0.6735
18830SOL     OW68143   7.301   1.865   2.376 -0.1386  0.3499  0.2874
18830SOL    HW168144   7.252   1.936   2.325 -0.4435 -0.7498 -0.9598
18830SOL    HW268145   7.340   1.906   2.459  0.3874  2.1685 -0.8045
18831SOL     OW68146   0.882   6.150   5.001  0.4579 -0.1480  0.1221
18831SOL    HW168147   0.852   6.229   5.054 -1.7640 -0.6408 -0.3385
18831SOL    HW268148   0.817   6.132   4.928  0.4156 -2.9632  0.7793
18832SOL     OW68149   0.023   1.831   2.455 -0.0278 -0.6752  0.1621
18832SOL    HW168150  -0.066   1.861   2.420  0.3120 -0.9991 -1.0014
18832SOL    HW268151   0.077   1.791   2.381  1.8195  1.1772  0.4665
18833SOL     OW68152   3.840   5.514   1.572 -0.7036 -0.2742  0.2441
18833SOL    HW168153   3.917   5.531   1.510 -0.7955  1.8302  0.6796
18833SOL    HW268154   3.791   5.600   1.589 -3.2960 -1.6223 -0.1966
18834SOL     OW68155   2.687   8.193   2.683  0.4399 -0.2219  0.5145
18834SOL    HW168156   2.609   8.179   2.744 -1.4146  0.7715 -1.5910
18834SOL    HW268157   2.690   8.119   2.616  0.6849  0.3065 -0.0593
18835SOL     OW68158   6.640   1.865   4.187 -0.0354  0.1184  0.3481
18835SOL    HW168159   6.549   1.831   4.212  0.8869 -1.2759  1.9283
18835SOL    HW268160   6.651   1.959   4.221 -0.9855  0.3889 -0.0907
18836SOL     OW68161   6.368   1.490   0.631 -0.3281  0.2872 -0.0842
18836SOL    HW168162   6.287   1.441   0.598 -1.0800  0.0970  1.9399
18836SOL    HW268163   6.339   1.576   0.673  0.5205  0.2508  0.5907
18837SOL     OW68164   7.045   5.398   8.157  0.0233 -0.0426 -0.4372
18837SOL    HW168165   7.019   5.416   8.252 -0.5893 -1.1299 -0.3920
18837SOL    HW268166   7.143   5.414   8.146  0.4431 -1.6607  0.8163
18838SOL     OW68167   8.403   7.492   4.705 -0.0190 -0.0054 -0.0834
18838SOL    HW168168   8.377   7.496   4.802 -0.0701  1.2204 -0.1401
18838SOL    HW268169   8.499   7.464   4.698  0.5181  1.6155  0.4221
18839SOL     OW68170   2.984   2.056   5.526  0.0267  0.3552 -0.3288
18839SOL    HW168171   2.988   1.959   5.503  1.1629  0.5326 -0.9286
18839SOL    HW268172   3.035   2.073   5.611  0.0298  0.4559 -0.3498
18840SOL     OW68173   0.938   4.876   2.492  0.0038 -0.1868 -0.0733
18840SOL    HW168174   0.842   4.853   2.510  0.6734 -1.1891  2.3721
18840SOL    HW268175   0.973   4.933   2.567  1.5101 -0.3799 -0.6168
18841SOL     OW68176   0.658   9.272   1.425  0.2421 -0.6787  0.2826
18841SOL    HW168177   0.676   9.327   1.343 -0.0087 -2.1491 -0.7903
18841SOL    HW268178   0.710   9.186   1.419  1.0213 -0.3613  2.1626
18842SOL     OW68179   6.403   8.905   3.447  0.7426  0.0404  0.9207
18842SOL    HW168180   6.392   8.827   3.508 -0.0702  0.0716  0.8233
18842SOL    HW268181   6.330   8.904   3.379  0.3782  1.2059  1.2787
18843SOL     OW68182   2.747   2.181   2.213  0.4305  0.2202  0.0855
18843SOL    HW168183   2.812   2.237   2.264  0.2839  1.2519 -0.8271
18843SOL    HW268184   2.737   2.219   2.121 -1.1233 -0.2029  0.0748
18844SOL     OW68185   1.796   5.223   1.921  0.4433  0.7674 -0.1203
18844SOL    HW168186   1.752   5.283   1.855  1.8657  0.1054 -1.6980
18844SOL    HW268187   1.767   5.129   1.905 -0.3091  0.7861  1.1171
18845SOL     OW68188   3.776   5.900   6.074  0.2324  0.2842  0.2911
18845SOL    HW168189   3.681   5.914   6.046  1.4780 -0.9921 -5.1009
18845SOL    HW268190   3.820   5.989   6.086 -0.6294  0.8988 -0.9994
18846SOL     OW68191   3.804   2.917   3.243  0.1728  0.0119  0.0770
18846SOL    HW168192   3.752   2.976   3.181 -1.6186 -0.9579  0.6480
18846SOL    HW268193   3.897   2.906   3.206 -0.0590  1.5674 -1.0615
18847SOL     OW68194   0.766   4.147   3.410  0.6256  0.0453  0.5563
18847SOL    HW168195   0.805   4.208   3.341 -0.3123 -0.6232 -0.5821
18847SOL    HW268196   0.837   4.086   3.445  0.9861  0.0149 -0.2191
18848SOL     OW68197   8.706   3.048   3.396  0.0322 -0.2209 -0.0508
18848SOL    HW168198   8.801   3.075   3.379 -0.7050  0.8444 -2.7083
18848SOL    HW268199   8.657   3.125   3.437  0.0814 -0.4538  0.4452
18849SOL     OW68200   6.838   7.132   6.344  0.0626  0.0083  0.0111
18849SOL    HW168201   6.770   7.074   6.300 -1.0839  1.0130  0.4267
18849SOL    HW268202   6.800   7.223   6.358  1.2311  0.3674  0.9505
18850SOL     OW68203   8.239   3.528   2.027 -0.1967 -0.4790 -0.3180
18850SOL    HW168204   8.176   3.540   2.104 -0.0169 -0.9943 -0.0862
18850SOL    HW268205   8.315   3.468   2.055  0.7705  0.6985 -0.3827
18851SOL     OW68206   7.594   9.907   7.774 -0.3812  0.0749  0.2376
18851SOL    HW168207   7.629   9.970   7.844  2.1640 -1.4198  0.3874
18851SOL    HW268208   7.581   9.817   7.814 -2.1594  0.0249 -0.4290
18852SOL     OW68209   1.160   1.401   4.533  0.3001 -0.4320  0.5052
18852SOL    HW168210   1.064   1.376   4.525  0.0672 -0.1106  2.1156
18852SOL    HW268211   1.214   1.347   4.468 -0.9994 -0.3736 -0.6326
18853SOL     OW68212   0.890   5.204   5.266  0.4792 -0.3607  0.0371
18853SOL    HW168213   0.989   5.206   5.278  0.3078  0.6228  1.4177
18853SOL    HW268214   0.845   5.221   5.354 -0.9360 -1.9215 -0.3467
18854SOL     OW68215   4.242   0.385   4.280  0.6027  0.1938  0.2268
18854SOL    HW168216   4.282   0.454   4.220  0.8534  0.0863  0.2685
18854SOL    HW268217   4.154   0.354   4.242  1.9290 -1.6804 -1.4112
18855SOL     OW68218   1.770   5.784   2.624  0.7297  0.4296  0.5706
18855SOL    HW168219   1.867   5.782   2.648  1.4146 -0.7047 -2.1316
18855SOL    HW268220   1.723   5.710   2.671  2.1935 -2.2386 -1.9588
18856SOL     OW68221   2.944   2.352   6.212 -0.3109 -0.5383  0.0882
18856SOL    HW168222   2.956   2.449   6.190  1.7351 -0.6879  0.4126
18856SOL    HW268223   2.868   2.315   6.160 -2.6237  1.7930  1.6675
18857SOL     OW68224   4.366   9.894   2.257  0.3232  0.3709  0.6050
18857SOL    HW168225   4.310   9.822   2.216 -0.9131  1.7399 -0.1676
18857SOL    HW268226   4.454   9.900   2.210 -0.4139  0.7779 -0.7433
18858SOL     OW68227   6.553   2.434   4.920 -0.3523  0.4889  0.1976
18858SOL    HW168228   6.536   2.475   4.831  0.6682  2.6889  0.9800
18858SOL    HW268229   6.643   2.390   4.920 -0.2254  0.7499  0.2402
18859SOL     OW68230   7.657   6.043   0.055 -0.1456 -0.2523 -0.0122
18859SOL    HW168231   7.605   6.127   0.073  0.8905  0.3007  0.4477
18859SOL    HW268232   7.605   5.964   0.084 -0.1516  0.3847  1.7534
18860SOL     OW68233   9.981   7.405   4.024 -0.5181 -0.2671 -0.4127
18860SOL    HW168234  10.054   7.393   4.091 -0.7009  0.6587 -0.0525
18860SOL    HW268235   9.912   7.467   4.060 -1.5022 -1.1569 -0.7426
18861SOL     OW68236   4.857   6.649   0.748  1.2474  0.1772  0.3527
18861SOL    HW168237   4.799   6.664   0.668 -0.1645  1.3495  1.5701
18861SOL    HW268238   4.844   6.724   0.813  0.9653 -1.7135  2.5270
18862SOL     OW68239   2.022   7.910   0.281 -0.1453 -0.0629  0.5932
18862SOL    HW168240   2.063   7.842   0.220  0.1442  0.0653  0.6457
18862SOL    HW268241   1.944   7.952   0.235 -0.2840 -0.3811  0.5347
18863SOL     OW68242   9.569   1.108   1.396 -0.4791 -0.0023  0.5045
18863SOL    HW168243   9.539   1.025   1.443 -2.1319  1.0478  1.3655
18863SOL    HW268244   9.523   1.187   1.437  0.9520  1.3169 -0.4049
18864SOL     OW68245   0.878   0.616   6.899  0.2380 -0.0949  0.3788
18864SOL    HW168246   0.973   0.630   6.926  0.1173  0.4856  0.5062
18864SOL    HW268247   0.849   0.691   6.840 -0.0026 -0.5082 -0.0262
18865SOL     OW68248   9.422   6.858   1.477  0.4082  0.1325  0.1019
18865SOL    HW168249   9.414   6.956   1.496 -3.3209 -0.1085  0.2287
18865SOL    HW268250   9.411   6.807   1.563 -2.3648 -0.4853 -0.5544
18866SOL     OW68251   9.093   0.694   7.766 -0.2975  0.3017  0.1048
18866SOL    HW168252   9.180   0.648   7.749 -0.0502  0.7391  0.1747
18866SOL    HW268253   9.078   0.700   7.865  0.7206  2.2898  0.1725
18867SOL     OW68254   2.380   3.844   3.812 -0.1288 -0.1093 -0.1213
18867SOL    HW168255   2.296   3.860   3.863  0.0139  0.6530 -0.1043
18867SOL    HW268256   2.425   3.761   3.844  0.7533  1.1786  2.0736
18868SOL     OW68257   1.794   2.823   5.365  0.2207  0.0446 -0.1658
18868SOL    HW168258   1.875   2.835   5.307  1.3150 -0.0869  1.2996
18868SOL    HW268259   1.788   2.728   5.395 -0.5535  0.0254 -0.3766
18869SOL     OW68260   5.631   3.992   0.118  0.0118  0.1537 -0.5029
18869SOL    HW168261   5.572   3.968   0.041 -1.5822 -0.6230  0.9446
18869SOL    HW268262   5.608   3.935   0.197  0.8079  1.7852  0.9260
18870SOL     OW68263   0.877   3.187   7.324 -0.1593  0.0007  0.1241
18870SOL    HW168264   0.830   3.099   7.331 -1.6784  0.8986  1.3925
18870SOL    HW268265   0.896   3.207   7.228 -2.0330 -0.5555 -0.3827
18871SOL     OW68266   3.482   4.254   2.340 -0.6599 -0.1255  0.2301
18871SOL    HW168267   3.450   4.345   2.315 -1.4326 -0.8709 -1.5616
18871SOL    HW268268   3.497   4.200   2.258  2.8407 -0.6211  1.1209
18872SOL     OW68269   3.281   4.141   3.420 -0.6804  0.4869  0.0767
18872SOL    HW168270   3.267   4.120   3.323  0.4161  2.3156 -0.5030
18872SOL    HW268271   3.369   4.105   3.450  0.5947  2.8859 -0.5744
18873SOL     OW68272   5.741   9.245   3.648 -0.5412 -0.0467  0.3312
18873SOL    HW168273   5.776   9.173   3.589 -2.0833 -0.8188  0.3212
18873SOL    HW268274   5.642   9.253   3.636 -0.2910  2.6452 -0.2762
18874SOL     OW68275   3.345   8.134   6.289 -0.2178 -0.4656 -0.0467
18874SOL    HW168276   3.331   8.232   6.277 -2.3419 -0.6319  0.8378
18874SOL    HW268277   3.258   8.086   6.276  0.6169 -2.1514  0.4129
18875SOL     OW68278   9.406  10.004   6.138  0.4247 -0.4162 -0.2721
18875SOL    HW168279   9.397  10.020   6.237 -1.4890 -0.5370 -0.4223
18875SOL    HW268280   9.434   9.909   6.123  1.0134 -0.3175  0.1585
18876SOL     OW68281   8.531   2.499   7.939 -0.0568  0.0044  0.3612
18876SOL    HW168282   8.585   2.451   8.008 -1.8331  0.4655  2.1103
18876SOL    HW268283   8.438   2.463   7.938 -0.9977  2.3437  0.6373
18877SOL     OW68284   0.813   9.309   5.000 -0.3411 -0.2651  0.0063
18877SOL    HW168285   0.840   9.350   5.088  1.2971 -0.6348 -0.3031
18877SOL    HW268286   0.819   9.210   5.007  3.1941 -0.2212 -1.5307
18878SOL     OW68287   4.279   2.980   0.022  0.8302  1.0415 -0.4497
18878SOL    HW168288   4.188   2.961  -0.014 -0.0193 -1.2062  2.7785
18878SOL    HW268289   4.282   3.074   0.057 -0.1830  1.1709 -0.6972
18879SOL     OW68290   4.637   3.638   6.204  0.0520  0.0398  0.6206
18879SOL    HW168291   4.541   3.621   6.181  0.5849  0.9721 -2.5440
18879SOL    HW268292   4.674   3.560   6.256 -2.4400 -0.2092  2.0986
18880SOL     OW68293   0.115   4.620   5.612  0.1028 -0.6836 -0.4791
18880SOL    HW168294   0.205   4.663   5.615  0.2615 -0.9751 -1.0179
18880SOL    HW268295   0.047   4.688   5.584  0.3347 -0.7466 -1.2158
18881SOL     OW68296   2.314   2.487   0.994 -0.0794 -0.3341  0.0817
18881SOL    HW168297   2.254   2.553   0.949 -1.0349 -1.1052  0.1912
18881SOL    HW268298   2.391   2.466   0.934 -0.3710  0.0232 -0.4212
18882SOL     OW68299   3.448   0.236   2.183 -0.1541 -0.1041  0.6715
18882SOL    HW168300   3.542   0.259   2.210  0.2544 -0.4214 -0.4583
18882SOL    HW268301   3.429   0.273   2.092 -1.2856  0.3540  1.0846
18883SOL     OW68302   3.690   6.460   4.401  0.1666  0.1922 -0.2593
18883SOL    HW168303   3.688   6.378   4.343 -0.5954 -0.7764  1.0808
18883SOL    HW268304   3.612   6.457   4.464  0.6109  1.5411  0.3586
18884SOL     OW68305   8.271   3.635   3.169 -0.1689  0.2609 -0.5012
18884SOL    HW168306   8.277   3.722   3.218  0.1640  0.8979 -1.6460
18884SOL    HW268307   8.363   3.597   3.159 -0.0953  0.7195 -1.6492
18885SOL     OW68308   0.231   4.807   5.307 -0.3312  0.0714  0.6166
18885SOL    HW168309   0.230   4.862   5.223 -0.8453 -0.6004  0.1741
18885SOL    HW268310   0.239   4.868   5.386  1.5547  0.6321  0.0272
18886SOL     OW68311   9.645   1.410   6.438  0.2246 -0.4057 -0.0132
18886SOL    HW168312   9.626   1.500   6.397 -0.3285 -0.0336  1.0661
18886SOL    HW268313   9.620   1.411   6.534  1.5494 -1.2861  0.3555
18887SOL     OW68314   8.397   8.929   2.125 -0.1927 -0.2453 -0.1149
18887SOL    HW168315   8.400   8.847   2.183 -0.9603  0.2173  0.5770
18887SOL    HW268316   8.314   8.981   2.145  0.6259  1.0475 -0.0959
18888SOL     OW68317   4.640   0.504   3.848  0.7235 -0.5413 -0.0749
18888SOL    HW168318   4.568   0.572   3.864 -0.6016 -2.2528  1.4443
18888SOL    HW268319   4.716   0.547   3.798  0.2361  2.2400  1.4313
18889SOL     OW68320   1.608   7.067   6.899  0.1209  0.3147  0.0642
18889SOL    HW168321   1.706   7.088   6.906  0.0093  0.7192  0.4074
18889SOL    HW268322   1.581   7.070   6.803 -0.2447  3.3862  0.2068
18890SOL     OW68323   8.140   3.773   5.129  0.2113  0.2273 -0.2504
18890SOL    HW168324   8.043   3.761   5.146  0.4775 -1.0832  0.4030
18890SOL    HW268325   8.180   3.825   5.205  0.1848 -0.0176 -0.0670
18891SOL     OW68326   1.115   2.667   6.687 -0.5979 -0.0563  0.3545
18891SOL    HW168327   1.115   2.659   6.587  1.7306  0.1994  0.3143
18891SOL    HW268328   1.037   2.617   6.724 -1.3236 -0.3952 -1.5734
18892SOL     OW68329   5.671   9.359   7.248 -0.4074 -0.4131  0.0217
18892SOL    HW168330   5.666   9.450   7.205 -2.5208 -0.4685  0.0849
18892SOL    HW268331   5.764   9.342   7.279  0.3601  1.1049 -1.3656
18893SOL     OW68332   6.581   0.378   1.965  0.5512  0.4776 -0.4879
18893SOL    HW168333   6.544   0.373   2.058  0.6951 -0.6160 -0.4802
18893SOL    HW268334   6.573   0.288   1.922 -0.4508  1.2281 -1.9013
18894SOL     OW68335   1.594   8.551   5.846  0.6441  0.6483  0.1567
18894SOL    HW168336   1.594   8.508   5.756  0.5041  1.9771 -0.4943
18894SOL    HW268337   1.598   8.651   5.835 -0.6640  0.8757  1.5994
18895SOL     OW68338   2.022   4.309   0.049  0.5191 -0.9595 -0.3783
18895SOL    HW168339   2.095   4.377   0.049  0.2322 -0.6209  1.2342
18895SOL    HW268340   2.019   4.264   0.138 -1.7259 -0.4105 -0.1411
18896SOL     OW68341   8.515   1.870   0.643  0.0479 -0.2572 -0.1587
18896SOL    HW168342   8.417   1.878   0.625 -0.0910 -1.1986  0.1468
18896SOL    HW268343   8.564   1.861   0.556  0.0157  1.5714 -0.4011
18897SOL     OW68344   1.545   7.434   3.644  0.0998 -0.5575  0.3989
18897SOL    HW168345   1.467   7.467   3.696 -1.9047 -1.9020 -1.6739
18897SOL    HW268346   1.551   7.334   3.652  0.5011 -0.6540 -0.9506
18898SOL     OW68347   2.264   2.094   2.524  0.1476 -0.1836  0.1863
18898SOL    HW168348   2.175   2.094   2.479 -1.3040  0.1919  2.9230
18898SOL    HW268349   2.299   2.188   2.531  1.1710 -0.4090 -1.5979
18899SOL     OW68350   2.317   5.719   1.848 -0.5067 -0.0067 -0.5339
18899SOL    HW168351   2.367   5.762   1.773 -1.9876 -0.2219 -1.6538
18899SOL    HW268352   2.257   5.647   1.813  0.7912 -1.9867  1.1517
18900SOL     OW68353   3.694   4.480   0.527 -0.1009  0.0560  0.0532
18900SOL    HW168354   3.702   4.570   0.570 -0.8854 -0.5079  1.4359
18900SOL    HW268355   3.690   4.490   0.428 -0.6484  1.5787  0.2097
18901SOL     OW68356   1.031   3.107   1.274 -0.6394  0.4075 -0.0620
18901SOL    HW168357   1.055   3.039   1.204  0.0377  1.5000 -0.9145
18901SOL    HW268358   1.041   3.066   1.364  2.2144  0.0710 -0.4591
18902SOL     OW68359   3.581   1.972   1.831  0.0337  0.2332  0.0297
18902SOL    HW168360   3.547   1.922   1.911 -1.8421 -0.0769 -0.9444
18902SOL    HW268361   3.553   1.925   1.747  2.5287  0.2051 -0.8425
18903SOL     OW68362   6.843   7.655   6.482 -0.5169  0.0003 -0.0591
18903SOL    HW168363   6.811   7.643   6.576  0.7287 -2.3310  0.0914
18903SOL    HW268364   6.942   7.637   6.478 -0.1037  2.3913 -1.3935
18904SOL     OW68365   0.960   6.420   6.521 -0.1559 -0.1996 -1.1449
18904SOL    HW168366   0.917   6.367   6.449 -0.1022 -1.7333 -0.0803
18904SOL    HW268367   0.975   6.362   6.601  1.4035  0.9949 -0.5261
18905SOL     OW68368   8.329   9.263   4.355  0.3777  0.1267  0.5043
18905SOL    HW168369   8.330   9.350   4.404 -0.8752  1.3135 -1.4907
18905SOL    HW268370   8.335   9.187   4.420  1.2717  1.6908  2.2819
18906SOL     OW68371   2.077   4.732   6.474 -0.7060 -0.6813  0.2526
18906SOL    HW168372   2.164   4.688   6.496  0.3732  1.0065 -0.5191
18906SOL    HW268373   2.089   4.795   6.397 -2.8552 -1.2104 -0.5741
18907SOL     OW68374   9.421   4.071   1.783 -0.2979 -0.2119  0.0064
18907SOL    HW168375   9.452   4.158   1.821 -0.2541 -0.3633  0.3252
18907SOL    HW268376   9.485   4.040   1.713 -0.4138  0.1025 -0.2393
18908SOL     OW68377   1.716   5.744   4.919  0.2798  1.2049  0.0766
18908SOL    HW168378   1.638   5.743   4.857  1.5929  1.5417 -1.6154
18908SOL    HW268379   1.736   5.839   4.946  0.6776  1.2160 -0.2462
18909SOL     OW68380   1.151   2.255   5.986  0.0744 -0.6791 -0.3950
18909SOL    HW168381   1.103   2.340   6.004  2.1566  0.5579 -0.4614
18909SOL    HW268382   1.236   2.253   6.038  0.4186 -2.3829 -0.9806
18910SOL     OW68383   2.306   6.156   4.866  0.1742  0.1612 -0.9791
18910SOL    HW168384   2.317   6.129   4.962  2.3196  0.8875 -0.9930
18910SOL    HW268385   2.369   6.230   4.845  1.1198 -1.2823 -3.4702
18911SOL     OW68386   4.681   4.288   2.259 -0.6293  0.1845 -0.0890
18911SOL    HW168387   4.627   4.209   2.230 -2.0099  0.8777  0.5226
18911SOL    HW268388   4.681   4.357   2.187 -0.6479  0.2207 -0.0539
18912SOL     OW68389   8.951   3.283   2.821 -0.0390 -0.7203  0.2929
18912SOL    HW168390   8.985   3.195   2.786  2.1306 -0.1200  0.8184
18912SOL    HW268391   8.951   3.350   2.747 -0.5261 -0.8321  0.1883
18913SOL     OW68392   0.552   6.416   2.879  0.0819 -0.6866 -0.0985
18913SOL    HW168393   0.608   6.343   2.918 -0.7250 -2.5038 -2.3030
18913SOL    HW268394   0.466   6.379   2.846 -1.0663  1.5637  0.2718
18914SOL     OW68395   6.636   5.873   0.688 -0.2461 -0.5931 -0.1149
18914SOL    HW168396   6.623   5.911   0.779  1.3413  0.0196 -0.1133
18914SOL    HW268397   6.588   5.786   0.680 -1.7192  0.1146  0.7702
18915SOL     OW68398   1.125   5.368   6.795  0.2685  0.0690 -0.2462
18915SOL    HW168399   1.085   5.332   6.879  2.4351 -0.4072  0.5913
18915SOL    HW268400   1.084   5.322   6.716 -0.1939 -1.0336  0.6332
18916SOL     OW68401   9.127   6.885   5.730  0.5713 -0.3374  0.0618
18916SOL    HW168402   9.083   6.967   5.694 -0.2999 -1.2683 -1.0696
18916SOL    HW268403   9.096   6.868   5.823 -1.3802 -0.8830 -0.6588
18917SOL     OW68404   7.469   8.031   6.933 -0.4868 -0.4574  0.1690
18917SOL    HW168405   7.531   7.986   6.998 -0.0256 -0.9091 -0.5692
18917SOL    HW268406   7.375   8.002   6.950 -0.2852 -1.1022  0.1988
18918SOL     OW68407   9.518   7.084   5.585  0.3938 -0.3402  0.3450
18918SOL    HW168408   9.420   7.069   5.596  0.3284 -0.0030  0.2211
18918SOL    HW268409   9.542   7.078   5.488 -0.1141  3.1606 -0.0741
18919SOL     OW68410   7.905   1.948   4.361  0.0136  0.6073 -0.1033
18919SOL    HW168411   7.908   1.899   4.274 -0.2355 -0.1870  0.3376
18919SOL    HW268412   7.840   1.905   4.422  1.1620  0.3547  0.9650
18920SOL     OW68413   3.835   0.224   2.510  0.2813  0.3568  0.3616
18920SOL    HW168414   3.900   0.212   2.435  0.0447  0.8347  0.0761
18920SOL    HW268415   3.882   0.213   2.597  0.3060 -1.4772  0.1257
18921SOL     OW68416   2.729   2.561   2.581  0.2338 -0.1032 -0.1192
18921SOL    HW168417   2.670   2.569   2.500  0.2027  0.4201 -0.0498
18921SOL    HW268418   2.776   2.648   2.596  0.4842 -0.2998  0.2404
18922SOL     OW68419   1.344   7.931   5.883  0.2956  0.0526 -0.0184
18922SOL    HW168420   1.397   7.911   5.966  1.6216  2.4838 -0.2444
18922SOL    HW268421   1.267   7.990   5.906  0.3740  0.3204 -0.4497
18923SOL     OW68422   3.261   2.918   6.126  0.7575  0.2849  0.0245
18923SOL    HW168423   3.176   2.912   6.177  0.7340  0.3965 -0.0026
18923SOL    HW268424   3.276   3.012   6.097  0.3788  0.0863 -0.8385
18924SOL     OW68425   0.679   7.995   6.846 -0.3752  0.2772 -0.0500
18924SOL    HW168426   0.586   8.032   6.835  0.1832  2.1529  1.2288
18924SOL    HW268427   0.744   8.054   6.798  0.2603 -0.4494 -0.0842
18925SOL     OW68428   0.150   8.701   5.292  0.1835 -0.1354 -0.1973
18925SOL    HW168429   0.064   8.715   5.243  0.7126 -0.5167 -1.2680
18925SOL    HW268430   0.151   8.755   5.376 -0.4655  1.0815 -0.9666
18926SOL     OW68431   0.833   5.572   3.698 -0.5661  0.0463  1.2138
18926SOL    HW168432   0.854   5.517   3.779  0.2233  0.7189  1.4689
18926SOL    HW268433   0.862   5.666   3.713  1.2145 -0.2063 -0.5321
18927SOL     OW68434   7.761   0.164   6.830  0.2398  0.2236 -0.3753
18927SOL    HW168435   7.788   0.187   6.923  0.8684  0.6554 -0.6585
18927SOL    HW268436   7.682   0.219   6.803  0.7017  0.8568 -0.4588
18928SOL     OW68437   1.497   8.100   1.894 -0.1108  0.2332 -0.6655
18928SOL    HW168438   1.585   8.130   1.931  0.4558 -2.6365  0.4872
18928SOL    HW268439   1.432   8.176   1.896  1.4428  1.5674  1.3791
18929SOL     OW68440   1.816   0.802   0.155  0.4242 -0.2459 -0.3420
18929SOL    HW168441   1.762   0.881   0.184  0.3528 -0.4101 -0.0136
18929SOL    HW268442   1.832   0.805   0.057 -0.4931 -0.3830 -0.4966
18930SOL     OW68443   5.556   9.794   3.394 -0.3438  0.2016 -0.2339
18930SOL    HW168444   5.559   9.705   3.439  1.4650  0.5383  0.3932
18930SOL    HW268445   5.491   9.853   3.441  1.4477  0.5127  1.9380
18931SOL     OW68446   0.530   1.796   4.349 -0.1008  0.7181 -0.4723
18931SOL    HW168447   0.561   1.804   4.254 -0.5695  3.2474 -0.4607
18931SOL    HW268448   0.577   1.864   4.405 -0.3958 -0.2449  0.9684
18932SOL     OW68449   9.371   7.281   4.077  0.5538  0.4222 -0.0179
18932SOL    HW168450   9.349   7.341   4.000  1.8219  0.9847  0.0369
18932SOL    HW268451   9.317   7.308   4.157 -0.7226 -0.1266 -0.6918
18933SOL     OW68452   0.128   8.741   1.639 -0.1352  0.2540 -0.3166
18933SOL    HW168453   0.194   8.675   1.674 -0.1609  0.9219  1.0351
18933SOL    HW268454   0.158   8.774   1.550 -0.3629 -1.9207 -1.2397
18934SOL     OW68455   2.697   1.497   3.794 -0.0344  0.3710  0.4502
18934SOL    HW168456   2.684   1.430   3.867 -1.2729  0.5919  0.4536
18934SOL    HW268457   2.719   1.586   3.834 -0.1037  0.3533  0.5281
18935SOL     OW68458   1.598   1.756   0.500  0.2085  0.0841  0.1529
18935SOL    HW168459   1.583   1.843   0.453  0.8730 -0.0303 -0.2892
18935SOL    HW268460   1.513   1.705   0.505  0.0613  0.2388 -0.6548
18936SOL     OW68461   7.191   0.984   4.496  0.4125  0.4755  0.0739
18936SOL    HW168462   7.279   0.968   4.540 -0.1539  0.6407  1.2902
18936SOL    HW268463   7.124   1.010   4.565 -0.8434 -0.6326 -0.7187
18937SOL     OW68464   3.345   5.658   5.696 -0.1432  0.0118  0.3450
18937SOL    HW168465   3.408   5.683   5.769  1.3958  0.9266 -1.2532
18937SOL    HW268466   3.322   5.561   5.704  0.2451  0.0354  1.8594
18938SOL     OW68467   9.099   7.259   6.307 -0.5255 -0.0992  0.0382
18938SOL    HW168468   9.068   7.239   6.400  0.4540 -1.1033  0.1656
18938SOL    HW268469   9.197   7.278   6.309 -0.8937  2.0341 -0.4915
18939SOL     OW68470   8.347   8.238   1.614 -0.6964  0.9383 -0.5548
18939SOL    HW168471   8.443   8.232   1.587 -0.2160  0.1784  1.2543
18939SOL    HW268472   8.300   8.305   1.557  1.1313  2.0074 -0.8368
18940SOL     OW68473   0.114   1.766   7.906  0.7915 -0.4379  0.1880
18940SOL    HW168474   0.112   1.864   7.926  0.1464  0.2790 -3.1864
18940SOL    HW268475   0.033   1.723   7.945  0.5306  0.5369  0.7493
18941SOL     OW68476   7.676   4.437   6.669  0.7312 -0.1855  0.8533
18941SOL    HW168477   7.639   4.524   6.702 -0.5775 -0.1103 -0.7786
18941SOL    HW268478   7.602   4.373   6.653  1.4574 -0.6491 -0.6899
18942SOL     OW68479   1.677   5.437   3.373 -0.1679  0.1275 -0.2567
18942SOL    HW168480   1.639   5.524   3.405 -1.5626 -0.5069 -0.1492
18942SOL    HW268481   1.606   5.366   3.377  1.1297 -1.1712  0.2693
18943SOL     OW68482   4.489   2.292   4.877 -1.0244  0.3808 -0.0628
18943SOL    HW168483   4.491   2.390   4.858  0.3962  0.7696  1.9636
18943SOL    HW268484   4.404   2.269   4.925 -1.9834  0.3644 -1.7282
18944SOL     OW68485   9.677   6.298   7.578 -0.0902 -0.3143  0.1709
18944SOL    HW168486   9.686   6.198   7.568  1.1709 -0.1932  0.0421
18944SOL    HW268487   9.747   6.332   7.640 -1.5459  0.3012  1.5209
18945SOL     OW68488   0.149   9.915   6.934 -0.7201 -0.5221 -0.0341
18945SOL    HW168489   0.201  10.001   6.936 -1.3166 -0.1247 -1.0204
18945SOL    HW268490   0.147   9.875   7.026  1.1625 -0.4517  0.0515
18946SOL     OW68491   0.903   9.610   5.739 -0.3301 -0.1428  0.7676
18946SOL    HW168492   0.871   9.704   5.729  0.1044  0.0877  1.4765
18946SOL    HW268493   0.891   9.581   5.835 -0.0570 -0.6600  0.6472
18947SOL     OW68494   7.467   9.273   6.228 -0.3814  0.2169  0.3828
18947SOL    HW168495   7.409   9.237   6.155  2.1350  0.3583 -1.7562
18947SOL    HW268496   7.418   9.347   6.275 -2.8484 -1.2692  0.2627
18948SOL     OW68497   5.232   8.084   4.107 -0.1404 -0.5198 -0.0945
18948SOL    HW168498   5.195   8.177   4.113  0.9378 -0.2089  2.5268
18948SOL    HW268499   5.329   8.089   4.086 -0.0172 -1.0186  0.3480
18949SOL     OW68500   0.253   3.997   5.914  0.3215 -0.2167 -0.3299
18949SOL    HW168501   0.195   4.070   5.951  1.5928  0.4000  0.4591
18949SOL    HW268502   0.346   4.007   5.948  1.3345 -0.1425 -3.0242
18950SOL     OW68503   0.174   4.463   6.982  0.0318 -0.0872 -0.0431
18950SOL    HW168504   0.255   4.436   7.034 -0.2872  0.1205  0.5713
18950SOL    HW268505   0.092   4.452   7.039 -0.3086  0.2804 -0.4521
18951SOL     OW68506   2.401   0.416   2.642  0.5810 -0.3981  0.2227
18951SOL    HW168507   2.407   0.333   2.587  1.0492 -1.0992  1.2968
18951SOL    HW268508   2.475   0.479   2.616 -0.6526  0.3334 -1.6087
18952SOL     OW68509   1.294   8.984   1.625 -0.1494 -0.0218  0.5390
18952SOL    HW168510   1.302   9.080   1.653  0.1097 -0.0666  0.6181
18952SOL    HW268511   1.272   8.928   1.705  0.9830 -0.2073  0.7260
18953SOL     OW68512   9.777   7.416   3.522  0.2742  0.0458 -0.0567
18953SOL    HW168513   9.802   7.429   3.618  1.8390 -0.9442 -0.3099
18953SOL    HW268514   9.858   7.388   3.470 -0.9125 -1.0817 -1.3462
18954SOL     OW68515   8.694   8.238   3.880  0.7545  0.3079 -0.2585
18954SOL    HW168516   8.747   8.312   3.837 -0.2829  0.4230 -1.3710
18954SOL    HW268517   8.691   8.160   3.818  1.2218 -0.4096  0.6127
18955SOL     OW68518   9.591   9.228   1.132  0.5850  0.0069  0.2940
18955SOL    HW168519   9.688   9.250   1.148  1.3919 -3.4156  0.5126
18955SOL    HW268520   9.552   9.188   1.215 -0.1197 -1.5130 -0.7429
18956SOL     OW68521   8.598   2.238   6.904 -0.1249 -0.8084  0.2520
18956SOL    HW168522   8.583   2.337   6.914 -1.8441 -1.0301 -0.0306
18956SOL    HW268523   8.691   2.222   6.873 -0.1514  0.7959 -0.7357
18957SOL     OW68524   0.351   6.465   5.847  0.7606  0.8316  0.4865
18957SOL    HW168525   0.317   6.508   5.931 -0.6987 -0.3001  0.4858
18957SOL    HW268526   0.391   6.377   5.869 -0.5830  0.0525 -0.1169
18958SOL     OW68527   6.246   9.215   2.794 -0.1664  0.1817 -0.2293
18958SOL    HW168528   6.273   9.164   2.713 -0.2721 -0.4001  0.1023
18958SOL    HW268529   6.324   9.268   2.828  0.8010 -2.0937  1.1798
18959SOL     OW68530   3.399   8.126   4.975 -0.3775 -1.2738 -0.3814
18959SOL    HW168531   3.493   8.092   4.973  0.2391  0.2984  0.6289
18959SOL    HW268532   3.380   8.164   5.065 -1.3782  0.0381 -1.1240
18960SOL     OW68533   2.890   6.175   1.692  0.1208 -0.7103  0.0638
18960SOL    HW168534   2.884   6.086   1.737 -0.3787 -0.9675 -0.5116
18960SOL    HW268535   2.799   6.214   1.682  0.2342 -0.6471 -0.7137
18961SOL     OW68536   1.854   2.965   4.713 -0.1988 -0.3667  0.2241
18961SOL    HW168537   1.918   2.898   4.751 -0.7048 -0.6629  0.5484
18961SOL    HW268538   1.787   2.991   4.782 -0.0372  0.4473  0.0913
18962SOL     OW68539   4.726   3.049   4.961  0.2432 -0.3993 -0.0306
18962SOL    HW168540   4.743   3.046   5.059 -2.6758  1.8052  0.5843
18962SOL    HW268541   4.718   3.144   4.931  1.1420 -1.0423 -2.4463
18963SOL     OW68542   9.682   7.959   4.294 -0.7192  0.2272  0.4084
18963SOL    HW168543   9.646   8.027   4.357 -0.8976  0.7318 -0.2317
18963SOL    HW268544   9.774   7.932   4.322 -0.7070  0.6236  0.7452
18964SOL     OW68545   4.006   6.044   3.171 -0.0371 -0.2181 -0.4333
18964SOL    HW168546   4.000   5.950   3.203 -1.1252 -0.7758 -2.2204
18964SOL    HW268547   3.927   6.065   3.113  0.5179  1.5931 -0.5719
18965SOL     OW68548   4.243   4.930   2.049  0.1512  0.1476 -0.0708
18965SOL    HW168549   4.227   4.832   2.034 -3.0211  0.3972  1.2365
18965SOL    HW268550   4.276   4.944   2.142  0.1107  0.3559 -0.0884
18966SOL     OW68551   9.215   9.656   6.668 -0.1834 -0.0885 -0.2642
18966SOL    HW168552   9.178   9.579   6.616  0.0048 -0.9340  0.8370
18966SOL    HW268553   9.172   9.659   6.758  1.8917 -0.6754  0.7733
18967SOL     OW68554   9.812   7.172   7.503 -0.2897 -0.0233 -0.1738
18967SOL    HW168555   9.842   7.244   7.440 -1.5692 -0.7220 -1.6116
18967SOL    HW268556   9.828   7.202   7.597 -0.7348  2.1250 -0.7523
18968SOL     OW68557   6.811   4.695   7.972 -0.1766  0.3268  0.3817
18968SOL    HW168558   6.805   4.597   7.992 -0.0753  0.0616 -0.8471
18968SOL    HW268559   6.847   4.743   8.052 -1.7545 -0.4165  1.5746
18969SOL     OW68560   8.730   5.530   7.517  0.4261 -0.4485 -0.0692
18969SOL    HW168561   8.816   5.480   7.509 -0.2047 -1.7149  0.8933
18969SOL    HW268562   8.713   5.552   7.613 -0.5343 -0.5687 -0.2061
18970SOL     OW68563   2.168   4.996   0.347  0.0298 -0.1565 -0.1223
18970SOL    HW168564   2.193   4.900   0.336  1.7781  0.4938 -2.1378
18970SOL    HW268565   2.114   5.027   0.269  0.3138  0.7549  0.0282
18971SOL     OW68566   5.233   0.077   3.856 -0.0338  0.0275 -0.5234
18971SOL    HW168567   5.155   0.025   3.819 -1.3064  1.5860 -0.1039
18971SOL    HW268568   5.221   0.174   3.833  1.3516  0.3995  0.3150
18972SOL     OW68569   0.944   7.780   7.250  0.4593 -0.1259  0.0664
18972SOL    HW168570   1.009   7.718   7.207  1.7723  0.2105  1.5284
18972SOL    HW268571   0.945   7.868   7.202 -0.0402 -0.6190 -0.8539
18973SOL     OW68572   8.701   1.632   3.248  0.2072 -0.0191  0.3433
18973SOL    HW168573   8.690   1.667   3.155 -1.0486  1.6467  1.0956
18973SOL    HW268574   8.686   1.533   3.248 -1.3860  0.1905 -0.9816
18974SOL     OW68575   4.960   3.139   0.877 -0.2521  0.7039  0.0092
18974SOL    HW168576   5.038   3.085   0.846  0.0599  0.6311  0.8955
18974SOL    HW268577   4.936   3.112   0.970 -0.2030  1.9702  0.4029
18975SOL     OW68578   0.539   5.616   3.012 -0.1659 -0.2889  0.0913
18975SOL    HW168579   0.495   5.573   2.933  0.5074 -1.8715  0.5538
18975SOL    HW268580   0.470   5.639   3.081 -0.5247 -0.6486 -0.1502
18976SOL     OW68581   7.836   3.461   0.943  0.4378 -0.7476  0.6793
18976SOL    HW168582   7.890   3.495   0.866  1.7051 -1.1634  1.3699
18976SOL    HW268583   7.897   3.425   1.013 -0.6150  1.1856  2.6447
18977SOL     OW68584   0.605   1.422   1.988 -0.8385 -0.3244 -0.3649
18977SOL    HW168585   0.598   1.396   2.084  1.2869 -2.2319 -0.6771
18977SOL    HW268586   0.513   1.431   1.949 -1.6971 -1.0941  1.4179
18978SOL     OW68587   6.956   3.140   3.467 -0.5211 -0.3112  0.2590
18978SOL    HW168588   6.967   3.220   3.527  1.4170 -0.1407 -0.2696
18978SOL    HW268589   7.027   3.073   3.489  0.2346 -0.2447 -1.8073
18979SOL     OW68590   7.698   3.409   6.489 -0.4171 -0.3542 -0.4337
18979SOL    HW168591   7.611   3.454   6.511  0.0103  0.8383 -1.1386
18979SOL    HW268592   7.680   3.323   6.442 -1.2726 -1.3570  1.6772
18980SOL     OW68593   1.197   1.195   3.285  0.1663  0.0882 -0.3173
18980SOL    HW168594   1.106   1.172   3.251  0.0135  0.3691 -0.1007
18980SOL    HW268595   1.194   1.208   3.384  0.4859 -0.1093 -0.2779
18981SOL     OW68596   0.215   0.653   1.220  0.5861  0.0930  0.4842
18981SOL    HW168597   0.247   0.560   1.200  2.1690  0.3645  1.6410
18981SOL    HW268598   0.127   0.649   1.267 -0.3441 -0.7367 -1.2903
18982SOL     OW68599   2.228   7.623   5.957 -0.5445 -0.2441 -0.0308
18982SOL    HW168600   2.268   7.706   5.917  1.1433 -0.6338  0.8099
18982SOL    HW268601   2.246   7.545   5.896 -1.0098 -0.2269 -0.1932
18983SOL     OW68602   2.952   8.542   3.839  0.0037 -0.6568 -0.4001
18983SOL    HW168603   2.954   8.474   3.766 -2.2118 -0.7059 -0.4517
18983SOL    HW268604   2.945   8.633   3.798  0.6282 -0.5575 -0.2842
18984SOL     OW68605   9.399   9.374   5.874 -0.1754  0.1346 -0.2155
18984SOL    HW168606   9.341   9.368   5.956  2.0941  1.0087  1.5257
18984SOL    HW268607   9.404   9.285   5.830 -0.0356 -0.7802  1.6084
18985SOL     OW68608   9.799   2.499   4.505 -0.2779  0.0173  0.0352
18985SOL    HW168609   9.709   2.540   4.516 -0.4184 -0.1497 -0.4860
18985SOL    HW268610   9.797   2.405   4.537 -0.4805 -0.2210 -0.6861
18986SOL     OW68611   4.029   4.776   0.575  0.7843  0.2620  0.0777
18986SOL    HW168612   4.084   4.859   0.580  0.8992  0.4307 -2.7875
18986SOL    HW268613   4.087   4.700   0.544 -0.3289  0.2200 -2.0154
18987SOL     OW68614   2.116   7.615   4.272  0.1446  0.0846  0.3328
18987SOL    HW168615   2.024   7.649   4.252 -0.7019 -1.0689  2.0919
18987SOL    HW268616   2.128   7.525   4.231  0.4878  0.2300  0.1122
18988SOL     OW68617   8.631   3.948   5.699 -0.0476 -0.5870  0.4943
18988SOL    HW168618   8.626   3.865   5.644 -0.9891  0.9363 -1.8140
18988SOL    HW268619   8.713   3.999   5.674 -0.6295  0.2537  0.2726
18989SOL     OW68620   2.247   7.898   0.479 -0.2298  0.3117  0.0374
18989SOL    HW168621   2.171   7.905   0.414 -2.0275  0.7661  2.1312
18989SOL    HW268622   2.218   7.845   0.559  1.0327  2.0848  1.7250
18990SOL     OW68623   8.033   8.269   4.144  0.3763 -0.0320 -0.3391
18990SOL    HW168624   8.057   8.267   4.241  0.6001  1.8016 -0.3500
18990SOL    HW268625   7.940   8.234   4.132  0.0193  0.5639  0.6425
18991SOL     OW68626   2.859   8.863   3.335  0.1063  0.0453  0.3434
18991SOL    HW168627   2.875   8.780   3.282  0.3433 -1.1563  2.2423
18991SOL    HW268628   2.921   8.865   3.413  0.0354  1.9779  0.3874
18992SOL     OW68629   8.351   0.987   3.643  0.9081 -0.3634  0.1285
18992SOL    HW168630   8.395   1.077   3.641 -1.4977  0.8627  0.9818
18992SOL    HW268631   8.349   0.949   3.551  1.1740  0.8313 -0.3742
18993SOL     OW68632   8.405   1.655   8.125 -0.1010 -0.5691  0.4937
18993SOL    HW168633   8.448   1.745   8.118 -0.3511 -0.5499 -1.0125
18993SOL    HW268634   8.334   1.647   8.055 -1.4110 -1.2217  1.8623
18994SOL     OW68635   2.808   4.161   3.461  0.3723 -0.7099 -0.5537
18994SOL    HW168636   2.854   4.157   3.372 -0.6265 -0.5515 -1.0844
18994SOL    HW268637   2.768   4.072   3.482 -0.0287 -0.5455 -0.6102
18995SOL     OW68638   7.843   4.533   0.717  0.2352  0.6541  0.1572
18995SOL    HW168639   7.782   4.506   0.643  0.1978 -0.5438  0.6025
18995SOL    HW268640   7.792   4.531   0.804  1.0460 -0.9769  0.6172
18996SOL     OW68641   4.835   0.248   0.010  0.7404  0.0713 -0.3214
18996SOL    HW168642   4.868   0.160   0.044 -0.5165 -0.8302 -1.3973
18996SOL    HW268643   4.853   0.319   0.079 -2.2377 -1.7897  2.5045
18997SOL     OW68644   0.162   8.059   6.321  0.2171  0.2111 -0.3973
18997SOL    HW168645   0.212   7.981   6.359  0.1517  0.8623  1.0437
18997SOL    HW268646   0.064   8.041   6.323  0.2563 -0.1245 -1.1224
18998SOL     OW68647   4.831   5.059   2.234 -0.2321 -0.9692 -0.1428
18998SOL    HW168648   4.873   5.034   2.147  0.4812 -0.7068  0.1262
18998SOL    HW268649   4.845   4.987   2.301 -1.1404 -1.3571 -0.3547
18999SOL     OW68650   0.034   4.080   5.470  0.1209  0.2631  0.6981
18999SOL    HW168651   0.121   4.032   5.480 -0.7730 -1.3842  0.8771
18999SOL    HW268652   0.007   4.082   5.374  0.6895  1.3764  0.5640
19000SOL     OW68653   3.918   3.516   6.213 -0.4214 -0.3649  0.0645
19000SOL    HW168654   3.992   3.464   6.170  0.1010  0.6971 -0.3429
19000SOL    HW268655   3.878   3.462   6.287  0.9976 -0.8164  0.5231
19001SOL     OW68656   9.122   0.717   0.439  0.3716 -0.6552  0.2801
19001SOL    HW168657   9.104   0.726   0.537  0.5378 -1.3314  0.3759
19001SOL    HW268658   9.100   0.803   0.393  2.2036  0.3603  1.2133
19002SOL     OW68659   0.218   7.106   3.940 -0.2595 -0.1138  0.3163
19002SOL    HW168660   0.263   7.169   3.876 -1.7296  0.7892  0.1674
19002SOL    HW268661   0.224   7.013   3.903 -0.5412  0.3120 -0.8259
19003SOL     OW68662   8.024   3.660   3.089 -0.1564  0.1100  0.1777
19003SOL    HW168663   8.113   3.635   3.129  0.1974  0.7933 -0.1872
19003SOL    HW268664   8.010   3.608   3.005  0.7425  1.3991 -0.7759
19004SOL     OW68665   7.298   3.775   1.960 -0.1792 -0.1280  0.3931
19004SOL    HW168666   7.336   3.825   2.037 -1.7669  1.4371  0.2029
19004SOL    HW268667   7.323   3.821   1.875 -0.9350 -0.1423  0.1582
19005SOL     OW68668   8.795   7.880   2.456  0.8244 -0.0608 -0.7127
19005SOL    HW168669   8.828   7.875   2.361  1.9873 -0.7250 -0.2775
19005SOL    HW268670   8.741   7.799   2.476 -1.3047  1.1233 -1.4897
19006SOL     OW68671   0.206   2.548   3.515 -0.0120  0.0400  0.2303
19006SOL    HW168672   0.207   2.472   3.450  0.5183 -0.8814  1.2944
19006SOL    HW268673   0.284   2.608   3.498  1.1486 -1.1885  1.1581
19007SOL     OW68674   8.434   6.811   4.559 -0.3304 -0.0687  0.4162
19007SOL    HW168675   8.473   6.871   4.490 -0.7836  0.3741  0.5427
19007SOL    HW268676   8.499   6.737   4.580 -0.5163 -0.6502 -1.0307
19008SOL     OW68677   4.798   4.942   2.612 -0.7552 -0.2212  0.2161
19008SOL    HW168678   4.738   4.862   2.612 -0.6356 -0.3115  0.2563
19008SOL    HW268679   4.892   4.913   2.594 -1.0039  0.1240 -1.7173
19009SOL     OW68680   9.884   3.936   7.907  0.1790 -0.2838 -0.7811
19009SOL    HW168681   9.955   3.993   7.948 -0.5574  0.6947 -0.8349
19009SOL    HW268682   9.923   3.849   7.878  1.2219  0.0025 -0.2575
19010SOL     OW68683   1.955   2.310   7.059  0.3800 -0.0950 -0.2020
19010SOL    HW168684   1.923   2.376   7.127  0.1866 -0.7115  0.3184
19010SOL    HW268685   1.927   2.339   6.968 -1.1865 -0.3209  0.1929
19011SOL     OW68686   0.443   9.098   4.336  0.1264  0.0586 -0.9453
19011SOL    HW168687   0.348   9.104   4.305 -0.7629 -1.1873  1.4000
19011SOL    HW268688   0.461   9.168   4.405  0.4917 -0.5608 -0.3947
19012SOL     OW68689   5.641   7.727   4.540 -0.0438 -0.0059  0.1613
19012SOL    HW168690   5.631   7.677   4.454  0.0934 -1.0679  0.7690
19012SOL    HW268691   5.621   7.667   4.617 -0.0702  0.9181  0.8880
19013SOL     OW68692   5.246   9.811   3.190  0.1433 -0.0712  0.4000
19013SOL    HW168693   5.322   9.750   3.166 -0.5033 -2.0059  3.0415
19013SOL    HW268694   5.223   9.868   3.111  2.5762 -1.3220 -1.2815
19014SOL     OW68695   8.143   8.378   2.074  0.4964  0.2060 -0.0982
19014SOL    HW168696   8.219   8.441   2.057 -1.3390  2.1521 -1.3278
19014SOL    HW268697   8.080   8.419   2.140 -0.3404 -0.6729 -0.3402
19015SOL     OW68698   3.732   0.876   0.069  0.2548 -0.1917  0.5578
19015SOL    HW168699   3.782   0.851  -0.014 -1.1566 -1.4382  0.0642
19015SOL    HW268700   3.649   0.820   0.076 -1.0886  1.8672  1.3584
19016SOL     OW68701   8.542   7.339   3.435  0.0384 -0.2455 -0.3771
19016SOL    HW168702   8.555   7.431   3.398 -0.2034 -0.0787 -0.0549
19016SOL    HW268703   8.461   7.338   3.494 -0.3282 -0.8161 -0.8811
19017SOL     OW68704   0.068   6.293   5.768  0.2670 -0.1060  0.4298
19017SOL    HW168705   0.112   6.350   5.698 -0.6138 -0.3960 -0.3757
19017SOL    HW268706   0.117   6.303   5.854  2.2982 -0.9211 -0.6058
19018SOL     OW68707   0.007   4.995   5.816  0.8672 -0.5565 -0.0945
19018SOL    HW168708  -0.086   5.034   5.814  0.3214 -1.8725 -2.0972
19018SOL    HW268709   0.020   4.945   5.902  1.2883  3.2103  2.1663
19019SOL     OW68710   5.893   1.021   2.952 -0.0267 -0.1456 -0.4728
19019SOL    HW168711   5.975   0.968   2.933  0.7529  0.3941  1.3552
19019SOL    HW268712   5.814   0.959   2.954  1.0347 -1.4912  2.8853
19020SOL     OW68713   3.797   9.598   4.106 -1.3019 -0.1119  0.2234
19020SOL    HW168714   3.845   9.549   4.178 -0.3539 -0.9829 -0.9718
19020SOL    HW268715   3.762   9.685   4.141 -0.0171 -0.0897  1.4613
19021SOL     OW68716   2.538   0.484   0.195  0.0756  0.1729  0.1029
19021SOL    HW168717   2.623   0.439   0.169 -0.7779 -0.3331 -1.9613
19021SOL    HW268718   2.533   0.573   0.150 -1.5427 -0.8175 -1.7814
19022SOL     OW68719   9.288   9.316   3.761  0.2230 -0.1718 -0.2181
19022SOL    HW168720   9.288   9.238   3.699  0.9483  1.5189 -2.4278
19022SOL    HW268721   9.206   9.315   3.817 -0.0697 -2.1683 -0.6647
19023SOL     OW68722   4.674   9.156   5.050  0.0920 -0.4125  0.3808
19023SOL    HW168723   4.655   9.253   5.035  0.4100 -0.1293  1.7205
19023SOL    HW268724   4.648   9.131   5.143  0.0978 -1.5935  0.0699
19024SOL     OW68725   1.633   1.223   6.325 -0.2121  0.2710 -0.2203
19024SOL    HW168726   1.617   1.208   6.423 -0.1805  0.1477 -0.2336
19024SOL    HW268727   1.720   1.181   6.299 -0.7361 -0.6509 -0.5310
19025SOL     OW68728   3.185   8.907   3.844 -0.0141 -0.4230  0.6931
19025SOL    HW168729   3.254   8.837   3.860 -0.6506 -1.3257 -0.4057
19025SOL    HW268730   3.221   8.997   3.870  1.0654 -1.0651  1.4290
19026SOL     OW68731   4.757   2.088   1.890  0.3496 -0.1351 -0.1653
19026SOL    HW168732   4.789   2.162   1.830  0.8025  0.5122  0.8467
19026SOL    HW268733   4.685   2.036   1.844  1.4561 -0.3405 -1.6941
19027SOL     OW68734   0.500   4.027   4.826  0.6797  0.2710 -0.0075
19027SOL    HW168735   0.431   4.033   4.898 -0.2331 -3.2126 -0.4775
19027SOL    HW268736   0.584   3.990   4.865  1.4567  2.0127  0.0133
19028SOL     OW68737   2.131   5.405   3.319  0.6450 -0.0920 -0.1083
19028SOL    HW168738   2.085   5.446   3.240 -2.8169  1.8773  2.7856
19028SOL    HW268739   2.064   5.363   3.380  3.0316 -0.2077  2.5729
19029SOL     OW68740   1.749   0.750   5.140 -0.4819 -0.2282 -0.4022
19029SOL    HW168741   1.813   0.788   5.207  0.0449 -0.3837 -0.8069
19029SOL    HW268742   1.786   0.764   5.048  0.1233 -2.4315 -0.5195
19030SOL     OW68743   9.303   4.977   7.715 -0.1734  0.0478  0.7508
19030SOL    HW168744   9.384   4.981   7.774 -1.8090  1.1846  3.0421
19030SOL    HW268745   9.252   4.893   7.735  1.1931 -1.4216 -1.7776
19031SOL     OW68746   7.462   0.037   5.922  0.3605  0.4453 -0.1659
19031SOL    HW168747   7.465   0.041   5.822  1.5840 -0.2821 -0.1820
19031SOL    HW268748   7.545   0.078   5.959  0.2422  0.0762  0.5174
19032SOL     OW68749   3.929   0.029   6.383  0.5332  0.3460 -0.2299
19032SOL    HW168750   3.878  -0.056   6.399  1.8916 -0.3483  0.5372
19032SOL    HW268751   3.920   0.088   6.463  0.1090  0.6597 -0.5072
19033SOL     OW68752   0.825   4.189   7.210  0.1398  0.2793  0.1408
19033SOL    HW168753   0.857   4.282   7.223  0.2018  0.1000  1.3104
19033SOL    HW268754   0.727   4.183   7.227  0.3525 -0.0990  1.2821
19034SOL     OW68755   9.468   2.603   5.186  0.2499  0.1019 -0.0536
19034SOL    HW168756   9.479   2.519   5.132 -0.6001  0.8718 -1.4313
19034SOL    HW268757   9.391   2.592   5.249 -0.1463  0.0252 -0.5548
19035SOL     OW68758   6.566   0.249   6.803 -0.6299 -0.4651  0.0525
19035SOL    HW168759   6.601   0.316   6.870  0.3725  0.1382 -1.0532
19035SOL    HW268760   6.469   0.233   6.820 -0.4559 -0.0902  1.4710
19036SOL     OW68761   3.775   1.587   1.014 -0.3484  0.4491 -0.2499
19036SOL    HW168762   3.746   1.531   1.092  1.9655  0.5806  0.7485
19036SOL    HW268763   3.805   1.677   1.047  0.2876  0.6342 -1.3267
19037SOL     OW68764   0.244   7.341   7.151 -0.0231 -0.4396 -0.7924
19037SOL    HW168765   0.286   7.258   7.186 -0.7457 -0.8185 -0.8215
19037SOL    HW268766   0.314   7.411   7.137  0.2172 -0.1453  1.7975
19038SOL     OW68767   4.631   5.613   1.008 -0.2212  0.1104 -0.8738
19038SOL    HW168768   4.715   5.658   1.039 -0.3966 -0.4471  0.4715
19038SOL    HW268769   4.565   5.612   1.083 -1.4352  0.5318 -1.9150
19039SOL     OW68770   7.808   3.102   2.939  1.2106 -0.5840 -0.4329
19039SOL    HW168771   7.776   3.116   2.845  1.3194 -2.0325 -0.7053
19039SOL    HW268772   7.734   3.063   2.994  1.3077 -0.2404 -0.0587
19040SOL     OW68773   4.633   2.123   3.842  0.1650 -0.3545 -0.1338
19040SOL    HW168774   4.535   2.129   3.828  0.0799  1.8100  1.0924
19040SOL    HW268775   4.652   2.108   3.940  1.0703  0.2080 -0.2149
19041SOL     OW68776   0.461   1.642   8.070 -0.5740 -0.3130  0.4840
19041SOL    HW168777   0.471   1.707   7.994 -2.3016 -0.4301  0.1374
19041SOL    HW268778   0.366   1.613   8.077 -0.1682 -1.3888  1.8255
19042SOL     OW68779   9.227   9.940   7.492 -0.2724 -0.1621 -0.2518
19042SOL    HW168780   9.180   9.878   7.429 -1.6730 -0.2567  0.8720
19042SOL    HW268781   9.166   9.964   7.567  0.6986  1.5693  0.0113
19043SOL     OW68782   2.004   2.762   4.522 -0.1802  0.3320 -0.2284
19043SOL    HW168783   2.067   2.817   4.467 -0.4359  0.4001 -0.4526
19043SOL    HW268784   1.913   2.802   4.519 -0.4913 -0.4196 -0.8629
19044SOL     OW68785   2.796   8.154   2.335  0.1805  0.1485  0.4616
19044SOL    HW168786   2.891   8.156   2.303  0.2933  0.3675  0.8081
19044SOL    HW268787   2.762   8.060   2.331  0.9426 -0.2025  1.8767
19045SOL     OW68788   4.759   4.031   2.693  0.5938  0.8696 -0.0643
19045SOL    HW168789   4.802   4.060   2.608 -1.4207  0.8009 -1.1436
19045SOL    HW268790   4.735   4.111   2.747  0.9161  0.9520 -0.0435
19046SOL     OW68791   4.790   1.005   1.920 -0.0220  0.1459 -0.0488
19046SOL    HW168792   4.857   1.006   1.846  0.8729 -1.8151  0.7038
19046SOL    HW268793   4.837   1.013   2.008 -0.7500 -1.3492  0.4932
19047SOL     OW68794   9.077   1.374   7.185 -0.3344 -0.1484 -0.6147
19047SOL    HW168795   8.999   1.364   7.124 -0.6836  0.1810 -0.2174
19047SOL    HW268796   9.120   1.284   7.198 -0.4586 -0.2755 -1.0766
19048SOL     OW68797   1.359   3.117   2.055 -0.0293 -0.4874  0.0559
19048SOL    HW168798   1.399   3.190   2.110  2.0535 -2.4611  1.2304
19048SOL    HW268799   1.372   3.137   1.958  2.2563 -0.2023  0.3949
19049SOL     OW68800   1.454   5.617   6.594  0.3029 -0.5298 -0.5246
19049SOL    HW168801   1.550   5.598   6.612  0.5460 -0.3867 -1.6193
19049SOL    HW268802   1.438   5.715   6.595  0.2421 -0.5367 -0.6783
19050SOL     OW68803   1.047   6.928   4.627  0.4450 -0.0805 -0.4919
19050SOL    HW168804   0.951   6.949   4.608  0.5699  0.7198 -0.2544
19050SOL    HW268805   1.059   6.829   4.633 -0.5278 -0.1585  0.3031
19051SOL     OW68806   8.268   3.506   5.625  0.0671  0.2529 -0.0346
19051SOL    HW168807   8.332   3.583   5.631 -1.1167  1.1725  1.1505
19051SOL    HW268808   8.319   3.420   5.627  1.2721  0.9734  0.9711
19052SOL     OW68809   8.796   9.603   2.146 -0.2519 -0.3872  0.2703
19052SOL    HW168810   8.763   9.636   2.058  0.2224 -0.3805  0.0953
19052SOL    HW268811   8.718   9.587   2.207 -0.5169  0.5884  0.1982
19053SOL     OW68812   1.506   0.746   6.761 -0.1611 -0.6333  0.2015
19053SOL    HW168813   1.407   0.737   6.771 -0.0674  0.4275  2.3918
19053SOL    HW268814   1.551   0.675   6.816  0.3094  0.8447  1.7596
19054SOL     OW68815   8.271   6.255   3.801 -0.2731  0.1323  0.0369
19054SOL    HW168816   8.210   6.317   3.850  0.6634  1.1863 -0.1191
19054SOL    HW268817   8.235   6.162   3.807 -0.3316  0.2717  2.5092
19055SOL     OW68818   8.386   7.418   6.233  0.1764  0.2463  0.1454
19055SOL    HW168819   8.413   7.359   6.309  0.2827  0.3049  0.1539
19055SOL    HW268820   8.389   7.514   6.263 -3.5193  0.0916  1.2617
19056SOL     OW68821   1.906   6.465   5.062  0.2750 -0.0265 -0.6324
19056SOL    HW168822   1.943   6.544   5.111 -0.6546  0.9025 -1.3738
19056SOL    HW268823   1.980   6.403   5.036  0.9856  0.4673  0.1977
19057SOL     OW68824   1.187   7.512   3.485 -0.2776 -0.3257 -0.7221
19057SOL    HW168825   1.234   7.548   3.405 -0.4333 -0.9441 -1.0979
19057SOL    HW268826   1.184   7.412   3.480  0.1336 -0.3995  0.2958
19058SOL     OW68827   1.517   7.700   0.220 -0.6453 -0.2833  0.1284
19058SOL    HW168828   1.524   7.601   0.229 -1.2076 -0.2395  1.0588
19058SOL    HW268829   1.534   7.743   0.308 -1.3631  0.3995 -0.0580
19059SOL     OW68830   0.780   4.891   1.806  0.0098  0.2509 -0.0818
19059SOL    HW168831   0.878   4.876   1.801 -0.1590  0.0226 -3.1563
19059SOL    HW268832   0.734   4.807   1.836  0.6025 -0.0674 -0.0661
19060SOL     OW68833   1.596   3.918   6.360 -0.0753 -0.4541  0.3566
19060SOL    HW168834   1.566   4.013   6.372 -2.5781 -1.0128 -0.9788
19060SOL    HW268835   1.696   3.913   6.362  0.0595  2.0874  1.1829
19061SOL     OW68836   6.026   7.862   4.727  0.8612 -0.0936  0.0303
19061SOL    HW168837   6.013   7.912   4.641  1.8047 -1.3572 -0.8692
19061SOL    HW268838   6.009   7.923   4.804 -3.8320  0.1126 -0.9945
19062SOL     OW68839   3.229   3.215   7.788 -0.1356  0.4747 -0.1656
19062SOL    HW168840   3.296   3.249   7.723  0.7043 -0.6018  0.1147
19062SOL    HW268841   3.240   3.116   7.798  0.6231  0.8060  2.5985
19063SOL     OW68842   2.269   1.087   1.458  0.3029  0.5942  0.4379
19063SOL    HW168843   2.283   1.176   1.500  0.4427  1.4513 -1.4156
19063SOL    HW268844   2.205   1.034   1.515  2.3241  0.8070  2.9868
19064SOL     OW68845   4.318   8.985   6.969  0.2571 -0.3710  0.4243
19064SOL    HW168846   4.255   8.955   7.041 -1.5039  0.5602 -0.6806
19064SOL    HW268847   4.374   9.061   7.003 -0.8523  0.3372  0.6983
19065SOL     OW68848   7.957   3.411   7.713  0.2077  0.4440  0.2354
19065SOL    HW168849   7.903   3.368   7.785 -2.7148  1.4994 -1.2266
19065SOL    HW268850   7.998   3.341   7.655 -3.1358 -0.4513 -1.1560
19066SOL     OW68851   9.655   0.960   0.227  0.3835  0.0546 -0.3997
19066SOL    HW168852   9.650   0.860   0.228 -0.1550  0.0023 -3.4572
19066SOL    HW268853   9.746   0.989   0.256  0.6787 -1.3200  0.0946
19067SOL     OW68854   0.456   6.099   3.865  0.4739 -0.7554 -0.5141
19067SOL    HW168855   0.515   6.032   3.820 -0.6643 -1.5231 -0.8913
19067SOL    HW268856   0.411   6.156   3.796  0.5144 -0.3968 -0.2470
19068SOL     OW68857   1.368   1.585   6.119  0.0381 -0.2606 -0.0500
19068SOL    HW168858   1.282   1.579   6.070  0.0200  0.9031 -0.1659
19068SOL    HW268859   1.361   1.654   6.191  0.4999 -0.9879  0.7089
19069SOL     OW68860   0.870   8.093   6.060  0.1647  0.1404  0.0428
19069SOL    HW168861   0.804   8.021   6.039  0.7512  0.6816 -4.1074
19069SOL    HW268862   0.953   8.078   6.006  0.1872  4.0402 -1.1662
19070SOL     OW68863   6.475   9.375   2.933 -0.0234  0.3295  0.1565
19070SOL    HW168864   6.471   9.475   2.944  1.3259  0.4742 -0.6124
19070SOL    HW268865   6.417   9.332   3.002  1.9702  1.5168  2.6338
19071SOL     OW68866   9.907   5.312   5.865 -0.3192 -0.3277 -0.0395
19071SOL    HW168867   9.939   5.296   5.958  1.2125  0.6773 -0.3859
19071SOL    HW268868   9.983   5.302   5.801 -0.7126  1.8540 -0.8920
19072SOL     OW68869   8.126   0.016   2.585  0.0092 -0.6665  0.8964
19072SOL    HW168870   8.068  -0.035   2.648 -1.0141 -0.0973  0.4253
19072SOL    HW268871   8.190  -0.046   2.541 -1.0560 -1.5136  0.5087
19073SOL     OW68872   3.212   8.482   6.916  0.2023 -0.1125  0.1750
19073SOL    HW168873   3.197   8.496   7.014  0.0951 -1.6721  0.4010
19073SOL    HW268874   3.186   8.564   6.866 -2.0929 -0.1492  1.2409
19074SOL     OW68875   7.765   1.464   7.515 -0.0034  0.9010  0.5428
19074SOL    HW168876   7.801   1.521   7.441  1.1802 -0.1351  0.3147
19074SOL    HW268877   7.745   1.522   7.594  1.3977  1.6091  0.3911
19075SOL     OW68878   4.519   8.166   4.556 -0.1607 -0.2273  0.4098
19075SOL    HW168879   4.447   8.098   4.540 -0.8429 -0.1619  3.0620
19075SOL    HW268880   4.602   8.140   4.506 -1.3354 -1.4078 -0.9849
19076SOL     OW68881   9.744   6.659   5.768  0.3462 -0.8318  0.0135
19076SOL    HW168882   9.763   6.562   5.783  3.2258 -0.4752 -0.8680
19076SOL    HW268883   9.826   6.712   5.789 -0.0737  1.0600 -2.7988
19077SOL     OW68884   1.439   2.970   8.176  0.1185 -0.6639  0.1572
19077SOL    HW168885   1.357   2.918   8.197  1.0379 -2.5655 -0.8818
19077SOL    HW268886   1.424   3.066   8.200 -2.4242 -0.9593 -0.0816
19078SOL     OW68887   3.416   7.257   8.162 -0.1866 -0.4681  0.0036
19078SOL    HW168888   3.481   7.259   8.238  1.5738  0.3215 -1.4792
19078SOL    HW268889   3.408   7.164   8.127  1.3843 -0.3074 -0.8208
19079SOL     OW68890   6.985   0.697   2.888 -0.2640 -0.4133 -0.0139
19079SOL    HW168891   7.079   0.691   2.923 -0.5785 -1.7103  0.6580
19079SOL    HW268892   6.945   0.785   2.915  0.4149 -0.2849  0.5934
19080SOL     OW68893   1.855   5.040   5.239  0.2071 -1.1894 -0.2881
19080SOL    HW168894   1.943   5.080   5.213  0.6485 -2.2836 -0.4983
19080SOL    HW268895   1.860   5.004   5.332 -0.6122  0.4574  0.4197
19081SOL     OW68896   3.661   2.970   0.137 -0.0930 -0.5681  0.1034
19081SOL    HW168897   3.673   3.068   0.120  0.9351 -0.6806  0.1456
19081SOL    HW268898   3.661   2.953   0.236  0.5579 -0.7056  0.0822
19082SOL     OW68899   4.512   4.573   6.814 -0.0831 -0.6297  0.2323
19082SOL    HW168900   4.585   4.641   6.811  0.9024 -1.6398  0.9286
19082SOL    HW268901   4.474   4.560   6.722  1.2948 -0.8235 -0.3191
19083SOL     OW68902   8.535   4.449   4.168 -0.3750  0.2721  0.2112
19083SOL    HW168903   8.580   4.534   4.143  0.5199 -0.6043 -1.1910
19083SOL    HW268904   8.441   4.450   4.135 -0.2333  0.5404 -0.1845
19084SOL     OW68905   6.923   5.469   1.447 -0.2398 -0.2915 -0.2859
19084SOL    HW168906   6.862   5.471   1.527  0.4016 -0.2184  0.2078
19084SOL    HW268907   7.010   5.427   1.473  0.1920  0.2775 -0.7967
19085SOL     OW68908   3.483   5.138   3.824 -0.2272  0.0739  0.3737
19085SOL    HW168909   3.442   5.049   3.803 -0.5767  0.6109 -1.3475
19085SOL    HW268910   3.510   5.141   3.920 -1.2799 -1.4602  0.7350
19086SOL     OW68911   3.700   9.982   1.463  0.4297 -0.5336 -0.7770
19086SOL    HW168912   3.715   9.900   1.518  0.9024 -1.1519 -1.8142
19086SOL    HW268913   3.602   9.992   1.443  0.0123  0.7092  1.7026
19087SOL     OW68914   3.717   6.739   1.741 -0.3404  0.5100 -0.0223
19087SOL    HW168915   3.673   6.675   1.803 -1.9250  2.1441  0.5556
19087SOL    HW268916   3.651   6.773   1.674 -0.0257  3.0642  0.9185
19088SOL     OW68917   0.345   8.605   3.092 -0.5468  0.0075 -0.0714
19088SOL    HW168918   0.314   8.685   3.144  0.2447 -0.7658  1.6112
19088SOL    HW268919   0.315   8.521   3.137 -0.7419 -0.6760 -1.4266
19089SOL     OW68920   3.559   2.270   6.255  0.4431  0.1297 -0.1992
19089SOL    HW168921   3.570   2.174   6.282 -1.1269  0.8045  3.0772
19089SOL    HW268922   3.605   2.329   6.322 -0.7296  1.7689 -0.8098
19090SOL     OW68923   2.688   8.018   7.617  0.2970  0.1808  0.4516
19090SOL    HW168924   2.737   7.982   7.537  0.1703 -1.5053  1.1097
19090SOL    HW268925   2.729   8.104   7.645  2.1263 -0.6042  0.2569
19091SOL     OW68926   9.663   7.741   0.615 -0.0447 -0.3353 -0.2467
19091SOL    HW168927   9.683   7.684   0.535  0.4268 -0.5791  0.0475
19091SOL    HW268928   9.663   7.684   0.697 -1.0463 -0.1825 -0.1314
19092SOL     OW68929   4.529   9.890   2.502  0.1798 -0.0970 -0.0385
19092SOL    HW168930   4.510   9.860   2.409  1.1106  1.4816 -0.7616
19092SOL    HW268931   4.620   9.931   2.506  0.5267 -0.9435  1.7700
19093SOL     OW68932   0.427   4.221   1.493 -0.3062 -0.2844  0.3138
19093SOL    HW168933   0.448   4.295   1.429  1.1164 -0.2392  0.8036
19093SOL    HW268934   0.456   4.134   1.454 -2.4334 -0.6643 -0.4712
19094SOL     OW68935   1.186   8.592   8.063 -0.3624  0.0878  0.5937
19094SOL    HW168936   1.252   8.559   7.995  1.0041 -1.0811  2.4298
19094SOL    HW268937   1.125   8.659   8.020  2.0371  1.2562 -1.1659
19095SOL     OW68938   5.063   3.390   0.947  0.8387  0.2793  0.3525
19095SOL    HW168939   5.123   3.435   0.880 -0.1202  1.6111  0.3610
19095SOL    HW268940   5.021   3.309   0.906  1.3485  0.2949 -0.1998
19096SOL     OW68941   2.509   5.296   2.270 -0.9294  0.1076  0.3309
19096SOL    HW168942   2.549   5.301   2.362 -0.0240  1.2314 -0.1137
19096SOL    HW268943   2.573   5.334   2.204 -2.2524  0.8231 -0.5529
19097SOL     OW68944   2.935   2.900   8.097  0.3098 -0.5771 -0.1843
19097SOL    HW168945   3.023   2.866   8.131 -0.8170 -3.3858  0.0854
19097SOL    HW268946   2.928   2.883   7.999 -1.0318 -2.9638  0.2938
19098SOL     OW68947   8.914   9.758   5.561 -0.1742  0.3703 -0.3529
19098SOL    HW168948   8.825   9.779   5.523 -0.2128  0.4410 -0.2250
19098SOL    HW268949   8.912   9.668   5.604 -0.7399  1.2004  1.3970
19099SOL     OW68950   9.057   3.783   5.027  0.1081 -0.1792 -0.1111
19099SOL    HW168951   9.085   3.734   4.944  0.7727  1.7199 -1.0445
19099SOL    HW268952   9.137   3.804   5.083 -0.1128  0.1421  0.0904
19100SOL     OW68953   4.025   4.382   2.815  0.2688  0.3925 -0.1868
19100SOL    HW168954   3.972   4.431   2.745  0.8867  1.4371  0.0540
19100SOL    HW268955   4.097   4.328   2.770  1.6096  2.2156 -0.3244
19101SOL     OW68956   4.595   8.021   4.795  0.0107 -0.0077 -0.0636
19101SOL    HW168957   4.667   7.965   4.754  2.8861  2.1745  1.8202
19101SOL    HW268958   4.581   8.103   4.740  0.8235  0.8223  0.9476
19102SOL     OW68959   0.079   2.978   2.338 -0.0398  0.1557 -0.3195
19102SOL    HW168960   0.171   2.995   2.374  0.2104 -3.0088  0.7138
19102SOL    HW268961   0.011   3.024   2.395  0.8711  2.4854 -1.0736
19103SOL     OW68962   7.684   4.014   3.856 -0.5921 -0.3783 -0.0836
19103SOL    HW168963   7.757   3.955   3.821  0.6228 -0.3314  2.2712
19103SOL    HW268964   7.708   4.109   3.841 -0.2597 -0.3682  0.5139
19104SOL     OW68965   2.990   4.633   0.458 -0.3052  0.1897  0.4118
19104SOL    HW168966   2.918   4.641   0.527 -1.1202  0.0120 -0.4079
19104SOL    HW268967   3.069   4.687   0.485 -0.4988 -0.1370  1.6399
19105SOL     OW68968   8.148   3.049   1.021 -0.0865 -0.3842 -0.3833
19105SOL    HW168969   8.248   3.039   1.023 -0.0305 -0.4219 -2.4431
19105SOL    HW268970   8.106   2.958   1.021 -0.1995 -0.3764  1.8782
19106SOL     OW68971   3.472   5.897   4.132 -0.2419 -0.1668  0.4809
19106SOL    HW168972   3.523   5.875   4.215  0.7240 -1.9192 -0.5540
19106SOL    HW268973   3.450   5.813   4.083  1.1764  0.9654 -2.2172
19107SOL     OW68974   6.249   9.978   6.956  0.1271  0.4327 -0.6390
19107SOL    HW168975   6.160  10.021   6.973 -0.7073 -0.9895 -1.3142
19107SOL    HW268976   6.252   9.889   7.001  1.9492  1.2804  0.9835
19108SOL     OW68977   7.381   8.564   5.644 -0.5868 -0.1085  0.0413
19108SOL    HW168978   7.294   8.516   5.648 -0.1323 -1.1972 -2.0277
19108SOL    HW268979   7.404   8.583   5.548  2.3147 -1.4984  0.3947
19109SOL     OW68980   3.237   2.934   5.420  0.7819 -0.1488 -0.0331
19109SOL    HW168981   3.227   2.933   5.321  0.7405 -0.9297 -0.0237
19109SOL    HW268982   3.321   2.885   5.446  0.5090 -0.4242  0.3454
19110SOL     OW68983   1.476   3.889   7.987  0.5076  0.8215  0.0673
19110SOL    HW168984   1.493   3.977   8.032  0.9411  0.9623 -0.3662
19110SOL    HW268985   1.559   3.859   7.940  0.3152  0.2523  0.0863
19111SOL     OW68986   8.961   1.500   2.478 -0.6059  0.3238  0.3640
19111SOL    HW168987   8.929   1.531   2.388  0.7602 -1.7325 -0.8690
19111SOL    HW268988   9.012   1.574   2.522  1.3353  0.3832 -1.8749
19112SOL     OW68989   7.958   7.205   5.005 -0.3155  0.2059 -0.4137
19112SOL    HW168990   8.020   7.134   5.037 -2.5983 -1.5269  0.2934
19112SOL    HW268991   7.972   7.220   4.907  0.4508 -0.9300 -0.4871
19113SOL     OW68992   3.445   2.935   4.044  0.0567  0.2074 -0.5652
19113SOL    HW168993   3.510   2.904   4.113  0.7543  1.0744 -0.8119
19113SOL    HW268994   3.358   2.887   4.055  0.4634 -0.3360  0.3173
19114SOL     OW68995   9.494   3.300   3.134  0.5171  0.3969  0.0505
19114SOL    HW168996   9.557   3.374   3.110 -0.8424  1.9377  1.2217
19114SOL    HW268997   9.402   3.336   3.144 -0.3612 -1.6553 -0.4562
19115SOL     OW68998   4.235   9.603   8.102 -0.1818 -0.4594 -0.7212
19115SOL    HW168999   4.259   9.552   8.185  1.9531  1.5573 -0.0448
19115SOL    HW269000   4.297   9.576   8.028 -0.7792 -0.7853 -1.1022
19116SOL     OW69001   5.491   9.460   4.317 -0.1364  0.2462  0.1686
19116SOL    HW169002   5.461   9.367   4.299 -0.8850  0.8898 -1.9900
19116SOL    HW269003   5.591   9.463   4.319 -0.0526 -0.1573 -2.3196
19117SOL     OW69004   0.988   4.113   1.594 -0.4678  0.0796 -0.2782
19117SOL    HW169005   0.988   4.162   1.681  1.8956 -1.2189  0.5016
19117SOL    HW269006   1.072   4.135   1.543 -0.9420 -0.6108 -1.3906
19118SOL     OW69007   3.965   1.861   3.305  0.2681  0.4578  0.1584
19118SOL    HW169008   3.944   1.778   3.356  2.5152  0.5780  1.3231
19118SOL    HW269009   3.880   1.913   3.291 -0.9098 -1.2315  0.7916
19119SOL     OW69010   9.551   5.037   4.141 -0.1986 -1.2481  0.3036
19119SOL    HW169011   9.582   4.975   4.069 -0.3133 -0.5923 -0.3292
19119SOL    HW269012   9.630   5.081   4.183 -0.1681 -0.9678 -0.0371
19120SOL     OW69013   8.287   1.997   0.946 -0.1509  0.1442 -0.5179
19120SOL    HW169014   8.350   2.057   0.896  0.4446  1.0888  1.3542
19120SOL    HW269015   8.317   1.902   0.935  0.1520  0.3570 -1.6823
19121SOL     OW69016   0.819   0.397   1.579 -0.2656  0.1322 -0.2806
19121SOL    HW169017   0.763   0.475   1.607 -0.2579 -0.1874  0.6595
19121SOL    HW269018   0.907   0.430   1.546  0.5607  0.4448  2.1114
19122SOL     OW69019   9.441   3.251   5.473  0.0555 -0.0021  0.3441
19122SOL    HW169020   9.521   3.309   5.458 -0.1708  0.1120 -0.4195
19122SOL    HW269021   9.437   3.225   5.570  0.2887  1.0633  0.6491
19123SOL     OW69022   8.592   1.928   2.810 -0.2315 -0.2565  0.8034
19123SOL    HW169023   8.673   1.893   2.762 -0.8825 -0.4255 -0.1842
19123SOL    HW269024   8.580   2.025   2.787  0.3202  0.0641  1.8261
19124SOL     OW69025   7.104   9.769   6.520  0.3752  0.1765  0.5200
19124SOL    HW169026   7.025   9.830   6.518 -0.4779 -0.9332 -0.2020
19124SOL    HW269027   7.138   9.756   6.427  1.4922  0.7311  0.8370
19125SOL     OW69028   8.955   2.016   2.811  0.3280 -0.0572  0.6128
19125SOL    HW169029   8.943   1.957   2.731  1.0770  1.1392 -0.3824
19125SOL    HW269030   8.886   1.992   2.880 -0.5366 -0.8616 -0.5157
19126SOL     OW69031   7.083   1.363   0.959  0.2882 -0.3612  0.5201
19126SOL    HW169032   7.081   1.358   0.859  0.1319  1.3580  0.4209
19126SOL    HW269033   7.172   1.332   0.992  1.2988  1.4620 -0.3397
19127SOL     OW69034   6.049   6.010   0.955  0.1791  0.2477  0.4524
19127SOL    HW169035   6.027   6.107   0.945  1.5792  0.5864  0.5888
19127SOL    HW269036   6.048   5.985   1.052  0.0275  0.1758  0.4323
19128SOL     OW69037   0.799   2.356   7.573  0.1276  0.9202 -0.0798
19128SOL    HW169038   0.811   2.301   7.490 -1.2208  0.4664  0.0289
19128SOL    HW269039   0.814   2.299   7.654 -3.8563  0.0127  0.1007
19129SOL     OW69040   0.869   4.789   1.475  0.4590  0.0582 -0.1122
19129SOL    HW169041   0.867   4.888   1.462  1.6493  0.3896  1.9263
19129SOL    HW269042   0.953   4.752   1.436  0.1116 -0.1165 -0.6927
19130SOL     OW69043   1.098   5.817   1.593  0.2254 -0.1895  0.4703
19130SOL    HW169044   1.078   5.724   1.560  0.2789 -0.7591  2.0153
19130SOL    HW269045   1.106   5.816   1.693 -1.0953  1.7129  0.6284
19131SOL     OW69046   0.536   4.423   5.574 -0.6440 -0.6497 -0.2463
19131SOL    HW169047   0.583   4.399   5.659 -0.3685 -1.6032 -0.6472
19131SOL    HW269048   0.602   4.459   5.509 -0.9782  0.7475  0.1858
19132SOL     OW69049   1.107   7.652   4.561 -0.0563 -0.0260 -0.3085
19132SOL    HW169050   1.199   7.613   4.560  0.0847  0.2376  1.1242
19132SOL    HW269051   1.054   7.610   4.635 -0.9812  0.0563 -0.9229
19133SOL     OW69052   9.530   4.994   7.856  0.5320 -0.1760 -0.2838
19133SOL    HW169053   9.569   5.035   7.773  0.8113 -0.1392 -0.1380
19133SOL    HW269054   9.595   4.926   7.893  1.1526  0.9922  0.8216
19134SOL     OW69055   0.667   5.810   5.472 -0.0682 -0.6038  0.1706
19134SOL    HW169056   0.741   5.745   5.455 -0.0021 -0.7569  1.0201
19134SOL    HW269057   0.672   5.841   5.567 -0.7961 -0.2356  0.0877
19135SOL     OW69058   3.119   1.074   2.793 -0.6634 -1.1973  0.2223
19135SOL    HW169059   3.058   1.153   2.792  0.3479 -0.4123 -0.9313
19135SOL    HW269060   3.203   1.098   2.841 -0.2618 -1.4915 -0.3328
19136SOL     OW69061   6.718   1.212   3.928 -0.3370 -0.8126  0.2247
19136SOL    HW169062   6.638   1.268   3.948 -0.6356 -1.7039  1.5904
19136SOL    HW269063   6.695   1.115   3.941  0.9505 -1.0814  0.6141
19137SOL     OW69064   3.171   7.337   0.102  0.2170  0.3545 -0.3955
19137SOL    HW169065   3.168   7.312   0.198  0.5817 -0.4225 -0.5835
19137SOL    HW269066   3.262   7.320   0.065 -0.2230 -0.4290 -1.1599
19138SOL     OW69067   0.777   3.762   3.771  0.1596  0.1166 -0.3055
19138SOL    HW169068   0.684   3.729   3.789  0.4683 -0.5346  0.1244
19138SOL    HW269069   0.818   3.707   3.698  1.4206 -1.8512  1.8232
19139SOL     OW69070   9.097   7.181   3.236  0.2373  0.2149  0.5721
19139SOL    HW169071   9.042   7.098   3.238  0.8277 -0.1728  1.3356
19139SOL    HW269072   9.103   7.218   3.329  1.0872  0.3579  0.4636
19140SOL     OW69073   9.549   7.571   5.897  0.1225  0.2397 -0.1394
19140SOL    HW169074   9.632   7.523   5.927  0.1667  1.2488  1.3867
19140SOL    HW269075   9.502   7.516   5.828  0.3680 -1.8198  1.3034
19141SOL     OW69076   0.292   7.219   0.582 -0.0795 -0.2961  0.0085
19141SOL    HW169077   0.331   7.295   0.634  0.1212 -0.7385  0.5063
19141SOL    HW269078   0.334   7.133   0.611 -1.0267 -0.7123  0.1735
19142SOL     OW69079   1.252   5.896   4.617 -0.2842  0.2967 -0.1800
19142SOL    HW169080   1.176   5.940   4.665  1.7956  2.1049  1.5208
19142SOL    HW269081   1.231   5.800   4.602 -2.7548  0.6978  0.5649
19143SOL     OW69082   7.695   3.524   2.021  0.3277 -0.2128 -0.6331
19143SOL    HW169083   7.741   3.579   2.091 -1.0396  2.2655 -1.6167
19143SOL    HW269084   7.606   3.496   2.054  1.1534 -2.1695 -0.0102
19144SOL     OW69085   7.862   2.084   2.470 -0.5896  0.1762  0.0083
19144SOL    HW169086   7.823   2.168   2.509  0.2280  0.1728  0.8462
19144SOL    HW269087   7.918   2.038   2.539 -0.4647 -0.6977 -0.6679
19145SOL     OW69088   9.091   4.443   0.112  0.0413  0.3928  0.1386
19145SOL    HW169089   9.053   4.512   0.052  0.5218  0.7015  0.1882
19145SOL    HW269090   9.174   4.478   0.156 -0.4752  0.2923  1.2285
19146SOL     OW69091   4.489   8.514   2.032  0.1685  0.6030 -0.7346
19146SOL    HW169092   4.535   8.601   2.017 -0.7558  1.2133 -0.0477
19146SOL    HW269093   4.472   8.470   1.944 -0.7397  1.8391 -1.1909
19147SOL     OW69094   8.832   7.405   3.470  0.7131 -0.1878 -0.2283
19147SOL    HW169095   8.875   7.384   3.557  0.9645 -0.5213 -0.4343
19147SOL    HW269096   8.814   7.320   3.419 -1.7664 -0.1993  0.6006
19148SOL     OW69097   2.060   1.650   6.051  0.0071 -0.1214  0.2523
19148SOL    HW169098   2.039   1.620   6.144  0.2829 -0.1822  0.2933
19148SOL    HW269099   2.158   1.668   6.042  0.0394 -0.4774 -0.1300
19149SOL     OW69100   9.019   5.544   7.826  0.0374  0.0811 -0.5389
19149SOL    HW169101   9.111   5.505   7.835 -0.1042 -0.0044  0.6904
19149SOL    HW269102   8.984   5.568   7.917 -1.4078 -0.4578 -0.9350
19150SOL     OW69103   3.160   9.968   1.134  0.8030  0.7881  0.2766
19150SOL    HW169104   3.104   9.887   1.152  2.5424 -0.6040 -0.5092
19150SOL    HW269105   3.200   9.962   1.043  6.2197 -0.6835  2.5391
19151SOL     OW69106   3.490   8.004   3.838 -0.4261 -0.3161  0.5032
19151SOL    HW169107   3.440   7.956   3.766  1.9386 -0.1397 -1.3105
19151SOL    HW269108   3.533   7.938   3.899  2.4884 -0.5534 -1.7547
19152SOL     OW69109   5.090   7.442   3.111  0.8505  0.2005 -0.0467
19152SOL    HW169110   5.177   7.491   3.110  0.9229  0.1110  1.3114
19152SOL    HW269111   5.015   7.509   3.106  0.9920  0.1949 -2.9533
19153SOL     OW69112   1.161   5.172   0.613  0.9991  0.0356  0.0900
19153SOL    HW169113   1.193   5.263   0.639 -0.1558  0.7419 -0.9669
19153SOL    HW269114   1.164   5.113   0.694  3.7866  0.3942  0.3133
19154SOL     OW69115   8.323   1.486   3.328  0.0266  0.1115  0.4067
19154SOL    HW169116   8.336   1.584   3.345 -0.4263  0.0077  1.3556
19154SOL    HW269117   8.226   1.463   3.338 -0.2602  0.0334 -2.2492
19155SOL     OW69118   1.761   4.119   6.007  0.3361 -0.2389  0.0344
19155SOL    HW169119   1.675   4.168   5.991  1.2430  1.2219 -0.4470
19155SOL    HW269120   1.748   4.022   5.985 -0.4346  0.4402 -2.7957
19156SOL     OW69121   4.279   2.142   2.738  0.4060 -0.3858 -0.4410
19156SOL    HW169122   4.271   2.221   2.677  1.4807  1.0667  1.2659
19156SOL    HW269123   4.327   2.068   2.690  1.6832  0.9040 -1.2064
19157SOL     OW69124   3.147   0.802   5.074 -0.1404 -0.7378 -0.2172
19157SOL    HW169125   3.057   0.778   5.111 -0.4778  0.6997 -0.0741
19157SOL    HW269126   3.188   0.874   5.131  0.2184  0.0465 -1.4581
19158SOL     OW69127   9.898   9.196   7.588  0.1632 -0.1223  0.0478
19158SOL    HW169128   9.800   9.199   7.566  0.4589 -0.8497 -1.4137
19158SOL    HW269129   9.936   9.288   7.582 -0.6986  0.3795  1.9153
19159SOL     OW69130   4.467   2.690   1.761 -0.0990  0.3754 -0.4405
19159SOL    HW169131   4.401   2.695   1.687 -0.5590 -2.6102 -0.3027
19159SOL    HW269132   4.437   2.747   1.837 -1.0754  1.2324 -1.4566
19160SOL     OW69133   3.057   8.333   3.253 -0.0937 -0.0784  0.5768
19160SOL    HW169134   3.038   8.253   3.311  0.2078  0.4475  1.4137
19160SOL    HW269135   3.142   8.377   3.284  0.5317 -0.2891 -0.8187
19161SOL     OW69136   1.484   3.682   1.830  0.4803 -0.1364 -0.8004
19161SOL    HW169137   1.442   3.763   1.871 -1.4820 -0.9432 -1.1580
19161SOL    HW269138   1.471   3.604   1.890  0.3257 -0.6649 -1.5154
19162SOL     OW69139   8.281   9.041   5.349  0.5276 -0.2684  0.1351
19162SOL    HW169140   8.196   8.989   5.341 -0.6498  1.8701 -1.6476
19162SOL    HW269141   8.328   9.043   5.261  1.6911 -0.1545  0.7405
19163SOL     OW69142   9.244   5.979   3.735  0.0197  0.5199 -0.4305
19163SOL    HW169143   9.245   6.076   3.763 -0.6304  0.5528 -0.5117
19163SOL    HW269144   9.337   5.943   3.738  0.2745  1.1619 -0.4458
19164SOL     OW69145   4.380   4.367   4.763  0.0943  0.1413 -0.1151
19164SOL    HW169146   4.460   4.381   4.821 -0.0310  0.0553  0.0751
19164SOL    HW269147   4.323   4.295   4.801  0.4708 -0.5469 -0.8192
19165SOL     OW69148   1.195   4.233   4.474 -0.0142 -0.0282  0.0463
19165SOL    HW169149   1.183   4.136   4.495  1.5712 -0.3947 -0.7053
19165SOL    HW269150   1.217   4.243   4.377  1.4460  0.9580  0.4717
19166SOL     OW69151   4.778   1.720   1.278  0.4129  0.0681  0.3299
19166SOL    HW169152   4.748   1.735   1.184  0.6465 -1.6257 -0.0389
19166SOL    HW269153   4.742   1.793   1.336  0.8881  1.5388 -1.1871
19167SOL     OW69154   4.755   3.080   7.781  0.0635 -0.1417 -0.7450
19167SOL    HW169155   4.833   3.026   7.814 -1.4164 -1.8482  0.0728
19167SOL    HW269156   4.749   3.165   7.833  0.1997 -0.9368  0.5977
19168SOL     OW69157   1.891   4.072   7.262 -0.0405  0.2023 -0.1797
19168SOL    HW169158   1.940   4.153   7.230  1.0759 -1.0437 -1.6938
19168SOL    HW269159   1.819   4.048   7.197 -0.5563  0.1238  0.4074
19169SOL     OW69160   8.159   3.930   3.634  0.1913 -0.1446  0.3730
19169SOL    HW169161   8.206   4.018   3.641 -1.2065  0.5967  0.6719
19169SOL    HW269162   8.185   3.885   3.549 -1.1851  1.8435 -1.1557
19170SOL     OW69163   7.964   0.626   2.366  0.4745  0.3071 -0.5140
19170SOL    HW169164   7.942   0.592   2.458 -0.2700  1.9498 -0.0745
19170SOL    HW269165   7.887   0.608   2.305  1.6202 -2.2978 -1.2571
19171SOL     OW69166   9.098   8.714   4.434 -0.3497 -0.3011  0.5629
19171SOL    HW169167   9.006   8.751   4.445 -0.8801 -0.9993 -1.2865
19171SOL    HW269168   9.126   8.722   4.338  1.5505 -0.0373  1.1202
19172SOL     OW69169   8.242   4.221   3.876  0.4491  0.0448  0.4970
19172SOL    HW169170   8.211   4.132   3.907  0.0483  0.2400  0.6543
19172SOL    HW269171   8.297   4.210   3.793 -0.7169 -0.2267 -0.2425
19173SOL     OW69172   2.597   1.559   0.472 -0.1355 -0.9517  0.5183
19173SOL    HW169173   2.603   1.623   0.549 -0.3723  0.2090 -0.4182
19173SOL    HW269174   2.689   1.538   0.439 -0.1040 -0.2833  0.1709
19174SOL     OW69175   8.361   3.929   3.927 -0.6979  0.2706 -0.3550
19174SOL    HW169176   8.378   4.018   3.968 -2.1390  0.8504 -0.9778
19174SOL    HW269177   8.447   3.892   3.892  0.1592  0.7471  1.2061
19175SOL     OW69178   8.916   9.704   1.377  0.0428  0.4328  0.0591
19175SOL    HW169179   8.930   9.756   1.293 -0.0468  1.5102  0.6978
19175SOL    HW269180   8.820   9.709   1.404 -0.1244 -0.7461 -0.3078
19176SOL     OW69181   7.888   0.901   7.194 -0.2146  0.1151  0.4515
19176SOL    HW169182   7.919   0.915   7.288  1.5320 -0.5921  0.0025
19176SOL    HW269183   7.790   0.880   7.194 -0.1615 -0.2101  2.1479
19177SOL     OW69184   1.151   0.906   2.637  0.8182  0.4733  0.0703
19177SOL    HW169185   1.135   1.004   2.621 -0.0033 -0.0925 -3.0037
19177SOL    HW269186   1.245   0.892   2.666  0.5624  2.2947  1.8709
19178SOL     OW69187   0.636   8.980   6.771 -0.1483 -0.2387  0.6411
19178SOL    HW169188   0.651   8.883   6.789 -0.7226 -0.6784 -1.1582
19178SOL    HW269189   0.616   8.993   6.673 -1.6534  1.4913  1.1563
19179SOL     OW69190   1.243   8.112   3.839 -0.3968 -0.7455 -0.2052
19179SOL    HW169191   1.298   8.036   3.873  1.0929  0.2509 -0.3443
19179SOL    HW269192   1.303   8.187   3.813 -1.6899 -0.4792 -2.5105
19180SOL     OW69193   9.328   6.897   1.020  0.4670  0.4041 -0.2150
19180SOL    HW169194   9.286   6.988   1.018  0.8298  0.6221  1.3221
19180SOL    HW269195   9.399   6.894   1.091 -1.3111 -1.8362  1.5411
19181SOL     OW69196   0.273   9.582   1.005 -0.4307  0.4963 -0.0456
19181SOL    HW169197   0.330   9.663   1.022 -1.0491  0.9053  0.0774
19181SOL    HW269198   0.224   9.558   1.089 -0.8076  0.4297 -0.2848
19182SOL     OW69199   2.037   7.984   4.598 -0.2801 -0.1017 -0.0578
19182SOL    HW169200   1.958   8.005   4.542 -0.4371 -0.7951 -0.1064
19182SOL    HW269201   2.071   7.892   4.575  0.9107  0.4359 -0.4724
19183SOL     OW69202   9.328   0.628   4.339  0.5298  0.1344  0.2225
19183SOL    HW169203   9.285   0.572   4.268  0.7929 -2.3659  1.9598
19183SOL    HW269204   9.421   0.594   4.357  1.0860  1.7924  0.6093
19184SOL     OW69205   6.689   5.657   7.796  0.3755 -0.4878  0.6760
19184SOL    HW169206   6.599   5.614   7.808  0.8785 -1.6400  0.3617
19184SOL    HW269207   6.754   5.617   7.860  1.0437 -0.7721 -0.1740
19185SOL     OW69208   3.416   2.611   0.075  0.4441 -0.3056  0.1748
19185SOL    HW169209   3.508   2.635   0.045  0.2544 -0.1743 -0.3075
19185SOL    HW269210   3.349   2.654   0.015  0.0690 -0.4406  0.4941
19186SOL     OW69211   9.781   7.300   0.024  0.0002  0.1253  0.4048
19186SOL    HW169212   9.843   7.322   0.100 -0.0550 -1.3426  0.8766
19186SOL    HW269213   9.703   7.247   0.058 -0.1239 -0.3795 -0.6426
19187SOL     OW69214   8.833   8.725   0.253  0.1640  0.5032  0.3891
19187SOL    HW169215   8.759   8.771   0.303 -1.4608 -2.8280  1.2166
19187SOL    HW269216   8.889   8.674   0.318 -1.3328 -3.0214 -0.9379
19188SOL     OW69217   9.975   7.804   7.043  0.1872 -0.2701 -0.0807
19188SOL    HW169218   9.966   7.868   6.967 -0.6025 -0.2891 -0.0064
19188SOL    HW269219   9.886   7.762   7.062  0.4459 -0.4880  0.6533
19189SOL     OW69220   3.827   0.353   0.577  0.0974 -0.6318  0.8055
19189SOL    HW169221   3.881   0.335   0.495 -1.3299  0.7257 -0.4683
19189SOL    HW269222   3.761   0.280   0.590  0.4568 -0.9491  0.8701
19190SOL     OW69223   2.196   4.574   0.063 -0.1361  0.4409  0.2576
19190SOL    HW169224   2.266   4.509   0.092  0.5545  0.4332 -1.3598
19190SOL    HW269225   2.210   4.661   0.111  0.3300  0.1041  0.7344
19191SOL     OW69226   0.091   8.977   0.675 -0.4813  0.8048 -0.1562
19191SOL    HW169227   0.174   8.922   0.677 -1.1849 -0.3145 -0.9896
19191SOL    HW269228   0.077   9.020   0.764 -1.2837 -2.4597  1.3722
19192SOL     OW69229   0.387   6.570   6.388  0.0611  0.0636 -0.0426
19192SOL    HW169230   0.487   6.570   6.394  0.0640 -1.3380 -0.0428
19192SOL    HW269231   0.351   6.636   6.454  0.9902  0.7310 -0.1823
19193SOL     OW69232   9.807   6.533   4.485 -0.4767 -0.1021 -0.3094
19193SOL    HW169233   9.793   6.470   4.562  1.5320 -0.9401 -0.6025
19193SOL    HW269234   9.880   6.498   4.426  0.1710  2.1512 -0.8851
19194SOL     OW69235   3.267   4.558   7.973 -0.3150 -0.4865  0.3101
19194SOL    HW169236   3.320   4.643   7.979  2.1227 -1.8543 -1.0276
19194SOL    HW269237   3.279   4.505   8.057 -0.4733 -0.2965  0.4554
19195SOL     OW69238   0.689   8.404   0.446  0.6000  0.3482 -0.1971
19195SOL    HW169239   0.623   8.479   0.448 -1.8713 -1.7779 -0.0082
19195SOL    HW269240   0.760   8.420   0.514 -0.9133  1.5936  1.1104
19196SOL     OW69241   9.993   3.636   0.738 -0.4360  0.3683 -0.1165
19196SOL    HW169242   9.970   3.607   0.830 -0.9468 -0.3326 -0.4641
19196SOL    HW269243  10.092   3.653   0.732 -0.1458 -1.2024  0.1090
19197SOL     OW69244   0.755   8.438   2.465  0.2922  0.1379  0.1260
19197SOL    HW169245   0.765   8.382   2.383 -0.8465 -1.5158  1.0745
19197SOL    HW269246   0.806   8.522   2.455  1.6174 -0.8475 -1.5599
19198SOL     OW69247   5.924   1.231   3.974 -0.0259  0.2828 -0.1711
19198SOL    HW169248   5.846   1.272   3.925  0.8768 -0.4792 -2.2767
19198SOL    HW269249   5.895   1.208   4.067 -2.2806  0.1480 -0.8618
19199SOL     OW69250   3.451   0.092   4.849  0.5833 -0.2797 -0.1182
19199SOL    HW169251   3.441   0.188   4.878 -0.1863  0.2020 -1.9050
19199SOL    HW269252   3.437   0.032   4.928 -0.7135  1.0211  0.6802
19200SOL     OW69253   6.126   2.023   0.162  0.5547 -0.6819 -0.0042
19200SOL    HW169254   6.111   2.121   0.176  0.1954 -0.7580  0.1350
19200SOL    HW269255   6.214   2.010   0.116  0.9682 -0.3457  0.6863
19201SOL     OW69256   2.851   5.031   8.080 -0.2862  0.0332 -0.4318
19201SOL    HW169257   2.867   5.053   7.984 -1.9465 -1.0074 -0.9752
19201SOL    HW269258   2.853   4.932   8.091 -1.4700  0.0881  0.3403
19202SOL     OW69259   8.018   5.433   5.676  0.0607 -0.0683  0.1854
19202SOL    HW169260   7.934   5.461   5.630  1.5786  0.3395 -2.4627
19202SOL    HW269261   7.997   5.403   5.769 -2.8721  0.8397 -0.1344
19203SOL     OW69262   6.292   2.758   5.228 -0.3081  0.0838 -0.5873
19203SOL    HW169263   6.221   2.772   5.296  0.4879 -0.0833  0.2874
19203SOL    HW269264   6.345   2.676   5.251 -1.7396 -1.5493 -2.8954
19204SOL     OW69265   9.366   2.235   6.855 -0.0172  0.6148  0.0458
19204SOL    HW169266   9.461   2.219   6.882  0.3708 -0.6038 -1.8680
19204SOL    HW269267   9.305   2.220   6.933  1.2726  0.3139  1.0043
19205SOL     OW69268   8.660   0.997   6.751 -0.3755  0.4356 -0.0027
19205SOL    HW169269   8.706   0.926   6.805 -0.3281  0.5772  0.1410
19205SOL    HW269270   8.598   1.048   6.810 -2.4036 -1.1964 -0.6373
19206SOL     OW69271   3.373   8.380   0.886 -0.5352 -0.1777  0.9339
19206SOL    HW169272   3.450   8.362   0.824 -1.0681 -0.3646  0.3286
19206SOL    HW269273   3.358   8.301   0.945 -0.0629 -0.0195  1.2716
19207SOL     OW69274   3.990   4.264   2.279 -0.1289 -0.0725  0.4889
19207SOL    HW169275   3.953   4.219   2.198  2.0348 -0.9668 -0.0124
19207SOL    HW269276   4.025   4.196   2.343 -1.4242  0.6452  2.0249
19208SOL     OW69277   1.960   7.049   1.130  0.2521  0.1929  0.2436
19208SOL    HW169278   1.915   7.040   1.040  0.5540 -0.1519  0.1221
19208SOL    HW269279   1.891   7.061   1.201 -0.0651 -0.6740  0.0990
19209SOL     OW69280   3.581   3.344   2.226  0.6770 -0.4514  0.3255
19209SOL    HW169281   3.486   3.363   2.248  0.0814 -0.2065 -2.2670
19209SOL    HW269282   3.616   3.272   2.287 -2.1060 -2.7432 -0.6672
19210SOL     OW69283   9.945   3.263   5.452 -0.3872  0.2565 -0.1893
19210SOL    HW169284   9.868   3.215   5.410 -0.5697  2.2365 -2.1969
19210SOL    HW269285  10.029   3.243   5.401 -0.4851  2.1263 -1.1165
19211SOL     OW69286   3.575   5.052   1.027 -0.4024 -0.1666  0.3715
19211SOL    HW169287   3.515   5.121   0.986 -0.5349  0.0698  0.9572
19211SOL    HW269288   3.657   5.096   1.064  0.5180 -0.5875 -1.1423
19212SOL     OW69289   3.972   1.115   1.021 -0.1840 -0.1968 -0.2933
19212SOL    HW169290   3.994   1.136   0.926  1.0732 -0.1795  0.0050
19212SOL    HW269291   4.051   1.074   1.066 -1.4319 -2.2107  0.1479
19213SOL     OW69292   4.788   8.696   4.969 -0.1169 -0.1129 -0.3572
19213SOL    HW169293   4.796   8.736   5.060  2.0588  1.2221 -1.0904
19213SOL    HW269294   4.697   8.716   4.932 -0.4970  0.6335  0.9307
19214SOL     OW69295   2.485   3.224   6.048 -0.5944  0.3266  0.1937
19214SOL    HW169296   2.490   3.180   5.959  0.3797  0.2716  0.2776
19214SOL    HW269297   2.510   3.320   6.039 -3.2518  1.0520 -0.0936
19215SOL     OW69298   2.384   7.420   6.778 -0.3085 -0.4310  0.6200
19215SOL    HW169299   2.381   7.511   6.735 -0.5174 -0.4007  0.6974
19215SOL    HW269300   2.479   7.388   6.783 -0.2237 -0.1684  0.6943
19216SOL     OW69301   8.524   4.661   5.548  0.3853  0.1878  0.2851
19216SOL    HW169302   8.552   4.565   5.553  1.6963  0.5244 -0.3097
19216SOL    HW269303   8.577   4.707   5.477 -0.2471  1.3528  0.5589
19217SOL     OW69304   4.567   6.407   1.639  0.3748  0.0999 -0.0539
19217SOL    HW169305   4.503   6.426   1.565 -0.5086  1.6835  1.0808
19217SOL    HW269306   4.532   6.446   1.724  2.8215  0.9534  0.6059
19218SOL     OW69307   4.015   2.048   1.794 -0.0214  0.3076  0.1947
19218SOL    HW169308   4.084   1.991   1.749 -0.8697 -0.8899  0.3630
19218SOL    HW269309   4.057   2.131   1.829  1.9269 -1.6744  2.7508
19219SOL     OW69310   1.937   8.888   5.849  0.4151 -0.4502  0.4048
19219SOL    HW169311   1.853   8.895   5.795  0.8893 -1.2991 -0.4830
19219SOL    HW269312   1.953   8.972   5.899 -0.4761  0.0574 -0.1663
19220SOL     OW69313   7.677   9.313   2.651 -0.2295 -0.2298  0.3933
19220SOL    HW169314   7.751   9.276   2.708 -0.7195  0.0986  1.2562
19220SOL    HW269315   7.713   9.337   2.561  0.9082  0.7258  1.0816
19221SOL     OW69316   2.749   6.513   8.054  0.2420 -0.3175 -0.1950
19221SOL    HW169317   2.655   6.482   8.060  0.0350  0.4054  0.3447
19221SOL    HW269318   2.755   6.592   7.993  0.4557 -0.1833 -0.0018
19222SOL     OW69319   7.150   0.439   5.141 -0.5502 -0.5485 -0.2725
19222SOL    HW169320   7.194   0.373   5.201  0.0781 -0.7708 -0.9777
19222SOL    HW269321   7.050   0.429   5.147 -0.5464  0.3123  1.7222
19223SOL     OW69322   7.602   8.055   5.706  0.0024  0.1540  0.4954
19223SOL    HW169323   7.545   8.110   5.767 -0.3035  1.2563 -0.7834
19223SOL    HW269324   7.544   8.002   5.644  0.3163 -0.9287  1.0996
19224SOL     OW69325   3.589   8.657   2.652 -0.0908  0.3812  0.0705
19224SOL    HW169326   3.575   8.575   2.597  0.8486  0.7411 -0.7057
19224SOL    HW269327   3.646   8.634   2.731  1.0748  0.5014 -0.7199
19225SOL     OW69328   3.692   9.890   0.210 -0.2066 -0.3495  0.4636
19225SOL    HW169329   3.695   9.794   0.241 -0.6594  0.2121  2.3082
19225SOL    HW269330   3.786   9.922   0.196 -0.0137 -0.8294  0.6281
19226SOL     OW69331   2.094   3.728   0.163  0.2697  0.5934 -0.2487
19226SOL    HW169332   2.098   3.794   0.088 -0.8654  0.0199 -0.8328
19226SOL    HW269333   2.157   3.653   0.144  1.7923  1.6617  0.5692
19227SOL     OW69334   3.173   5.027   2.142 -0.3555 -0.6058  0.5027
19227SOL    HW169335   3.249   4.965   2.124  0.1408  0.4006 -0.8679
19227SOL    HW269336   3.151   5.079   2.060 -0.6658  1.1742  1.6757
19228SOL     OW69337   7.101   0.731   1.566 -0.4035  0.1157  0.3420
19228SOL    HW169338   7.034   0.806   1.570 -1.3382 -0.5819 -1.9002
19228SOL    HW269339   7.053   0.644   1.574  0.2736 -0.3680 -0.8526
19229SOL     OW69340   6.690   6.711   6.159 -0.1037 -0.0991 -0.9533
19229SOL    HW169341   6.772   6.710   6.217  0.8838 -0.6352 -2.3534
19229SOL    HW269342   6.662   6.806   6.144 -0.1266  0.0644  0.0373
19230SOL     OW69343   7.544   9.831   6.486  0.0639  0.0379 -0.2298
19230SOL    HW169344   7.474   9.831   6.557 -0.4882  1.0957 -0.7605
19230SOL    HW269345   7.634   9.823   6.527 -0.2286  1.0251  0.6249
19231SOL     OW69346   3.538   4.583   7.062 -0.3984 -0.1307 -0.1373
19231SOL    HW169347   3.452   4.585   7.011  0.5509  1.0145 -1.7465
19231SOL    HW269348   3.610   4.546   7.004  0.2353 -0.9013  1.1357
19232SOL     OW69349   9.641   9.075   3.831 -0.8309 -0.4953  0.2682
19232SOL    HW169350   9.556   9.025   3.821 -0.6653 -0.5005 -1.3163
19232SOL    HW269351   9.633   9.163   3.784  0.6606 -1.2934 -1.5437
19233SOL     OW69352   4.396   9.658   2.533 -0.3122  0.2220 -0.3598
19233SOL    HW169353   4.470   9.592   2.548 -0.7307  0.0386  0.9496
19233SOL    HW269354   4.433   9.751   2.536 -0.3025  0.1885  1.5545
19234SOL     OW69355   5.386   8.411   6.767  0.4335 -0.1268  0.3321
19234SOL    HW169356   5.348   8.436   6.856  0.0801 -0.1770  0.1923
19234SOL    HW269357   5.413   8.315   6.768  0.4481 -0.1210  0.3907
19235SOL     OW69358   9.350   3.771   0.780 -0.7008 -0.1029 -0.2819
19235SOL    HW169359   9.370   3.858   0.736  0.0127 -0.4130 -0.5809
19235SOL    HW269360   9.306   3.787   0.868 -0.3347  0.5649 -0.2203
19236SOL     OW69361   1.593   6.531   4.486 -0.0084  0.4579 -0.1682
19236SOL    HW169362   1.549   6.576   4.564 -1.1157  1.6718 -1.4664
19236SOL    HW269363   1.642   6.600   4.432  0.8597 -0.3955 -0.4860
19237SOL     OW69364   2.391   5.123   4.849 -0.0131 -0.3711  0.1568
19237SOL    HW169365   2.389   5.142   4.947 -0.7734 -3.1687  0.7118
19237SOL    HW269366   2.424   5.030   4.834 -0.1265 -0.0441 -2.2490
19238SOL     OW69367   1.533   2.380   2.808 -0.3622 -0.3511  0.4664
19238SOL    HW169368   1.509   2.405   2.714  0.2919 -1.6561 -0.0511
19238SOL    HW269369   1.632   2.379   2.818 -0.4348  0.0794  1.2674
19239SOL     OW69370   9.043   0.203   0.904  0.1320 -0.2519  0.0291
19239SOL    HW169371   9.021   0.208   0.807  1.1837  2.9657 -0.1036
19239SOL    HW269372   8.967   0.238   0.958 -0.5144 -2.1839  0.4035
19240SOL     OW69373   1.486   4.769   6.992 -0.3648  0.2620 -0.4293
19240SOL    HW169374   1.540   4.838   7.040 -2.2526  1.4294  0.1013
19240SOL    HW269375   1.457   4.698   7.057  0.1443 -0.1158 -0.6148
19241SOL     OW69376   5.913   1.690   3.531  0.0584 -0.3319  0.1623
19241SOL    HW169377   5.834   1.750   3.528  0.3191  0.0026 -0.0452
19241SOL    HW269378   5.897   1.610   3.473 -0.3304 -0.5155  0.5217
19242SOL     OW69379   9.410   3.162   8.178  0.3192  0.0648 -0.8666
19242SOL    HW169380   9.324   3.212   8.166  0.1472  0.4496  1.7433
19242SOL    HW269381   9.484   3.211   8.130 -0.3708  1.3256 -0.6761
19243SOL     OW69382   4.247   1.453   7.575  0.2430 -0.8068  0.3552
19243SOL    HW169383   4.336   1.460   7.622  0.8757  1.2249 -1.0537
19243SOL    HW269384   4.220   1.544   7.543 -2.7442 -1.2913  1.4369
19244SOL     OW69385   7.246   9.832   4.411 -0.2882 -0.2901 -0.6419
19244SOL    HW169386   7.170   9.896   4.420  0.3602  0.6183 -1.5555
19244SOL    HW269387   7.287   9.841   4.321 -1.5344 -3.5034 -1.6191
19245SOL     OW69388   1.589   9.036   0.621 -0.3787 -0.1968  0.2427
19245SOL    HW169389   1.680   9.071   0.601 -0.5132  1.3194  2.1140
19245SOL    HW269390   1.575   8.950   0.573  1.6882  0.0148 -0.8010
19246SOL     OW69391   0.652   9.951   2.681 -0.4019 -0.1159 -0.0786
19246SOL    HW169392   0.642  10.043   2.719 -1.3496 -0.9250  1.6868
19246SOL    HW269393   0.696   9.891   2.748 -1.8177 -1.5004 -0.3488
19247SOL     OW69394   9.931   3.947   0.492  0.4320 -0.0760 -0.3761
19247SOL    HW169395   9.952   3.857   0.529  1.2414 -0.2065 -1.1612
19247SOL    HW269396  10.016   3.995   0.470  0.0430  1.2298  0.8641
19248SOL     OW69397   7.799   4.026   7.040 -0.6136 -0.1331  0.3467
19248SOL    HW169398   7.857   4.106   7.053 -1.0223  0.0280  1.2034
19248SOL    HW269399   7.777   3.986   7.128  0.7521 -2.0348 -0.1573
19249SOL     OW69400   1.590   4.601   7.517 -0.0637 -0.7137 -0.1113
19249SOL    HW169401   1.546   4.641   7.597 -0.6974 -0.4620 -0.5788
19249SOL    HW269402   1.524   4.541   7.470 -0.2566  0.4878 -1.4120
19250SOL     OW69403   5.059   0.587   3.358  0.3355 -0.0578 -0.3153
19250SOL    HW169404   4.979   0.617   3.306  0.3608 -0.0422 -0.3454
19250SOL    HW269405   5.085   0.495   3.330 -0.6444 -0.7107  0.8237
19251SOL     OW69406   6.862   0.212   2.432 -0.0774  0.0141 -0.3477
19251SOL    HW169407   6.793   0.183   2.366 -0.2986  0.2169 -0.2046
19251SOL    HW269408   6.820   0.224   2.522  0.7553 -3.1215  0.5301
19252SOL     OW69409   8.953   6.779   0.549 -0.1886 -0.7189  0.5009
19252SOL    HW169410   9.009   6.696   0.557  0.0946 -0.7890 -1.8601
19252SOL    HW269411   8.856   6.754   0.557 -0.1227 -1.3592 -0.5359
19253SOL     OW69412   4.701   8.078   5.043  0.1933  0.3776  0.1047
19253SOL    HW169413   4.647   8.060   5.125  0.5363 -0.2325  0.1975
19253SOL    HW269414   4.662   8.028   4.965  1.7432 -1.6373  0.5755
19254SOL     OW69415   8.480   3.217   4.124 -0.2016  0.4692  0.2664
19254SOL    HW169416   8.413   3.287   4.101 -1.0912 -0.3052  0.4607
19254SOL    HW269417   8.546   3.253   4.191 -0.0450  1.4255 -0.3984
19255SOL     OW69418   4.204   9.324   7.901 -0.0559  0.0144 -0.6817
19255SOL    HW169419   4.120   9.270   7.894 -1.3169  1.8371  0.0775
19255SOL    HW269420   4.206   9.392   7.828 -0.1940  1.2874  0.4990
19256SOL     OW69421   1.057   6.099   8.033  0.2416  0.0579 -0.3396
19256SOL    HW169422   1.112   6.080   8.114 -1.8583 -0.3954  1.0179
19256SOL    HW269423   1.094   6.049   7.955  1.3173 -0.7794  0.6877
19257SOL     OW69424   8.512   1.534   3.864  0.5510  0.7880 -0.2721
19257SOL    HW169425   8.596   1.496   3.902 -0.0394  0.2572  0.5171
19257SOL    HW269426   8.500   1.504   3.770  0.9915  0.4706 -0.2244
19258SOL     OW69427   6.923   2.334   3.187 -0.0498 -0.3246 -0.4667
19258SOL    HW169428   6.929   2.390   3.270  2.4521 -1.8663  0.4660
19258SOL    HW269429   6.869   2.252   3.206  0.1709 -0.4738 -0.4841
19259SOL     OW69430   3.924   7.140   3.031 -0.0483 -0.1758 -0.7642
19259SOL    HW169431   3.872   7.103   3.108 -0.9502  0.3083 -1.1385
19259SOL    HW269432   4.014   7.097   3.029 -1.3223 -2.8879 -1.6059
19260SOL     OW69433   2.672   2.988   5.458 -0.4913 -0.0889 -0.2610
19260SOL    HW169434   2.668   3.084   5.485 -2.6141 -0.4568  0.8521
19260SOL    HW269435   2.715   2.934   5.530  1.3936  0.0942 -1.2023
19261SOL     OW69436   2.661   6.390   7.706  0.0404 -0.3011  0.0564
19261SOL    HW169437   2.690   6.483   7.685 -0.8894 -0.4827 -2.1544
19261SOL    HW269438   2.574   6.392   7.755 -0.5208 -0.0049 -0.9228
19262SOL     OW69439   0.508   3.430   6.471  0.0176 -0.3851 -0.1401
19262SOL    HW169440   0.594   3.422   6.522  0.3345 -1.2110 -0.7888
19262SOL    HW269441   0.459   3.343   6.476 -0.7486  0.0599  0.1616
19263SOL     OW69442   7.117   1.116   2.207  0.1460  0.0984  0.0693
19263SOL    HW169443   7.133   1.043   2.141  0.0039 -0.4233  0.6093
19263SOL    HW269444   7.162   1.200   2.175  1.8354 -0.6807  0.3014
19264SOL     OW69445   2.402   0.475   1.093  0.8955 -0.0826  0.1068
19264SOL    HW169446   2.443   0.551   1.142  1.0871 -0.3894  0.4294
19264SOL    HW269447   2.325   0.507   1.039  0.3090  0.1559  1.0862
19265SOL     OW69448   8.751   7.920   4.899 -0.3673 -0.0189 -0.3906
19265SOL    HW169449   8.672   7.972   4.931 -0.8108 -0.1242 -1.2909
19265SOL    HW269450   8.827   7.933   4.962 -1.7759 -1.7191  1.7473
19266SOL     OW69451   0.166   3.111   3.973  0.2279 -0.4532  0.6155
19266SOL    HW169452   0.260   3.144   3.968  0.1171  0.2125  2.4833
19266SOL    HW269453   0.134   3.115   4.068 -2.3667  1.2470 -0.2609
19267SOL     OW69454   8.920   0.408   6.624 -0.2086  0.4919 -0.1306
19267SOL    HW169455   8.847   0.344   6.602  0.3653  0.4917 -2.1291
19267SOL    HW269456   8.885   0.502   6.617 -0.3510  0.4584  0.1494
19268SOL     OW69457   8.676   4.250   8.087 -0.2808  0.4321 -0.0425
19268SOL    HW169458   8.635   4.339   8.067  2.2501  1.3818 -1.2121
19268SOL    HW269459   8.735   4.258   8.167 -2.2460 -0.9125  1.5956
19269SOL     OW69460   0.398   2.405   3.768  0.2365  0.7105  0.1072
19269SOL    HW169461   0.495   2.428   3.772  0.3503  0.0988  0.9520
19269SOL    HW269462   0.347   2.465   3.829  0.4407 -0.7648  1.7627
19270SOL     OW69463   8.714   8.985   1.291 -0.3975 -0.3173 -0.8052
19270SOL    HW169464   8.795   9.037   1.319  0.1500 -1.1830 -0.7750
19270SOL    HW269465   8.653   9.044   1.239  0.5550  0.1629 -1.3827
19271SOL     OW69466   6.437   1.637   0.232 -0.2354 -0.5099 -0.1150
19271SOL    HW169467   6.480   1.569   0.173  3.4386  0.4373  1.2791
19271SOL    HW269468   6.440   1.726   0.187  0.4818 -0.2014  0.5388
19272SOL     OW69469   4.955   3.514   7.747  0.2737  0.1919 -0.0208
19272SOL    HW169470   4.934   3.545   7.654 -0.4394  0.7313  0.3101
19272SOL    HW269471   4.893   3.560   7.811  0.5609 -0.4094  0.6864
19273SOL     OW69472   2.865   2.448   1.373  0.7139 -0.6790  0.3776
19273SOL    HW169473   2.822   2.415   1.456 -1.4570  1.6264  0.2505
19273SOL    HW269474   2.932   2.519   1.395 -0.0402  0.1087  0.1633
19274SOL     OW69475   0.144   7.055   2.653  0.1892 -0.2577 -0.0331
19274SOL    HW169476   0.114   6.960   2.660  0.5025 -0.5343 -2.0489
19274SOL    HW269477   0.073   7.109   2.607  0.6698  0.1261 -0.3322
19275SOL     OW69478   1.880   2.934   4.128 -0.2071  0.6342  0.1753
19275SOL    HW169479   1.835   2.925   4.218 -0.3486 -1.5439 -0.0973
19275SOL    HW269480   1.944   3.011   4.131 -1.0447  1.3068  1.7936
19276SOL     OW69481   0.047   2.946   3.098  0.2040 -0.5485 -0.0753
19276SOL    HW169482   0.049   3.024   3.161  1.6161 -1.5280  1.1061
19276SOL    HW269483  -0.017   2.877   3.131 -1.4490  0.3073 -1.3996
19277SOL     OW69484   3.158   9.960   0.796 -0.2492 -0.3367  0.2868
19277SOL    HW169485   3.164  10.040   0.736 -1.7199 -0.2338  0.2522
19277SOL    HW269486   3.201   9.881   0.752  0.3740  0.2047 -0.0822
19278SOL     OW69487   8.437   7.063   1.123 -0.0699 -0.3639 -0.0315
19278SOL    HW169488   8.529   7.093   1.151 -0.6250  0.6067  0.7834
19278SOL    HW269489   8.388   7.141   1.085  0.2644 -1.4113 -2.6836
19279SOL     OW69490   4.430   4.554   1.525  0.4084 -0.4708 -0.0903
19279SOL    HW169491   4.527   4.539   1.504  0.4326  0.8838 -1.0015
19279SOL    HW269492   4.410   4.517   1.616  1.7969 -0.6655  0.1523
19280SOL     OW69493   7.500   5.363   1.388 -0.0107 -0.1637 -0.0109
19280SOL    HW169494   7.585   5.380   1.438 -0.0610  0.0078  0.0174
19280SOL    HW269495   7.520   5.351   1.291 -0.0827  1.1054 -0.1880
19281SOL     OW69496   5.496   1.461   3.913 -0.8122 -0.6139 -0.1965
19281SOL    HW169497   5.569   1.461   3.981 -0.7757 -2.2588 -0.2104
19281SOL    HW269498   5.490   1.551   3.870  0.4293 -0.1268  0.6239
19282SOL     OW69499   2.678   5.953   3.427 -0.1894 -0.0606  0.0088
19282SOL    HW169500   2.710   5.859   3.414  0.1465 -0.0189  0.4978
19282SOL    HW269501   2.751   6.007   3.469 -0.2703  0.5007 -0.5764
19283SOL     OW69502   3.494   2.819   5.395  0.6477  1.0051 -0.4917
19283SOL    HW169503   3.543   2.766   5.464  0.5433  0.1768 -1.0473
19283SOL    HW269504   3.514   2.782   5.304 -1.9139 -0.1144 -0.6542
19284SOL     OW69505   0.028   3.977   3.552 -0.1687 -0.0069  0.2495
19284SOL    HW169506   0.092   3.990   3.477 -1.2563  0.0915 -0.6789
19284SOL    HW269507  -0.027   4.060   3.562 -0.7162 -0.4012  0.4862
19285SOL     OW69508   4.119   7.963   4.916  0.2069  0.1014  0.1175
19285SOL    HW169509   4.065   8.022   4.976 -0.6706 -1.1241  0.5588
19285SOL    HW269510   4.209   7.948   4.956  0.4838  1.2607 -0.0718
19286SOL     OW69511   1.730   7.475   2.875 -0.4681  0.1037  0.1747
19286SOL    HW169512   1.769   7.449   2.964 -1.1845  0.3261  0.5563
19286SOL    HW269513   1.674   7.557   2.886 -0.0716  0.4879 -0.6006
19287SOL     OW69514   5.247   7.404   5.173  0.6046 -0.0936 -0.5347
19287SOL    HW169515   5.318   7.342   5.139  0.1305 -0.5191 -0.7457
19287SOL    HW269516   5.278   7.447   5.258  0.3522 -1.6692  0.3638
19288SOL     OW69517   3.036   7.691   0.728  0.0549  0.8366 -0.3266
19288SOL    HW169518   3.068   7.720   0.818 -0.9439 -0.5221  0.5010
19288SOL    HW269519   3.109   7.641   0.681 -1.1384 -3.5536  2.1554
19289SOL     OW69520   0.288   1.407   5.404  0.1156 -0.0778 -0.2715
19289SOL    HW169521   0.373   1.448   5.371 -0.6397  0.9351 -1.0099
19289SOL    HW269522   0.296   1.387   5.502  1.2087 -0.0383 -0.3411
19290SOL     OW69523   3.949   5.285   6.788 -0.3463 -0.3047 -0.7411
19290SOL    HW169524   3.912   5.316   6.700 -2.3789  2.2982  0.9721
19290SOL    HW269525   3.952   5.185   6.788  0.0820 -0.3596 -3.9084
19291SOL     OW69526   1.988   1.188   6.920  0.1122 -0.0695  0.3865
19291SOL    HW169527   2.070   1.149   6.876  0.2359  2.6073 -1.8631
19291SOL    HW269528   1.999   1.286   6.930 -1.7604 -0.0399  2.5703
19292SOL     OW69529   3.476   9.152   0.836  0.1110 -0.0624  0.4997
19292SOL    HW169530   3.457   9.154   0.934  1.1426  2.1803  0.6759
19292SOL    HW269531   3.503   9.060   0.809  2.1704 -0.1516  2.7629
19293SOL     OW69532   9.394   9.303   7.335 -0.3360 -0.5427 -0.0784
19293SOL    HW169533   9.351   9.245   7.266  1.5264 -1.9281 -0.1210
19293SOL    HW269534   9.360   9.396   7.326 -1.6120 -1.1235 -1.5612
19294SOL     OW69535   0.617   4.712   2.998 -0.0490 -0.1883  0.0690
19294SOL    HW169536   0.522   4.738   2.986  0.2415  0.8256 -0.0781
19294SOL    HW269537   0.622   4.616   3.025 -1.0965 -0.3002 -0.1106
19295SOL     OW69538   8.932   2.934   7.766  0.0250  0.2774 -0.2994
19295SOL    HW169539   8.879   3.007   7.722  2.3946  1.4360 -1.3322
19295SOL    HW269540   8.956   2.962   7.859 -0.9050 -0.1161  0.0609
19296SOL     OW69541   9.314   8.674   1.085 -0.2944  0.4410  0.5031
19296SOL    HW169542   9.342   8.764   1.051 -3.3306  1.6940  1.1529
19296SOL    HW269543   9.223   8.652   1.050  0.3616 -2.3749  0.4303
19297SOL     OW69544   2.629   3.573   0.562  0.0177 -0.0539 -0.1653
19297SOL    HW169545   2.590   3.503   0.621  0.2939 -0.1129 -0.0529
19297SOL    HW269546   2.606   3.664   0.598 -1.1919 -0.0741 -0.8632
19298SOL     OW69547   4.652   0.803   4.514 -0.6632  0.1475 -0.6503
19298SOL    HW169548   4.724   0.859   4.555 -0.0326 -0.4014 -1.0047
19298SOL    HW269549   4.669   0.792   4.416 -2.6679  2.2302 -1.2704
19299SOL     OW69550   2.167   5.580   4.548 -0.5035  0.1991  0.1127
19299SOL    HW169551   2.220   5.626   4.619 -0.7361  0.6616 -0.0083
19299SOL    HW269552   2.229   5.548   4.476  0.0232 -2.5322  1.7302
19300SOL     OW69553   6.961   1.693   2.348  0.8114  0.0879 -0.0720
19300SOL    HW169554   6.879   1.736   2.308  1.8510  2.0650 -0.1212
19300SOL    HW269555   6.998   1.752   2.420  0.9905 -1.8081  1.4217
19301SOL     OW69556   4.708   7.979   3.161 -0.4011  0.0163  0.1690
19301SOL    HW169557   4.673   8.057   3.213  0.3834  0.5219 -0.0526
19301SOL    HW269558   4.668   7.895   3.196 -0.5977  0.4377  0.9655
19302SOL     OW69559   3.092   5.408   2.818 -0.6150  0.9880 -0.3959
19302SOL    HW169560   2.996   5.438   2.817 -0.3634  1.7704 -1.2123
19302SOL    HW269561   3.151   5.485   2.841 -0.1419  0.6103 -0.3301
19303SOL     OW69562   0.317   5.715   1.981  0.4107  0.5727 -0.0921
19303SOL    HW169563   0.338   5.809   1.956  1.5481  0.0093 -1.3495
19303SOL    HW269564   0.370   5.653   1.923 -0.6647 -0.8435  0.4108
19304SOL     OW69565   2.191   2.488   7.849  0.6517 -0.0910 -0.0459
19304SOL    HW169566   2.198   2.544   7.766 -0.8736  0.1670 -0.0093
19304SOL    HW269567   2.096   2.483   7.878  1.1297 -0.4860  1.4961
19305SOL     OW69568   9.971   2.470   2.651  0.3407  0.0659 -0.1727
19305SOL    HW169569  10.055   2.442   2.697 -0.3080  2.0424  2.3659
19305SOL    HW269570   9.981   2.562   2.615  0.2409 -0.8138 -2.5537
19306SOL     OW69571   2.019   8.591   4.900 -0.0607  0.0191  0.1654
19306SOL    HW169572   2.088   8.664   4.907  0.4343 -0.3282 -1.0174
19306SOL    HW269573   2.031   8.527   4.976  2.5937 -1.4477 -1.4060
19307SOL     OW69574   1.254   3.850   5.535 -0.1149  0.0051 -0.0564
19307SOL    HW169575   1.295   3.941   5.530 -0.9867  0.3014 -2.2695
19307SOL    HW269576   1.320   3.782   5.505 -0.0815  0.1193 -0.2440
19308SOL     OW69577   8.811   2.950   7.356 -0.2886 -0.2649  0.6761
19308SOL    HW169578   8.758   2.930   7.439 -1.3724 -0.9201 -0.1576
19308SOL    HW269579   8.785   2.886   7.284  3.1329 -1.9559  0.8342
19309SOL     OW69580   4.059   7.412   2.179 -0.1108 -0.0725 -0.4555
19309SOL    HW169581   4.152   7.415   2.142 -0.4771  1.6404 -1.2727
19309SOL    HW269582   4.044   7.324   2.223  1.4676 -0.8631 -1.4517
19310SOL     OW69583   4.372   7.759   1.393 -0.0002  0.1639 -0.5333
19310SOL    HW169584   4.342   7.691   1.327 -0.1910  0.8960 -1.2178
19310SOL    HW269585   4.295   7.788   1.449  0.2406 -0.7320  0.2653
19311SOL     OW69586   7.790   6.482   7.230 -0.4233  0.1543 -0.4518
19311SOL    HW169587   7.758   6.390   7.209 -0.2064 -0.3988  1.5694
19311SOL    HW269588   7.888   6.480   7.252 -0.2255  0.9969 -1.2109
19312SOL     OW69589   0.290   3.026   3.034  1.0541  0.1237  0.1899
19312SOL    HW169590   0.348   2.986   2.963  0.5737  0.0956 -0.1873
19312SOL    HW269591   0.206   2.972   3.042  2.6309 -2.0154  3.2333
19313SOL     OW69592   7.948   8.526   4.124  0.0352  0.0618  0.0534
19313SOL    HW169593   7.985   8.434   4.111 -0.8059 -0.5523  1.8768
19313SOL    HW269594   8.005   8.576   4.190  0.0310  0.5787 -0.3263
19314SOL     OW69595   4.673   9.860   4.984  0.0583 -0.0090  0.1500
19314SOL    HW169596   4.758   9.806   4.982  1.0958  1.6344 -0.8991
19314SOL    HW269597   4.660   9.898   5.076  0.1679 -0.6919  0.4544
19315SOL     OW69598   0.586   1.175   2.369  0.8429  0.0541 -0.3399
19315SOL    HW169599   0.573   1.099   2.305 -0.0360 -1.0661  1.1325
19315SOL    HW269600   0.546   1.151   2.457 -0.0993  2.5348 -0.0582
19316SOL     OW69601   2.548   9.834   1.293 -0.2725  0.1863  0.2166
19316SOL    HW169602   2.535   9.887   1.208 -0.5844 -0.4173 -0.1116
19316SOL    HW269603   2.495   9.876   1.366  1.1526  1.5792  0.4865
19317SOL     OW69604   0.540   3.017   2.824 -0.0520 -0.0804 -0.1431
19317SOL    HW169605   0.528   2.918   2.820  0.6534 -0.1608 -0.2925
19317SOL    HW269606   0.623   3.043   2.775 -0.3433  0.6074 -0.2858
19318SOL     OW69607   8.697   5.099   0.201  0.8784  0.5613  0.0745
19318SOL    HW169608   8.763   5.128   0.132  1.1824 -0.5978 -0.1356
19318SOL    HW269609   8.728   5.130   0.292  1.4168  0.5267 -0.0920
19319SOL     OW69610   1.996   4.817   0.742 -0.0991  0.1163  0.0583
19319SOL    HW169611   1.945   4.835   0.826 -1.0581  1.2110 -0.7469
19319SOL    HW269612   2.051   4.897   0.718  0.7820 -0.4753  0.0483
19320SOL     OW69613   4.094   1.005   7.495 -0.0275  0.2013 -0.0402
19320SOL    HW169614   4.133   0.924   7.539  1.6868  0.5368 -0.9331
19320SOL    HW269615   4.031   1.050   7.559  0.3974 -0.8199  1.1108
19321SOL     OW69616   1.436   8.012   2.215 -0.3231 -0.1963  0.2446
19321SOL    HW169617   1.467   8.107   2.212 -0.3855 -0.2066 -0.9521
19321SOL    HW269618   1.430   7.976   2.122  2.6051 -2.3040  0.7898
19322SOL     OW69619   7.967   2.986   4.552  0.9424 -0.5106  0.1765
19322SOL    HW169620   7.982   2.966   4.455 -0.0951 -0.2005 -0.0621
19322SOL    HW269621   7.886   2.936   4.583  2.1169 -1.7647  1.2711
19323SOL     OW69622   2.844   5.615   1.828  0.2767  0.5370  0.0542
19323SOL    HW169623   2.850   5.515   1.835  0.9868  0.5046 -0.9577
19323SOL    HW269624   2.758   5.646   1.869  0.2654 -0.4484  0.7854
19324SOL     OW69625   4.710   9.389   4.535 -0.6882  0.2444  0.4215
19324SOL    HW169626   4.633   9.427   4.484 -1.5804 -2.8972 -0.7059
19324SOL    HW269627   4.675   9.345   4.618 -0.0660 -0.6971  0.1915
19325SOL     OW69628   6.596   2.667   1.637  0.0042 -0.0789  0.9287
19325SOL    HW169629   6.617   2.673   1.539  2.6514 -2.6516  1.3026
19325SOL    HW269630   6.616   2.755   1.680  1.6645  0.1867 -0.3255
19326SOL     OW69631   5.522   1.188   3.586 -0.2450 -0.1461  0.3680
19326SOL    HW169632   5.562   1.118   3.528 -0.3051  1.2831 -1.4420
19326SOL    HW269633   5.580   1.270   3.586 -1.5838  0.8298  0.1613
19327SOL     OW69634   2.294   7.301   2.793  0.4742  0.1105 -0.2411
19327SOL    HW169635   2.302   7.207   2.829  0.2199 -0.0273 -0.5507
19327SOL    HW269636   2.385   7.344   2.794  0.4614  0.1370  0.6521
19328SOL     OW69637   6.024   8.611   6.955  0.7292 -0.1135 -0.3895
19328SOL    HW169638   5.934   8.573   6.976  0.7147 -0.0076 -0.2625
19328SOL    HW269639   6.092   8.538   6.958  0.9107  0.0922  1.1576
19329SOL     OW69640   9.365   4.361   3.350 -0.5325 -0.3764  0.5547
19329SOL    HW169641   9.398   4.276   3.392  0.7784  0.4696  1.2920
19329SOL    HW269642   9.309   4.411   3.415  0.5354  0.3771  0.9136
19330SOL     OW69643   9.322   5.033   3.360 -0.1279  0.0011  0.4506
19330SOL    HW169644   9.368   5.068   3.279  0.3175 -0.9143  0.3024
19330SOL    HW269645   9.294   4.938   3.344 -1.0606  0.1970  0.9483
19331SOL     OW69646   2.118   8.924   4.018 -0.0191  0.1569 -0.3435
19331SOL    HW169647   2.199   8.885   4.061  0.4473 -0.0946 -1.4281
19331SOL    HW269648   2.077   8.992   4.078  0.2950 -0.5934  0.7283
19332SOL     OW69649   7.100   0.391   7.601  0.1679 -0.5817 -0.3627
19332SOL    HW169650   7.063   0.312   7.551  0.8763 -1.0443 -0.1515
19332SOL    HW269651   7.105   0.470   7.539 -0.0996 -0.8272 -0.6990
19333SOL     OW69652   3.219   0.809   1.194 -0.0178 -0.5202 -0.6740
19333SOL    HW169653   3.170   0.866   1.260 -0.2117 -3.4190  1.8228
19333SOL    HW269654   3.159   0.786   1.118 -0.7253  0.5299 -0.4360
19334SOL     OW69655   8.558   5.706   5.964 -0.0112  0.0520 -1.0029
19334SOL    HW169656   8.616   5.646   5.908 -0.3628 -0.7242 -0.5437
19334SOL    HW269657   8.488   5.748   5.907 -0.5932 -1.0208 -1.0857
19335SOL     OW69658   1.009   0.716   2.843  0.4812 -0.5935  0.1461
19335SOL    HW169659   1.032   0.768   2.761 -2.1478  0.1008 -0.2040
19335SOL    HW269660   1.051   0.625   2.838  0.0626 -0.6902 -2.1631
19336SOL     OW69661   4.288   6.130   2.331  0.3324  0.4070 -0.2014
19336SOL    HW169662   4.256   6.054   2.275 -0.0949  0.5102 -0.0966
19336SOL    HW269663   4.210   6.186   2.359  0.4575 -0.1485  1.2536
19337SOL     OW69664   8.178   4.926   8.041  0.0608 -0.0441  0.4113
19337SOL    HW169665   8.187   4.997   7.971 -2.7715  0.8589  0.8981
19337SOL    HW269666   8.268   4.889   8.062  1.4835  2.7368 -0.5431
19338SOL     OW69667   6.809   0.069   5.880  0.2128 -0.1276 -0.0172
19338SOL    HW169668   6.771  -0.005   5.935  1.5034  0.4820  1.7163
19338SOL    HW269669   6.826   0.036   5.787  1.1743 -2.1289  0.8505
19339SOL     OW69670   0.818   1.691   3.606 -0.3872 -0.0940 -0.0639
19339SOL    HW169671   0.871   1.674   3.523 -3.0578 -0.0155 -1.8246
19339SOL    HW269672   0.803   1.605   3.654  1.2518 -0.1249  0.4146
19340SOL     OW69673   9.661   2.403   4.024  0.0041 -0.6387  0.1579
19340SOL    HW169674   9.677   2.314   4.065 -1.6003 -1.4234 -0.8648
19340SOL    HW269675   9.708   2.409   3.936 -0.2162 -0.6323  0.0394
19341SOL     OW69676   7.545   7.213   5.142  0.2970 -0.0608 -0.0445
19341SOL    HW169677   7.605   7.252   5.072  0.3822  0.7485  0.4697
19341SOL    HW269678   7.592   7.210   5.230 -1.0660  2.5696  0.8520
19342SOL     OW69679   2.191   8.952   0.832 -0.9753  0.2889 -0.2487
19342SOL    HW169680   2.212   9.006   0.750 -0.9177  0.0750 -0.3750
19342SOL    HW269681   2.193   9.012   0.912 -0.7919  0.4526 -0.3734
19343SOL     OW69682   9.008   9.277   2.856  0.0008 -0.0389  0.4768
19343SOL    HW169683   8.942   9.310   2.924 -0.5911 -0.5702  0.1657
19343SOL    HW269684   8.963   9.213   2.794  0.7737 -0.2969  0.1688
19344SOL     OW69685   0.926   7.402   1.580 -0.0970  0.3505  0.3334
19344SOL    HW169686   0.939   7.323   1.520  0.6676 -0.7032  1.8716
19344SOL    HW269687   1.004   7.410   1.643 -0.6101  1.7903  0.8113
19345SOL     OW69688   8.947   4.714   5.020 -0.1014  0.4342 -0.7068
19345SOL    HW169689   9.031   4.675   4.980  0.0443 -0.3619  0.3572
19345SOL    HW269690   8.945   4.696   5.118 -0.8710  1.6479 -0.4911
19346SOL     OW69691   5.395   9.098   4.810  0.6085  0.2441 -0.0080
19346SOL    HW169692   5.445   9.046   4.741  0.8242  0.0930  0.2592
19346SOL    HW269693   5.361   9.183   4.770  1.6491  0.6688 -0.0245
19347SOL     OW69694   2.252   3.857   4.276  0.0893 -0.3800 -0.5994
19347SOL    HW169695   2.192   3.936   4.262 -0.6935 -0.6572  1.0861
19347SOL    HW269696   2.272   3.847   4.373  1.4247 -1.3731 -0.9566
19348SOL     OW69697   9.779   9.134   7.904 -0.4202  0.2550  1.0298
19348SOL    HW169698   9.780   9.046   7.953  1.5124  0.0430  0.6395
19348SOL    HW269699   9.855   9.191   7.937  0.5756  0.3293 -1.3300
19349SOL     OW69700   9.189   6.767   7.400 -0.7011 -0.4380  0.0352
19349SOL    HW169701   9.284   6.748   7.373 -1.2425 -1.8856 -0.9134
19349SOL    HW269702   9.187   6.799   7.495  0.5548 -2.4887  0.7948
19350SOL     OW69703   8.925   8.530   6.448  0.4060 -0.4161 -0.3264
19350SOL    HW169704   8.976   8.615   6.438  0.0585 -0.3221 -1.3508
19350SOL    HW269705   8.980   8.453   6.416  0.7494 -0.6019  0.6682
19351SOL     OW69706   2.829   9.701   5.048 -0.5040  0.1904  0.1494
19351SOL    HW169707   2.858   9.672   5.139  1.3097 -0.8963 -0.7337
19351SOL    HW269708   2.747   9.757   5.055 -0.9390 -0.6660  2.3719
19352SOL     OW69709   4.860   8.005   3.670  0.5512  0.3343 -0.4321
19352SOL    HW169710   4.828   7.911   3.677  1.8801 -0.0772  0.2754
19352SOL    HW269711   4.900   8.020   3.579 -1.1024  0.6915 -1.1210
19353SOL     OW69712   0.862   8.028   4.878 -0.4777 -0.3254 -0.3549
19353SOL    HW169713   0.805   8.052   4.800  1.9226  0.1012 -2.0236
19353SOL    HW269714   0.930   7.961   4.850 -0.5468 -1.3437  1.7760
19354SOL     OW69715   1.518   6.932   4.622  0.5909 -0.3658  0.4827
19354SOL    HW169716   1.490   7.020   4.585  0.4486 -0.1093  1.2080
19354SOL    HW269717   1.445   6.894   4.679  1.1736 -0.3322  1.2598
19355SOL     OW69718   6.225   9.424   3.272 -0.2363  0.5432  0.3466
19355SOL    HW169719   6.207   9.388   3.364 -1.9788  0.3693 -0.0296
19355SOL    HW269720   6.250   9.521   3.278  0.7757  0.2421  1.0835
19356SOL     OW69721   2.669   6.701   4.001 -0.1907 -0.2455 -0.4676
19356SOL    HW169722   2.582   6.703   3.952 -1.0519  1.6690  1.0119
19356SOL    HW269723   2.727   6.775   3.967  0.2138 -0.5273 -0.3770
19357SOL     OW69724   3.411   5.479   0.671 -0.1978  0.0778 -0.1207
19357SOL    HW169725   3.489   5.435   0.716  0.8337  0.6308 -1.3425
19357SOL    HW269726   3.436   5.572   0.645 -1.5301  0.5257  0.1615
19358SOL     OW69727   8.704   6.791   4.380  0.5380  0.2753 -0.0917
19358SOL    HW169728   8.642   6.864   4.351 -0.5609 -0.1591  1.1102
19358SOL    HW269729   8.688   6.710   4.325  0.9711  0.5896 -0.6775
19359SOL     OW69730   9.206   1.876   6.166  0.0392 -0.0251 -0.4655
19359SOL    HW169731   9.255   1.805   6.216 -1.0989 -1.3964 -1.2330
19359SOL    HW269732   9.250   1.891   6.077  2.3340  2.7345  1.0451
19360SOL     OW69733   1.603   3.706   7.312 -0.2198 -0.6082  0.0813
19360SOL    HW169734   1.637   3.799   7.302 -4.6114  1.0245 -0.9358
19360SOL    HW269735   1.622   3.673   7.404 -0.7769  2.2577  1.2803
19361SOL     OW69736   3.789   3.990   3.503 -0.1541  0.0906 -0.7980
19361SOL    HW169737   3.851   4.068   3.514 -0.7315  0.3396  0.9394
19361SOL    HW269738   3.841   3.905   3.517  0.2169  0.2042 -1.4480
19362SOL     OW69739   0.816   2.514   0.753 -0.4092 -0.2503 -0.1940
19362SOL    HW169740   0.819   2.567   0.838  1.0261 -1.9898  0.8785
19362SOL    HW269741   0.748   2.553   0.691 -0.5735  1.8004  1.2480
19363SOL     OW69742   2.873   0.118   2.700 -0.3357  0.0732  0.1369
19363SOL    HW169743   2.904   0.078   2.614 -0.7646 -0.3165  0.1624
19363SOL    HW269744   2.845   0.213   2.685 -2.3833 -0.6189 -0.5796
19364SOL     OW69745   1.901   4.417   0.454  0.3336 -0.5239  0.2100
19364SOL    HW169746   2.000   4.433   0.455  0.7273 -2.8758 -0.1586
19364SOL    HW269747   1.874   4.375   0.540 -0.2360 -0.5851  0.0004
19365SOL     OW69748   1.567   4.202   0.906  0.1942  0.1730 -0.4052
19365SOL    HW169749   1.575   4.102   0.897  1.0760  0.1094  0.9592
19365SOL    HW269750   1.514   4.224   0.987  2.1797  0.8381  0.7349
19366SOL     OW69751   4.569   4.847   3.268 -0.6954  0.3182  0.2023
19366SOL    HW169752   4.528   4.836   3.358 -0.8760  2.3149  0.3742
19366SOL    HW269753   4.635   4.922   3.270  1.5124 -1.5147 -0.5854
19367SOL     OW69754   4.466   3.533   3.668 -0.1431 -0.0702  0.3772
19367SOL    HW169755   4.548   3.477   3.677 -0.4884 -0.6356 -0.0013
19367SOL    HW269756   4.397   3.483   3.616 -0.4206  0.7353 -0.0420
19368SOL     OW69757   3.276   8.696   1.420  0.0484  0.0241 -0.0547
19368SOL    HW169758   3.198   8.758   1.423 -0.5128 -0.5936 -1.3060
19368SOL    HW269759   3.336   8.713   1.498 -2.2413 -0.7098  1.9075
19369SOL     OW69760   1.911   9.063   6.542 -0.2763 -0.2663  0.8062
19369SOL    HW169761   1.972   8.989   6.513  1.1986  1.4699 -0.5942
19369SOL    HW269762   1.961   9.129   6.597 -0.5465  1.8359 -1.3964
19370SOL     OW69763   0.059   3.651   6.713 -0.0089  0.1606  0.2553
19370SOL    HW169764   0.043   3.735   6.661 -0.0854 -0.3289 -0.5067
19370SOL    HW269765   0.155   3.646   6.739  0.1449  0.1260 -0.3193
19371SOL     OW69766   5.311   0.795   7.107  0.7137 -0.2190 -0.2866
19371SOL    HW169767   5.286   0.867   7.042 -0.7226 -0.4529 -0.0190
19371SOL    HW269768   5.359   0.722   7.059  1.2549  0.4341 -0.7506
19372SOL     OW69769   5.060   9.005   4.236 -1.0410  0.3572  0.0840
19372SOL    HW169770   5.020   8.991   4.326 -1.1672  0.7076  0.0825
19372SOL    HW269771   4.988   9.024   4.169 -0.8166  1.8669  0.2490
19373SOL     OW69772   9.108   2.335   5.032  0.4898  0.6136 -0.3552
19373SOL    HW169773   9.170   2.274   5.081 -0.7459 -2.7202 -2.7649
19373SOL    HW269774   9.038   2.370   5.095  0.7396 -1.1142  0.9230
19374SOL     OW69775   3.785   7.879   5.566 -0.4455 -0.0007  0.0541
19374SOL    HW169776   3.739   7.886   5.655  1.1730  0.1246  0.9011
19374SOL    HW269777   3.725   7.915   5.495 -1.8074 -0.1932  1.0827
19375SOL     OW69778   1.540   8.860   7.063 -0.4294  0.3558 -0.2621
19375SOL    HW169779   1.573   8.833   6.972  1.2338  1.0864  0.1003
19375SOL    HW269780   1.617   8.890   7.118 -1.6710  1.6648  0.7959
19376SOL     OW69781   5.675   9.161   6.152  0.0499 -0.8312 -0.4635
19376SOL    HW169782   5.591   9.157   6.099  0.6956 -1.4952 -1.4575
19376SOL    HW269783   5.718   9.251   6.141  0.7097 -1.3050 -1.9214
19377SOL     OW69784   7.964   7.386   0.273 -0.2487  0.1797  0.6178
19377SOL    HW169785   7.877   7.382   0.223 -0.0480 -0.2599  0.2978
19377SOL    HW269786   7.993   7.482   0.281  0.1274  0.2035 -0.8374
19378SOL     OW69787   2.200   3.600   2.383  0.1497 -1.2070  0.8870
19378SOL    HW169788   2.233   3.679   2.435 -0.6056  1.4212 -2.4223
19378SOL    HW269789   2.114   3.568   2.423 -0.1658  0.4249  1.5884
19379SOL     OW69790   2.094   5.130   1.063 -0.3418  0.0061 -0.5786
19379SOL    HW169791   2.044   5.104   0.981 -1.1332 -1.5576  0.3889
19379SOL    HW269792   2.114   5.049   1.117 -1.0298  1.1680  1.4640
19380SOL     OW69793   3.576   3.813   7.488 -0.3875 -0.2416  0.1813
19380SOL    HW169794   3.519   3.888   7.521 -0.8719 -0.8886  0.8165
19380SOL    HW269795   3.623   3.842   7.405 -0.6941  0.7131  0.3312
19381SOL     OW69796   3.163   2.612   1.982  0.4406 -0.1041  0.0067
19381SOL    HW169797   3.099   2.613   2.059  1.9526  1.5455  1.2688
19381SOL    HW269798   3.232   2.542   1.997  1.0337  0.5621  0.4130
19382SOL     OW69799   8.273   0.889   6.871 -0.1637  0.1673  0.2666
19382SOL    HW169800   8.321   0.838   6.941 -2.2837 -0.7778  1.0755
19382SOL    HW269801   8.307   0.983   6.868  0.2465  0.0866  2.2530
19383SOL     OW69802   9.744   3.518   8.009 -0.0809 -0.5017 -0.3087
19383SOL    HW169803   9.777   3.586   7.945  0.2749 -0.6558 -0.2886
19383SOL    HW269804   9.731   3.560   8.099  0.9226 -0.6491 -0.0915
19384SOL     OW69805   4.144   5.711   1.105  0.0737 -0.3497  0.8679
19384SOL    HW169806   4.120   5.620   1.073 -0.0849 -0.4888  1.3825
19384SOL    HW269807   4.192   5.760   1.032  0.9867 -1.1753  0.9031
19385SOL     OW69808   4.121   0.075   5.728 -0.0480  0.3620 -0.0294
19385SOL    HW169809   4.210   0.120   5.730 -0.5578  1.3980 -0.2090
19385SOL    HW269810   4.083   0.073   5.820 -0.9422  2.2129 -0.3148
19386SOL     OW69811   7.692   0.407   1.931  0.0076 -0.1839  0.0522
19386SOL    HW169812   7.695   0.309   1.951 -0.9120 -0.1350  0.4732
19386SOL    HW269813   7.628   0.424   1.856  0.9292 -0.0067 -0.7084
19387SOL     OW69814   4.327   4.756   5.506 -0.7372 -0.8858 -0.8115
19387SOL    HW169815   4.380   4.752   5.591 -0.7168 -1.0670 -0.8338
19387SOL    HW269816   4.387   4.743   5.428 -0.5241  0.7637 -0.9308
19388SOL     OW69817   8.311   9.295   2.711  0.4517 -0.8524 -0.1859
19388SOL    HW169818   8.304   9.394   2.724  1.0625 -0.5269 -2.1206
19388SOL    HW269819   8.403   9.265   2.733  1.0735 -0.5221 -2.1623
19389SOL     OW69820   2.386   9.034   2.603  0.8038  0.2510 -0.5986
19389SOL    HW169821   2.351   9.111   2.549 -0.1760 -0.6171 -1.2108
19389SOL    HW269822   2.486   9.038   2.607  0.7481  1.7215 -0.3794
19390SOL     OW69823   4.912   5.455   2.255  0.0617 -0.3309  0.7838
19390SOL    HW169824   4.831   5.405   2.287  0.1694 -0.8066  0.3264
19390SOL    HW269825   4.926   5.436   2.158  0.8018 -0.3491  0.8927
19391SOL     OW69826   8.697   2.526   4.081 -0.8425  0.0077 -0.3533
19391SOL    HW169827   8.602   2.547   4.056 -0.9863 -1.4676 -1.1395
19391SOL    HW269828   8.698   2.448   4.144 -0.1554 -0.0880 -0.4796
19392SOL     OW69829   3.025   6.147   7.804  0.3622 -0.3059 -0.3152
19392SOL    HW169830   2.972   6.203   7.867  1.3221 -1.1246  1.2341
19392SOL    HW269831   3.044   6.199   7.721 -1.5453  0.5129 -0.2455
19393SOL     OW69832   8.004   2.219   4.462 -0.3212 -0.0070  0.8851
19393SOL    HW169833   8.027   2.227   4.559 -1.2609 -0.7704  1.1775
19393SOL    HW269834   7.980   2.124   4.441  0.8856 -0.0527 -0.3289
19394SOL     OW69835   4.565   5.181   0.865 -0.0355 -0.2457 -0.2492
19394SOL    HW169836   4.643   5.228   0.906  0.0740  2.3041 -3.2537
19394SOL    HW269837   4.567   5.085   0.893  0.9306  0.9568  4.3020
19395SOL     OW69838   0.577   4.162   5.753  0.3282 -0.0554 -0.0790
19395SOL    HW169839   0.607   4.155   5.658  1.2713 -1.1269  0.2913
19395SOL    HW269840   0.647   4.123   5.813  0.2583  1.6472  1.1547
19396SOL     OW69841   7.362   4.963   1.537  0.4364 -0.3689  0.0961
19396SOL    HW169842   7.305   4.887   1.570 -0.2450  0.0125 -0.2129
19396SOL    HW269843   7.332   5.048   1.579  1.9738 -0.4228  1.3861
19397SOL     OW69844   4.818   3.933   4.061 -0.8156 -0.5357  0.0789
19397SOL    HW169845   4.863   3.967   3.978 -1.7085  1.0317  0.2251
19397SOL    HW269846   4.862   3.848   4.090  1.6750  0.6375 -0.1411
19398SOL     OW69847   8.631   3.289   4.351  0.6226  0.1420  0.7846
19398SOL    HW169848   8.565   3.351   4.392  1.2344  1.1225  0.3021
19398SOL    HW269849   8.722   3.332   4.351  0.8222 -0.2643 -0.6444
19399SOL     OW69850   8.999   2.135   8.028 -0.2124 -0.3323 -0.5053
19399SOL    HW169851   9.066   2.204   8.057 -0.1481 -0.4695 -0.3276
19399SOL    HW269852   8.967   2.157   7.936  0.7535 -0.7586 -0.9521
19400SOL     OW69853   4.667   1.391   2.068 -0.3571 -0.1407 -0.5369
19400SOL    HW169854   4.734   1.339   2.120 -0.9195  0.3876  0.7509
19400SOL    HW269855   4.607   1.328   2.019 -0.1528 -0.6688 -0.1207
19401SOL     OW69856   9.658   8.735   7.848  0.0306  0.7855 -0.3155
19401SOL    HW169857   9.606   8.650   7.854 -0.7610  0.9864 -3.3888
19401SOL    HW269858   9.621   8.792   7.774  2.5877  2.3706 -0.4605
19402SOL     OW69859   8.833   6.918   1.881  0.3863 -0.4068  0.1089
19402SOL    HW169860   8.917   6.903   1.934  0.4463  0.0274  0.1370
19402SOL    HW269861   8.783   6.995   1.920  1.3530  1.1033 -1.6130
19403SOL     OW69862   5.163   0.407   3.505 -0.1520  0.4515 -0.4178
19403SOL    HW169863   5.183   0.386   3.600 -0.4258 -0.0382 -0.4714
19403SOL    HW269864   5.137   0.503   3.497 -0.2151  0.4705  0.0116
19404SOL     OW69865   9.686   2.454   6.519  0.1577 -0.2755 -0.7045
19404SOL    HW169866   9.736   2.493   6.596  0.5644 -0.0881 -1.0583
19404SOL    HW269867   9.597   2.499   6.510 -0.2175 -0.8308  0.1253
19405SOL     OW69868   9.471   9.592   1.407  0.3503  0.0732  0.1923
19405SOL    HW169869   9.452   9.495   1.388  0.6312  0.1177 -0.3549
19405SOL    HW269870   9.386   9.644   1.406  0.1595 -0.2230  0.8302
19406SOL     OW69871   0.213   9.602   6.329  0.3480  0.5805  0.3677
19406SOL    HW169872   0.118   9.618   6.357  0.3484  0.1962  0.5852
19406SOL    HW269873   0.242   9.675   6.267 -0.6442 -0.2460 -1.0793
19407SOL     OW69874   1.438   6.651   0.278 -0.6136  0.5438 -0.4705
19407SOL    HW169875   1.433   6.744   0.316 -1.6101  0.2111  0.2496
19407SOL    HW269876   1.442   6.656   0.179  0.1037  1.3862 -0.3993
19408SOL     OW69877   8.138   1.268   6.410  0.1398 -0.4169 -0.0944
19408SOL    HW169878   8.203   1.202   6.447  0.7048 -0.7590 -1.6701
19408SOL    HW269879   8.100   1.233   6.325 -0.6609  0.6459 -0.1825
19409SOL     OW69880   4.077   1.902   8.153  0.3230 -0.0914  0.1351
19409SOL    HW169881   4.040   1.879   8.243 -3.3377  1.1141 -0.9842
19409SOL    HW269882   4.137   1.982   8.161 -1.8030  1.4205  1.1675
19410SOL     OW69883   1.248   0.108   3.353 -0.2826  0.7703  0.2943
19410SOL    HW169884   1.329   0.050   3.359 -0.2561  0.8447  0.6724
19410SOL    HW269885   1.166   0.053   3.370 -0.4896  0.2476 -2.1781
19411SOL     OW69886   2.413   6.398   4.843 -0.1222 -0.5353  0.3589
19411SOL    HW169887   2.350   6.452   4.788  0.0449  0.1429  0.8164
19411SOL    HW269888   2.413   6.433   4.937 -0.6280 -1.8669  0.8642
19412SOL     OW69889   2.170   6.871   1.065  0.1276 -0.6966 -0.3487
19412SOL    HW169890   2.106   6.913   1.129  0.1993  0.8141 -1.2240
19412SOL    HW269891   2.261   6.869   1.105 -0.0221 -0.7019 -0.0080
19413SOL     OW69892   7.250   6.838   5.748 -0.3010  0.1249  0.2356
19413SOL    HW169893   7.280   6.923   5.790 -0.7473  0.1564  0.4872
19413SOL    HW269894   7.151   6.840   5.733 -0.2283 -0.1147 -0.2880
19414SOL     OW69895   3.462   6.441   0.085 -0.4696 -0.1947 -0.0682
19414SOL    HW169896   3.435   6.432  -0.010  1.8375  1.4394 -0.9306
19414SOL    HW269897   3.438   6.532   0.119  0.6537 -0.0101  0.2475
19415SOL     OW69898   7.949   4.156   0.869  0.3049 -0.2991 -0.3997
19415SOL    HW169899   7.887   4.184   0.796 -0.7265  0.5972  0.7852
19415SOL    HW269900   7.929   4.062   0.896  1.1304 -0.8645 -1.6974
19416SOL     OW69901   3.995   7.134   4.372  0.3531 -0.5910 -0.0021
19416SOL    HW169902   4.090   7.128   4.339 -0.9671  2.7981 -4.9793
19416SOL    HW269903   3.970   7.230   4.382 -3.0263 -1.4225 -0.1045
19417SOL     OW69904   2.036   7.483   7.798  0.5340 -0.0276  0.1468
19417SOL    HW169905   2.093   7.559   7.765 -1.8914  2.8241  2.3274
19417SOL    HW269906   2.060   7.461   7.892 -0.2685 -0.5433  0.2356
19418SOL     OW69907   8.608   4.864   3.925  0.1067 -0.1785  0.2653
19418SOL    HW169908   8.618   4.953   3.880 -0.3321 -0.0266  0.4653
19418SOL    HW269909   8.546   4.873   4.003 -0.0562 -0.6914  0.1986
19419SOL     OW69910   2.573   8.468   6.187  0.1835  0.1846 -0.5902
19419SOL    HW169911   2.566   8.511   6.097  1.4120  0.8996 -0.3493
19419SOL    HW269912   2.502   8.398   6.195  0.4842 -0.3566 -2.3694
19420SOL     OW69913   2.450   3.905   0.167  0.0932  0.0413 -0.0492
19420SOL    HW169914   2.390   3.826   0.179 -0.0484  0.1889  0.2241
19420SOL    HW269915   2.395   3.988   0.163  0.3102  0.2181  0.6180
19421SOL     OW69916   3.798   0.210   4.797 -0.5273 -0.3783 -0.0556
19421SOL    HW169917   3.828   0.166   4.712 -0.8850 -1.7846  0.5280
19421SOL    HW269918   3.707   0.249   4.784  0.0446  0.7530 -0.7630
19422SOL     OW69919   8.268   1.033   6.495  0.7117  0.2991  0.3805
19422SOL    HW169920   8.367   1.019   6.488  0.5040 -1.7568  1.1759
19422SOL    HW269921   8.225   0.951   6.532 -1.3025  1.1922  0.1121
19423SOL     OW69922   3.873   5.967   0.910 -0.1112  0.7025 -0.0758
19423SOL    HW169923   3.803   5.896   0.916  0.2289  0.1660 -2.1191
19423SOL    HW269924   3.928   5.953   0.828  1.0991  2.3052  0.4299
19424SOL     OW69925   6.687   6.954   5.913  0.4971 -0.1716 -0.4038
19424SOL    HW169926   6.620   6.971   5.840 -0.6856 -0.7155  0.5358
19424SOL    HW269927   6.727   6.863   5.901  0.6403 -0.0783 -0.6337
19425SOL     OW69928   3.382   8.590   2.228  0.7310  0.3322  0.2330
19425SOL    HW169929   3.410   8.528   2.302 -0.1088  0.4520  0.6635
19425SOL    HW269930   3.306   8.550   2.178  0.2102  0.9961  0.4862
19426SOL     OW69931   7.620   6.937   3.579  0.2785 -0.3198  0.5348
19426SOL    HW169932   7.699   6.949   3.519  0.7898 -2.8751  0.6598
19426SOL    HW269933   7.607   7.020   3.633  2.5110  0.3618  0.0756
19427SOL     OW69934   2.850   9.979   0.371 -0.1766  0.2699  0.3922
19427SOL    HW169935   2.785  10.037   0.322 -1.4903 -1.0823  0.5114
19427SOL    HW269936   2.851  10.006   0.468 -1.9141 -0.8885  0.7462
19428SOL     OW69937   1.114   2.984   8.168 -0.1251 -0.2266  0.9206
19428SOL    HW169938   1.082   2.889   8.165  0.3006 -0.3469 -0.1841
19428SOL    HW269939   1.134   3.015   8.075 -0.2794  0.9566  1.2745
19429SOL     OW69940   7.344   3.420   7.854  0.9634 -0.2081  0.3350
19429SOL    HW169941   7.408   3.358   7.808  1.8256  1.8701 -1.3140
19429SOL    HW269942   7.371   3.429   7.950  1.6492 -1.3067  0.2547
19430SOL     OW69943   4.731   9.692   8.098 -0.2352 -0.3530  0.1980
19430SOL    HW169944   4.775   9.641   8.172 -0.3205 -0.4896  0.1553
19430SOL    HW269945   4.736   9.790   8.118  1.4901 -0.2630 -0.5757
19431SOL     OW69946   7.354   9.166   3.064 -0.3306 -0.3914  0.0567
19431SOL    HW169947   7.333   9.088   3.122  1.3736 -0.0400  1.2022
19431SOL    HW269948   7.398   9.135   2.980 -0.6835 -0.7417  0.0022
19432SOL     OW69949   4.043   2.614   3.115 -0.5648 -0.3863 -0.4146
19432SOL    HW169950   4.103   2.589   3.190 -0.6427  1.5658  0.3247
19432SOL    HW269951   4.089   2.597   3.028  1.0073  0.9849  0.1399
19433SOL     OW69952   3.357   6.765   5.404  0.5463  0.7062  0.7054
19433SOL    HW169953   3.439   6.790   5.353 -0.3443  0.5697 -0.8351
19433SOL    HW269954   3.286   6.734   5.340 -0.6028  0.5299  2.0338
19434SOL     OW69955   1.501   1.726   1.813  0.0293 -0.3464  0.0565
19434SOL    HW169956   1.444   1.662   1.863 -0.4707 -0.5181 -0.7115
19434SOL    HW269957   1.576   1.758   1.871 -1.8051  1.1886  1.6595
19435SOL     OW69958   1.851   8.426   3.617  0.2945 -0.6709 -0.2364
19435SOL    HW169959   1.806   8.382   3.539 -0.0944  1.5892 -1.3511
19435SOL    HW269960   1.924   8.368   3.651  0.5799 -1.6408 -2.4219
19436SOL     OW69961   0.101   4.351   1.099 -0.5223  0.4298 -0.3138
19436SOL    HW169962   0.038   4.387   1.030 -1.1338 -0.6926 -0.3568
19436SOL    HW269963   0.048   4.305   1.170  0.3011 -1.8230 -1.1064
19437SOL     OW69964   2.167   8.800   4.975  0.4992 -0.7505  0.6850
19437SOL    HW169965   2.182   8.888   4.930  0.8573 -0.7372  0.8269
19437SOL    HW269966   2.199   8.806   5.070 -0.0981 -0.8285  0.8918
19438SOL     OW69967   9.122   5.327   3.642 -0.0538 -0.1092 -0.0297
19438SOL    HW169968   9.222   5.335   3.650 -0.0617  0.4672 -0.4586
19438SOL    HW269969   9.099   5.261   3.571  0.0246 -0.1776  0.0083
19439SOL     OW69970   7.473   1.101   7.771  0.3052  0.3593  0.3849
19439SOL    HW169971   7.487   1.200   7.773 -0.2526  0.4893 -1.4449
19439SOL    HW269972   7.483   1.068   7.678  1.2970 -1.4534  1.0977
19440SOL     OW69973   4.814   4.613   7.287 -0.0179  0.6135 -0.3615
19440SOL    HW169974   4.772   4.570   7.367 -1.2297  1.1705 -0.6859
19440SOL    HW269975   4.872   4.547   7.241 -0.5593 -0.1884  0.0855
19441SOL     OW69976   9.729   7.534   4.664 -0.0409 -0.0212  0.4101
19441SOL    HW169977   9.718   7.462   4.596  0.7326  0.2428 -0.0065
19441SOL    HW269978   9.737   7.494   4.755  0.1032 -0.4431  0.2110
19442SOL     OW69979   0.128   0.604   0.909  0.3709  0.0104 -0.8251
19442SOL    HW169980   0.129   0.662   0.991  3.6193  0.7089 -1.2616
19442SOL    HW269981   0.116   0.508   0.935  1.5447  0.2127  0.5122
19443SOL     OW69982   7.935   8.837   2.850 -0.0763 -0.1675 -0.7806
19443SOL    HW169983   7.869   8.912   2.843 -0.8378 -0.6942  0.6514
19443SOL    HW269984   7.886   8.750   2.861  0.8455 -0.5782  0.1712
19444SOL     OW69985   5.338   4.654   7.910  0.1063 -0.2365  0.6296
19444SOL    HW169986   5.365   4.750   7.920  0.5439 -0.1213 -1.4526
19444SOL    HW269987   5.243   4.643   7.938  0.5896  0.4285  2.6507
19445SOL     OW69988   2.012   0.525   4.890  0.6647  0.9485  0.2818
19445SOL    HW169989   2.037   0.488   4.979  0.7256  1.0316  0.3007
19445SOL    HW269990   2.022   0.455   4.820  1.5072  1.1387  0.2041
19446SOL     OW69991   7.147   4.934   1.834 -0.0101  0.0407 -0.1458
19446SOL    HW169992   7.184   5.021   1.801  0.8236  0.6086  2.1337
19446SOL    HW269993   7.220   4.866   1.836 -0.5709 -0.6055 -1.5570
19447SOL     OW69994   9.432   6.082   5.669  0.6842  0.0313  0.0088
19447SOL    HW169995   9.393   6.045   5.753 -0.0318  1.4029  0.2873
19447SOL    HW269996   9.422   6.015   5.595  1.2633 -1.1535  0.9888
19448SOL     OW69997   8.053   4.442   4.206  0.1963  0.2257  0.1494
19448SOL    HW169998   8.089   4.534   4.218  0.0550  0.2085  0.7362
19448SOL    HW269999   8.007   4.413   4.290 -0.5678 -0.0233 -0.3508
19449SOL     OW70000   9.781   9.743   5.368 -0.0318  0.2789 -0.0013
19449SOL    HW170001   9.726   9.826   5.367 -0.9518 -0.3038  1.0668
19449SOL    HW270002   9.878   9.767   5.358 -0.2494  1.5210  0.7217
19450SOL     OW70003   1.057   5.377   1.864  0.1664 -0.4073  0.2179
19450SOL    HW170004   1.126   5.319   1.908 -1.2754 -2.6309 -0.3620
19450SOL    HW270005   0.968   5.331   1.868 -1.6195  3.0481  2.2372
19451SOL     OW70006   9.603   9.195   2.383 -0.0784 -0.2306  0.3378
19451SOL    HW170007   9.605   9.106   2.430 -1.6645 -0.3666  0.1569
19451SOL    HW270008   9.582   9.181   2.287 -0.0464  0.3294  0.2520
19452SOL     OW70009   7.192   8.034   5.619  0.3304 -0.0837  0.0770
19452SOL    HW170010   7.121   7.989   5.673  1.3595 -0.4711  1.1385
19452SOL    HW270011   7.226   8.114   5.669  1.1428 -0.3219 -0.0896
19453SOL     OW70012   1.000   0.750   8.037  0.2740 -0.0634 -0.4582
19453SOL    HW170013   1.027   0.682   8.105  2.2351  0.2132 -0.9258
19453SOL    HW270014   1.019   0.841   8.072  0.2737  0.1248 -0.9501
19454SOL     OW70015   9.037   1.721   5.102 -0.0695  0.0244 -0.0216
19454SOL    HW170016   9.126   1.713   5.057 -0.3335  1.0722 -0.7440
19454SOL    HW270017   8.976   1.775   5.045 -0.4498  1.2768  1.5257
19455SOL     OW70018   0.663   3.496   4.631 -0.4105  0.2936  0.2289
19455SOL    HW170019   0.744   3.455   4.589 -0.2942  0.8209 -0.0689
19455SOL    HW270020   0.639   3.446   4.714 -0.2127 -0.3155 -0.0807
19456SOL     OW70021   6.206   0.468   1.241  0.2183 -0.1852  0.2759
19456SOL    HW170022   6.197   0.516   1.328  0.2356  1.5184 -0.6355
19456SOL    HW270023   6.300   0.476   1.208  0.3414 -1.2740  0.3418
19457SOL     OW70024   9.813   4.881   1.983 -0.2304 -0.2990 -0.3911
19457SOL    HW170025   9.713   4.875   1.990 -0.1520  1.0638  2.3460
19457SOL    HW270026   9.838   4.971   1.947  0.0663 -0.0812  0.3638
19458SOL     OW70027   9.987   4.720   4.378  0.3224 -0.0392 -0.2428
19458SOL    HW170028  10.035   4.728   4.465  1.6676  1.7827 -1.1281
19458SOL    HW270029   9.909   4.781   4.377  0.1903 -0.2071 -0.2420
19459SOL     OW70030   7.602   0.143   0.006  0.0105  0.1164  0.3152
19459SOL    HW170031   7.538   0.171  -0.065 -1.5506  2.2390  2.4479
19459SOL    HW270032   7.552   0.104   0.083  1.2970  1.1090  1.7006
19460SOL     OW70033   9.171   3.329   1.448 -0.3797  0.0541 -0.0365
19460SOL    HW170034   9.242   3.294   1.388 -0.4367 -2.3230  1.1998
19460SOL    HW270035   9.181   3.288   1.539 -1.6985  1.7680  0.9147
19461SOL     OW70036   0.388   4.888   8.185 -0.6136 -0.2024  0.0559
19461SOL    HW170037   0.450   4.963   8.161 -0.3124 -0.0527  1.2548
19461SOL    HW270038   0.441   4.803   8.193 -0.4996 -0.0359  1.2864
19462SOL     OW70039   4.372   3.158   7.754  0.0302 -0.4562 -0.2871
19462SOL    HW170040   4.430   3.123   7.680  0.3437  0.1867 -0.3451
19462SOL    HW270041   4.424   3.220   7.812 -0.2672 -0.8032  0.3704
19463SOL     OW70042   4.155   6.814   3.075 -0.2212  0.1192 -0.4761
19463SOL    HW170043   4.252   6.790   3.082 -0.3187  0.0073  0.5299
19463SOL    HW270044   4.101   6.731   3.057 -0.1274  0.1932 -1.1184
19464SOL     OW70045   9.665   5.465   3.791 -0.1674 -0.7849  0.1494
19464SOL    HW170046   9.707   5.410   3.719  1.1258  0.2493  0.1075
19464SOL    HW270047   9.609   5.537   3.749  0.5729 -0.1921  0.1722
19465SOL     OW70048   8.752   0.113   1.149  0.1637  0.8022 -0.0695
19465SOL    HW170049   8.699   0.095   1.232  1.5630 -1.3158  0.4008
19465SOL    HW270050   8.837   0.160   1.173 -0.4236  2.1765 -0.5821
19466SOL     OW70051   7.277   9.175   3.965 -0.2147  0.6052 -0.0648
19466SOL    HW170052   7.295   9.082   3.996 -2.1497 -0.0098 -0.7332
19466SOL    HW270053   7.211   9.218   4.025  0.9666  1.7052  0.4704
19467SOL     OW70054   4.467   2.690   4.012  0.0510  0.0052  0.3987
19467SOL    HW170055   4.516   2.610   3.979 -0.3901 -0.0279 -0.1729
19467SOL    HW270056   4.531   2.765   4.026  0.3640 -0.2444  0.3067
19468SOL     OW70057   9.896   0.684   1.471 -0.4606 -0.3438 -0.0624
19468SOL    HW170058   9.906   0.702   1.373 -2.1605 -1.1509 -0.4144
19468SOL    HW270059   9.854   0.594   1.484  0.4756 -0.5849  1.4405
19469SOL     OW70060   2.574   3.034   4.222 -0.2773 -0.5156  0.3066
19469SOL    HW170061   2.584   3.105   4.293  1.3162 -0.5461  0.1166
19469SOL    HW270062   2.579   3.077   4.132 -0.5934 -0.7120  0.1952
19470SOL     OW70063   0.260   0.369   3.688  0.0048  0.0321  0.1734
19470SOL    HW170064   0.199   0.419   3.750  2.0048 -0.3845  2.5851
19470SOL    HW270065   0.338   0.426   3.665 -0.5021  0.0144 -1.6429
19471SOL     OW70066   4.293   7.974   6.694 -0.5842 -0.3349 -0.7226
19471SOL    HW170067   4.248   7.889   6.665 -0.2701 -1.7985  2.7787
19471SOL    HW270068   4.379   7.952   6.739 -0.1775  1.9059 -0.3588
19472SOL     OW70069   9.267   1.129   4.548  0.5150 -0.3479  0.3872
19472SOL    HW170070   9.168   1.137   4.547  0.5807  0.4891 -0.9045
19472SOL    HW270071   9.294   1.037   4.519  0.0934 -1.1724  2.5017
19473SOL     OW70072   4.504   9.569   7.994  0.5566  0.3007  0.2114
19473SOL    HW170073   4.588   9.609   8.030 -0.3361  1.3023  1.2457
19473SOL    HW270074   4.502   9.472   8.016  0.1951  0.8237  2.6367
19474SOL     OW70075   3.329   6.323   0.990 -0.4744 -0.1236  0.0873
19474SOL    HW170076   3.289   6.232   0.977 -1.3172 -0.0172  1.7598
19474SOL    HW270077   3.344   6.366   0.901 -1.2873 -1.3682 -0.6675
19475SOL     OW70078   2.061   4.509   0.676  0.6132 -0.1191  0.3080
19475SOL    HW170079   2.027   4.603   0.673 -1.5611 -0.9199 -1.6211
19475SOL    HW270080   2.049   4.472   0.768 -1.5504  0.4198  0.2556
19476SOL     OW70081   9.651   0.262   5.264 -0.0529  0.0713 -0.6356
19476SOL    HW170082   9.744   0.251   5.229  0.6833  0.7665  1.0657
19476SOL    HW270083   9.649   0.335   5.332 -2.0753  0.8245 -1.4517
19477SOL     OW70084   8.828   0.690   6.591 -0.5920  0.0755  0.1535
19477SOL    HW170085   8.806   0.727   6.681 -0.2150 -0.0204  0.2868
19477SOL    HW270086   8.891   0.752   6.544 -1.0640  0.3004 -0.1856
19478SOL     OW70087   2.490   0.680   4.013 -0.6486  0.2844 -0.1692
19478SOL    HW170088   2.444   0.722   3.935 -1.9944 -0.7044  0.0838
19478SOL    HW270089   2.503   0.582   3.997 -1.6198 -0.0774  1.1485
19479SOL     OW70090   4.722   1.206   0.608  0.4180 -0.1508  0.2984
19479SOL    HW170091   4.806   1.253   0.584  0.2138  0.2900  0.4484
19479SOL    HW270092   4.737   1.107   0.605  0.9707 -0.0719  0.4357
19480SOL     OW70093   9.700   8.553   3.903 -0.2538 -0.2538  0.0550
19480SOL    HW170094   9.720   8.546   4.001 -0.9542 -0.7572  0.1651
19480SOL    HW270095   9.688   8.462   3.865 -0.7827 -0.0213 -0.3336
19481SOL     OW70096   9.077   7.429   0.864  0.2417 -0.0942  0.1581
19481SOL    HW170097   8.992   7.451   0.911  0.1117  1.5767 -0.8025
19481SOL    HW270098   9.073   7.335   0.830 -0.7003 -0.4485  1.1973
19482SOL     OW70099   5.253   8.211   5.027 -0.1656 -0.1171  0.0500
19482SOL    HW170100   5.281   8.237   5.119 -1.9085 -1.1036  0.8873
19482SOL    HW270101   5.231   8.113   5.025 -3.5427  0.5926 -0.5250
19483SOL     OW70102   9.280   4.547   7.655 -0.6111 -0.0457  0.5855
19483SOL    HW170103   9.252   4.619   7.718 -1.7847 -1.6231  1.8949
19483SOL    HW270104   9.225   4.465   7.671 -0.1347 -0.8450 -1.7123
19484SOL     OW70105   9.070   2.339   3.266  0.6679  0.0035 -0.3971
19484SOL    HW170106   9.084   2.438   3.277 -1.1173  0.1450  0.9397
19484SOL    HW270107   9.064   2.317   3.169 -2.0204  1.7199 -0.6973
19485SOL     OW70108   5.395   8.204   4.388 -0.6906 -0.1553 -0.1174
19485SOL    HW170109   5.433   8.277   4.332 -0.1561  0.0522  0.5058
19485SOL    HW270110   5.441   8.118   4.367  1.7178  0.4909  2.1683
19486SOL     OW70111   3.034   5.259   1.655 -0.0646  0.4434  0.0612
19486SOL    HW170112   2.980   5.274   1.572 -0.8680  0.7099  0.6349
19486SOL    HW270113   3.127   5.233   1.629  0.0927  1.9501 -0.9465
19487SOL     OW70114   1.354   3.629   6.038 -0.4904  0.0260 -0.3628
19487SOL    HW170115   1.348   3.690   6.118  4.0220  1.4550 -0.9626
19487SOL    HW270116   1.346   3.684   5.955 -0.4198 -0.7946 -0.9083
19488SOL     OW70117   1.614   3.843   5.721 -0.1429  0.4458  0.0418
19488SOL    HW170118   1.651   3.935   5.704 -0.5805  0.4563 -0.9087
19488SOL    HW270119   1.516   3.849   5.739 -0.2388  0.1399 -0.3582
19489SOL     OW70120   7.905   3.636   4.786  0.7015 -0.0392  0.1565
19489SOL    HW170121   7.878   3.558   4.731 -0.4455  0.0807  0.5288
19489SOL    HW270122   7.919   3.716   4.727 -0.1468 -0.0100 -0.0136
19490SOL     OW70123   1.258   1.730   2.833  0.4841 -0.2449  0.3663
19490SOL    HW170124   1.282   1.807   2.892 -0.3890  0.1847  0.1609
19490SOL    HW270125   1.309   1.736   2.747 -0.0260  0.4208  0.1113
19491SOL     OW70126   9.328   5.345   6.351  0.1039 -0.2264  0.4683
19491SOL    HW170127   9.235   5.336   6.316  0.2957  1.9176 -0.6422
19491SOL    HW270128   9.354   5.442   6.353  2.5363 -0.8424  0.1538
19492SOL     OW70129   7.667   0.883   6.280 -0.0123 -0.6221  0.3348
19492SOL    HW170130   7.636   0.800   6.235 -0.2198 -0.7546  0.7199
19492SOL    HW270131   7.767   0.889   6.273  0.1363 -1.5836  1.4504
19493SOL     OW70132   4.107   3.729   0.116 -0.5809 -0.2703  0.1423
19493SOL    HW170133   4.083   3.810   0.063 -0.9109  0.2892  1.1234
19493SOL    HW270134   4.024   3.676   0.135 -0.4163 -0.6543 -0.1923
19494SOL     OW70135   7.619   7.000   6.809  0.1106  0.0779 -0.4764
19494SOL    HW170136   7.546   7.032   6.870 -0.7258  0.7749 -1.8294
19494SOL    HW270137   7.691   7.070   6.805  0.8920 -0.6301  0.8960
19495SOL     OW70138   3.881   3.431   1.420 -0.2323 -0.0553 -0.4872
19495SOL    HW170139   3.879   3.522   1.380 -2.9552  0.0334 -0.2623
19495SOL    HW270140   3.787   3.400   1.436  0.6928 -2.1971  1.0183
19496SOL     OW70141   0.787   2.856   1.485 -0.3552 -0.1302  0.5897
19496SOL    HW170142   0.852   2.816   1.420 -0.8366 -0.8158  0.5281
19496SOL    HW270143   0.828   2.935   1.529  0.1767  0.0092 -0.1552
19497SOL     OW70144   1.542   4.157   4.484 -0.4116 -0.3486  0.2239
19497SOL    HW170145   1.472   4.103   4.437  0.3416 -1.8900  0.8237
19497SOL    HW270146   1.532   4.253   4.459 -2.3445 -0.6212 -0.1868
19498SOL     OW70147   2.290   4.431   7.347  0.2965  0.0915  0.2556
19498SOL    HW170148   2.371   4.400   7.397  0.1130  0.3152  0.6895
19498SOL    HW270149   2.289   4.387   7.256  0.5926 -0.3659  0.4688
19499SOL     OW70150   8.223   8.242   4.354 -0.8402 -0.0371 -0.3577
19499SOL    HW170151   8.190   8.165   4.409  0.6659  0.9277  1.9533
19499SOL    HW270152   8.269   8.208   4.273 -2.6248 -1.4960 -0.8048
19500SOL     OW70153   3.241   5.660   2.932 -0.0275 -0.3228 -0.1105
19500SOL    HW170154   3.165   5.683   2.993 -0.5998  0.8377 -1.2461
19500SOL    HW270155   3.328   5.671   2.981 -0.5058 -0.0175  0.6757
19501SOL     OW70156   9.623   8.953   5.848 -0.1089  0.1357 -0.2762
19501SOL    HW170157   9.594   8.871   5.798  0.6587  0.6927 -1.6446
19501SOL    HW270158   9.641   8.928   5.943  0.5082 -1.3763 -0.7614
19502SOL     OW70159   1.366   6.142   1.311  0.6126  0.4465 -0.1482
19502SOL    HW170160   1.376   6.049   1.346  2.0665  0.7571  0.3119
19502SOL    HW270161   1.270   6.170   1.317  0.1485 -1.0517 -0.3822
19503SOL     OW70162   8.197   9.203   6.430 -0.0417 -0.5994 -0.8555
19503SOL    HW170163   8.108   9.186   6.388 -0.8752  1.2108  0.1095
19503SOL    HW270164   8.197   9.169   6.524 -0.8028  2.1220  0.1798
19504SOL     OW70165   9.697   9.304   1.480 -0.5896  0.0850 -0.0499
19504SOL    HW170166   9.653   9.322   1.568  1.0625 -0.6571  0.9456
19504SOL    HW270167   9.647   9.232   1.432  0.6895 -2.2310  2.0054
19505SOL     OW70168   9.072   5.174   3.438  0.4687  0.2081 -0.6610
19505SOL    HW170169   9.152   5.132   3.394  0.2713  0.1145 -0.9348
19505SOL    HW270170   8.989   5.128   3.406  0.4049 -0.6619  0.7310
19506SOL     OW70171   5.071   2.372   5.758  0.2573  0.4704 -0.6183
19506SOL    HW170172   5.063   2.274   5.779  0.0206  0.8803  1.2878
19506SOL    HW270173   5.087   2.423   5.843  1.7642  1.9535 -1.7526
19507SOL     OW70174   1.651   5.754   7.582 -0.5560 -0.3943 -0.3171
19507SOL    HW170175   1.741   5.750   7.538 -0.9481  0.7067 -1.2636
19507SOL    HW270176   1.618   5.661   7.600  1.1089 -0.7830  0.7733
19508SOL     OW70177   8.894   2.885   5.368 -0.7542 -0.2599  0.2829
19508SOL    HW170178   8.831   2.959   5.394 -0.4557  0.2584 -0.4335
19508SOL    HW270179   8.980   2.896   5.417 -1.1732 -0.8953  1.1674
19509SOL     OW70180   4.284   5.756   0.887 -0.5991 -0.0970  0.1898
19509SOL    HW170181   4.373   5.716   0.864 -0.5752  0.6338 -0.9880
19509SOL    HW270182   4.291   5.855   0.885 -1.0894 -0.0274  1.4852
19510SOL     OW70183   0.523   7.735   6.247  0.1763 -0.0996 -0.0726
19510SOL    HW170184   0.562   7.647   6.272 -2.1765 -1.1202  0.0711
19510SOL    HW270185   0.537   7.800   6.322 -1.3286 -1.3940  1.3621
19511SOL     OW70186   5.717   7.847   5.498  0.3231  0.0155  0.8172
19511SOL    HW170187   5.770   7.764   5.485  1.3789  0.7668  0.2159
19511SOL    HW270188   5.656   7.860   5.419  1.1313  0.5066  0.2640
19512SOL     OW70189   8.985   3.113   6.533  0.2178  0.2390  0.0850
19512SOL    HW170190   8.919   3.117   6.608 -0.8325  1.2630 -0.8793
19512SOL    HW270191   8.977   3.195   6.476  1.7367 -0.0217 -0.5501
19513SOL     OW70192   3.443   3.206   0.514  0.1678 -0.1756  0.5040
19513SOL    HW170193   3.512   3.225   0.444 -1.8665 -1.6018 -1.9432
19513SOL    HW270194   3.439   3.108   0.530 -1.4846 -0.1219  0.4302
19514SOL     OW70195   9.762   9.535   3.561  0.2239 -0.9598 -0.1699
19514SOL    HW170196   9.673   9.580   3.562  1.0601  0.6923  0.9644
19514SOL    HW270197   9.772   9.480   3.645  0.7708 -0.1500  0.2973
19515SOL     OW70198   8.393   3.424   7.653  0.0903  0.1839  0.5289
19515SOL    HW170199   8.396   3.522   7.632 -1.2650 -0.1579 -1.3954
19515SOL    HW270200   8.315   3.405   7.712 -0.6291  0.0160 -0.4796
19516SOL     OW70201   8.574   9.603   1.330  0.0117  0.7567 -0.3228
19516SOL    HW170202   8.498   9.607   1.265 -0.0348 -1.6955 -0.4877
19516SOL    HW270203   8.594   9.507   1.351  1.2356  1.4523  1.8654
19517SOL     OW70204   3.251   7.604   2.831 -0.4613  0.0423  0.3264
19517SOL    HW170205   3.268   7.506   2.824 -0.6601 -0.0438  0.9832
19517SOL    HW270206   3.238   7.643   2.740  1.0900 -0.2754 -0.0420
19518SOL     OW70207   0.644   9.790   6.345 -0.4952 -0.2549 -0.0051
19518SOL    HW170208   0.738   9.823   6.334 -0.6339  0.4072  0.7804
19518SOL    HW270209   0.587   9.863   6.381 -0.9509 -1.1309  1.0751
19519SOL     OW70210   2.304   6.817   5.716  0.5179  0.5732  0.0932
19519SOL    HW170211   2.236   6.858   5.655 -0.1989 -0.3951  0.2220
19519SOL    HW270212   2.382   6.878   5.725 -0.4297  1.8083  0.1093
19520SOL     OW70213   2.962   5.999   5.932  0.5934  0.3057 -0.3474
19520SOL    HW170214   3.018   5.919   5.909  0.4516  0.8811 -2.7469
19520SOL    HW270215   2.871   5.989   5.890  0.6521  1.8295 -0.8589
19521SOL     OW70216   3.833   5.036   3.194  0.3068  0.6817 -0.0344
19521SOL    HW170217   3.774   5.011   3.117  0.6104 -1.4053  0.3612
19521SOL    HW270218   3.926   5.054   3.161 -0.1030  2.0644 -0.4281
19522SOL     OW70219   8.612   6.233   0.022 -0.1927 -0.1378  0.5150
19522SOL    HW170220   8.619   6.177   0.104 -0.7108  0.9786  1.3347
19522SOL    HW270221   8.653   6.323   0.039 -1.0478  0.3949 -0.1634
19523SOL     OW70222   9.627   4.146   0.904 -0.3410 -0.3106  0.5976
19523SOL    HW170223   9.600   4.162   0.999 -0.4040 -0.1001  0.5461
19523SOL    HW270224   9.718   4.107   0.900  0.5114  1.6152  0.6688
19524SOL     OW70225   3.317   1.199   7.514 -0.1838  0.6943 -0.1817
19524SOL    HW170226   3.379   1.135   7.468 -0.1037  0.9064 -0.3752
19524SOL    HW270227   3.337   1.292   7.482 -1.1484  0.6733 -0.8452
19525SOL     OW70228   7.506   2.076   2.914 -0.4317 -0.2807 -0.4884
19525SOL    HW170229   7.584   2.119   2.867  0.6737 -0.4193  1.1944
19525SOL    HW270230   7.484   2.127   2.997 -2.3082 -0.1059 -1.0581
19526SOL     OW70231   2.665   9.061   7.576 -0.3820  0.1822 -0.2871
19526SOL    HW170232   2.722   8.979   7.587  1.1948  1.3526  0.5206
19526SOL    HW270233   2.714   9.141   7.612 -0.9896  1.8368 -3.0004
19527SOL     OW70234   9.023   1.645   2.035 -0.2811 -0.1713  0.1331
19527SOL    HW170235   9.102   1.650   1.975  0.1831  1.8643  0.8775
19527SOL    HW270236   8.982   1.735   2.045 -2.9084 -1.2510 -0.4883
19528SOL     OW70237   7.089   9.721   2.678 -0.5212  0.4236  0.0362
19528SOL    HW170238   7.180   9.747   2.709  1.0177 -1.8974 -2.3266
19528SOL    HW270239   7.051   9.794   2.620  0.9999  0.2648 -1.1872
19529SOL     OW70240   3.270   3.883   0.068  0.5922  0.0744  0.2470
19529SOL    HW170241   3.308   3.808   0.123  0.8593  0.1649  0.1840
19529SOL    HW270242   3.280   3.861  -0.029  0.1649 -0.0624  0.2333
19530SOL     OW70243   9.838   7.616   5.133  0.3053  0.3118 -0.3380
19530SOL    HW170244   9.922   7.563   5.133  0.1104 -0.0020  0.3612
19530SOL    HW270245   9.760   7.556   5.118 -0.0171  0.2143  1.5719
19531SOL     OW70246   4.863   9.530   1.673 -0.1012  0.1725  0.0431
19531SOL    HW170247   4.904   9.481   1.596 -0.2992  0.3030 -0.1477
19531SOL    HW270248   4.800   9.469   1.721 -0.6271  0.3536 -0.4175
19532SOL     OW70249   2.356   9.113   4.699  0.3492  0.0362  0.2488
19532SOL    HW170250   2.263   9.088   4.728  0.6058  1.6091  2.5511
19532SOL    HW270251   2.353   9.148   4.606 -1.4488  0.4025  0.4137
19533SOL     OW70252   4.347   6.520   0.268 -0.0522  0.0353  0.3393
19533SOL    HW170253   4.286   6.482   0.338 -0.2521  0.2924  0.3041
19533SOL    HW270254   4.348   6.459   0.188 -2.3514  1.3690 -0.7469
19534SOL     OW70255   8.346   3.308   2.186  0.1292 -0.4865 -0.0490
19534SOL    HW170256   8.249   3.293   2.205  0.3631 -0.7916  0.9094
19534SOL    HW270257   8.395   3.322   2.272  0.5088  2.2784 -0.6850
19535SOL     OW70258   8.586   6.943   1.394  0.0502  0.3915 -0.0342
19535SOL    HW170259   8.510   6.956   1.330 -0.7786  0.6774  0.9960
19535SOL    HW270260   8.551   6.946   1.488  1.3642  0.6597  0.4476
19536SOL     OW70261   5.721   0.968   4.550  0.1850  0.0153 -0.4851
19536SOL    HW170262   5.740   1.053   4.600 -1.9804  1.3903 -1.9239
19536SOL    HW270263   5.774   0.894   4.591 -2.7534  0.6791  4.9995
19537SOL     OW70264   0.692   5.247   5.479 -0.6900  0.6327 -0.2204
19537SOL    HW170265   0.732   5.195   5.554  0.8464 -1.0177 -2.1211
19537SOL    HW270266   0.728   5.341   5.480  2.1675 -0.4073 -1.0066
19538SOL     OW70267   9.050   0.015   4.477  0.5208  0.0534 -0.0441
19538SOL    HW170268   9.015   0.057   4.393 -0.5752 -0.3560  0.2009
19538SOL    HW270269   9.048   0.082   4.551 -1.6296 -0.5324  0.4520
19539SOL     OW70270   0.253   3.334   4.153  0.5337  0.2679  0.1496
19539SOL    HW170271   0.164   3.365   4.120 -0.4103 -1.8167  0.6398
19539SOL    HW270272   0.263   3.357   4.250  1.6020  2.7500 -0.5272
19540SOL     OW70273   8.250   4.905   7.235  0.3448 -0.3573  0.0471
19540SOL    HW170274   8.249   4.956   7.321 -0.3605 -0.3562  0.0442
19540SOL    HW270275   8.340   4.912   7.192 -0.3889  2.7291 -1.0773
19541SOL     OW70276   1.584   5.621   0.595 -0.2262  0.5214  0.2126
19541SOL    HW170277   1.521   5.633   0.673 -1.5000  0.7292 -0.8250
19541SOL    HW270278   1.580   5.527   0.563 -0.3024  0.6305 -0.0990
19542SOL     OW70279   1.116   9.612   4.428 -0.1401  0.1217 -0.2854
19542SOL    HW170280   1.029   9.613   4.477 -0.5987 -0.6184 -1.0812
19542SOL    HW270281   1.167   9.696   4.449 -0.5794  0.0814  1.0022
19543SOL     OW70282   0.488   8.456   1.262 -0.5234  0.4204  0.2139
19543SOL    HW170283   0.494   8.554   1.244 -0.3304  0.1334 -1.3374
19543SOL    HW270284   0.392   8.429   1.270 -0.5579  0.8314  1.1931
19544SOL     OW70285   4.407   2.454   3.691  0.6713 -0.4898  0.0877
19544SOL    HW170286   4.339   2.518   3.726  1.2681  0.9922 -1.3724
19544SOL    HW270287   4.379   2.360   3.710 -1.2647  0.1402  0.3784
19545SOL     OW70288   9.498   7.300   5.223 -0.9801 -0.4673 -0.1962
19545SOL    HW170289   9.590   7.266   5.239 -0.7371  0.0118 -0.5453
19545SOL    HW270290   9.503   7.390   5.178 -1.6179 -1.0057 -1.3772
19546SOL     OW70291   7.360   7.375   3.920  0.5601  0.3831 -0.0200
19546SOL    HW170292   7.299   7.449   3.891  0.4460 -0.2960 -1.5445
19546SOL    HW270293   7.431   7.412   3.980  0.6888  1.7728 -1.0106
19547SOL     OW70294   8.624   1.739   3.012  0.2015  0.1827 -0.2084
19547SOL    HW170295   8.536   1.723   3.059  0.6571 -1.6292  0.0762
19547SOL    HW270296   8.607   1.760   2.916 -0.7460  3.8947  0.6851
19548SOL     OW70297   4.513   9.463   4.339  0.1130 -0.1026 -0.1375
19548SOL    HW170298   4.441   9.420   4.392  1.4242  1.1614  2.7804
19548SOL    HW270299   4.473   9.528   4.275 -1.3761  0.0567  0.9304
19549SOL     OW70300   6.862   6.425   7.220  0.2128 -0.3022 -0.3773
19549SOL    HW170301   6.910   6.409   7.134 -0.5845  0.5545 -0.9996
19549SOL    HW270302   6.765   6.403   7.208  0.0558  0.0463  0.2310
19550SOL     OW70303   2.737   8.119   6.883  0.6325 -0.2844  0.1966
19550SOL    HW170304   2.704   8.060   6.809 -2.0370  0.2347  0.9352
19550SOL    HW270305   2.774   8.204   6.845  1.6829 -1.1339 -0.6840
19551SOL     OW70306   2.482   8.024   6.507  0.0827 -0.0616 -0.2558
19551SOL    HW170307   2.392   8.065   6.494  0.7885  1.0424 -1.8690
19551SOL    HW270308   2.505   7.969   6.427  1.6479  1.2235 -0.6959
19552SOL     OW70309   7.518   2.094   0.800  0.0062  0.0731  0.0096
19552SOL    HW170310   7.519   2.110   0.899 -0.5854 -0.9227  0.1802
19552SOL    HW270311   7.612   2.089   0.766  0.2097  1.4162  0.3500
19553SOL     OW70312   8.017   8.196   3.330 -0.4980  0.1971  0.0879
19553SOL    HW170313   7.960   8.275   3.352  0.3465  0.6561  0.6497
19553SOL    HW270314   8.096   8.194   3.391  1.0736  0.6191 -1.8801
19554SOL     OW70315   3.786   0.915   6.466 -0.1090  0.2125 -0.0732
19554SOL    HW170316   3.790   0.829   6.517  0.6075  0.6389  0.5908
19554SOL    HW270317   3.720   0.976   6.510 -0.6680 -0.0160 -0.5832
19555SOL     OW70318   2.545   0.618   2.874 -0.2825  0.3533  0.2216
19555SOL    HW170319   2.460   0.656   2.911 -0.9948  1.0729 -2.0197
19555SOL    HW270320   2.611   0.692   2.860 -0.3711  0.2587 -0.7729
19556SOL     OW70321   4.461   9.046   6.743  0.2414  0.3484  0.0085
19556SOL    HW170322   4.426   9.022   6.834  0.9123 -0.0233  0.1738
19556SOL    HW270323   4.385   9.069   6.683 -0.2102  0.5754  0.6628
19557SOL     OW70324   7.565   8.927   6.426 -0.0542  0.6278  0.4101
19557SOL    HW170325   7.599   8.847   6.377 -0.2512  0.5939  0.3274
19557SOL    HW270326   7.590   9.010   6.376 -0.1340  0.6003  0.3251
19558SOL     OW70327   8.970   2.459   6.726  0.5726 -0.3096  0.1171
19558SOL    HW170328   8.918   2.522   6.670 -1.0609 -0.2402  1.6728
19558SOL    HW270329   9.067   2.461   6.699  0.4614  2.4856 -0.1625
19559SOL     OW70330   2.644   5.877   1.898  0.6880 -0.2681  0.3945
19559SOL    HW170331   2.693   5.934   1.964  1.5794 -1.8521  1.1329
19559SOL    HW270332   2.675   5.899   1.805  2.1805 -0.6535  0.7956
19560SOL     OW70333   7.605   8.412   5.589  0.3162 -0.0672  0.4564
19560SOL    HW170334   7.527   8.469   5.613 -0.9334 -1.4878 -0.1135
19560SOL    HW270335   7.584   8.362   5.505  1.6588 -0.8209  0.5614
19561SOL     OW70336   1.436   0.854   3.054  0.0541  0.2396  0.3195
19561SOL    HW170337   1.417   0.950   3.033  1.4960 -0.0288 -2.4808
19561SOL    HW270338   1.524   0.847   3.101  1.1283  0.1443 -1.6361
19562SOL     OW70339   0.885   1.208   0.875 -0.7373  0.2215 -0.0629
19562SOL    HW170340   0.928   1.282   0.824  3.1469 -1.2270  0.8773
19562SOL    HW270341   0.866   1.132   0.813  1.4377 -0.4811  0.0817
19563SOL     OW70342   9.122   3.575   4.313 -0.2558 -0.7178 -0.5611
19563SOL    HW170343   9.125   3.561   4.412  0.3375 -1.0566 -0.6271
19563SOL    HW270344   9.110   3.487   4.267 -0.8121 -0.5301 -0.7793
19564SOL     OW70345   5.529   1.813   4.516  0.3942  0.3495 -0.4555
19564SOL    HW170346   5.463   1.792   4.445  1.5402 -0.2806 -1.3418
19564SOL    HW270347   5.483   1.815   4.605 -0.9674  0.7879 -1.1615
19565SOL     OW70348   3.519   2.792   5.807  0.0087  0.2501 -0.2639
19565SOL    HW170349   3.548   2.887   5.808  0.5624  0.0788  0.2638
19565SOL    HW270350   3.421   2.787   5.785  0.3304  0.8420 -1.8865
19566SOL     OW70351   3.590   6.954   2.849  0.2878  0.4283  0.0598
19566SOL    HW170352   3.491   6.959   2.866 -0.0740 -2.2970 -1.0049
19566SOL    HW270353   3.625   6.866   2.882  1.7888  0.0814 -2.3579
19567SOL     OW70354   9.622   3.435   5.379 -0.0463 -0.1102  0.2375
19567SOL    HW170355   9.677   3.508   5.336  0.0522  0.7469  1.7851
19567SOL    HW270356   9.674   3.394   5.454 -0.0028 -1.9798 -0.7824
19568SOL     OW70357   8.299   9.273   6.069  0.2065  0.4525  0.5415
19568SOL    HW170358   8.361   9.264   5.991 -1.7646 -0.2054 -0.9931
19568SOL    HW270359   8.322   9.205   6.138  0.3032 -0.7085 -0.6200
19569SOL     OW70360   7.950   4.722   0.992  0.6059  0.5265  0.0164
19569SOL    HW170361   7.867   4.670   1.008  0.6985  0.6180  0.8262
19569SOL    HW270362   7.995   4.742   1.080  0.4737  2.1190 -0.2593
19570SOL     OW70363   9.448   4.251   5.183 -0.1091  0.4573 -0.6727
19570SOL    HW170364   9.539   4.273   5.146  1.1747 -1.6761  1.0661
19570SOL    HW270365   9.407   4.179   5.127  0.9706 -1.3394  0.8015
19571SOL     OW70366   4.643   0.831   7.178 -0.0155 -0.0064 -0.0226
19571SOL    HW170367   4.653   0.736   7.150  1.8498 -0.1478  1.0816
19571SOL    HW270368   4.647   0.837   7.278 -0.0277  1.2399 -0.0878
19572SOL     OW70369   3.179   1.492   0.228  0.6265  0.1278 -1.0121
19572SOL    HW170370   3.166   1.444   0.315 -0.9511  1.9372 -0.2246
19572SOL    HW270371   3.195   1.589   0.245  2.8658  0.0793 -2.6411
19573SOL     OW70372   8.956   1.346   3.497 -0.3892 -0.2707  0.1268
19573SOL    HW170373   8.989   1.341   3.403 -2.0665 -2.7785 -0.3799
19573SOL    HW270374   8.957   1.441   3.528  0.3951  0.5556 -2.3369
19574SOL     OW70375   7.304   5.937   7.316  0.8680 -0.0261  0.0128
19574SOL    HW170376   7.297   5.998   7.237 -1.4107 -1.2877 -0.8270
19574SOL    HW270377   7.339   5.848   7.286  2.0849  0.1657  0.8350
19575SOL     OW70378   2.014   2.130   2.289 -0.6607  0.1999  0.4087
19575SOL    HW170379   2.007   2.123   2.190 -1.2143  2.0814  0.3078
19575SOL    HW270380   1.985   2.221   2.319 -0.0281 -0.1764  2.2480
19576SOL     OW70381   3.174   3.228   0.920  0.3521 -0.1338 -0.3729
19576SOL    HW170382   3.184   3.178   0.834 -0.9050 -2.1638  0.6099
19576SOL    HW270383   3.091   3.196   0.967  2.1804 -0.6369  2.6034
19577SOL     OW70384   8.929   8.517   3.044  0.1410  0.1206 -0.3368
19577SOL    HW170385   9.004   8.540   3.106  0.0815 -0.5827  0.0073
19577SOL    HW270386   8.845   8.503   3.097  0.0488 -0.3076 -0.5892
19578SOL     OW70387   3.403   6.681   3.068 -0.4934  0.4204  0.0518
19578SOL    HW170388   3.482   6.619   3.067 -1.4707 -0.8517  0.0878
19578SOL    HW270389   3.370   6.694   2.975 -1.5202 -0.7404  0.2388
19579SOL     OW70390   0.453   5.677   0.412 -0.7170 -0.4266  0.3201
19579SOL    HW170391   0.538   5.638   0.450 -0.5697 -0.8838 -0.4590
19579SOL    HW270392   0.461   5.682   0.312 -1.1953  0.5335  0.3314
19580SOL     OW70393   2.949   0.081   1.361 -0.1656 -0.2160 -0.0513
19580SOL    HW170394   2.919   0.130   1.279  0.5417  0.2805 -0.0147
19580SOL    HW270395   3.044   0.053   1.350 -0.1913 -0.4898  0.4357
19581SOL     OW70396   4.628   3.936   1.629 -0.1927  0.0929 -0.4704
19581SOL    HW170397   4.596   3.901   1.541  1.2711 -1.0991 -0.5372
19581SOL    HW270398   4.712   3.989   1.615  0.5357 -0.8319  0.3026
19582SOL     OW70399   1.321   6.246   5.360 -0.0139  0.0685 -0.2806
19582SOL    HW170400   1.298   6.155   5.324  1.4898 -0.3977 -0.1137
19582SOL    HW270401   1.419   6.262   5.349  0.0408  0.9426  1.3178
19583SOL     OW70402   7.836   4.698   5.015  0.1343  0.3225 -0.0006
19583SOL    HW170403   7.857   4.777   4.957 -1.8552  1.5922  0.9616
19583SOL    HW270404   7.738   4.679   5.013  0.4213 -1.3509  0.7787
19584SOL     OW70405   4.316   7.304   1.936 -0.6422  0.0857 -0.3984
19584SOL    HW170406   4.351   7.220   1.976  0.1893  0.4209 -0.3937
19584SOL    HW270407   4.224   7.289   1.900 -0.3898 -0.8968 -0.6453
19585SOL     OW70408   3.804   8.486   7.633 -0.4369  0.3438 -0.1872
19585SOL    HW170409   3.875   8.455   7.570 -0.3253 -1.1376  0.6298
19585SOL    HW270410   3.785   8.413   7.700  0.7371  2.5084  2.6185
19586SOL     OW70411   3.012   0.897   2.976  0.4651  0.3208  0.4076
19586SOL    HW170412   2.917   0.929   2.982  0.5146  0.1870  2.1449
19586SOL    HW270413   3.061   0.951   2.908 -0.6320  0.9762  0.1303
19587SOL     OW70414   8.124   2.821   5.141  0.7260  0.4278  0.3212
19587SOL    HW170415   8.222   2.825   5.158  0.8033  0.0817 -0.0312
19587SOL    HW270416   8.097   2.727   5.124  0.3022  0.4999  0.5831
19588SOL     OW70417   8.945   9.093   1.386 -0.0790 -0.0155 -0.3986
19588SOL    HW170418   9.004   9.173   1.387 -1.0842  0.7315 -0.6982
19588SOL    HW270419   8.902   9.082   1.475 -1.2669  0.7776 -0.8596
19589SOL     OW70420   9.511   9.902   4.564  0.3640 -0.4835  0.3037
19589SOL    HW170421   9.467   9.869   4.647 -0.8431  1.8462  0.6341
19589SOL    HW270422   9.572   9.831   4.527  0.0107 -1.9580  2.5049
19590SOL     OW70423   0.631   1.746   7.276  0.2235  0.4225 -0.0352
19590SOL    HW170424   0.659   1.796   7.358  1.1512 -0.0243 -0.0754
19590SOL    HW270425   0.541   1.778   7.247 -0.0953  0.6139  1.1334
19591SOL     OW70426   5.490   1.986   3.506 -0.1934  0.6872  0.4205
19591SOL    HW170427   5.450   2.047   3.575  3.2127  1.0196  2.2068
19591SOL    HW270428   5.521   2.041   3.428  0.0785  0.8629  0.6519
19592SOL     OW70429   7.516   0.095   0.466  0.6364 -0.4953 -0.3676
19592SOL    HW170430   7.478   0.071   0.377 -0.4684 -0.2181  0.0246
19592SOL    HW270431   7.443   0.128   0.526  1.6134  0.7569  0.1527
19593SOL     OW70432   8.200   7.223   3.265 -0.1523  0.0088 -0.4443
19593SOL    HW170433   8.284   7.198   3.312 -0.4679 -0.9095 -0.3610
19593SOL    HW270434   8.122   7.202   3.323 -0.4911 -0.1318 -0.9412
19594SOL     OW70435   0.687   1.796   1.826 -0.2511 -0.8654  0.7268
19594SOL    HW170436   0.642   1.726   1.771  0.5493 -0.3491 -0.6109
19594SOL    HW270437   0.627   1.822   1.903 -2.1423 -0.3727 -0.8658
19595SOL     OW70438   1.219   9.855   0.594  0.6117 -0.2183 -0.1095
19595SOL    HW170439   1.192   9.842   0.498  1.1407 -0.3406 -0.2476
19595SOL    HW270440   1.318   9.840   0.602  0.5175 -0.5132  0.5107
19596SOL     OW70441   7.089   1.152   0.575  0.3698  0.6565  0.7182
19596SOL    HW170442   7.055   1.165   0.482 -0.2685  2.0029  1.1223
19596SOL    HW270443   7.042   1.075   0.618  0.4892  0.1893  0.0168
19597SOL     OW70444   3.653   5.324   0.796 -0.3451 -0.2042  0.1741
19597SOL    HW170445   3.742   5.351   0.762 -1.8463 -0.5351 -4.3488
19597SOL    HW270446   3.651   5.225   0.810  0.1985 -0.1044  0.9593
19598SOL     OW70447   9.477   2.685   6.007 -0.1864 -0.1240  0.4684
19598SOL    HW170448   9.557   2.745   6.014  0.0796 -0.3897 -0.2846
19598SOL    HW270449   9.469   2.632   6.091 -0.1699  0.6503  0.9636
19599SOL     OW70450   1.012   1.950   0.936 -0.4881  0.2304 -0.4736
19599SOL    HW170451   0.914   1.968   0.943 -0.6120 -0.4588 -0.4081
19599SOL    HW270452   1.058   1.986   1.017 -0.8496 -0.5258  0.0745
19600SOL     OW70453   9.442   0.021   2.655 -0.1739 -0.4604  0.3517
19600SOL    HW170454   9.507   0.074   2.709 -2.5734  1.0192  1.8742
19600SOL    HW270455   9.373  -0.020   2.715 -1.2347 -1.2047 -1.3096
19601SOL     OW70456   3.859   3.938   1.767 -0.4311  0.4850  0.5348
19601SOL    HW170457   3.861   4.001   1.689 -0.8174  2.6107  2.2110
19601SOL    HW270458   3.941   3.950   1.822 -0.4238 -0.6261  0.7727
19602SOL     OW70459   3.897   0.535   8.169  0.7350 -0.0760 -0.2721
19602SOL    HW170460   3.941   0.625   8.165  1.7875 -0.6400 -1.6118
19602SOL    HW270461   3.896   0.503   8.264 -0.7714  1.8860  0.4120
19603SOL     OW70462   7.635   3.686   7.150  1.0060  0.1454  0.3279
19603SOL    HW170463   7.724   3.670   7.106 -0.7859 -0.9290 -3.1192
19603SOL    HW270464   7.591   3.765   7.108  0.9399  1.5769  3.0405
19604SOL     OW70465   7.699   3.348   7.479  0.6859  0.0926 -0.1831
19604SOL    HW170466   7.684   3.362   7.381 -1.1331  0.1445  0.0952
19604SOL    HW270467   7.780   3.400   7.507 -0.3795  2.3441 -1.1132
19605SOL     OW70468   3.822   9.388   2.656  0.0003 -0.5029  0.4571
19605SOL    HW170469   3.821   9.354   2.750 -0.1331  2.6400  1.6257
19605SOL    HW270470   3.731   9.379   2.616 -0.2332 -0.7227  1.0321
19606SOL     OW70471   3.103   1.275   1.069 -0.1629  0.3831 -0.3671
19606SOL    HW170472   3.195   1.243   1.045 -0.4471  0.2215 -1.2652
19606SOL    HW270473   3.043   1.196   1.083  0.0304  0.4744  1.0260
19607SOL     OW70474   8.723   6.594   0.677 -0.5612 -0.4427  0.1728
19607SOL    HW170475   8.778   6.595   0.760  1.8373 -0.0735 -1.3781
19607SOL    HW270476   8.663   6.673   0.676  3.2309  2.5874 -0.8819
19608SOL     OW70477   8.156   5.721   6.535  0.6548 -0.4661  0.5059
19608SOL    HW170478   8.156   5.802   6.593  1.1440 -0.1631  0.0855
19608SOL    HW270479   8.078   5.663   6.559  0.6646 -0.1848  1.2394
19609SOL     OW70480   8.314   4.642   7.423  0.6363  0.1261 -0.2507
19609SOL    HW170481   8.364   4.651   7.337 -0.6237  0.2745 -0.9859
19609SOL    HW270482   8.311   4.730   7.470  0.4943  0.2717 -0.5316
19610SOL     OW70483   5.719   0.359   5.699  0.0531  0.8771  0.2230
19610SOL    HW170484   5.797   0.329   5.755 -2.0776 -0.2463  2.7061
19610SOL    HW270485   5.666   0.279   5.670 -1.5014  1.7375  0.6135
19611SOL     OW70486   6.987   9.452   1.768 -0.1836 -0.2027 -0.1717
19611SOL    HW170487   7.085   9.463   1.748 -0.2203 -0.8362 -0.7064
19611SOL    HW270488   6.940   9.539   1.751  0.5000  0.4774  1.3570
19612SOL     OW70489   4.140   0.482   5.701 -0.1684  0.4036  0.3530
19612SOL    HW170490   4.106   0.515   5.789 -1.2795 -0.0047  0.0827
19612SOL    HW270491   4.071   0.425   5.658  0.0438  1.2568 -1.1621
19613SOL     OW70492   0.391   0.203   5.293 -0.3958  0.2294  0.4711
19613SOL    HW170493   0.393   0.303   5.295 -0.7938  0.2516 -0.4001
19613SOL    HW270494   0.432   0.170   5.209 -1.8992 -0.2916 -0.0674
19614SOL     OW70495   0.719   8.146   3.828 -0.6322 -0.0661  0.3687
19614SOL    HW170496   0.736   8.181   3.736 -0.9245 -2.3767 -0.5963
19614SOL    HW270497   0.645   8.079   3.824 -0.5762 -0.2526  2.2922
19615SOL     OW70498   8.920   9.403   6.552  0.5052  0.1204 -0.5928
19615SOL    HW170499   8.958   9.363   6.636 -0.0611 -1.0397 -0.8737
19615SOL    HW270500   8.820   9.395   6.554  0.4584  0.5948 -1.1210
19616SOL     OW70501   9.391   1.501   4.198 -0.1737  0.2104 -0.9329
19616SOL    HW170502   9.385   1.403   4.220  2.2227  0.1678 -0.3184
19616SOL    HW270503   9.348   1.554   4.270  0.4409 -0.3106 -0.1672
19617SOL     OW70504   1.681   3.499   5.440 -0.3499 -0.0451 -0.2781
19617SOL    HW170505   1.744   3.568   5.476  0.0935 -0.4798 -0.2150
19617SOL    HW270506   1.686   3.416   5.497 -0.2030 -0.4626 -0.8911
19618SOL     OW70507   7.507   8.536   3.643 -0.3064 -0.4871  0.5339
19618SOL    HW170508   7.485   8.439   3.650 -2.2150 -0.1013  0.3126
19618SOL    HW270509   7.524   8.573   3.734 -0.1723 -0.9053  0.6777
19619SOL     OW70510   8.454   8.608   0.779 -0.0791 -0.0873  0.3293
19619SOL    HW170511   8.472   8.668   0.701 -0.5550 -0.2587  0.0829
19619SOL    HW270512   8.410   8.524   0.747  1.2842 -0.9038  0.5851
19620SOL     OW70513   8.512   3.067   4.417  0.0574  0.1526  0.3118
19620SOL    HW170514   8.576   3.143   4.401 -0.1468  0.3125  0.2476
19620SOL    HW270515   8.536   3.022   4.503 -0.6932  1.1868  1.0774
19621SOL     OW70516   9.877   1.813   0.385 -0.3622  0.1320 -0.1873
19621SOL    HW170517   9.973   1.785   0.392 -0.7308 -1.1018 -0.0277
19621SOL    HW270518   9.871   1.893   0.326  0.7154 -0.0830 -0.6067
19622SOL     OW70519   7.361   0.415   3.625  0.2735 -0.4676 -0.8016
19622SOL    HW170520   7.388   0.384   3.533  1.3263 -0.1800 -0.5968
19622SOL    HW270521   7.267   0.447   3.623 -0.1494 -1.7298 -1.4898
19623SOL     OW70522   4.851   8.257   4.654  0.2182 -0.0255  0.3928
19623SOL    HW170523   4.840   8.179   4.593 -1.3130 -0.4838  1.2209
19623SOL    HW270524   4.903   8.230   4.735  0.1471 -0.0527  0.4295
19624SOL     OW70525   6.498   8.395   4.774 -0.0529 -0.6035  0.1286
19624SOL    HW170526   6.575   8.443   4.817  0.7395 -1.6651 -0.0917
19624SOL    HW270527   6.495   8.301   4.807 -2.2348 -0.1502  1.3474
19625SOL     OW70528   0.315   8.491   6.723  0.0756  0.3349  0.0259
19625SOL    HW170529   0.298   8.589   6.720 -0.4773  0.2618  0.5458
19625SOL    HW270530   0.234   8.441   6.693 -0.6780 -0.0201  2.5484
19626SOL     OW70531   2.064   9.291   4.519  0.5939  0.2262  0.4177
19626SOL    HW170532   2.026   9.224   4.583 -0.9751  0.2793 -0.4330
19626SOL    HW270533   2.157   9.265   4.495  0.2728 -1.2218  0.6851
19627SOL     OW70534   9.788   9.619   7.727  0.2335  0.3562  0.0914
19627SOL    HW170535   9.845   9.697   7.702 -0.2071  0.2558 -1.2883
19627SOL    HW270536   9.706   9.618   7.669  1.0931 -2.1346 -1.1365
19628SOL     OW70537   3.784   1.176   1.306 -0.8389 -0.2531  0.0188
19628SOL    HW170538   3.811   1.103   1.243  2.2465 -0.7422  1.7626
19628SOL    HW270539   3.792   1.143   1.400 -2.5150  1.3721  0.7585
19629SOL     OW70540   6.900   9.427   5.056  0.2373  0.3906  0.0256
19629SOL    HW170541   6.950   9.508   5.087 -0.3442  1.0390 -0.7132
19629SOL    HW270542   6.950   9.345   5.083  1.3715  1.0110 -0.1523
19630SOL     OW70543   4.285   6.701   1.657 -0.0122  0.6818  0.8690
19630SOL    HW170544   4.239   6.636   1.717 -1.9272  2.7040  1.6477
19630SOL    HW270545   4.216   6.751   1.604  1.6016 -0.5472 -2.4999
19631SOL     OW70546   3.028   0.920   7.273  0.1884  0.0376  0.1007
19631SOL    HW170547   3.077   0.855   7.331  0.8830  1.0816  0.7118
19631SOL    HW270548   2.931   0.920   7.299  0.2573 -0.4588  0.3743
19632SOL     OW70549   1.601   8.667   2.356 -0.3863 -0.2894 -0.2527
19632SOL    HW170550   1.630   8.604   2.284  0.9061  0.4705 -0.4172
19632SOL    HW270551   1.563   8.615   2.433 -1.8594 -1.1045 -1.5062
19633SOL     OW70552   9.361   1.980   1.634 -0.1974 -1.0186 -0.7496
19633SOL    HW170553   9.416   1.947   1.557 -0.0357 -0.0180 -1.0611
19633SOL    HW270554   9.264   1.978   1.608 -0.1258 -0.4769 -1.0518
19634SOL     OW70555   0.018   9.538   0.395 -0.7763 -0.1889  0.1010
19634SOL    HW170556  -0.077   9.561   0.373 -0.6357  0.1042 -0.2059
19634SOL    HW270557   0.027   9.439   0.403 -0.3675 -0.5473 -3.5469
19635SOL     OW70558   3.411   3.609   5.083  0.0639 -0.0420 -0.1452
19635SOL    HW170559   3.448   3.646   5.168 -1.0471  0.2512  0.2200
19635SOL    HW270560   3.357   3.527   5.103 -0.4629  0.2095 -0.5307
19636SOL     OW70561   9.348   5.417   5.980  0.6328 -0.7551 -0.1401
19636SOL    HW170562   9.287   5.481   5.932 -0.1441 -0.7015  0.8986
19636SOL    HW270563   9.406   5.370   5.913  0.0101 -0.2237 -1.0721
19637SOL     OW70564   9.683   0.953   0.529 -0.4264 -0.2728  0.0887
19637SOL    HW170565   9.597   0.923   0.488 -0.4971 -2.2407  1.6130
19637SOL    HW270566   9.755   0.887   0.507  0.5788  1.0245 -0.6300
19638SOL     OW70567   6.951   3.732   0.679  0.5648  0.5908  0.2872
19638SOL    HW170568   7.018   3.726   0.606 -0.9477  0.7264 -1.1520
19638SOL    HW270569   6.895   3.815   0.667 -0.8038 -0.2589  0.6115
19639SOL     OW70570   6.382   0.779   5.567  0.1151  0.3492 -0.3866
19639SOL    HW170571   6.455   0.711   5.553 -0.7677 -0.3995 -1.3932
19639SOL    HW270572   6.396   0.855   5.504  0.5229  0.6153  0.0262
19640SOL     OW70573   3.490   1.759   4.064 -0.5638  0.1100 -0.3150
19640SOL    HW170574   3.482   1.675   4.118 -3.5346  1.2664  1.1079
19640SOL    HW270575   3.573   1.753   4.008  0.2935 -2.9643  1.1134
19641SOL     OW70576   8.658   7.190   6.690  0.3418 -0.0301  0.0303
19641SOL    HW170577   8.648   7.097   6.654 -0.5026  0.0730 -0.0025
19641SOL    HW270578   8.678   7.253   6.615 -0.9302  0.1064 -0.2089
19642SOL     OW70579   3.089   1.553   6.408 -0.5013 -0.1949 -0.2040
19642SOL    HW170580   3.175   1.503   6.404 -0.3894  0.1038 -1.6683
19642SOL    HW270581   3.074   1.588   6.501  1.8926  1.4164 -0.3936
19643SOL     OW70582   7.467   0.413   4.232 -0.0950 -0.1874  0.2357
19643SOL    HW170583   7.450   0.504   4.194  0.0006  0.5664  1.9507
19643SOL    HW270584   7.562   0.386   4.212  0.3048  0.6877  0.9244
19644SOL     OW70585   8.996   3.719   5.923  0.3460 -0.2189 -0.8144
19644SOL    HW170586   9.093   3.725   5.899 -0.0040  0.8579 -2.0021
19644SOL    HW270587   8.972   3.624   5.940  0.5637 -1.1358 -5.0705
19645SOL     OW70588   8.002   8.016   5.303 -0.1984 -0.6067 -0.2189
19645SOL    HW170589   7.994   7.918   5.319  1.3189 -0.8177 -0.7031
19645SOL    HW270590   7.991   8.035   5.206 -0.1792 -0.3358 -0.1693
19646SOL     OW70591   9.884   6.681   0.597  0.4635  0.1096 -0.3888
19646SOL    HW170592   9.819   6.619   0.641  1.3149  0.0644  0.8452
19646SOL    HW270593   9.971   6.678   0.647  1.2202  0.6234 -1.6520
19647SOL     OW70594   9.760   2.002   2.066 -0.2346 -0.7865 -0.1414
19647SOL    HW170595   9.797   2.061   2.138 -0.3847  0.2111 -0.8796
19647SOL    HW270596   9.835   1.961   2.014 -0.1397 -0.3564 -0.3462
19648SOL     OW70597   6.856   2.746   2.187  0.7146 -0.2793  0.1021
19648SOL    HW170598   6.853   2.717   2.283 -0.3691 -1.1483 -0.1878
19648SOL    HW270599   6.943   2.717   2.146  0.3861 -1.5727  0.3067
19649SOL     OW70600   8.187   2.948   1.554  0.2412  0.7815 -0.0722
19649SOL    HW170601   8.151   2.982   1.641 -0.3495  0.0691 -0.0323
19649SOL    HW270602   8.251   2.873   1.570  2.0008  2.2567 -0.1302
19650SOL     OW70603   1.816   3.933   2.661 -0.1202  0.2407  0.2225
19650SOL    HW170604   1.786   3.972   2.748 -0.1592 -0.2419  0.4290
19650SOL    HW270605   1.786   3.991   2.586  1.4453  1.6017  0.6282
19651SOL     OW70606   3.495   4.418   4.699  0.0792 -0.1926  0.2514
19651SOL    HW170607   3.466   4.331   4.659 -0.6565  0.4399 -0.6033
19651SOL    HW270608   3.594   4.426   4.691 -0.0609  0.0029 -1.6557
19652SOL     OW70609   3.017   4.713   7.470 -0.0534 -0.0820 -0.8373
19652SOL    HW170610   2.963   4.787   7.430  0.8546  0.6122 -0.8015
19652SOL    HW270611   3.019   4.723   7.570  1.5503  0.8972 -0.9477
19653SOL     OW70612   3.061   9.505   5.208  0.0065 -0.0042  0.2338
19653SOL    HW170613   3.106   9.563   5.275 -0.8367  0.8667  0.0619
19653SOL    HW270614   3.114   9.422   5.195  1.2655  0.7540  0.4399
19654SOL     OW70615   6.523   4.750   7.616  0.1297  0.0452  0.2559
19654SOL    HW170616   6.578   4.780   7.694 -1.4240  0.6833  1.1364
19654SOL    HW270617   6.537   4.652   7.601  0.0842 -0.1956  1.6584
19655SOL     OW70618   9.487   2.630   1.767 -0.0926  0.7958  0.1716
19655SOL    HW170619   9.394   2.666   1.773  0.0105  0.9139  1.2038
19655SOL    HW270620   9.484   2.535   1.735 -0.4807  1.1651 -0.9205
19656SOL     OW70621   2.484   4.213   0.058  0.0306  0.0171 -0.0646
19656SOL    HW170622   2.399   4.194   0.107  0.9791 -0.5581  1.3821
19656SOL    HW270623   2.495   4.148  -0.018  0.3134 -1.3994  1.1754
19657SOL     OW70624   0.073   9.559   3.168 -0.1771 -0.3604  0.0871
19657SOL    HW170625   0.139   9.631   3.148 -0.8463  0.5043  0.9534
19657SOL    HW270626   0.090   9.522   3.259  2.1279 -3.4899 -1.5197
19658SOL     OW70627   9.892   7.462   1.572  0.3608  0.4115 -0.2935
19658SOL    HW170628   9.941   7.505   1.647  1.4323 -0.5083 -0.4504
19658SOL    HW270629   9.887   7.363   1.588  1.3536  0.0993 -1.8576
19659SOL     OW70630   3.424   3.466   7.920  0.2919 -0.3263 -0.2379
19659SOL    HW170631   3.444   3.432   7.828  2.6189 -0.4411  0.2570
19659SOL    HW270632   3.396   3.390   7.978 -2.2980 -0.0727 -1.1122
19660SOL     OW70633   8.197   6.437   0.466 -0.2748  0.0543  0.0798
19660SOL    HW170634   8.123   6.443   0.533  0.4836 -2.1929  1.1690
19660SOL    HW270635   8.273   6.495   0.494 -1.2753  1.7494 -0.6282
19661SOL     OW70636   0.794   1.219   2.110  0.2456  0.2309  0.2902
19661SOL    HW170637   0.755   1.275   2.037 -0.4868  0.6075  0.9695
19661SOL    HW270638   0.731   1.145   2.133  0.7572 -0.2718  0.1115
19662SOL     OW70639   2.661   3.255   2.803  0.1099 -0.2096  0.6113
19662SOL    HW170640   2.686   3.193   2.877 -1.0227 -0.2150  1.0062
19662SOL    HW270641   2.680   3.212   2.715  2.0734  0.0545  0.8996
19663SOL     OW70642   2.037   0.201   7.070  0.8286  0.1418 -0.2228
19663SOL    HW170643   1.950   0.197   7.117  0.7970  0.3489 -0.2651
19663SOL    HW270644   2.106   0.151   7.123  0.2155 -1.7662 -1.1932
19664SOL     OW70645   3.815   4.477   0.925 -0.3515  0.6580  0.7205
19664SOL    HW170646   3.726   4.522   0.939 -1.5582 -0.8242 -1.8609
19664SOL    HW270647   3.875   4.538   0.873 -0.9328  0.5119 -0.1417
19665SOL     OW70648   3.066   5.867   4.784  0.2210 -0.0368 -0.4567
19665SOL    HW170649   2.985   5.872   4.843  0.3247  1.3028 -0.4111
19665SOL    HW270650   3.038   5.878   4.688  0.5423  2.3798 -0.2959
19666SOL     OW70651   8.503   5.322   7.061 -0.3105 -0.0353 -0.2872
19666SOL    HW170652   8.548   5.384   6.996 -2.1980  0.6117 -0.9962
19666SOL    HW270653   8.466   5.243   7.011 -0.7329 -0.1259  0.1699
19667SOL     OW70654   3.527   9.540   5.084  0.2442  0.0730  0.5526
19667SOL    HW170655   3.494   9.482   5.159  0.9886  0.0625  0.8843
19667SOL    HW270656   3.586   9.612   5.121  0.7866 -0.0553 -0.0399
19668SOL     OW70657   4.925   7.908   4.727 -0.0760  0.7673 -0.5369
19668SOL    HW170658   5.005   7.913   4.667  1.4311 -0.6277  1.2795
19668SOL    HW270659   4.925   7.988   4.788  0.7768  0.0454  0.4365
19669SOL     OW70660   2.242   4.465   0.449 -0.0020  0.5997  0.4509
19669SOL    HW170661   2.179   4.485   0.525 -0.6591  0.6974 -0.1082
19669SOL    HW270662   2.332   4.503   0.470 -0.1324  0.4684  1.2620
19670SOL     OW70663   7.950   0.169   1.219  0.8370  0.2119 -0.6621
19670SOL    HW170664   7.883   0.096   1.213  0.8587  0.1610 -0.2762
19670SOL    HW270665   8.019   0.157   1.147  0.3214  0.3798 -1.1868
19671SOL     OW70666   4.084   2.184   4.687 -0.2282  0.3108  0.1093
19671SOL    HW170667   4.111   2.162   4.593  1.6638 -1.4601  1.0175
19671SOL    HW270668   4.105   2.280   4.705 -0.9329  0.7679 -1.3641
19672SOL     OW70669   1.398   3.208   5.555  0.3886  0.7578 -0.2616
19672SOL    HW170670   1.494   3.193   5.579  0.8121  1.9786 -1.1735
19672SOL    HW270671   1.379   3.170   5.464 -0.0357  0.3991 -0.0293
19673SOL     OW70672   1.415   6.922   3.517  0.4151  0.0917 -0.2803
19673SOL    HW170673   1.414   6.822   3.513 -0.5324 -0.0988  2.8189
19673SOL    HW270674   1.339   6.957   3.462 -0.4198 -1.0044  0.1334
19674SOL     OW70675   4.493   3.176   7.502 -0.5821  0.2292 -0.4558
19674SOL    HW170676   4.581   3.221   7.488 -0.6478  0.3462 -0.4978
19674SOL    HW270677   4.493   3.088   7.455  0.3863 -0.8957  1.5795
19675SOL     OW70678   5.350   7.547   6.748 -0.3963 -0.3004 -0.2043
19675SOL    HW170679   5.411   7.569   6.672  0.9747  1.7094  1.3968
19675SOL    HW270680   5.405   7.521   6.828 -1.3957  3.5254  1.8806
19676SOL     OW70681   7.845   3.372   2.336  0.0794  0.2021  0.0255
19676SOL    HW170682   7.899   3.446   2.375 -2.4671  1.2210  1.8143
19676SOL    HW270683   7.842   3.295   2.400 -0.4289  0.0895 -0.1264
19677SOL     OW70684   9.407   9.892   8.065 -0.3631  0.0427 -0.2787
19677SOL    HW170685   9.356   9.899   8.151 -1.4060 -0.6318 -0.8349
19677SOL    HW270686   9.449   9.981   8.044 -3.2713  1.3066 -1.0021
19678SOL     OW70687   2.193   7.684   0.666 -0.5280  0.3415 -0.0714
19678SOL    HW170688   2.268   7.632   0.625  0.0805  0.9584  0.2380
19678SOL    HW270689   2.108   7.631   0.661 -0.0447 -0.4156 -0.3147
19679SOL     OW70690   0.616   2.514   3.087  0.0381  0.1027  0.2425
19679SOL    HW170691   0.582   2.608   3.083 -2.7372 -0.9028 -0.5541
19679SOL    HW270692   0.583   2.463   3.008  2.6050 -1.2410 -0.0351
19680SOL     OW70693   3.429   7.325   2.070  0.2284  0.2290  0.5727
19680SOL    HW170694   3.514   7.281   2.042 -1.1541 -2.7831  0.8435
19680SOL    HW270695   3.383   7.363   1.990 -0.3093 -2.1175 -0.2685
19681SOL     OW70696   1.978   9.169   7.854 -0.2311 -0.2520 -0.2776
19681SOL    HW170697   1.892   9.140   7.811  0.0937 -1.5836 -0.0481
19681SOL    HW270698   1.966   9.170   7.953 -0.4738  1.1759 -0.3201
19682SOL     OW70699   3.681   6.255   7.484  0.0617 -0.5875 -0.4889
19682SOL    HW170700   3.648   6.326   7.546 -0.3485 -2.3747  1.3922
19682SOL    HW270701   3.635   6.264   7.395  0.5794  1.9349 -0.5351
19683SOL     OW70702   8.165   4.329   7.783 -0.0507  0.3388  0.0450
19683SOL    HW170703   8.230   4.281   7.841  1.0974 -0.0190 -1.5206
19683SOL    HW270704   8.073   4.292   7.798  0.4485 -0.6937  0.6088
19684SOL     OW70705   0.233   6.902   1.835  0.2697 -0.5778  0.4279
19684SOL    HW170706   0.241   6.803   1.840  0.0201 -0.6548 -0.5426
19684SOL    HW270707   0.321   6.941   1.807  0.1532 -0.5983  0.0207
19685SOL     OW70708   4.639   0.399   5.373  0.4462  0.8080 -0.0410
19685SOL    HW170709   4.631   0.435   5.280  0.9182  1.5805  0.2167
19685SOL    HW270710   4.684   0.466   5.432  1.1352 -0.1094  0.4946
19686SOL     OW70711   3.922   2.824   7.642 -0.4785  0.6440  0.4096
19686SOL    HW170712   3.970   2.787   7.721 -0.3353  2.9195  1.4297
19686SOL    HW270713   3.880   2.912   7.667 -2.1074  0.4364 -1.4789
19687SOL     OW70714   1.998   4.550   1.853 -0.1420 -0.0305 -0.1460
19687SOL    HW170715   2.016   4.647   1.839 -0.2257 -0.0439 -0.3648
19687SOL    HW270716   2.057   4.496   1.794  0.4799 -0.1423  0.5774
19688SOL     OW70717   3.719   8.027   5.033 -0.3479  0.0943  0.2106
19688SOL    HW170718   3.704   7.971   4.952 -0.8647  1.6884 -0.8253
19688SOL    HW270719   3.816   8.049   5.040 -0.3985  0.5108 -0.3618
19689SOL     OW70720   7.932   9.107   5.000  0.4658  0.4850 -0.7859
19689SOL    HW170721   7.957   9.170   4.926  0.5733 -1.5411 -2.5253
19689SOL    HW270722   7.955   9.014   4.973 -1.8735 -0.5770  0.7459
19690SOL     OW70723   2.000   3.038   2.423 -0.1230 -0.3289 -0.4759
19690SOL    HW170724   1.966   3.005   2.335 -0.0858  0.7505 -0.8993
19690SOL    HW270725   1.925   3.041   2.489 -0.1006 -1.3769 -0.3883
19691SOL     OW70726   1.941   8.786   7.855 -0.2103  0.0265 -0.0137
19691SOL    HW170727   1.929   8.866   7.913  1.9406 -0.4847  1.1874
19691SOL    HW270728   1.859   8.772   7.800 -1.3995  1.8518  1.2495
19692SOL     OW70729   7.229   1.049   0.054 -0.0191 -0.2610 -0.1113
19692SOL    HW170730   7.247   1.120  -0.014  2.5550  1.5514  2.3373
19692SOL    HW270731   7.191   0.968   0.009  0.0853  1.4465 -3.4270
19693SOL     OW70732   3.923   0.251   3.577 -0.4749 -0.0984 -0.0610
19693SOL    HW170733   3.882   0.243   3.486 -1.2300 -2.6648  0.4652
19693SOL    HW270734   3.852   0.240   3.647 -0.0119  2.4662  0.8837
19694SOL     OW70735   5.385   7.755   2.575  0.3821 -0.0491 -0.0154
19694SOL    HW170736   5.375   7.685   2.645  1.1412 -1.7544 -1.5757
19694SOL    HW270737   5.313   7.745   2.506 -0.2166  1.4605  0.3732
19695SOL     OW70738   3.369   4.788   2.187  0.6405  0.2038 -0.0985
19695SOL    HW170739   3.447   4.788   2.248  1.1366  1.5435 -0.7058
19695SOL    HW270740   3.289   4.749   2.234  1.4656 -0.4311  0.7785
19696SOL     OW70741   7.353   1.911   4.539  0.1806 -0.1537 -0.1770
19696SOL    HW170742   7.379   1.938   4.632 -0.3865 -1.2431  0.3111
19696SOL    HW270743   7.435   1.892   4.486  0.4551 -1.6613  0.7660
19697SOL     OW70744   1.314   1.519   7.342 -0.2243  0.0188  0.6870
19697SOL    HW170745   1.329   1.482   7.434 -0.5067 -0.6081  0.4810
19697SOL    HW270746   1.223   1.493   7.310  0.0493 -0.1510  0.0483
19698SOL     OW70747   6.354   4.569   1.036  0.0066  0.3382  0.5807
19698SOL    HW170748   6.267   4.589   1.081 -0.6633 -0.3735 -0.3957
19698SOL    HW270749   6.411   4.515   1.098 -1.1871 -1.2230  0.3559
19699SOL     OW70750   1.389   4.456   7.389 -0.2709 -0.3257 -0.1105
19699SOL    HW170751   1.321   4.437   7.459  0.7927 -1.0085  0.7565
19699SOL    HW270752   1.406   4.373   7.335 -0.7477  0.0732 -0.8906
19700SOL     OW70753   1.773   4.692   7.191 -0.0951 -0.0397 -0.0435
19700SOL    HW170754   1.692   4.729   7.236  1.6035  0.9516  2.3316
19700SOL    HW270755   1.746   4.629   7.118 -2.9871  1.3545 -0.2314
19701SOL     OW70756   4.875   4.274   7.034  0.1988 -0.0776 -0.0611
19701SOL    HW170757   4.877   4.186   6.987  1.3817  0.6150 -1.3615
19701SOL    HW270758   4.859   4.260   7.132 -0.9559 -1.6361 -0.4449
19702SOL     OW70759   1.887   5.834   3.540  0.0363  0.2099 -0.3177
19702SOL    HW170760   1.948   5.805   3.614  0.6886  0.4812 -0.7372
19702SOL    HW270761   1.873   5.757   3.477  0.6695  0.4049 -0.7004
19703SOL     OW70762   3.264   8.394   3.063  0.4564 -0.4181  0.2369
19703SOL    HW170763   3.315   8.437   3.138 -2.3190  0.9107  1.4071
19703SOL    HW270764   3.246   8.299   3.086 -0.0213 -0.1289  1.0605
19704SOL     OW70765   1.611   0.330   0.579  0.5966 -0.1433 -0.1926
19704SOL    HW170766   1.567   0.257   0.527  1.6260 -0.9203  0.0151
19704SOL    HW270767   1.580   0.327   0.674 -2.9956  2.6502 -1.1630
19705SOL     OW70768   5.424   5.825   0.443 -0.6256  0.0429  0.2010
19705SOL    HW170769   5.437   5.727   0.431  0.3585  0.3756 -1.5557
19705SOL    HW270770   5.486   5.859   0.513  0.6000 -0.2088 -0.7567
19706SOL     OW70771   8.973   0.603   8.070  0.7616  0.9095 -0.1111
19706SOL    HW170772   8.902   0.578   8.135 -1.0444 -1.0559 -2.7545
19706SOL    HW270773   8.994   0.701   8.079  0.5779  0.7016  3.3349
19707SOL     OW70774   1.938   5.847   5.148 -0.3576  0.5943 -0.2241
19707SOL    HW170775   1.865   5.782   5.168 -0.5541  0.4808 -1.3035
19707SOL    HW270776   1.975   5.829   5.057  1.4893  0.2126  0.5842
19708SOL     OW70777   0.717   3.740   0.498 -0.4193 -0.3187  0.3284
19708SOL    HW170778   0.672   3.749   0.587 -2.0415 -1.1052 -0.3820
19708SOL    HW270779   0.785   3.667   0.502 -0.3756 -0.2469  0.9520
19709SOL     OW70780   0.458   0.195   6.779 -0.1428  0.8256 -0.7284
19709SOL    HW170781   0.468   0.134   6.857 -0.2354 -0.0072 -1.3654
19709SOL    HW270782   0.496   0.285   6.802  0.4002  0.4012  0.0542
19710SOL     OW70783   8.057   3.772   1.905 -0.1146 -0.0952 -0.5399
19710SOL    HW170784   8.147   3.800   1.871 -0.1190 -0.9857 -1.3065
19710SOL    HW270785   8.062   3.677   1.938 -1.3706 -1.0329 -2.9556
19711SOL     OW70786   6.546   2.560   0.894  0.6537  0.6339 -0.7289
19711SOL    HW170787   6.557   2.600   0.802  0.7091 -1.2832 -1.5738
19711SOL    HW270788   6.556   2.461   0.888 -3.8346 -0.0017  0.6264
19712SOL     OW70789   1.985   9.419   0.869 -0.0467 -0.0817  0.3946
19712SOL    HW170790   1.949   9.510   0.849 -1.6948 -0.9141 -0.5491
19712SOL    HW270791   2.076   9.410   0.829 -1.0432  0.1877 -2.0357
19713SOL     OW70792   8.268   0.632   6.585  0.3456 -0.0280  0.1791
19713SOL    HW170793   8.232   0.596   6.671 -0.9474 -0.8907 -0.7011
19713SOL    HW270794   8.366   0.650   6.594  0.9508 -3.3632  0.7736
19714SOL     OW70795   2.229   7.177   6.927 -0.2606 -0.4136 -0.2597
19714SOL    HW170796   2.317   7.150   6.889  1.1247 -0.3750  2.8025
19714SOL    HW270797   2.169   7.097   6.934  1.0238 -1.2630  1.4280
19715SOL     OW70798   0.426   2.873   7.495 -0.4967  0.1570  0.2920
19715SOL    HW170799   0.354   2.919   7.547 -0.7058 -0.5287  0.6143
19715SOL    HW270800   0.514   2.887   7.539 -0.2439  1.9887 -0.7399
19716SOL     OW70801   0.355   1.223   7.533  0.0534 -0.2447 -0.0630
19716SOL    HW170802   0.304   1.199   7.616 -0.2016  1.1646  0.2178
19716SOL    HW270803   0.312   1.181   7.454  0.7893 -2.2870  0.6101
19717SOL     OW70804   9.586   0.065   0.808  0.3657  0.0708 -0.0198
19717SOL    HW170805   9.494   0.042   0.774 -0.1527  0.8138  0.8563
19717SOL    HW270806   9.590   0.046   0.906  0.6457  1.5576  0.2572
19718SOL     OW70807   8.239   5.359   3.833  0.2808 -0.0543 -0.7765
19718SOL    HW170808   8.228   5.453   3.801 -2.4523 -0.3899 -0.8976
19718SOL    HW270809   8.212   5.296   3.761 -1.2878 -0.8838  0.5099
19719SOL     OW70810   5.105   4.089   7.684 -0.1963 -0.9011 -0.5157
19719SOL    HW170811   5.046   4.110   7.762 -0.1243  2.4355 -1.3046
19719SOL    HW270812   5.059   4.023   7.624 -2.2736  0.1121 -0.0700
19720SOL     OW70813   1.307   8.399   1.628  0.2779  1.0519 -0.1820
19720SOL    HW170814   1.348   8.414   1.718 -0.5678  2.0541  0.0446
19720SOL    HW270815   1.221   8.349   1.638  0.9378 -0.1963 -0.5773
19721SOL     OW70816   4.072   0.629   2.660  0.3813 -0.1607  0.0186
19721SOL    HW170817   4.009   0.706   2.651  2.6753  1.8925  1.0233
19721SOL    HW270818   4.160   0.662   2.693  0.6453 -3.6157  2.9965
19722SOL     OW70819   7.779   1.627   1.920 -1.1400  0.2258  0.1147
19722SOL    HW170820   7.709   1.663   1.981 -0.5865  0.2365  0.7530
19722SOL    HW270821   7.739   1.609   1.830 -1.8107  0.8138  0.2910
19723SOL     OW70822   2.457   9.248   0.714 -0.0245 -0.4094  0.1059
19723SOL    HW170823   2.488   9.337   0.678  0.6033 -0.8678 -0.5137
19723SOL    HW270824   2.532   9.204   0.763 -0.5159 -0.3355  0.9236
19724SOL     OW70825   9.035   1.720   3.902  0.0817 -0.1055 -0.1895
19724SOL    HW170826   9.038   1.620   3.903 -0.7722 -0.1321  0.2131
19724SOL    HW270827   9.088   1.754   3.824  0.6301 -0.8557 -0.1525
19725SOL     OW70828   0.050   2.471   7.546  0.4696 -0.4195  0.0155
19725SOL    HW170829  -0.003   2.508   7.470  1.4170 -1.2583 -1.0601
19725SOL    HW270830   0.109   2.397   7.513 -0.2598 -1.8472  1.8436
19726SOL     OW70831   9.600   0.337   1.858 -0.3780  0.3727 -0.0492
19726SOL    HW170832   9.609   0.239   1.871 -1.6350  0.3636  0.7556
19726SOL    HW270833   9.658   0.385   1.924 -1.4769  0.2117  1.0320
19727SOL     OW70834   4.525   1.079   6.175 -0.8189  0.1103  0.2795
19727SOL    HW170835   4.616   1.105   6.206 -0.9391 -2.2028  2.8269
19727SOL    HW270836   4.529   1.054   6.078  1.5811 -1.3361  0.7042
19728SOL     OW70837   4.091   4.758   6.452  0.3925 -0.1134 -0.8437
19728SOL    HW170838   4.073   4.822   6.526  1.3322 -0.4061 -0.3497
19728SOL    HW270839   4.009   4.703   6.435  0.3284 -0.4020  0.3380
19729SOL     OW70840   2.563   5.920   3.725 -0.5738 -0.3473 -0.3750
19729SOL    HW170841   2.487   5.858   3.710 -0.8788  0.0233 -0.3807
19729SOL    HW270842   2.630   5.911   3.651  0.2113 -1.8742  0.4918
19730SOL     OW70843   6.564   1.622   5.203 -0.1243  0.6956 -0.1184
19730SOL    HW170844   6.559   1.540   5.146  0.4151  0.8179 -0.3415
19730SOL    HW270845   6.484   1.680   5.186 -0.4990  0.2241  0.0291
19731SOL     OW70846   0.148   9.982   7.410 -0.0849 -0.4827  0.5647
19731SOL    HW170847   0.170  10.079   7.398 -1.7952  0.0770  1.6898
19731SOL    HW270848   0.230   9.927   7.396  1.2369  1.2332  1.3738
19732SOL     OW70849   6.147   2.789   0.400 -0.6402 -0.2646 -0.0772
19732SOL    HW170850   6.172   2.886   0.411 -1.0967 -0.0644 -0.7570
19732SOL    HW270851   6.204   2.733   0.460 -2.7557  0.7201  2.9761
19733SOL     OW70852   9.327   6.473   0.555 -0.5133  0.6799 -0.1580
19733SOL    HW170853   9.370   6.476   0.465  0.1756  2.2294  0.2095
19733SOL    HW270854   9.382   6.526   0.620  0.5084 -2.7360  1.8509
19734SOL     OW70855   2.616   1.829   5.824 -0.7999 -0.1126 -0.0735
19734SOL    HW170856   2.652   1.743   5.788 -3.3135 -1.9236  1.5551
19734SOL    HW270857   2.690   1.880   5.869  0.6162 -1.6550 -0.5926
19735SOL     OW70858   2.874   9.172   0.580  0.3100 -0.2321  0.1166
19735SOL    HW170859   2.895   9.150   0.676  1.9977  1.3419  0.1230
19735SOL    HW270860   2.867   9.087   0.528  1.3458 -1.0149  1.2225
19736SOL     OW70861   2.888   2.883   1.197 -0.2004 -0.4490  0.3025
19736SOL    HW170862   2.958   2.814   1.215 -1.0359 -0.7756  2.4441
19736SOL    HW270863   2.825   2.887   1.274 -2.0760  0.4103 -1.2378
19737SOL     OW70864   8.042   8.636   3.277  0.2416  0.1388  0.2158
19737SOL    HW170865   8.010   8.576   3.203 -1.4715  1.1289  0.1224
19737SOL    HW270866   8.026   8.731   3.251  0.3141  0.5181  1.5568
19738SOL     OW70867   2.314   6.667   3.078  0.3497  0.4943  0.1551
19738SOL    HW170868   2.256   6.589   3.101 -1.2458  1.3873 -0.7432
19738SOL    HW270869   2.314   6.732   3.154  1.2097 -0.0944  0.6670
19739SOL     OW70870   9.537   2.640   3.982 -0.0812  0.3160  0.0189
19739SOL    HW170871   9.472   2.642   3.906  0.8928  1.3646 -0.7932
19739SOL    HW270872   9.574   2.547   3.992  0.3110  0.3253 -1.2455
19740SOL     OW70873   8.294   5.593   5.807 -0.2462 -0.6886 -0.0039
19740SOL    HW170874   8.201   5.561   5.825  0.7501 -1.7637  3.5819
19740SOL    HW270875   8.339   5.530   5.743 -1.4283 -1.0689 -0.4847
19741SOL     OW70876   9.759   6.995   2.640 -0.1425 -0.1250 -0.5111
19741SOL    HW170877   9.742   6.933   2.563 -3.5015  0.1286 -0.0524
19741SOL    HW270878   9.684   6.987   2.706  1.5242  1.3524  1.6168
19742SOL     OW70879   3.453   9.203   6.466  0.8689  0.0280  0.0299
19742SOL    HW170880   3.382   9.266   6.498  2.2242  2.0634 -0.8905
19742SOL    HW270881   3.502   9.165   6.544 -0.3915 -0.4086  0.6196
19743SOL     OW70882   3.047   9.704   4.551  0.9030 -0.7489 -0.1409
19743SOL    HW170883   3.091   9.757   4.480  0.4094 -0.8160 -0.5006
19743SOL    HW270884   2.951   9.732   4.559  0.6762 -1.4851 -0.2396
19744SOL     OW70885   0.920   5.317   8.118  0.1488 -0.5795 -0.4450
19744SOL    HW170886   1.017   5.292   8.115  0.2384 -0.1103 -1.8369
19744SOL    HW270887   0.866   5.238   8.145  1.0779 -0.3714  2.1877
19745SOL     OW70888   9.444   3.701   2.245 -0.4525  0.4939  0.1994
19745SOL    HW170889   9.441   3.796   2.216 -0.6454  0.0122 -1.3638
19745SOL    HW270890   9.534   3.662   2.225 -0.0600  0.5825  1.6678
19746SOL     OW70891   2.780   7.057   1.092  0.0241  0.6114  0.5338
19746SOL    HW170892   2.703   7.119   1.109  1.5232  3.2303 -1.6534
19746SOL    HW270893   2.790   7.044   0.993  2.8774  0.9924  0.7336
19747SOL     OW70894   7.398   0.364   1.883 -0.5699 -0.4973 -0.0587
19747SOL    HW170895   7.371   0.459   1.902 -1.4810 -1.2369  2.4359
19747SOL    HW270896   7.471   0.364   1.814 -0.9625  1.9793 -0.5222
19748SOL     OW70897   9.637   7.585   0.386  0.2285 -0.1522 -0.5094
19748SOL    HW170898   9.655   7.489   0.408  2.9835 -0.0249 -1.9499
19748SOL    HW270899   9.626   7.595   0.287  1.0893  1.1630 -0.4906
19749SOL     OW70900   5.653   0.080   1.771 -0.1054 -0.3918 -0.6868
19749SOL    HW170901   5.580   0.014   1.760 -1.5592  1.3922 -1.9756
19749SOL    HW270902   5.715   0.075   1.693 -1.0976  0.8305 -1.5647
19750SOL     OW70903   9.010   8.255   0.611  0.7689 -0.1523  0.2659
19750SOL    HW170904   9.056   8.214   0.689  3.2061  0.1933 -0.9394
19750SOL    HW270905   9.078   8.283   0.543 -1.3630 -2.1160 -2.8236
19751SOL     OW70906   4.509   3.637   7.095  0.1592  0.0322 -0.5979
19751SOL    HW170907   4.508   3.651   7.194 -0.3654 -1.3171 -0.3944
19751SOL    HW270908   4.586   3.686   7.055 -0.3021  1.5365  0.3234
19752SOL     OW70909   0.067   4.107   4.106  0.3893  0.2444 -0.3275
19752SOL    HW170910   0.055   4.098   4.007  1.2170 -0.2311 -0.3907
19752SOL    HW270911   0.060   4.203   4.132 -0.6209  0.2867 -0.7400
19753SOL     OW70912   2.550   0.989   5.915 -0.2631  0.0193  0.4055
19753SOL    HW170913   2.522   0.897   5.887  2.6818 -1.4330  2.0459
19753SOL    HW270914   2.478   1.030   5.972 -1.3502 -1.5094  0.1528
19754SOL     OW70915   9.742   4.793   0.341 -0.2855  0.0895  0.4340
19754SOL    HW170916   9.749   4.881   0.294 -1.9624  0.2554  0.4711
19754SOL    HW270917   9.833   4.750   0.345  0.4130  1.4689 -0.2273
19755SOL     OW70918   1.351   1.910   6.291 -0.6680  0.1655 -0.4377
19755SOL    HW170919   1.375   1.947   6.201 -0.4797  0.1513 -0.3940
19755SOL    HW270920   1.257   1.936   6.314 -0.1625  1.5760  0.0865
19756SOL     OW70921   8.173   7.211   2.194  0.1868  0.1524 -0.2598
19756SOL    HW170922   8.159   7.192   2.097 -0.6116  1.3296 -0.3930
19756SOL    HW270923   8.137   7.134   2.248 -1.2783  0.4043 -0.8377
19757SOL     OW70924   0.528   8.230   2.321  0.5236 -0.3008  0.1221
19757SOL    HW170925   0.500   8.292   2.393  0.7201 -0.7125  0.5554
19757SOL    HW270926   0.448   8.179   2.288  0.3872  0.0819 -0.1404
19758SOL     OW70927   0.688   3.468   1.763 -0.6035 -0.0133  0.3050
19758SOL    HW170928   0.745   3.504   1.836  0.6032 -1.0050 -0.1439
19758SOL    HW270929   0.653   3.544   1.708 -2.4072  0.8258  2.5221
19759SOL     OW70930   3.256   3.274   3.718  0.4026  0.6950  0.2112
19759SOL    HW170931   3.258   3.253   3.815 -1.4249  0.8887  0.3011
19759SOL    HW270932   3.272   3.190   3.665 -0.3189  0.2849  0.6495
19760SOL     OW70933   8.158   1.088   4.196 -0.0782 -0.0922 -0.0391
19760SOL    HW170934   8.137   0.994   4.225  0.2957 -0.5298 -1.1402
19760SOL    HW270935   8.072   1.138   4.182 -0.3139 -0.6193 -0.5254
19761SOL     OW70936   1.762   3.186   5.107  0.4955 -0.1928  0.6968
19761SOL    HW170937   1.720   3.111   5.158 -0.8810  0.2523  0.2433
19761SOL    HW270938   1.787   3.259   5.170  0.2895 -0.3297  0.9383
19762SOL     OW70939   1.846   0.324   0.214  0.6938 -0.0488  0.1461
19762SOL    HW170940   1.908   0.250   0.187  0.6182  0.3554 -1.1528
19762SOL    HW270941   1.854   0.339   0.312  1.3816 -1.1712  0.2729
19763SOL     OW70942   0.151   1.752   0.337  0.2262 -0.3030  0.2970
19763SOL    HW170943   0.154   1.668   0.392 -1.8176 -1.1517 -0.8658
19763SOL    HW270944   0.163   1.729   0.241  0.8619  0.8874  0.0837
19764SOL     OW70945   0.176   8.907   4.533 -0.4713 -0.5931 -0.3365
19764SOL    HW170946   0.088   8.901   4.485 -0.1085  0.3876 -1.1562
19764SOL    HW270947   0.249   8.878   4.472 -0.1865 -1.1240  0.2511
19765SOL     OW70948   2.449   0.177   2.473 -0.0536  0.3814 -0.1047
19765SOL    HW170949   2.533   0.124   2.467  0.3770  0.8324  1.5928
19765SOL    HW270950   2.372   0.116   2.492  0.1008  0.1302 -0.2835
19766SOL     OW70951   7.255   2.382   3.636 -0.0795 -0.2368  0.7431
19766SOL    HW170952   7.193   2.433   3.695 -2.7651 -0.5875 -1.6040
19766SOL    HW270953   7.304   2.445   3.576  0.1544 -0.0939  1.0877
19767SOL     OW70954   3.337   7.473   5.723 -0.1555 -0.4153  0.2130
19767SOL    HW170955   3.418   7.532   5.732 -0.4263  0.0758 -0.5357
19767SOL    HW270956   3.255   7.530   5.717 -0.4857 -0.8933  0.1613
19768SOL     OW70957   2.188   9.149   1.095 -0.0963 -0.2821  0.3481
19768SOL    HW170958   2.235   9.124   1.180 -1.5896  0.7688  1.5018
19768SOL    HW270959   2.090   9.133   1.105 -0.4554  1.1444 -0.6749
19769SOL     OW70960   4.873   6.227   1.635  0.0681  0.3553  0.1019
19769SOL    HW170961   4.896   6.310   1.686 -1.0717  1.3598 -0.9809
19769SOL    HW270962   4.816   6.168   1.692  1.2205  0.1068  1.0250
19770SOL     OW70963   9.954   4.829   2.864  0.3095  0.2732  0.2793
19770SOL    HW170964   9.881   4.897   2.869 -1.3236 -1.4529  0.3212
19770SOL    HW270965  10.014   4.849   2.786 -1.0425  0.8703 -0.6148
19771SOL     OW70966   7.799   6.980   1.839  0.1049 -0.4964  0.0516
19771SOL    HW170967   7.773   6.993   1.744 -1.0653  0.0346  0.4338
19771SOL    HW270968   7.896   6.957   1.844 -0.0903 -1.7003 -1.3421
19772SOL     OW70969   2.427   8.285   7.715  0.3126 -0.1151  0.2931
19772SOL    HW170970   2.457   8.258   7.623 -0.3708 -0.1345  0.0709
19772SOL    HW270971   2.329   8.304   7.714  0.0854 -1.1768  1.2598
19773SOL     OW70972   8.962   8.442   7.530  0.6150  0.6814  0.1692
19773SOL    HW170973   8.970   8.358   7.476 -0.0334 -0.0137  1.1433
19773SOL    HW270974   8.927   8.421   7.621 -1.7074  2.2545 -0.2956
19774SOL     OW70975   8.086   3.232   6.094  0.2094 -0.1032 -0.1318
19774SOL    HW170976   8.146   3.161   6.131  0.7289  0.2759 -0.2519
19774SOL    HW270977   8.055   3.206   6.003 -1.2827 -1.1646  0.6462
19775SOL     OW70978   9.110   8.986   5.054 -0.0543 -0.0460  0.1918
19775SOL    HW170979   9.185   8.974   4.990 -1.2792  0.3317 -1.3294
19775SOL    HW270980   9.097   8.901   5.106  0.0815 -0.8068 -0.9966
19776SOL     OW70981   1.776   5.076   5.698  0.0411 -0.1646 -0.7823
19776SOL    HW170982   1.689   5.037   5.727 -0.4860  0.3801 -1.6105
19776SOL    HW270983   1.835   5.088   5.777 -0.8324 -0.0591 -0.1381
19777SOL     OW70984   1.942   5.873   6.263  0.0861 -0.3275  0.1381
19777SOL    HW170985   1.952   5.972   6.269 -1.3112 -0.3011  2.5072
19777SOL    HW270986   2.000   5.829   6.333  0.0784 -1.1347 -0.3554
19778SOL     OW70987   9.397   5.597   4.515  0.5012 -0.3000 -0.5648
19778SOL    HW170988   9.404   5.547   4.429 -0.1732 -1.9359  0.3097
19778SOL    HW270989   9.398   5.533   4.591 -3.3609  0.7558  0.4710
19779SOL     OW70990   3.373   4.796   6.030  0.4012  0.6250  0.0274
19779SOL    HW170991   3.400   4.860   6.102 -0.1204  1.8196 -0.8177
19779SOL    HW270992   3.277   4.771   6.041  0.0519  1.5847 -0.8261
19780SOL     OW70993   4.483   3.474   5.276  0.1825 -0.1986  0.0963
19780SOL    HW170994   4.535   3.556   5.249 -0.1242  0.0162  0.1658
19780SOL    HW270995   4.392   3.477   5.236  0.1889 -0.5367  0.0499
19781SOL     OW70996   4.310   0.872   4.382  0.4375 -0.1123 -0.7477
19781SOL    HW170997   4.281   0.817   4.460  1.1905  0.9452  0.3076
19781SOL    HW270998   4.350   0.957   4.415  0.2974  0.5831 -2.3153
19782SOL     OW70999   3.065   5.351   6.751 -0.3599 -0.5846 -0.1656
19782SOL    HW171000   3.150   5.354   6.698 -0.5506  0.1184 -0.4316
19782SOL    HW271001   3.046   5.257   6.778  0.5769 -0.7304  0.0018
19783SOL     OW71002   8.698   7.053   3.064  0.1542 -0.0796  0.1258
19783SOL    HW171003   8.674   6.977   3.124 -1.5823  1.9623  2.1237
19783SOL    HW271004   8.797   7.054   3.048  0.3984 -1.7301  1.4382
19784SOL     OW71005   2.990   4.408   0.831  0.5163  0.1755  0.0508
19784SOL    HW171006   2.998   4.366   0.921  0.1130  1.8599  0.8971
19784SOL    HW271007   3.001   4.338   0.760  2.1782 -0.9522  1.3794
19785SOL     OW71008   7.573   2.733   4.081  0.2730  0.6474 -0.1625
19785SOL    HW171009   7.652   2.692   4.126  1.4503  2.7556 -0.2459
19785SOL    HW271010   7.603   2.808   4.022 -1.8132  1.5934 -0.0753
19786SOL     OW71011   8.398   9.720   5.782  0.9607 -0.2458 -0.4280
19786SOL    HW171012   8.421   9.657   5.708 -2.2077 -1.2139 -0.6655
19786SOL    HW271013   8.451   9.804   5.771  3.0109 -1.6685 -1.8463
19787SOL     OW71014   9.253   4.883   5.647  0.6639  0.3563  0.0683
19787SOL    HW171015   9.185   4.848   5.712 -1.0809  0.7477 -1.4949
19787SOL    HW271016   9.297   4.964   5.685 -1.0947  1.2003  0.3724
19788SOL     OW71017   9.614   0.179   6.147 -0.4056  0.0579 -0.5058
19788SOL    HW171018   9.673   0.147   6.221 -1.2774  0.4017  0.3455
19788SOL    HW271019   9.535   0.118   6.139  0.5265 -0.9771 -2.2857
19789SOL     OW71020   6.920   1.495   4.908 -0.1893  0.7239  0.1536
19789SOL    HW171021   6.954   1.443   4.829  0.1858  0.3392  0.5674
19789SOL    HW271022   6.978   1.476   4.987 -1.4575 -0.0678  0.9091
19790SOL     OW71023   9.165   3.182   5.789 -0.5154 -0.3964 -0.0026
19790SOL    HW171024   9.185   3.114   5.860 -1.6419 -0.8915 -0.1447
19790SOL    HW271025   9.135   3.267   5.833  2.3149  0.5343  0.2314
19791SOL     OW71026   2.874   0.212   1.134 -0.0767 -0.2694  0.1565
19791SOL    HW171027   2.785   0.255   1.153  1.0953  1.4839  1.8117
19791SOL    HW271028   2.861   0.140   1.066 -2.9453 -0.7406  1.1048
19792SOL     OW71029   5.218   0.891   2.628 -0.5379 -0.4866  0.4357
19792SOL    HW171030   5.306   0.847   2.611 -0.3387  0.7792 -2.1001
19792SOL    HW271031   5.229   0.990   2.621 -2.4621 -0.3861 -1.4498
19793SOL     OW71032   0.615   9.179   7.893  0.0708  0.2924  0.2699
19793SOL    HW171033   0.654   9.269   7.877  1.1177 -0.3528 -0.8655
19793SOL    HW271034   0.547   9.159   7.822 -0.5867  0.4048  0.8515
19794SOL     OW71035   0.195   6.341   6.383  0.4458 -0.2196 -0.4063
19794SOL    HW171036   0.277   6.367   6.434 -0.1740 -1.0774  1.0415
19794SOL    HW271037   0.146   6.424   6.354  0.7733  0.2705  0.4306
19795SOL     OW71038   9.451   8.968   0.451  0.4787  0.1686  0.2464
19795SOL    HW171039   9.437   9.001   0.358 -0.2765  0.8960  0.6161
19795SOL    HW271040   9.521   9.022   0.496  1.5288 -0.7983 -0.2124
19796SOL     OW71041   8.580   7.395   5.841 -0.2392 -0.1904 -0.1083
19796SOL    HW171042   8.583   7.335   5.762 -0.0917  1.1208 -1.1167
19796SOL    HW271043   8.662   7.453   5.842 -0.2360 -0.1989  1.0050
19797SOL     OW71044   1.774   4.358   6.350 -0.1348 -0.1515 -0.0566
19797SOL    HW171045   1.828   4.400   6.423  0.2689  0.0210 -0.4511
19797SOL    HW271046   1.831   4.292   6.301 -0.5593 -0.6457  0.1159
19798SOL     OW71047   8.663   8.693   1.248 -0.4650  0.0571 -0.1100
19798SOL    HW171048   8.637   8.740   1.164 -0.7788 -1.7465 -1.0462
19798SOL    HW271049   8.716   8.755   1.306  1.4934  0.7167 -2.5184
19799SOL     OW71050   1.226   0.026   2.227  0.7742 -0.0599 -0.1183
19799SOL    HW171051   1.138  -0.020   2.218  1.9373 -1.9883 -2.0272
19799SOL    HW271052   1.283  -0.022   2.294  1.5685 -0.8018 -1.2935
19800SOL     OW71053   2.858   4.867   1.417  0.1872 -0.1450  0.2123
19800SOL    HW171054   2.796   4.890   1.341  1.9900  0.5261 -1.0902
19800SOL    HW271055   2.857   4.940   1.484 -0.5294 -0.2052  0.2777
19801SOL     OW71056   1.775   2.356   3.701  0.1176 -0.1805  0.1089
19801SOL    HW171057   1.771   2.259   3.723 -1.5740  0.2485  1.8413
19801SOL    HW271058   1.686   2.398   3.720  2.1408  2.6357  4.0563
19802SOL     OW71059   6.933   1.694   1.463  0.3261 -0.2238  0.0260
19802SOL    HW171060   6.837   1.706   1.486  0.2021 -0.0532 -0.5982
19802SOL    HW271061   6.976   1.635   1.532  0.0399  0.6030  0.9159
19803SOL     OW71062   6.124   8.335   5.871  0.3027 -0.5669 -0.2472
19803SOL    HW171063   6.177   8.300   5.949 -1.4133 -1.1823  0.6803
19803SOL    HW271064   6.031   8.356   5.902  0.7583  3.1121 -1.2068
19804SOL     OW71065   0.550   7.922   3.865  0.1158  0.4097 -0.4937
19804SOL    HW171066   0.490   7.868   3.806  0.2916 -0.2222 -0.0921
19804SOL    HW271067   0.530   7.902   3.961  0.1256  1.1210 -0.3383
19805SOL     OW71068   6.763   0.595   6.156 -0.4749  0.1013  0.4056
19805SOL    HW171069   6.758   0.633   6.063  2.5755 -0.6129 -0.1176
19805SOL    HW271070   6.781   0.497   6.150  1.1713  0.3066  1.7497
19806SOL     OW71071   0.219   6.121   7.439  0.0516  0.0829  0.2093
19806SOL    HW171072   0.222   6.154   7.534 -1.3867 -0.7045  0.5419
19806SOL    HW271073   0.312   6.122   7.401  0.5862  0.8201  1.4741
19807SOL     OW71074   0.701   7.027   2.920  0.3197  0.1173  0.0820
19807SOL    HW171075   0.739   7.031   2.828 -0.1521  0.7745 -0.0975
19807SOL    HW271076   0.773   7.008   2.986  0.3845 -2.0937 -0.5915
19808SOL     OW71077   8.574   5.922   0.796  0.4829  0.0306 -0.1988
19808SOL    HW171078   8.623   6.009   0.792 -1.1512  1.0604  1.4121
19808SOL    HW271079   8.481   5.934   0.760 -0.0903 -0.7897  0.9607
19809SOL     OW71080   0.771   7.084   3.484 -0.0699 -0.3886  0.5791
19809SOL    HW171081   0.678   7.078   3.448  0.2008 -0.0933 -0.1835
19809SOL    HW271082   0.829   7.130   3.418  0.5409 -0.2403  1.2118
19810SOL     OW71083   4.624   1.147   1.678 -0.3630  0.7630 -0.1211
19810SOL    HW171084   4.685   1.214   1.635 -0.7231  0.2501 -1.4735
19810SOL    HW271085   4.660   1.055   1.664 -0.7043  0.5609  0.3246
19811SOL     OW71086   1.699   6.344   7.807 -0.1627  0.0092  0.0526
19811SOL    HW171087   1.617   6.289   7.793  0.5701 -1.3698  1.0338
19811SOL    HW271088   1.780   6.288   7.788  0.5461  1.4475 -1.2215
19812SOL     OW71089   3.921   2.694   5.560  0.3717 -0.1073  0.9314
19812SOL    HW171090   3.915   2.639   5.477  2.1089 -0.2327  0.8775
19812SOL    HW271091   4.008   2.676   5.606  1.5433  3.5106  0.2672
19813SOL     OW71092   8.706   5.060   0.652 -0.1936  0.5249  1.0374
19813SOL    HW171093   8.763   5.113   0.589 -0.0885 -0.0044  0.6861
19813SOL    HW271094   8.625   5.114   0.676 -0.1208  0.8189  0.6367
19814SOL     OW71095   2.759   1.351   0.820  0.0679  0.2745  0.5525
19814SOL    HW171096   2.814   1.355   0.737 -1.9475  0.1390 -0.8273
19814SOL    HW271097   2.713   1.262   0.825 -1.1097  0.8934  0.9510
19815SOL     OW71098   1.291   0.947   4.696  0.4146 -0.0734 -0.4498
19815SOL    HW171099   1.343   0.922   4.777  2.1874  0.2566 -1.4413
19815SOL    HW271100   1.275   0.865   4.640 -2.7465 -0.7025  1.2625
19816SOL     OW71101   6.744   1.128   3.579  0.6267 -0.0665  0.3410
19816SOL    HW171102   6.650   1.161   3.588  0.3692 -0.3338 -1.1748
19816SOL    HW271103   6.780   1.105   3.670  0.2637  2.8115  1.2500
19817SOL     OW71104   7.621   1.166   1.844  0.0657 -0.0080  0.1031
19817SOL    HW171105   7.692   1.210   1.899  1.3347  0.4962 -1.9003
19817SOL    HW271106   7.540   1.224   1.841 -0.2656 -0.3348  1.9367
19818SOL     OW71107   8.014   8.313   5.609 -0.2199 -0.0044 -0.1536
19818SOL    HW171108   7.948   8.242   5.633  0.0502  0.4421  1.9469
19818SOL    HW271109   8.064   8.342   5.690  0.4819  1.7927 -1.1931
19819SOL     OW71110   6.830   1.336   1.625 -0.0822  0.2574  0.3711
19819SOL    HW171111   6.856   1.332   1.528  0.0804  0.4717  0.4073
19819SOL    HW271112   6.838   1.244   1.665 -0.4132  0.1140  0.1133
19820SOL     OW71113   3.691   3.844   5.917 -0.1894 -0.1590  0.0666
19820SOL    HW171114   3.711   3.918   5.852  0.1755  0.7212  1.1827
19820SOL    HW271115   3.618   3.787   5.879 -0.2115  0.5349 -0.9776
19821SOL     OW71116   5.421   0.877   5.291  0.1708  0.2650  0.2614
19821SOL    HW171117   5.398   0.807   5.223 -0.0273  0.6426 -0.0655
19821SOL    HW271118   5.371   0.961   5.270  1.1980  0.8316  0.0430
19822SOL     OW71119   8.143   7.874   7.274  0.5210 -0.1249 -0.0682
19822SOL    HW171120   8.153   7.929   7.191 -0.7194 -1.5927 -1.2235
19822SOL    HW271121   8.054   7.894   7.316 -0.2281 -1.7257 -0.8713
19823SOL     OW71122   4.798   5.682   1.702  0.6534 -0.4078 -0.4315
19823SOL    HW171123   4.747   5.609   1.657 -0.2209 -0.2692  0.3286
19823SOL    HW271124   4.764   5.771   1.671  1.4163 -0.3201 -1.0220
19824SOL     OW71125   9.539   3.806   7.502 -0.3179  0.2411  0.2832
19824SOL    HW171126   9.620   3.754   7.475 -1.3639 -1.1302 -0.2466
19824SOL    HW271127   9.473   3.806   7.428 -0.6517  1.7145  0.5600
19825SOL     OW71128   7.675   1.784   1.086 -0.3595  0.2736  0.3465
19825SOL    HW171129   7.759   1.835   1.065 -1.2542  1.7337  0.2250
19825SOL    HW271130   7.661   1.714   1.016 -1.2560  2.5410 -1.8293
19826SOL     OW71131   2.954   7.775   2.304  0.6067  0.3043  0.5946
19826SOL    HW171132   2.946   7.705   2.375  0.8737  0.2110  0.5330
19826SOL    HW271133   2.870   7.829   2.300  0.2725 -0.2233  0.4223
19827SOL     OW71134   3.419   8.365   3.604  0.0989  0.1496 -0.4871
19827SOL    HW171135   3.469   8.326   3.682 -0.1865  0.4600 -0.1428
19827SOL    HW271136   3.483   8.401   3.537  0.3315  1.2790  0.3268
19828SOL     OW71137   4.244   2.171   6.509 -0.0340 -0.3905 -0.0270
19828SOL    HW171138   4.322   2.222   6.545  0.7541 -1.1648 -0.5985
19828SOL    HW271139   4.161   2.201   6.554  0.5724  0.5745  0.4709
19829SOL     OW71140   2.731   6.761   7.970  0.0850  0.0459 -0.0999
19829SOL    HW171141   2.754   6.812   7.888 -1.6835  0.7926 -0.1495
19829SOL    HW271142   2.770   6.806   8.050  0.6104  0.0949 -0.3821
19830SOL     OW71143   7.970   2.176   1.643 -0.0096  0.3039  0.1086
19830SOL    HW171144   8.015   2.163   1.555  1.5711  0.5035  0.8769
19830SOL    HW271145   7.899   2.106   1.654 -0.1457  0.2078 -1.2653
19831SOL     OW71146   0.160   9.958   1.133 -0.3615  1.1037 -0.3383
19831SOL    HW171147   0.208  10.010   1.204  0.5784  0.5160 -0.5382
19831SOL    HW271148   0.221   9.945   1.054 -0.6888 -0.0458 -0.4109
19832SOL     OW71149   9.453   0.068   3.286  0.8143  0.1713  0.6671
19832SOL    HW171150   9.393  -0.011   3.296 -0.1155  0.5217 -1.8275
19832SOL    HW271151   9.548   0.038   3.283  0.5529 -0.7060  1.1271
19833SOL     OW71152   9.198   1.895   8.036  0.1555 -0.0125 -0.5293
19833SOL    HW171153   9.152   1.979   8.009 -1.0398 -0.7214 -0.7606
19833SOL    HW271154   9.264   1.869   7.966  0.6661  0.8235 -0.3666
19834SOL     OW71155   8.660   0.409   3.291  0.6209  0.0903  0.1446
19834SOL    HW171156   8.694   0.493   3.331  0.4873 -0.5053  1.5230
19834SOL    HW271157   8.588   0.430   3.224  1.2278  1.1130 -0.1875
19835SOL     OW71158   3.475   1.692   2.246 -0.0984  0.0155  0.3206
19835SOL    HW171159   3.413   1.716   2.321 -0.8517 -0.1813 -0.2293
19835SOL    HW271160   3.528   1.611   2.271 -0.3458 -0.0477  0.6463
19836SOL     OW71161   2.639   4.283   4.051  0.0329 -0.0746 -0.2507
19836SOL    HW171162   2.598   4.371   4.026 -1.1173 -0.0902  1.4763
19836SOL    HW271163   2.608   4.212   3.987 -1.8693  0.1204  0.4162
19837SOL     OW71164   8.918   4.469   4.373 -0.6446  0.0870  0.0681
19837SOL    HW171165   8.841   4.416   4.339 -0.3364  0.5159 -1.3441
19837SOL    HW271166   8.965   4.419   4.446 -2.0889 -0.2884  0.7410
19838SOL     OW71167   1.877   0.724   4.772  0.0422 -0.6796 -0.1547
19838SOL    HW171168   1.945   0.661   4.809  0.3927 -0.5368 -0.5539
19838SOL    HW271169   1.872   0.805   4.830 -1.3403 -1.6310  1.1021
19839SOL     OW71170   3.878   0.133   4.544 -0.1750  0.1746 -0.0132
19839SOL    HW171171   3.867   0.209   4.480 -1.3901  0.3079  0.3404
19839SOL    HW271172   3.975   0.124   4.569 -0.1056  2.0396  0.4736
19840SOL     OW71173   8.669   4.285   2.974 -0.2045 -0.0843  0.3224
19840SOL    HW171174   8.639   4.343   2.898  0.0409  0.3873  0.5810
19840SOL    HW271175   8.600   4.215   2.992 -0.5083  0.1326  0.0086
19841SOL     OW71176   4.391   0.925   7.459  0.3044 -0.8344 -0.2512
19841SOL    HW171177   4.358   0.926   7.364 -0.9036 -0.0456  0.1638
19841SOL    HW271178   4.375   0.835   7.499 -3.5502  0.1862  0.6706
19842SOL     OW71179   0.943   3.020   3.584  0.2212  0.2760 -0.1828
19842SOL    HW171180   0.986   3.110   3.582  1.7532 -0.4226  0.4262
19842SOL    HW271181   0.854   3.024   3.539 -0.5721  2.5304  1.5048
19843SOL     OW71182   7.736   8.458   7.389  0.3549  0.4939 -0.1301
19843SOL    HW171183   7.705   8.364   7.373  2.4094 -0.3128  0.3961
19843SOL    HW271184   7.671   8.522   7.350 -0.5414 -1.1869 -1.4529
19844SOL     OW71185   0.991   0.474   7.922 -0.2664  0.0134  0.5198
19844SOL    HW171186   1.024   0.538   7.991 -1.3507 -0.0709  1.1219
19844SOL    HW271187   0.906   0.509   7.882  0.1941 -0.0842 -0.5510
19845SOL     OW71188   8.602   3.643   3.565 -0.3040  0.1809 -0.1461
19845SOL    HW171189   8.534   3.604   3.627 -0.0191  0.3394  0.2641
19845SOL    HW271190   8.681   3.676   3.617 -1.5191  3.4010 -0.2228
19846SOL     OW71191   8.600   5.699   6.262  0.2423  0.7186 -0.2263
19846SOL    HW171192   8.572   5.684   6.167 -2.8986  0.0023  0.7345
19846SOL    HW271193   8.527   5.748   6.310  0.9552 -0.6292  2.2904
19847SOL     OW71194   0.421   9.857   1.317 -0.2630  0.0738 -0.4434
19847SOL    HW171195   0.361   9.934   1.292 -0.2726  0.6973  1.4268
19847SOL    HW271196   0.368   9.788   1.364  0.3288  0.2731  0.5237
19848SOL     OW71197   1.938   2.579   4.319 -0.0417 -0.4169  0.1371
19848SOL    HW171198   2.006   2.592   4.247  0.2558  1.4329  0.7451
19848SOL    HW271199   1.964   2.629   4.401 -0.1342 -2.9010  1.7461
19849SOL     OW71200   8.612   3.401   7.893 -0.1532  0.4304  0.6311
19849SOL    HW171201   8.533   3.440   7.940 -1.0759 -2.1724  1.3654
19849SOL    HW271202   8.675   3.363   7.961  1.6640  2.3257  0.0356
19850SOL     OW71203   2.377   8.566   7.759  0.3467  0.2221  0.3300
19850SOL    HW171204   2.416   8.477   7.738  0.7723  0.5202 -0.1551
19850SOL    HW271205   2.288   8.554   7.805  0.6033 -0.4459  0.6606
19851SOL     OW71206   2.939   5.490   0.665 -0.0715 -0.3034  0.6098
19851SOL    HW171207   2.899   5.576   0.633 -2.1668 -0.9440  1.4740
19851SOL    HW271208   3.025   5.473   0.616  0.6299  2.5139  0.7701
19852SOL     OW71209   4.209   4.113   1.751 -0.2764 -0.0941 -0.0588
19852SOL    HW171210   4.166   4.060   1.824  0.7653  1.1438  1.4878
19852SOL    HW271211   4.170   4.086   1.663 -0.2879 -2.8684  0.7648
19853SOL     OW71212   7.711   9.243   4.315  0.0723  0.3680 -0.2628
19853SOL    HW171213   7.705   9.235   4.216 -1.9850 -1.1284 -0.0540
19853SOL    HW271214   7.738   9.155   4.354 -2.8221 -0.1459  0.7287
19854SOL     OW71215   8.394   6.431   4.070  0.0313  0.2745  0.3683
19854SOL    HW171216   8.370   6.416   3.974  1.6073 -0.0658  0.0191
19854SOL    HW271217   8.403   6.343   4.116 -0.7004  0.4368  0.8384
19855SOL     OW71218   8.172   8.688   0.237  0.5617  0.1414 -0.5737
19855SOL    HW171219   8.105   8.693   0.164  0.5465 -0.5880 -0.6154
19855SOL    HW271220   8.174   8.595   0.274 -0.5616  0.8771  1.4141
19856SOL     OW71221   2.284   5.344   0.614  0.3590 -0.5131  0.3278
19856SOL    HW171222   2.305   5.249   0.639 -0.9139 -1.2121 -1.1537
19856SOL    HW271223   2.369   5.396   0.608  1.2447 -2.0079 -0.5275
19857SOL     OW71224   8.792   9.832   5.195 -0.3937  0.2820 -0.4726
19857SOL    HW171225   8.817   9.786   5.280 -0.5022 -0.0904 -0.6406
19857SOL    HW271226   8.871   9.881   5.159 -0.7604  1.6970  0.6360
19858SOL     OW71227   0.141   8.725   7.181 -0.3487  0.9648  0.3552
19858SOL    HW171228   0.085   8.764   7.108 -2.0009 -2.1792 -0.1454
19858SOL    HW271229   0.171   8.634   7.155 -0.7950 -0.1440  3.4944
19859SOL     OW71230   4.071   2.397   4.363 -0.4532  0.5457 -0.0863
19859SOL    HW171231   4.169   2.380   4.353 -0.1315  1.7767  0.8484
19859SOL    HW271232   4.021   2.344   4.295  0.8095 -0.6763 -0.0880
19860SOL     OW71233   1.694   9.030   1.298 -0.0288  0.0406 -0.1575
19860SOL    HW171234   1.631   8.981   1.359 -0.0050 -2.0754 -1.7590
19860SOL    HW271235   1.643   9.070   1.222  0.3292 -0.1404 -0.4962
19861SOL     OW71236   7.075   9.231   4.615  0.8280 -0.0936 -0.0050
19861SOL    HW171237   6.985   9.187   4.612  0.5953  0.1572  2.4900
19861SOL    HW271238   7.123   9.204   4.698  3.1700 -0.3521 -1.3735
19862SOL     OW71239   8.446   9.679   2.745 -0.6173  0.2180  0.0036
19862SOL    HW171240   8.393   9.756   2.781  1.4180  1.1137  1.1789
19862SOL    HW271241   8.398   9.640   2.667 -2.9246  1.0825  0.9403
19863SOL     OW71242   0.591   8.311   8.128  0.1245  0.1382  0.3176
19863SOL    HW171243   0.554   8.219   8.144  1.5321 -0.5691 -0.3792
19863SOL    HW271244   0.537   8.378   8.178 -0.5621 -1.1448  1.3194
19864SOL     OW71245   9.980   7.535   2.784 -0.2312 -0.1256 -0.7946
19864SOL    HW171246   9.995   7.437   2.769  4.2015  0.4367 -0.7599
19864SOL    HW271247  10.004   7.559   2.878  0.6087  1.2561 -1.3336
19865SOL     OW71248   9.582   6.396   6.610 -0.2414  0.1530 -0.1314
19865SOL    HW171249   9.616   6.327   6.674  1.0231  0.2339 -0.7091
19865SOL    HW271250   9.597   6.364   6.516  1.5011  1.7674 -0.4204
19866SOL     OW71251   1.583   6.204   5.251 -0.0575  0.7281  0.2672
19866SOL    HW171252   1.681   6.192   5.230 -0.2748  0.0911 -0.4061
19866SOL    HW271253   1.531   6.130   5.209 -0.9072  1.4370  0.0517
19867SOL     OW71254   3.582   1.533   3.316 -0.4185  0.7901 -0.3054
19867SOL    HW171255   3.625   1.492   3.397 -1.3216  0.5014  0.0335
19867SOL    HW271256   3.484   1.540   3.331 -1.0189 -1.9768 -2.5126
19868SOL     OW71257   0.514   0.393   0.571 -0.1879 -0.2412  0.6172
19868SOL    HW171258   0.472   0.424   0.656  1.6367 -0.8492  1.7575
19868SOL    HW271259   0.524   0.471   0.508 -1.7567  0.1609  0.8384
19869SOL     OW71260   3.985   9.007   0.954 -0.1017 -0.6954 -0.0786
19869SOL    HW171261   3.945   8.980   0.866 -0.3883 -0.8804  0.1081
19869SOL    HW271262   3.926   9.075   0.997  1.2746  1.2383 -1.1514
19870SOL     OW71263   2.116   5.857   3.953 -0.0192  0.5046  0.1533
19870SOL    HW171264   2.186   5.927   3.937 -1.5846  1.7893 -1.2899
19870SOL    HW271265   2.140   5.804   4.034  2.1666  1.4829  0.1888
19871SOL     OW71266   3.777   4.080   5.243  0.3869 -0.5306 -0.1506
19871SOL    HW171267   3.719   4.082   5.162 -0.7469 -1.1620  0.6339
19871SOL    HW271268   3.873   4.087   5.216 -0.0289  0.0979 -1.4822
19872SOL     OW71269   8.764   9.330   2.956 -0.1098  0.2728  0.3478
19872SOL    HW171270   8.708   9.297   2.880  0.8561 -0.4436 -0.0619
19872SOL    HW271271   8.724   9.414   2.993 -0.3865  0.8286 -1.1785
19873SOL     OW71272   4.951   0.596   4.426  0.0480  0.2461  0.2178
19873SOL    HW171273   4.909   0.514   4.387  0.2748  0.3420 -0.2328
19873SOL    HW271274   4.986   0.575   4.517  0.4774 -0.2754 -0.0625
19874SOL     OW71275   6.192   3.342   0.180 -0.2112  1.0398  0.5724
19874SOL    HW171276   6.094   3.357   0.177 -0.2714  0.9746  2.0431
19874SOL    HW271277   6.236   3.413   0.235  0.3700  0.0928  1.3399
19875SOL     OW71278   0.051   0.455   6.205 -0.0397  0.3980  0.2621
19875SOL    HW171279  -0.011   0.529   6.180 -1.1173 -0.5072  0.2240
19875SOL    HW271280   0.036   0.430   6.300 -1.2396 -1.2397 -0.3251
19876SOL     OW71281   7.153   3.603   1.224  0.0750 -0.1475 -0.2167
19876SOL    HW171282   7.215   3.639   1.293 -0.5971 -0.2903  0.4608
19876SOL    HW271283   7.194   3.615   1.133  1.0618 -0.1749  0.2182
19877SOL     OW71284   7.257   8.195   2.473 -0.1516 -0.0914 -0.5289
19877SOL    HW171285   7.227   8.103   2.447  1.9288 -0.0365 -3.2656
19877SOL    HW271286   7.195   8.263   2.435  0.5151 -0.2089 -1.8493
19878SOL     OW71287   4.740   7.201   4.203  0.1159 -0.4059  0.4764
19878SOL    HW171288   4.744   7.102   4.213 -0.8148 -0.6124 -1.0190
19878SOL    HW271289   4.712   7.224   4.110  0.2910  1.2612  0.8205
19879SOL     OW71290   3.587   1.047   0.790  0.2398  0.2770  0.3291
19879SOL    HW171291   3.678   1.009   0.771  0.1695 -0.0183  0.5677
19879SOL    HW271292   3.517   0.984   0.755  0.1348  0.7538 -0.3084
19880SOL     OW71293   9.356   4.146   4.253 -0.1278  0.4400 -0.3694
19880SOL    HW171294   9.344   4.245   4.247  0.1601  0.5176  0.3224
19880SOL    HW271295   9.453   4.124   4.262 -0.3282  0.1985  1.2933
19881SOL     OW71296   9.596   1.260   7.644 -0.4456 -0.1391 -0.1876
19881SOL    HW171297   9.620   1.355   7.625 -2.1997  0.1896 -0.8926
19881SOL    HW271298   9.507   1.258   7.691 -0.3351 -1.4206 -0.0340
19882SOL     OW71299   8.002   7.556   6.094  0.1157  0.0078  0.6588
19882SOL    HW171300   8.066   7.633   6.098  0.0850  0.2707 -2.5353
19882SOL    HW271301   8.053   7.470   6.093  0.5406  0.2218 -2.0843
19883SOL     OW71302   1.219   7.495   4.005  0.1542 -0.9793 -0.4392
19883SOL    HW171303   1.199   7.572   4.067 -0.8740 -1.4626 -0.1510
19883SOL    HW271304   1.164   7.416   4.032 -1.1046 -0.8915 -2.6147
19884SOL     OW71305   3.953   9.824   0.011  0.0269 -0.3308  0.5155
19884SOL    HW171306   3.918   9.743  -0.036  0.6921 -0.3668  0.0668
19884SOL    HW271307   4.024   9.796   0.077  1.4462  0.0334 -0.8245
19885SOL     OW71308   0.356   1.558   1.115 -0.1251 -0.2916 -0.4336
19885SOL    HW171309   0.257   1.544   1.112 -0.3987  1.3124  0.4689
19885SOL    HW271310   0.398   1.516   1.035 -1.7890  0.9333 -2.0138
19886SOL     OW71311   9.437   0.202   1.344  0.1817 -0.2663 -0.2137
19886SOL    HW171312   9.372   0.253   1.402 -0.0664 -0.7810 -0.0391
19886SOL    HW271313   9.478   0.128   1.398  1.1362  0.2400 -0.2378
19887SOL     OW71314   6.424   9.078   6.865  0.0377  0.3316  0.4750
19887SOL    HW171315   6.430   9.046   6.960  2.5170  0.4086  0.3789
19887SOL    HW271316   6.402   9.175   6.864 -2.1354 -0.1287  0.8937
19888SOL     OW71317   8.648   1.735   5.693  0.4065  0.2947  0.0365
19888SOL    HW171318   8.667   1.756   5.789 -1.0759 -2.1091  0.8882
19888SOL    HW271319   8.705   1.659   5.663 -1.7189 -1.4039  0.1505
19889SOL     OW71320   0.263   3.486   2.428 -0.1634 -0.1297  0.3902
19889SOL    HW171321   0.321   3.561   2.396 -0.3996  0.9178  2.3067
19889SOL    HW271322   0.211   3.517   2.508 -0.3165 -2.3391  1.1658
19890SOL     OW71323  -0.002   3.222   1.034 -0.7214 -0.3355  0.0588
19890SOL    HW171324   0.093   3.247   1.014 -0.6521  1.5895  2.4794
19890SOL    HW271325  -0.061   3.246   0.957  0.4847  0.2730 -0.6863
19891SOL     OW71326   3.116   8.133   4.107  0.1109 -0.1599 -0.0458
19891SOL    HW171327   3.149   8.204   4.169  2.7037 -1.2114 -0.1563
19891SOL    HW271328   3.029   8.098   4.141  0.5622  0.5716  1.9734
19892SOL     OW71329   6.078   2.300   7.881  0.0077 -0.3125  0.4107
19892SOL    HW171330   6.100   2.351   7.964  0.2964  1.0779 -0.4817
19892SOL    HW271331   5.980   2.307   7.863 -0.1620 -1.1769  0.9893
19893SOL     OW71332   7.639   8.212   7.362 -0.0541  0.5410  0.2180
19893SOL    HW171333   7.686   8.156   7.294 -0.5152  1.2635 -0.7007
19893SOL    HW271334   7.600   8.152   7.433 -1.1101 -0.3662 -1.1013
19894SOL     OW71335   4.593   3.319   2.888  0.5793  0.2276  0.7764
19894SOL    HW171336   4.572   3.253   2.960  0.2041  1.2843  1.6563
19894SOL    HW271337   4.626   3.404   2.929  2.3196  0.1500 -0.4042
19895SOL     OW71338   4.337   1.235   5.675  0.0834 -0.1529 -0.3441
19895SOL    HW171339   4.378   1.168   5.738 -0.5277 -0.9747 -0.8116
19895SOL    HW271340   4.240   1.246   5.697  0.3946  1.2861  0.3304
19896SOL     OW71341   6.861   9.258   2.618  0.3466 -0.2634  0.1769
19896SOL    HW171342   6.821   9.313   2.692 -0.1876  0.5531 -0.7080
19896SOL    HW271343   6.840   9.300   2.530  0.0211 -1.8343 -0.5132
19897SOL     OW71344   4.618   9.908   5.259  1.1217 -0.0875 -0.3726
19897SOL    HW171345   4.655   9.836   5.318  0.1345  1.0752  1.7167
19897SOL    HW271346   4.609   9.993   5.312  1.3159  1.3062 -2.5295
19898SOL     OW71347   9.894   0.242   3.926 -0.4903  0.3370 -0.1269
19898SOL    HW171348   9.989   0.218   3.905 -0.0072  1.2523  0.9388
19898SOL    HW271349   9.870   0.328   3.880 -0.3243  0.8791  0.7919
19899SOL     OW71350   2.483   7.325   1.988  0.3693  0.1054 -0.1278
19899SOL    HW171351   2.429   7.313   1.905  0.2019 -0.1287  0.0123
19899SOL    HW271352   2.431   7.291   2.067  0.8402 -0.3954 -0.0327
19900SOL     OW71353   4.285   2.711   1.584 -0.1806 -0.8416 -0.3035
19900SOL    HW171354   4.204   2.752   1.626  1.2137  1.5881  0.1066
19900SOL    HW271355   4.313   2.764   1.505  0.7269 -1.9577 -0.7517
19901SOL     OW71356   3.381   6.135   3.215 -0.4116  0.1791  0.1146
19901SOL    HW171357   3.359   6.094   3.127 -0.8825 -0.1227  0.3685
19901SOL    HW271358   3.475   6.112   3.241  0.5739  2.2796 -1.4435
19902SOL     OW71359   4.618   4.910   4.012  0.0020  0.3750 -0.3152
19902SOL    HW171360   4.649   4.844   3.944  0.5675  2.6830 -2.3454
19902SOL    HW271361   4.649   4.881   4.103  1.7305 -1.2087 -1.3795
19903SOL     OW71362   2.764   9.747   4.572 -0.0816  0.1073  0.2262
19903SOL    HW171363   2.746   9.845   4.558 -1.4806  0.0834  1.6707
19903SOL    HW271364   2.697   9.710   4.636 -1.0931 -2.3571 -2.1383
19904SOL     OW71365   2.349   1.148   6.089 -0.2894  0.7276  0.8973
19904SOL    HW171366   2.273   1.132   6.153  0.2158  1.2024  1.6299
19904SOL    HW271367   2.434   1.160   6.141  0.2610  0.3387  0.0895
19905SOL     OW71368   7.918   4.158   7.440  0.4073 -0.4835  0.2318
19905SOL    HW171369   7.842   4.102   7.407 -1.8708  1.8919  1.2677
19905SOL    HW271370   7.920   4.245   7.391  3.8905 -1.3430 -1.3457
19906SOL     OW71371   7.969   3.327   5.675 -0.3319 -0.3900 -0.1291
19906SOL    HW171372   7.949   3.423   5.659  1.4597  0.0491  0.1309
19906SOL    HW271373   7.909   3.291   5.747 -1.0989  0.4900 -0.3313
19907SOL     OW71374   1.024   4.763   0.092 -0.3752  0.4281 -0.0428
19907SOL    HW171375   1.080   4.843   0.070  1.0018 -0.3246  0.6701
19907SOL    HW271376   0.939   4.767   0.039  0.0365  1.9296 -0.6372
19908SOL     OW71377   7.854   5.083   1.447 -0.5299 -0.4680  0.1953
19908SOL    HW171378   7.827   5.071   1.351 -1.1653  1.8964  0.0568
19908SOL    HW271379   7.775   5.064   1.506 -1.2064  1.6931  0.0338
19909SOL     OW71380   1.257   7.849   6.538  0.0069  0.7428 -0.0204
19909SOL    HW171381   1.198   7.924   6.568  0.3499  0.1646  2.1802
19909SOL    HW271382   1.208   7.792   6.473 -0.6967  2.1188 -0.7333
19910SOL     OW71383   9.492   2.884   1.618 -0.1691 -0.4328  0.1156
19910SOL    HW171384   9.446   2.815   1.674  1.2309 -2.1260 -0.7684
19910SOL    HW271385   9.516   2.843   1.529  1.7068  0.8674  0.0157
19911SOL     OW71386   9.074   7.807   6.191  0.0598 -0.1568  0.2690
19911SOL    HW171387   9.135   7.788   6.114 -2.0555 -3.0555 -0.7724
19911SOL    HW271388   9.046   7.720   6.234 -1.5565  1.2321  2.1217
19912SOL     OW71389   7.499   6.326   7.837 -0.5318 -0.3827 -0.8318
19912SOL    HW171390   7.487   6.232   7.807 -1.5856 -0.5385  0.0739
19912SOL    HW271391   7.458   6.339   7.927 -0.6387  1.0043 -1.0620
19913SOL     OW71392   4.073   8.708   7.343 -0.1267  0.7277 -0.0569
19913SOL    HW171393   4.058   8.654   7.260 -0.1650  0.9118 -0.1721
19913SOL    HW271394   3.985   8.743   7.376 -0.2835 -0.5377  0.8850
19914SOL     OW71395   8.260   3.690   1.232  0.4404  0.0480 -0.2964
19914SOL    HW171396   8.201   3.692   1.312  0.5138 -2.0188 -0.1813
19914SOL    HW271397   8.355   3.702   1.261  0.6304 -2.2751  0.1168
19915SOL     OW71398   6.615   9.551   3.658 -0.0176 -0.1110  0.0570
19915SOL    HW171399   6.521   9.559   3.626  0.0105 -0.1167 -0.0266
19915SOL    HW271400   6.615   9.527   3.756 -0.1178 -1.3710 -0.2443
19916SOL     OW71401   7.253   5.157   1.722  0.0920 -0.0585  0.1525
19916SOL    HW171402   7.349   5.184   1.718  0.1909 -0.3062  0.7040
19916SOL    HW271403   7.199   5.232   1.758  0.4017 -0.6541  1.9173
19917SOL     OW71404   3.805   3.756   8.047 -0.6662 -0.3381 -0.9616
19917SOL    HW171405   3.741   3.724   7.977 -0.1350 -2.9964 -0.2908
19917SOL    HW271406   3.753   3.789   8.126 -1.2351  0.5421 -1.6890
19918SOL     OW71407   5.851   1.183   8.161 -0.1315  0.0036 -0.2494
19918SOL    HW171408   5.856   1.246   8.238 -1.7985  0.7112 -0.6952
19918SOL    HW271409   5.870   1.090   8.193 -2.6975 -0.0049  1.4156
19919SOL     OW71410   3.862   2.992   4.275 -0.5974  0.0843 -0.7601
19919SOL    HW171411   3.879   3.032   4.186 -0.5462  0.7544 -0.4500
19919SOL    HW271412   3.946   2.951   4.310 -0.2534  1.1111 -0.3734
19920SOL     OW71413   7.514   7.032   8.167  0.0868 -0.3733 -0.3113
19920SOL    HW171414   7.603   6.994   8.192 -0.0324  0.9002  2.1743
19920SOL    HW271415   7.451   6.957   8.146  1.5708 -1.3022 -1.6106
19921SOL     OW71416   2.996   1.153   1.339  0.0185  0.1669  0.6299
19921SOL    HW171417   3.020   1.250   1.336  2.3919 -0.4103 -0.1213
19921SOL    HW271418   2.950   1.127   1.253 -0.9726  0.6994  0.9942
19922SOL     OW71419   2.362   6.337   2.559 -0.1681 -0.0946 -0.3034
19922SOL    HW171420   2.440   6.345   2.621 -0.2235  2.6903 -0.5087
19922SOL    HW271421   2.394   6.324   2.466  0.0418  0.0567 -0.2543
19923SOL     OW71422   3.251   3.641   5.582  0.0107  0.4902 -0.1273
19923SOL    HW171423   3.295   3.684   5.660  1.1924  1.8481 -1.5039
19923SOL    HW271424   3.167   3.689   5.560 -0.1921  0.2631  0.1506
19924SOL     OW71425   7.743   3.335   6.167 -0.1853  0.0309  0.0499
19924SOL    HW171426   7.820   3.388   6.204 -0.5285  1.1947 -0.8882
19924SOL    HW271427   7.722   3.260   6.230  1.6013 -0.1979  0.4043
19925SOL     OW71428   5.560   9.174   5.038 -0.0890  0.2238 -0.0628
19925SOL    HW171429   5.556   9.238   5.116  0.6460 -1.8269  1.7008
19925SOL    HW271430   5.472   9.173   4.991 -0.0638  2.6705 -0.2472
19926SOL     OW71431   1.107   8.529   0.480 -0.0901  0.2405  0.0124
19926SOL    HW171432   1.173   8.559   0.549 -0.3303 -0.3118  0.4818
19926SOL    HW271433   1.147   8.454   0.427 -0.6819 -0.7167  0.9011
19927SOL     OW71434   4.119   2.581   2.822  0.3348  0.3040  0.0516
19927SOL    HW171435   4.208   2.539   2.838 -0.1733 -0.0841  1.9077
19927SOL    HW271436   4.082   2.548   2.735  0.7682 -1.6473  0.5864
19928SOL     OW71437   8.195   6.925   8.004 -0.5147  0.1031  0.5502
19928SOL    HW171438   8.197   7.025   7.995  1.2604  0.2063  1.8791
19928SOL    HW271439   8.202   6.900   8.100 -0.7865 -1.3239  0.2106
19929SOL     OW71440   8.005   0.436   0.884  0.0279 -0.1476 -0.2628
19929SOL    HW171441   7.957   0.509   0.835 -1.3604  0.7752  2.3335
19929SOL    HW271442   7.939   0.382   0.936  1.4594 -0.7986  0.9257
19930SOL     OW71443   0.020   5.003   4.524  0.3045  0.4375  0.1140
19930SOL    HW171444   0.054   4.909   4.537 -1.3577 -0.0302  1.3037
19930SOL    HW271445   0.061   5.063   4.593 -0.1372  0.1737  0.6112
19931SOL     OW71446   8.446   0.616   1.465 -0.5301 -0.4853 -0.5362
19931SOL    HW171447   8.513   0.543   1.478  0.0143  0.0046 -0.5723
19931SOL    HW271448   8.423   0.656   1.554  0.5737  0.5362 -0.6935
19932SOL     OW71449   3.140   0.538   7.083 -0.4307 -0.2969 -0.1118
19932SOL    HW171450   3.146   0.637   7.081 -0.6695 -0.2717  0.4573
19932SOL    HW271451   3.231   0.499   7.098 -0.3482 -0.1612 -0.2689
19933SOL     OW71452   4.239   7.638   4.451  0.2121  0.2486  0.0066
19933SOL    HW171453   4.267   7.714   4.511 -0.6978  0.7223 -0.1607
19933SOL    HW271454   4.219   7.558   4.507 -0.3018  0.5874  0.3153
19934SOL     OW71455   2.180   6.423   3.109 -0.1932  0.0604  0.0586
19934SOL    HW171456   2.140   6.405   3.019 -0.3182 -2.0952  0.5182
19934SOL    HW271457   2.250   6.354   3.129  1.0991  1.5728  0.8738
19935SOL     OW71458   3.575   0.365   3.040  0.1212  0.2069  0.4492
19935SOL    HW171459   3.579   0.457   3.003  1.6067  0.0644  0.2505
19935SOL    HW271460   3.480   0.342   3.061 -0.5552  0.8834 -1.7283
19936SOL     OW71461   8.769   4.680   0.922  0.2056 -0.3157  0.8117
19936SOL    HW171462   8.677   4.712   0.902  1.0152  0.9913 -1.0860
19936SOL    HW271463   8.783   4.675   1.021 -1.3034  1.2653  1.1238
19937SOL     OW71464   2.804   3.529   5.805 -0.0309  0.4226  0.3972
19937SOL    HW171465   2.873   3.588   5.846 -0.0407  0.0220  0.9984
19937SOL    HW271466   2.768   3.572   5.722  0.1078  1.1609  0.7127
19938SOL     OW71467   7.147   7.025   7.719  0.0596  0.0185 -0.2630
19938SOL    HW171468   7.222   6.973   7.761  0.2447 -0.9262 -1.7406
19938SOL    HW271469   7.129   6.989   7.627 -0.7723  1.6391 -0.7439
19939SOL     OW71470   7.109   4.219   0.621 -0.6394  0.8380 -0.5053
19939SOL    HW171471   7.127   4.131   0.578 -1.9058  0.4740 -0.3046
19939SOL    HW271472   7.020   4.216   0.668  0.3122  1.5223  1.3687
19940SOL     OW71473   9.494   0.852   5.002 -0.0927 -0.1425 -0.4071
19940SOL    HW171474   9.482   0.753   5.014 -2.8017  0.0573 -1.0003
19940SOL    HW271475   9.564   0.885   5.066 -0.5970 -2.1202  1.2494
19941SOL     OW71476   2.127   2.875   1.448 -0.3484 -0.1014  0.0532
19941SOL    HW171477   2.184   2.796   1.472 -1.0604 -0.8756 -0.7751
19941SOL    HW271478   2.071   2.853   1.369 -0.2408  1.3975 -0.4541
19942SOL     OW71479   8.506   5.172   4.113  0.3407  0.2334  0.5105
19942SOL    HW171480   8.473   5.234   4.043  0.9313  0.3345  0.3266
19942SOL    HW271481   8.605   5.173   4.116  0.3276  0.1570  1.2799
19943SOL     OW71482   9.498   3.259   1.662  0.2606 -0.2036 -0.2769
19943SOL    HW171483   9.523   3.256   1.565 -0.9885 -4.8973 -0.5787
19943SOL    HW271484   9.563   3.203   1.714 -1.0986 -0.5286  1.0898
19944SOL     OW71485   3.364   6.278   0.306  0.1331 -0.4811 -0.2720
19944SOL    HW171486   3.417   6.332   0.241 -0.2977  1.2134  0.7569
19944SOL    HW271487   3.377   6.181   0.287  3.1766 -0.0957 -0.3802
19945SOL     OW71488   9.181   2.509   6.548  0.4914 -0.1146  0.2761
19945SOL    HW171489   9.104   2.559   6.508  0.7754 -0.0628 -0.2122
19945SOL    HW271490   9.267   2.540   6.506  0.5410 -2.1199 -1.2041
19946SOL     OW71491   2.499   7.235   3.136  0.1829  0.3701 -0.1205
19946SOL    HW171492   2.502   7.222   3.037  2.5990  0.8772 -0.1496
19946SOL    HW271493   2.456   7.323   3.156 -1.7137 -0.4315 -0.6381
19947SOL     OW71494   3.891   0.340   1.263 -0.5630  0.3147  0.1938
19947SOL    HW171495   3.925   0.430   1.238 -1.7403 -0.0432 -2.8531
19947SOL    HW271496   3.813   0.350   1.326 -0.3112  1.3727  0.3464
19948SOL     OW71497   9.924   7.770   1.174 -0.0607  0.0671 -0.3711
19948SOL    HW171498   9.874   7.699   1.225  0.8599 -0.2645  0.0849
19948SOL    HW271499   9.960   7.730   1.089  0.4667 -0.0210 -0.1081
19949SOL     OW71500   4.653   0.032   3.597  0.2844 -0.4625  0.2463
19949SOL    HW171501   4.750   0.009   3.589  0.4451 -0.3709  1.7328
19949SOL    HW271502   4.607  -0.038   3.651 -0.1574  0.2742  0.8437
19950SOL     OW71503   9.415   2.812   2.642  0.0008  0.1871 -0.1337
19950SOL    HW171504   9.388   2.869   2.720  2.4830  0.7233  0.3973
19950SOL    HW271505   9.502   2.846   2.605  0.4513 -1.9885 -1.1491
19951SOL     OW71506   2.755   9.732   2.998 -0.3036  0.0781 -0.0265
19951SOL    HW171507   2.815   9.776   2.930 -3.2385  2.4450 -1.1706
19951SOL    HW271508   2.750   9.634   2.979  1.7887  0.1215 -0.9708
19952SOL     OW71509   1.433   9.657   1.998 -0.1571 -0.5155 -0.5755
19952SOL    HW171510   1.505   9.606   2.044  1.3757  1.0605 -1.2048
19952SOL    HW271511   1.433   9.752   2.030 -0.0522  0.2257 -2.7001
19953SOL     OW71512   0.400   6.906   8.095  0.8363  0.5433  0.2987
19953SOL    HW171513   0.300   6.909   8.082  0.7058  1.1332  1.4138
19953SOL    HW271514   0.442   6.860   8.017 -0.1910  1.4999 -0.8268
19954SOL     OW71515   1.226   2.400   2.688  0.0321  0.0358  0.0919
19954SOL    HW171516   1.132   2.370   2.702 -0.1821  0.1179 -1.1058
19954SOL    HW271517   1.225   2.495   2.658  0.5204  0.1145  0.3272
19955SOL     OW71518   7.816   5.462   5.487 -0.8614  0.8655  0.2719
19955SOL    HW171519   7.790   5.383   5.431  0.1267  0.6234  0.1424
19955SOL    HW271520   7.764   5.542   5.458 -0.7247  0.6262 -0.6624
19956SOL     OW71521   2.173   9.304   4.904  0.8763  0.6597 -0.1954
19956SOL    HW171522   2.260   9.337   4.867  1.5286 -1.1662 -0.3177
19956SOL    HW271523   2.188   9.266   4.995  0.2907 -0.0965 -0.4102
19957SOL     OW71524   2.891   8.517   4.331  0.1514  0.4135  0.5568
19957SOL    HW171525   2.883   8.450   4.404 -1.2215 -0.0729 -0.0244
19957SOL    HW271526   2.922   8.472   4.247 -4.5651 -0.3763 -0.9532
19958SOL     OW71527   7.624   0.858   7.196  0.5463 -0.3630 -0.5612
19958SOL    HW171528   7.582   0.913   7.269  1.1263 -0.8763  0.1723
19958SOL    HW271529   7.552   0.816   7.141  0.0847  2.2457 -2.0103
19959SOL     OW71530   3.804   8.326   7.883 -0.0057  0.7387 -0.4479
19959SOL    HW171531   3.705   8.313   7.872 -0.1726  0.0746  1.6168
19959SOL    HW271532   3.820   8.397   7.952  0.9424 -2.2491  2.5026
19960SOL     OW71533   9.173   3.288   2.463  0.2391  0.3643  0.1156
19960SOL    HW171534   9.219   3.318   2.547 -1.9965 -0.4775  1.6989
19960SOL    HW271535   9.193   3.192   2.447  1.4032  0.7587 -0.8401
19961SOL     OW71536   3.173   9.531   4.346 -0.3590 -0.0685 -0.2766
19961SOL    HW171537   3.215   9.469   4.280  0.1191 -0.4220  0.3490
19961SOL    HW271538   3.238   9.551   4.419 -1.0464 -0.1012  0.3576
19962SOL     OW71539   0.599   8.917   1.057  0.1514  0.4080  0.2087
19962SOL    HW171540   0.678   8.879   1.105  0.5327  0.2627 -0.5256
19962SOL    HW271541   0.527   8.848   1.050  0.9161 -0.2589 -1.2915
19963SOL     OW71542   3.233   7.206   0.648  0.1927  0.1120 -0.1238
19963SOL    HW171543   3.300   7.170   0.713  1.4460 -0.0382 -1.4897
19963SOL    HW271544   3.160   7.139   0.634  0.0377  0.0422  0.9100
19964SOL     OW71545   9.507   4.137   6.811 -0.2177  0.2186 -0.8768
19964SOL    HW171546   9.577   4.207   6.798 -0.5230  1.0341  1.5950
19964SOL    HW271547   9.420   4.169   6.775 -0.0904  0.6413 -0.8083
19965SOL     OW71548   9.269   0.239   4.290  0.2414  0.2400 -0.5771
19965SOL    HW171549   9.217   0.290   4.359  0.3208 -0.2722 -0.1368
19965SOL    HW271550   9.340   0.185   4.335  1.2580  1.0448 -1.1912
19966SOL     OW71551   1.797   9.328   3.900  0.1564 -0.3039  0.5956
19966SOL    HW171552   1.869   9.337   3.832  0.8388 -0.8606  1.2278
19966SOL    HW271553   1.816   9.249   3.959 -0.6669 -0.1185  1.1334
19967SOL     OW71554   7.271   9.549   4.870  0.3731 -0.3019  0.4925
19967SOL    HW171555   7.174   9.548   4.846  0.7283 -0.1970 -0.9591
19967SOL    HW271556   7.281   9.522   4.966 -1.1043 -0.0878  0.7229
19968SOL     OW71557   9.251   7.377   3.815  0.6203 -0.0382  0.4980
19968SOL    HW171558   9.206   7.414   3.734  0.6688  0.2371  0.5937
19968SOL    HW271559   9.220   7.427   3.896 -2.9596 -3.2865  1.2758
19969SOL     OW71560   4.574   9.432   2.461 -1.2724 -0.2071 -0.1907
19969SOL    HW171561   4.491   9.384   2.492 -1.0027  1.3146  3.0519
19969SOL    HW271562   4.654   9.381   2.490 -1.0306  0.1231 -0.2815
19970SOL     OW71563   3.788   0.873   3.863  0.0093  0.5503  0.1258
19970SOL    HW171564   3.831   0.888   3.952  1.9566 -0.6471 -0.5645
19970SOL    HW271565   3.840   0.921   3.793 -2.2943  2.5859 -0.2131
19971SOL     OW71566   6.951   8.019   5.077 -0.4270  0.0544 -0.3036
19971SOL    HW171567   7.010   7.951   5.032  0.5231  1.0357 -0.5500
19971SOL    HW271568   6.985   8.036   5.169 -0.3453  0.6019 -0.4362
19972SOL     OW71569   2.118   1.437   3.119  0.4126 -0.2625 -0.1750
19972SOL    HW171570   2.103   1.350   3.073 -1.1064  0.1188 -0.4423
19972SOL    HW271571   2.094   1.429   3.216 -0.4596  0.0575 -0.3627
19973SOL     OW71572   6.312   4.241   0.017  0.0607 -0.0049 -0.7705
19973SOL    HW171573   6.277   4.330  -0.012  0.0344 -0.1714 -1.2414
19973SOL    HW271574   6.322   4.181  -0.062  0.1173 -0.4106 -0.4580
19974SOL     OW71575   1.546   5.700   4.267  0.0955 -0.2526 -0.2987
19974SOL    HW171576   1.555   5.706   4.168  0.1913 -0.4869 -0.3044
19974SOL    HW271577   1.483   5.626   4.291 -0.4335  0.2138 -0.2039
19975SOL     OW71578   4.382   3.724   1.921 -0.1517  0.1024 -0.2396
19975SOL    HW171579   4.411   3.748   2.013  1.5628  0.1811 -0.7959
19975SOL    HW271580   4.339   3.633   1.922 -1.2255  0.6166  0.8280
19976SOL     OW71581   4.305   4.589   2.334  0.4260 -0.3997 -0.5220
19976SOL    HW171582   4.387   4.551   2.376  0.7941 -1.9133 -2.5605
19976SOL    HW271583   4.286   4.678   2.375  1.6600 -1.1200  1.7091
19977SOL     OW71584   4.951   3.883   5.422  0.1513 -0.5627 -0.1291
19977SOL    HW171585   4.879   3.950   5.437 -0.1717 -0.8164 -0.5189
19977SOL    HW271586   4.918   3.792   5.448  0.7398 -0.5116  0.8325
19978SOL     OW71587   0.870   5.694   7.181 -0.3312 -0.0987  0.2972
19978SOL    HW171588   0.941   5.726   7.118 -1.0066 -0.5614 -0.7064
19978SOL    HW271589   0.851   5.766   7.249 -0.1920  0.7256 -0.5268
19979SOL     OW71590   8.243   8.483   4.222  0.6945 -0.0086 -0.5120
19979SOL    HW171591   8.231   8.408   4.286  0.7136 -0.8932 -1.5371
19979SOL    HW271592   8.341   8.495   4.203  0.7714  0.9446  0.4333
19980SOL     OW71593   2.091   1.575   2.439  0.6631 -0.3619  0.1240
19980SOL    HW171594   2.088   1.522   2.524 -1.8898  0.0772  0.3380
19980SOL    HW271595   2.174   1.552   2.389  0.8429 -2.7013  1.4168
19981SOL     OW71596   3.029   5.877   6.375  0.3581 -0.7372  0.0399
19981SOL    HW171597   3.065   5.792   6.336  0.8357  0.0835 -1.3313
19981SOL    HW271598   3.058   5.885   6.470  0.3065 -2.1050  0.1812
19982SOL     OW71599   9.367   0.434   2.038  0.2866  0.2669 -0.4262
19982SOL    HW171600   9.415   0.437   1.949  2.9891  0.2442  0.9720
19982SOL    HW271601   9.359   0.339   2.068 -1.5171  0.2007 -1.0926
19983SOL     OW71602   0.563   4.187   4.079  0.5842  0.5786 -0.4267
19983SOL    HW171603   0.492   4.229   4.135 -1.1088 -2.3279 -0.2763
19983SOL    HW271604   0.592   4.251   4.008  0.0121  2.9020  1.3849
19984SOL     OW71605   2.076   8.998   1.888 -0.4939  0.1473  0.1052
19984SOL    HW171606   1.992   8.965   1.931  1.0568 -0.9594  2.4412
19984SOL    HW271607   2.138   9.031   1.959  1.1959  0.5764 -1.5437
19985SOL     OW71608   9.469   0.649   6.791 -0.8201 -0.1628  0.1282
19985SOL    HW171609   9.371   0.665   6.773 -0.7296  0.5432  0.2570
19985SOL    HW271610   9.518   0.735   6.783 -0.4645 -0.2080  1.8152
19986SOL     OW71611   7.763   6.543   3.841  0.1100  0.2169 -0.3891
19986SOL    HW171612   7.760   6.444   3.831 -0.8901  0.2253 -0.1975
19986SOL    HW271613   7.688   6.573   3.901 -1.1998  1.3354 -2.5245
19987SOL     OW71614   8.316   6.807   0.239 -0.4969 -1.0113 -1.5516
19987SOL    HW171615   8.359   6.811   0.329 -2.4315  1.7020 -0.6803
19987SOL    HW271616   8.293   6.712   0.217 -0.3959 -1.6623  1.0128
19988SOL     OW71617   6.425   1.090   6.772 -0.0284 -0.2715 -0.2599
19988SOL    HW171618   6.421   1.007   6.717  1.1864  0.3047 -1.2596
19988SOL    HW271619   6.361   1.158   6.734  0.3476 -0.0969 -0.5867
19989SOL     OW71620   0.635   2.610   0.551 -0.3915 -0.4196 -0.0001
19989SOL    HW171621   0.606   2.688   0.605  2.0609  2.1105 -2.1974
19989SOL    HW271622   0.590   2.612   0.462  0.8101 -0.6261 -0.6287
19990SOL     OW71623   2.195   7.400   0.500  0.0407 -0.2393  0.2669
19990SOL    HW171624   2.282   7.448   0.511 -0.2022  0.4789 -0.7973
19990SOL    HW271625   2.132   7.430   0.571  0.4539 -0.2775  0.6516
19991SOL     OW71626   4.951   8.083   1.632 -0.2215 -0.8822 -0.0241
19991SOL    HW171627   4.892   8.014   1.591  0.8829 -1.1976 -1.0973
19991SOL    HW271628   5.002   8.130   1.561  0.3157 -0.1366  0.8434
19992SOL     OW71629   5.859   1.518   1.556  0.1080  0.1763  0.0053
19992SOL    HW171630   5.759   1.508   1.552  0.1796 -0.9573  0.9118
19992SOL    HW271631   5.900   1.477   1.474  0.0882 -3.0700  1.5550
19993SOL     OW71632   3.422   4.906   1.241  0.3064  0.1726 -0.0975
19993SOL    HW171633   3.442   5.001   1.267 -1.6360  0.1035  1.7944
19993SOL    HW271634   3.501   4.848   1.262  1.6468  1.4051 -1.6080
19994SOL     OW71635   6.646   9.024   5.057  0.1203  0.5313  0.0131
19994SOL    HW171636   6.684   8.932   5.045  0.1665  0.3282  1.5122
19994SOL    HW271637   6.547   9.019   5.063  0.1768  0.4322  1.1003
19995SOL     OW71638   9.756   9.272   5.265 -0.2242 -0.4682  0.2643
19995SOL    HW171639   9.720   9.364   5.251  0.3047 -0.0975  1.2666
19995SOL    HW271640   9.845   9.263   5.219 -0.0176 -0.2913  0.6199
19996SOL     OW71641   6.273   0.443   4.909  0.2799 -0.3759  0.2813
19996SOL    HW171642   6.298   0.509   4.839 -1.4651  1.4145  1.3150
19996SOL    HW271643   6.319   0.465   4.994  1.6402 -1.9862 -0.0047
19997SOL     OW71644   3.893   2.707   3.501 -0.2722 -0.4493 -0.4769
19997SOL    HW171645   3.830   2.751   3.436 -2.1043 -2.0232  0.2207
19997SOL    HW271646   3.933   2.626   3.458  0.3283 -0.1771 -0.4457
19998SOL     OW71647   6.762   8.280   4.194  0.0125  0.1660 -0.0747
19998SOL    HW171648   6.689   8.216   4.219  1.7730 -1.6298  0.6860
19998SOL    HW271649   6.749   8.366   4.243 -2.6866  0.6250 -1.4956
19999SOL     OW71650   3.168   0.853   6.361  0.0491 -0.1464 -0.1253
19999SOL    HW171651   3.168   0.758   6.331  0.0695  0.0457 -0.7346
19999SOL    HW271652   3.263   0.882   6.377  0.0188 -0.3375  0.4164
20000SOL     OW71653   9.004   8.510   6.744  0.1959 -0.8193  0.2930
20000SOL    HW171654   9.104   8.519   6.744 -0.0475  3.1017 -2.1126
20000SOL    HW271655   8.971   8.513   6.649 -2.3178 -0.2123  1.1621
20001SOL     OW71656   6.429   9.219   4.089 -0.4706  0.2541  0.1978
20001SOL    HW171657   6.385   9.298   4.133  0.5204  0.0680  1.5554
20001SOL    HW271658   6.371   9.138   4.099 -0.2509  0.2126  1.1642
20002SOL     OW71659   9.735   3.232   6.732 -0.3336  0.0137 -0.3235
20002SOL    HW171660   9.670   3.169   6.774 -0.0588 -0.5594 -0.7542
20002SOL    HW271661   9.708   3.327   6.753 -2.0894 -0.1659 -1.6545
20003SOL     OW71662   3.437   2.208   4.638  0.5541  0.3184 -0.5449
20003SOL    HW171663   3.425   2.148   4.717 -0.4869  2.3734  0.8899
20003SOL    HW271664   3.376   2.179   4.564 -0.9594  0.4430  0.6391
20004SOL     OW71665   9.543   9.568   6.603 -0.2548  0.1696  0.1128
20004SOL    HW171666   9.577   9.637   6.540  0.9907 -1.0389 -0.5650
20004SOL    HW271667   9.597   9.570   6.687  0.8126 -1.0169 -0.5299
20005SOL     OW71668   9.923   0.250   0.472 -0.1315  0.4895 -0.2713
20005SOL    HW171669  10.006   0.306   0.477  0.9500 -0.9990 -0.9091
20005SOL    HW271670   9.900   0.233   0.377 -0.4048 -0.1891 -0.0863
20006SOL     OW71671   4.514   2.906   6.577  0.5183  0.0602  0.3589
20006SOL    HW171672   4.477   2.904   6.484  0.0913 -1.6156  0.5588
20006SOL    HW271673   4.610   2.934   6.573  0.1206  1.3811 -0.4417
20007SOL     OW71674   3.857   2.335   4.528  0.3452 -0.5187 -0.5667
20007SOL    HW171675   3.953   2.363   4.536  0.8744 -2.0453 -1.1736
20007SOL    HW271676   3.807   2.359   4.611  1.1726  0.5737 -0.3741
20008SOL     OW71677   8.488   6.074   7.751  0.7999  0.2958  0.1091
20008SOL    HW171678   8.457   6.146   7.812  1.8757  1.6453 -0.9175
20008SOL    HW271679   8.559   6.109   7.690  2.1162 -1.9136  0.3172
20009SOL     OW71680   7.828   7.260   4.442  0.0628 -0.1978 -0.0816
20009SOL    HW171681   7.736   7.221   4.450  1.0184 -2.3542  0.8457
20009SOL    HW271682   7.841   7.328   4.514 -0.2384 -1.0942  0.8360
20010SOL     OW71683   5.029   0.025   2.356  0.2500  0.3761 -0.2534
20010SOL    HW171684   5.022  -0.035   2.276  2.5706  1.0014 -0.9783
20010SOL    HW271685   5.126   0.039   2.378 -0.3599  0.3602  2.5736
20011SOL     OW71686   9.705   2.594   0.162  0.5236 -0.5239  0.1172
20011SOL    HW171687   9.664   2.545   0.239  0.8462  0.0432  0.6603
20011SOL    HW271688   9.755   2.674   0.197 -1.7279  1.3890 -0.9151
20012SOL     OW71689   2.452   8.169   4.696 -0.5553  0.0233  0.0434
20012SOL    HW171690   2.503   8.089   4.662  1.0221  0.8139  0.5054
20012SOL    HW271691   2.415   8.220   4.619  0.5073  0.1792 -0.3735
20013SOL     OW71692   7.958   7.380   2.142 -0.0146  0.3292  0.1332
20013SOL    HW171693   8.048   7.357   2.179 -0.9602 -0.7768  1.7928
20013SOL    HW271694   7.919   7.300   2.097 -0.8608  0.3157  0.8713
20014SOL     OW71695   9.885   0.465   5.937 -0.1791 -0.2004 -0.3358
20014SOL    HW171696   9.957   0.475   5.868 -1.1229  0.5046 -1.2193
20014SOL    HW271697   9.825   0.389   5.912 -0.3923 -0.0854 -0.1721
20015SOL     OW71698   0.003   0.326   7.563 -0.0293 -0.2028  0.3604
20015SOL    HW171699  -0.092   0.355   7.578  0.2093 -0.6134  2.8585
20015SOL    HW271700   0.065   0.392   7.603  0.7362 -0.3707 -0.5331
20016SOL     OW71701   3.595   5.766   1.333  0.1325 -0.7830 -0.2411
20016SOL    HW171702   3.694   5.758   1.322  0.2348  0.2257 -0.0844
20016SOL    HW271703   3.573   5.778   1.430 -0.1079 -0.6093 -0.3160
20017SOL     OW71704   5.460   8.579   4.815 -0.0641 -0.7600  0.0698
20017SOL    HW171705   5.369   8.538   4.805  0.3326 -1.7761  0.5786
20017SOL    HW271706   5.511   8.532   4.886  1.1612 -0.7196 -0.7555
20018SOL     OW71707   3.187   9.141   7.242 -0.1051 -0.2483  0.5583
20018SOL    HW171708   3.103   9.105   7.202  0.6920 -0.5194 -0.9390
20018SOL    HW271709   3.166   9.216   7.303 -1.3901  0.1475 -0.3527
20019SOL     OW71710   3.743   3.920   7.288  0.2861  0.3170 -0.1233
20019SOL    HW171711   3.824   3.978   7.293  0.0623  0.6642 -0.3890
20019SOL    HW271712   3.743   3.870   7.201  0.0325  0.6105 -0.2995
20020SOL     OW71713   1.020   9.318   4.535 -0.4816  0.4383  0.4844
20020SOL    HW171714   0.987   9.348   4.446  0.8311  0.6268  0.0532
20020SOL    HW271715   1.118   9.334   4.542 -0.3440 -0.7441  1.4921
20021SOL     OW71716   3.612   0.159   3.981  0.2085  0.1845 -0.3029
20021SOL    HW171717   3.586   0.064   3.960 -1.1430  0.1288  1.4841
20021SOL    HW271718   3.534   0.219   3.963  0.8212  0.8652 -0.6992
20022SOL     OW71719   2.553   5.626   1.994 -0.2909  0.1610  0.0726
20022SOL    HW171720   2.576   5.719   2.020  0.3111  0.0396 -0.0308
20022SOL    HW271721   2.467   5.627   1.942 -0.5812  0.5891  0.5477
20023SOL     OW71722   8.842   4.428   1.210 -0.3057 -0.0838  1.1523
20023SOL    HW171723   8.815   4.347   1.262 -0.8624 -0.7106 -0.1088
20023SOL    HW271724   8.859   4.504   1.273 -2.5759 -0.3602  2.1401
20024SOL     OW71725   3.369   1.195   2.934  0.5130 -0.2839  0.0146
20024SOL    HW171726   3.436   1.188   3.007  1.5582  1.9258 -0.6660
20024SOL    HW271727   3.368   1.289   2.899 -0.4903 -1.1018 -2.2917
20025SOL     OW71728   0.213   3.661   5.994 -0.1543 -0.3664  0.2642
20025SOL    HW171729   0.209   3.562   5.981  0.9652 -0.1913 -1.7547
20025SOL    HW271730   0.124   3.701   5.972 -0.0517 -0.7420 -0.9048
20026SOL     OW71731   8.611   0.174   5.767  0.1122 -0.2352  0.2093
20026SOL    HW171732   8.618   0.227   5.852 -0.3859 -1.2532  0.9026
20026SOL    HW271733   8.703   0.149   5.736  0.2841 -0.2314  0.7007
20027SOL     OW71734   1.656   6.938   5.802  0.6579  0.2050 -0.4847
20027SOL    HW171735   1.680   6.842   5.818  0.2786  0.4543  1.8332
20027SOL    HW271736   1.630   6.980   5.889  2.4400  2.8642 -1.1689
20028SOL     OW71737   1.052   7.068   0.884 -0.1501 -0.2807  0.5951
20028SOL    HW171738   1.122   7.009   0.923 -0.0560 -1.9111 -1.8985
20028SOL    HW271739   0.975   7.013   0.852 -1.9053  1.3434  1.9060
20029SOL     OW71740   7.568   2.676   7.260  0.0629 -0.7581  0.3462
20029SOL    HW171741   7.667   2.691   7.268  0.1370 -1.6795  1.1955
20029SOL    HW271742   7.520   2.743   7.316  0.3197 -2.1231  2.2616
20030SOL     OW71743   2.450   5.598   6.021  0.1027 -0.0753  0.2659
20030SOL    HW171744   2.398   5.557   6.096  0.3908 -0.1801  0.4095
20030SOL    HW271745   2.498   5.680   6.054 -0.0831  0.1038  0.0993
20031SOL     OW71746   1.181   8.157   5.716 -0.1884 -0.3256  0.2009
20031SOL    HW171747   1.161   8.067   5.676 -0.0218 -0.4230  0.3362
20031SOL    HW271748   1.197   8.222   5.642 -1.0838 -0.2246  0.0811
20032SOL     OW71749   5.141   8.932   3.803  0.1693 -0.1150  0.3986
20032SOL    HW171750   5.124   9.025   3.772  3.0067  0.2637 -0.1213
20032SOL    HW271751   5.094   8.868   3.742 -0.4650  0.9032 -0.2079
20033SOL     OW71752   3.037   0.717   6.833  0.1167  0.1041  0.3230
20033SOL    HW171753   2.970   0.775   6.788 -0.3434  0.7497  1.8181
20033SOL    HW271754   2.992   0.636   6.871  0.2937  0.2049  0.7478
20034SOL     OW71755   4.681   9.098   3.057  0.3828 -0.1137 -0.1588
20034SOL    HW171756   4.742   9.046   2.997  2.0903  1.3223  0.2854
20034SOL    HW271757   4.709   9.194   3.059 -0.2544  0.0691  2.1206
20035SOL     OW71758   7.760   6.627   4.655 -0.3158  0.0972 -0.2233
20035SOL    HW171759   7.731   6.705   4.710  0.7687  0.1049  0.3457
20035SOL    HW271760   7.760   6.545   4.711  1.6903  0.2662  0.0534
20036SOL     OW71761   5.582   1.443   6.543  0.1340 -0.3451 -0.0435
20036SOL    HW171762   5.555   1.468   6.450  0.5947 -0.4497 -0.2033
20036SOL    HW271763   5.666   1.390   6.541  0.6013  0.3583  0.4957
20037SOL     OW71764   8.743   7.002   0.012 -0.6975 -0.2225 -0.0877
20037SOL    HW171765   8.795   7.054  -0.055 -1.1219  2.1986  1.3972
20037SOL    HW271766   8.652   6.981  -0.025 -1.0306  1.3310 -0.2014
20038SOL     OW71767   3.041   2.788   4.884 -0.3335 -0.0180 -0.2681
20038SOL    HW171768   2.947   2.763   4.862 -0.7346  0.0569  1.3672
20038SOL    HW271769   3.077   2.726   4.954  0.1422  1.2383  0.6204
20039SOL     OW71770   3.475   4.287   0.550  0.3770  0.3128 -0.9333
20039SOL    HW171771   3.563   4.335   0.558  0.9297 -0.9705  0.7408
20039SOL    HW271772   3.413   4.320   0.621  0.9893 -1.9034  0.6714
20040SOL     OW71773   8.001   8.862   6.759  0.4967 -0.1384  0.5069
20040SOL    HW171774   7.951   8.848   6.845  0.3703  1.2661  0.6707
20040SOL    HW271775   8.064   8.786   6.745 -2.3316 -2.4323 -0.1643
20041SOL     OW71776   1.466   3.656   3.474 -0.4102 -0.8131  0.5853
20041SOL    HW171777   1.526   3.582   3.504  0.8673  0.7110  1.8907
20041SOL    HW271778   1.504   3.743   3.503 -1.8172  0.3777 -1.0795
20042SOL     OW71779   0.022   1.573   0.836 -0.4406 -0.1306 -0.3680
20042SOL    HW171780  -0.050   1.643   0.833 -0.1886  0.3260  2.4837
20042SOL    HW271781  -0.015   1.486   0.801 -2.2615  0.2218  0.5904
20043SOL     OW71782   1.283   7.967   0.218 -0.2383 -0.1499 -1.0437
20043SOL    HW171783   1.231   8.038   0.170  1.4386  1.8635  0.0007
20043SOL    HW271784   1.327   8.008   0.298  0.3656 -2.5168 -0.1432
20044SOL     OW71785   1.009   4.111   6.275  0.3789 -0.1117 -0.0983
20044SOL    HW171786   0.920   4.067   6.261 -0.1440  0.6616  0.7103
20044SOL    HW271787   0.997   4.210   6.278  1.0941 -0.0572  1.2106
20045SOL     OW71788   3.416   3.574   7.521  0.0991 -0.8441  0.3792
20045SOL    HW171789   3.324   3.603   7.549 -0.4866 -0.4341 -1.8873
20045SOL    HW271790   3.467   3.654   7.489  0.3125 -1.5091 -0.9386
20046SOL     OW71791   8.718   1.023   4.984  0.3837 -0.0750  0.4161
20046SOL    HW171792   8.757   1.032   4.892  0.4927  0.0956  0.4798
20046SOL    HW271793   8.715   1.113   5.028  1.3705 -0.3265  1.0129
20047SOL     OW71794   7.969   5.992   1.342  0.5733 -0.1950 -0.1804
20047SOL    HW171795   7.949   6.058   1.414  1.2719 -0.0334 -0.1340
20047SOL    HW271796   8.067   5.991   1.323  0.7762 -2.2440  0.8163
20048SOL     OW71797   9.009   7.703   4.981  0.6057 -0.1940  0.4123
20048SOL    HW171798   8.945   7.695   4.905  1.4590 -0.2553 -0.3188
20048SOL    HW271799   8.972   7.766   5.050  0.4455  0.9877 -0.7162
20049SOL     OW71800   8.058   0.311   0.403 -0.3961  0.4297  0.4141
20049SOL    HW171801   8.046   0.242   0.332 -1.1972  0.9860 -0.0028
20049SOL    HW271802   8.032   0.273   0.492 -0.9288  0.2188  0.1730
20050SOL     OW71803   6.540   8.133   4.248  0.2740 -0.5644  0.4580
20050SOL    HW171804   6.499   8.175   4.329 -0.5680 -0.8656  0.1969
20050SOL    HW271805   6.469   8.122   4.177  1.1988  0.5506 -0.6586
20051SOL     OW71806   9.019   4.770   3.639  0.4991  0.3977  0.2464
20051SOL    HW171807   9.005   4.825   3.721  0.3457  1.8237 -0.7169
20051SOL    HW271808   9.116   4.744   3.632  0.3047 -0.6920  1.4579
20052SOL     OW71809   9.028   8.068   1.627 -0.0343  0.1834 -0.1448
20052SOL    HW171810   9.035   7.969   1.639  1.0309  0.0455 -1.7164
20052SOL    HW271811   9.112   8.112   1.662  0.0838  0.3999 -0.6911
20053SOL     OW71812   3.478   7.772   5.337  0.5695  0.5936  0.1817
20053SOL    HW171813   3.518   7.685   5.366 -0.6461  0.6506  2.1634
20053SOL    HW271814   3.400   7.753   5.277 -0.4542  0.2275  1.5820
20054SOL     OW71815   2.949   0.695   4.339 -0.3319  0.3216  0.0625
20054SOL    HW171816   2.908   0.686   4.430 -1.1983  0.6859 -0.2872
20054SOL    HW271817   2.892   0.649   4.272  0.5732 -0.3755 -0.2274
20055SOL     OW71818   3.275   9.773   2.375  0.0907 -0.3809 -0.2759
20055SOL    HW171819   3.307   9.846   2.434 -0.8892 -1.5047  1.6873
20055SOL    HW271820   3.246   9.812   2.287 -0.7599  1.6400  0.8560
20056SOL     OW71821   5.568   8.121   6.804 -0.2845 -0.3148  0.2833
20056SOL    HW171822   5.599   8.044   6.747 -1.4616  1.1493 -2.4117
20056SOL    HW271823   5.518   8.085   6.883  2.3707 -2.4379  1.0892
20057SOL     OW71824   9.883   6.144   1.567 -0.3670 -0.4010 -0.2602
20057SOL    HW171825   9.955   6.198   1.524 -1.3447  0.0409 -1.3757
20057SOL    HW271826   9.923   6.063   1.611  1.0346  0.8741  0.8639
20058SOL     OW71827   1.813   8.615   4.428  0.4108  0.3521  0.3758
20058SOL    HW171828   1.874   8.650   4.498  0.5006 -1.8356  1.4490
20058SOL    HW271829   1.718   8.621   4.461  0.4730 -0.9053  0.8063
20059SOL     OW71830   1.171   5.221   8.023 -0.2017  0.5661 -0.1690
20059SOL    HW171831   1.214   5.247   8.110 -0.1730  0.8516 -0.2681
20059SOL    HW271832   1.172   5.299   7.961  1.4720 -0.1557 -1.1109
20060SOL     OW71833   4.635   7.139   3.827 -0.3475 -0.2454 -0.5860
20060SOL    HW171834   4.626   7.137   3.728  0.8074  0.5007 -0.7045
20060SOL    HW271835   4.709   7.201   3.854 -0.3262 -0.8064  0.7136
20061SOL     OW71836   3.526   4.090   7.708  0.0181 -0.6758  0.1005
20061SOL    HW171837   3.462   4.013   7.702 -2.2126  1.0908  0.7100
20061SOL    HW271838   3.493   4.156   7.775  1.0012  1.6585 -1.6534
20062SOL     OW71839   8.099   9.079   3.012 -0.4504 -0.4096  0.6320
20062SOL    HW171840   8.085   9.082   2.913  1.5569 -0.9037  0.3053
20062SOL    HW271841   8.062   9.162   3.053 -1.0227 -0.0548 -0.5672
20063SOL     OW71842   4.035   6.938   1.935 -0.1156  0.3176  0.4326
20063SOL    HW171843   4.078   6.886   2.009  0.3213  2.1867  1.5195
20063SOL    HW271844   4.083   7.025   1.923 -0.8875  0.5273 -1.3095
20064SOL     OW71845   3.641   4.698   3.146  0.1187  0.4192  0.1446
20064SOL    HW171846   3.575   4.640   3.097 -0.8395 -0.3856  2.3335
20064SOL    HW271847   3.708   4.640   3.191  1.9738  1.2219 -1.5148
20065SOL     OW71848   8.909   6.866   0.987  0.6790  0.1875 -0.0252
20065SOL    HW171849   8.970   6.855   0.909  0.7422 -0.9827  0.1803
20065SOL    HW271850   8.909   6.961   1.017  1.6200  0.3875 -0.6612
20066SOL     OW71851   1.702   4.238   6.995  0.3654 -0.3045 -0.0992
20066SOL    HW171852   1.638   4.167   6.967  1.4762 -0.4500 -2.3844
20066SOL    HW271853   1.770   4.253   6.922  0.5851  2.5928  0.6305
20067SOL     OW71854   1.009   5.124   4.678 -0.0886 -0.1046 -0.2435
20067SOL    HW171855   0.977   5.111   4.771 -0.1040 -1.2548 -0.3950
20067SOL    HW271856   1.050   5.215   4.668  0.0367 -0.0321  0.9113
20068SOL     OW71857   4.586   2.079   6.125  0.4983 -0.0577 -0.4454
20068SOL    HW171858   4.596   2.163   6.178  2.5397 -1.3361  1.3060
20068SOL    HW271859   4.671   2.059   6.078  0.3174 -1.5814 -0.1500
20069SOL     OW71860   2.760   7.272   6.268  0.1248 -0.0932 -0.2900
20069SOL    HW171861   2.751   7.228   6.179 -1.8471  0.7103 -0.5287
20069SOL    HW271862   2.807   7.359   6.257 -0.9053  0.4240 -0.7138
20070SOL     OW71863   4.905   6.601   2.551  0.0250  0.1923  0.2548
20070SOL    HW171864   4.858   6.665   2.491 -1.0927 -0.7533  0.1035
20070SOL    HW271865   4.838   6.540   2.595  0.9274  0.0689  1.5119
20071SOL     OW71866   8.043   9.663   5.573  0.5170  0.0557  0.5334
20071SOL    HW171867   8.050   9.761   5.588 -0.3748 -0.1541  2.4860
20071SOL    HW271868   8.087   9.614   5.648  3.2702 -1.0594 -1.7349
20072SOL     OW71869   0.263   4.265   7.332  0.0738 -0.4568 -0.4376
20072SOL    HW171870   0.230   4.334   7.397  0.2838 -0.6363 -0.1403
20072SOL    HW271871   0.271   4.177   7.379 -0.0501 -0.6488 -0.7812
20073SOL     OW71872   8.754   1.381   5.917  0.4258 -0.1188 -0.1635
20073SOL    HW171873   8.786   1.434   5.996 -0.5330  1.4244 -0.7793
20073SOL    HW271874   8.654   1.382   5.916  0.3072 -3.7924  1.0287
20074SOL     OW71875   4.851   9.326   1.441 -0.0247 -0.1113  0.4779
20074SOL    HW171876   4.751   9.326   1.438 -0.0076  0.6344 -0.5698
20074SOL    HW271877   4.884   9.232   1.444 -0.7494 -0.4022 -0.3081
20075SOL     OW71878   6.790   3.087   3.232 -0.1396  0.1895  0.3286
20075SOL    HW171879   6.835   3.154   3.173 -0.3194 -0.5453 -0.6439
20075SOL    HW271880   6.811   3.108   3.328  3.1783 -0.7888 -0.1400
20076SOL     OW71881   9.078   2.688   0.814 -0.3015  0.1827 -0.0324
20076SOL    HW171882   9.084   2.764   0.879  0.7922 -0.3123  0.4663
20076SOL    HW271883   9.020   2.714   0.737 -0.0322  1.4760  0.1904
20077SOL     OW71884   0.254   0.924   6.589 -0.1652  0.0196 -0.8436
20077SOL    HW171885   0.238   1.011   6.635 -1.5043  0.2625 -1.7383
20077SOL    HW271886   0.200   0.852   6.633 -0.3632 -0.0245 -1.1586
20078SOL     OW71887   4.209   2.568   7.231 -0.1599  0.3749  0.0849
20078SOL    HW171888   4.139   2.602   7.293 -1.5186 -0.2422 -1.0729
20078SOL    HW271889   4.204   2.619   7.145  1.1588  0.6690  0.1744
20079SOL     OW71890   1.031   6.209   4.181 -0.4721  0.7367  0.5541
20079SOL    HW171891   1.067   6.134   4.237  1.4430 -0.0222 -1.6049
20079SOL    HW271892   0.986   6.171   4.100  0.8569  1.8867 -0.7483
20080SOL     OW71893   3.802   1.083   0.446 -0.2299  0.0967 -0.5088
20080SOL    HW171894   3.858   1.160   0.415 -0.0511  0.7339  1.2896
20080SOL    HW271895   3.707   1.114   0.456 -0.3181 -0.1436 -0.6197
20081SOL     OW71896   3.053   3.137   0.401 -0.8895  0.1286  0.1803
20081SOL    HW171897   2.955   3.158   0.395 -0.8346  1.4453  2.7778
20081SOL    HW271898   3.106   3.218   0.376 -0.4331 -0.6354 -1.3914
20082SOL     OW71899   8.869   9.127   5.077 -0.8014  0.2247  0.1253
20082SOL    HW171900   8.796   9.065   5.049 -1.4555  0.7693  0.6272
20082SOL    HW271901   8.954   9.075   5.088 -0.2251  0.1874 -3.9532
20083SOL     OW71902   9.673   8.279   1.828 -0.5713 -0.3400  0.3632
20083SOL    HW171903   9.690   8.336   1.747 -2.0387 -0.6919 -0.2132
20083SOL    HW271904   9.756   8.272   1.882 -0.1033  1.5283 -0.0851
20084SOL     OW71905   8.465   0.217   4.506 -0.4562  0.3348  0.0582
20084SOL    HW171906   8.371   0.225   4.475 -0.7230  3.0400  1.4341
20084SOL    HW271907   8.467   0.168   4.594 -0.3892 -1.1674 -0.7652
20085SOL     OW71908   0.114   2.988   0.023 -0.1687  0.0308 -0.3779
20085SOL    HW171909   0.210   3.009   0.041 -0.3185  1.5355 -1.3005
20085SOL    HW271910   0.084   2.914   0.084  1.3712  0.0356  0.3978
20086SOL     OW71911   9.216   7.134   7.804  0.1263 -0.3081 -0.1585
20086SOL    HW171912   9.126   7.091   7.798  0.0562 -0.3050  0.7697
20086SOL    HW271913   9.232   7.190   7.723 -1.1276  0.4850  0.1224
20087SOL     OW71914   0.785   5.027   4.536 -0.2702 -0.0826 -0.3107
20087SOL    HW171915   0.863   5.047   4.596  0.5877 -2.5908 -0.4926
20087SOL    HW271916   0.709   4.993   4.591 -0.1231 -0.6297 -0.4391
20088SOL     OW71917   1.088   1.489   5.633 -0.6652 -0.4717 -0.0371
20088SOL    HW171918   1.152   1.438   5.691 -0.4173 -0.4222 -0.2672
20088SOL    HW271919   0.996   1.484   5.672 -0.5642 -0.7462  0.1643
20089SOL     OW71920   1.366   4.447   4.235  0.5371  0.1535 -0.5115
20089SOL    HW171921   1.305   4.525   4.218  1.0922  0.4826 -1.0102
20089SOL    HW271922   1.314   4.362   4.230 -0.1630  0.5134  0.4549
20090SOL     OW71923   1.948   7.412   3.427 -0.3096 -0.0168 -0.3152
20090SOL    HW171924   1.899   7.450   3.348  0.3222  0.4606 -0.4745
20090SOL    HW271925   2.016   7.346   3.396 -1.6865 -1.6294 -0.0166
20091SOL     OW71926   9.589   8.984   0.104 -0.2318 -0.3902  0.0832
20091SOL    HW171927   9.664   9.022   0.158  0.0914  0.4130 -0.9262
20091SOL    HW271928   9.509   9.044   0.111 -1.3812 -2.1407  2.5843
20092SOL     OW71929   1.645   2.912   4.927  0.4569  0.3610  0.6469
20092SOL    HW171930   1.671   2.817   4.943  2.2409  0.6791 -0.3119
20092SOL    HW271931   1.643   2.962   5.014 -1.5003 -0.7802  1.2877
20093SOL     OW71932   0.832   3.083   0.937  0.0488  0.3037  0.4073
20093SOL    HW171933   0.923   3.062   0.903  0.2858  0.4860  0.9316
20093SOL    HW271934   0.836   3.104   1.035 -0.4749  0.8267  0.3231
20094SOL     OW71935   3.196   8.945   4.576 -0.2201  0.0921  0.3346
20094SOL    HW171936   3.110   8.909   4.613 -1.4707  2.9772  0.3860
20094SOL    HW271937   3.239   9.005   4.644  1.5030 -0.7930  0.0503
20095SOL     OW71938   7.184   1.328   6.415  0.0465  0.3937  0.4619
20095SOL    HW171939   7.282   1.311   6.406 -0.0860 -0.4569  0.5195
20095SOL    HW271940   7.138   1.243   6.441 -0.5033  1.1646  2.0721
20096SOL     OW71941   3.761   5.361   2.555  0.3690 -0.2040  0.5904
20096SOL    HW171942   3.744   5.458   2.572 -0.7183 -0.9399  4.0368
20096SOL    HW271943   3.675   5.314   2.539  0.8625 -0.7051 -0.6822
20097SOL     OW71944   8.446   6.137   2.027 -0.0836 -0.0577 -0.0345
20097SOL    HW171945   8.412   6.053   2.069 -2.2875  0.6686 -0.3334
20097SOL    HW271946   8.493   6.114   1.942 -1.1579 -0.9587 -0.4010
20098SOL     OW71947   1.319   1.440   4.958  0.6519  0.1928  0.2796
20098SOL    HW171948   1.245   1.479   4.903  0.3778 -0.8926 -0.1406
20098SOL    HW271949   1.283   1.414   5.048  0.9013  1.1623  0.6659
20099SOL     OW71950   2.661   4.565   0.325  0.5103  0.6407 -0.0262
20099SOL    HW171951   2.705   4.501   0.388 -0.1734 -1.6720 -1.8219
20099SOL    HW271952   2.682   4.539   0.231 -2.7883  0.8406 -0.8848
20100SOL     OW71953   6.543   5.629   0.659 -0.5106 -0.3416  0.0204
20100SOL    HW171954   6.565   5.539   0.623  2.1662  0.0372  0.5376
20100SOL    HW271955   6.521   5.622   0.756 -1.0915 -0.5502 -0.1302
20101SOL     OW71956   0.481   5.570   3.873  0.3480 -0.2382 -0.0871
20101SOL    HW171957   0.551   5.505   3.843 -0.5882 -1.0849 -0.4489
20101SOL    HW271958   0.509   5.611   3.959 -0.2416 -3.0655  1.5117
20102SOL     OW71959   0.372   1.569   2.691 -0.2896  0.3287 -0.0685
20102SOL    HW171960   0.280   1.600   2.665 -0.0165  0.3088 -1.0566
20102SOL    HW271961   0.424   1.645   2.728 -0.5495  0.4367  0.0767
20103SOL     OW71962   2.471   6.244   1.500  0.1125  0.3225 -0.3820
20103SOL    HW171963   2.487   6.294   1.415  1.1305  0.2251 -0.2518
20103SOL    HW271964   2.448   6.149   1.478  0.8167  0.1856 -0.5345
20104SOL     OW71965   9.768   6.498   6.947  0.1449  0.1990 -0.0985
20104SOL    HW171966   9.816   6.576   6.986  1.5542 -0.9532  0.5390
20104SOL    HW271967   9.684   6.481   6.998  0.3053  0.7315  0.3459
20105SOL     OW71968   5.603   1.500   6.235 -0.0845 -0.5286 -0.3008
20105SOL    HW171969   5.686   1.551   6.259 -0.4689 -0.4922  0.9784
20105SOL    HW271970   5.623   1.402   6.232  0.3095 -0.4288 -1.3269
20106SOL     OW71971   6.834   9.237   5.497  0.3248  0.6380  0.2127
20106SOL    HW171972   6.768   9.279   5.558 -0.0034 -0.1410  0.4044
20106SOL    HW271973   6.879   9.161   5.543  1.3259  1.1373  0.0687
20107SOL     OW71974   1.318   6.436   1.428 -0.0362 -0.2651  0.0447
20107SOL    HW171975   1.339   6.409   1.334 -0.9778 -0.9598  0.0324
20107SOL    HW271976   1.358   6.370   1.492  0.6538  0.2390  0.1400
20108SOL     OW71977   3.933   7.602   2.708 -0.3249 -0.0657  0.2657
20108SOL    HW171978   3.853   7.550   2.740  0.2770 -0.3482  1.3350
20108SOL    HW271979   3.914   7.639   2.617 -2.1009  0.8148  0.9609
20109SOL     OW71980   7.990   9.084   4.295 -0.2282  0.5079  0.1069
20109SOL    HW171981   8.062   9.153   4.301  1.9221 -1.7637  1.6848
20109SOL    HW271982   7.945   9.075   4.384  1.1587 -1.7426  0.6341
20110SOL     OW71983   3.756   9.941   5.001  0.4860 -0.6388  0.4396
20110SOL    HW171984   3.693   9.987   4.938 -0.3462 -1.6829  0.4973
20110SOL    HW271985   3.849   9.972   4.983 -0.1889  2.0748  1.3667
20111SOL     OW71986   9.377   4.343   3.067 -0.3247  0.5383 -0.1894
20111SOL    HW171987   9.343   4.360   3.160 -1.0665 -1.8024  0.0006
20111SOL    HW271988   9.329   4.403   3.003 -0.3656  1.6212  0.8302
20112SOL     OW71989   9.689   1.764   6.892 -0.3833  0.7006 -0.5354
20112SOL    HW171990   9.625   1.823   6.940  0.3279  2.6925 -1.9959
20112SOL    HW271991   9.646   1.729   6.808 -0.8687 -1.0480  0.4134
20113SOL     OW71992   3.054   4.369   1.112  0.6587  0.2911  0.4596
20113SOL    HW171993   3.061   4.401   1.206  1.6844 -0.9112  0.8011
20113SOL    HW271994   3.039   4.270   1.111  0.1042  0.3669 -0.6353
20114SOL     OW71995   2.201   0.599   4.185 -0.2785  0.6144  0.4457
20114SOL    HW171996   2.209   0.500   4.198  2.7762  0.7265 -0.0413
20114SOL    HW271997   2.189   0.619   4.088 -0.1262  0.7478  0.4539
20115SOL     OW71998   2.072   2.547   3.869  0.5391 -0.2935 -0.3821
20115SOL    HW171999   2.000   2.610   3.895 -0.1330 -0.9730 -0.5705
20115SOL    HW272000   2.051   2.507   3.780  1.2584 -0.3338 -0.5390
20116SOL     OW72001   1.430   6.206   7.765 -0.1630 -0.2347 -0.6993
20116SOL    HW172002   1.364   6.140   7.728 -0.7137  0.2721 -0.6306
20116SOL    HW272003   1.381   6.278   7.813  0.5365 -0.8136  0.9261
20117SOL     OW72004   1.925   2.676   0.252 -0.5870  0.1106 -0.3345
20117SOL    HW172005   1.834   2.657   0.215 -0.4143  0.4675 -0.9427
20117SOL    HW272006   1.955   2.767   0.224 -1.4935  1.4325  2.7771
20118SOL     OW72007   0.476   5.646   7.665 -0.2184 -0.0268 -0.4331
20118SOL    HW172008   0.568   5.686   7.658 -0.4973  0.4283 -1.4730
20118SOL    HW272009   0.436   5.672   7.753  0.9538 -0.8821  0.3771
20119SOL     OW72010   0.229   0.369   6.827  0.2871  0.0085  0.5601
20119SOL    HW172011   0.300   0.323   6.776  0.1212  1.2181 -0.8015
20119SOL    HW272012   0.262   0.392   6.919  1.3382 -0.2145  0.2345
20120SOL     OW72013   3.576   2.961   7.738  0.0507 -0.3912  0.7280
20120SOL    HW172014   3.559   2.912   7.823 -0.6948  0.9419  1.3710
20120SOL    HW272015   3.506   2.937   7.670  1.9101 -3.1300 -0.2734
20121SOL     OW72016   8.029   0.223   3.728 -0.3691  0.7360 -0.0846
20121SOL    HW172017   8.079   0.138   3.742 -0.7982  0.1095 -2.0867
20121SOL    HW272018   8.073   0.277   3.656 -0.6944  1.7232  0.4378
20122SOL     OW72019   4.865   1.039   5.739 -0.2779 -0.2240  0.3579
20122SOL    HW172020   4.777   0.993   5.723 -1.2946  1.9172 -0.3384
20122SOL    HW272021   4.915   1.045   5.653 -0.8205  1.3355  0.1520
20123SOL     OW72022   2.718   4.347   7.094 -0.0514  0.2512 -0.1997
20123SOL    HW172023   2.776   4.296   7.030  0.4916 -0.0678  0.5472
20123SOL    HW272024   2.628   4.360   7.053  0.6829  1.1443 -1.5551
20124SOL     OW72025   1.748   4.745   1.667  0.5239  0.1436 -0.5735
20124SOL    HW172026   1.737   4.725   1.764  1.1480 -1.0662 -0.7478
20124SOL    HW272027   1.689   4.822   1.642  0.3931  0.4821  0.7666
20125SOL     OW72028   0.494   8.690   4.749  0.5396 -0.2452 -0.2137
20125SOL    HW172029   0.435   8.755   4.797  0.4325 -0.8084  0.4217
20125SOL    HW272030   0.560   8.740   4.693  1.3187  0.4524  1.2961
20126SOL     OW72031   1.674   3.558   7.539 -0.0373  0.0657 -0.1686
20126SOL    HW172032   1.767   3.560   7.501  1.3563 -0.9366  3.0372
20126SOL    HW272033   1.614   3.511   7.474  2.1348 -1.1168 -1.4080
20127SOL     OW72034   1.426   7.584   7.512  0.0380 -0.1625  0.5149
20127SOL    HW172035   1.340   7.615   7.470  0.1297  0.5920  0.8800
20127SOL    HW272036   1.461   7.655   7.573  0.2002 -1.0355  1.4464
20128SOL     OW72037   1.123   4.044   7.360 -0.0316 -0.1994  0.4159
20128SOL    HW172038   1.101   4.097   7.441 -1.7281  1.0703 -0.8460
20128SOL    HW272039   1.066   4.075   7.283  1.2511 -1.6423 -1.1505
20129SOL     OW72040   2.150   1.586   7.126 -0.5703 -0.1401  0.6585
20129SOL    HW172041   2.106   1.593   7.215 -2.3226  0.5131 -0.2203
20129SOL    HW272042   2.182   1.677   7.097  0.5600 -0.4602  0.9024
20130SOL     OW72043   1.384   3.734   4.257  0.0260  0.1476 -0.4223
20130SOL    HW172044   1.317   3.724   4.331 -0.2592 -1.7227 -0.9156
20130SOL    HW272045   1.337   3.745   4.170  0.3745  0.6639 -0.5520
20131SOL     OW72046   2.896   0.542   0.311 -0.0948  0.4193 -0.0253
20131SOL    HW172047   2.845   0.485   0.247  0.3359 -2.2114  1.8818
20131SOL    HW272048   2.992   0.543   0.285  0.3180 -1.7617  1.2740
20132SOL     OW72049   3.287   3.853   6.653  0.5102  0.5195  0.5328
20132SOL    HW172050   3.227   3.779   6.624  0.9430  0.0001  0.9657
20132SOL    HW272051   3.378   3.817   6.671  0.9134  1.2827  0.0259
20133SOL     OW72052   2.994   8.457   7.680 -0.4900  0.0523  0.1674
20133SOL    HW172053   2.934   8.469   7.759 -1.0264  1.0261 -0.3777
20133SOL    HW272054   3.088   8.447   7.710 -0.4444  2.3325  0.8299
20134SOL     OW72055   0.100   0.279   5.372 -0.1340 -0.3531  0.1621
20134SOL    HW172056   0.181   0.224   5.354 -1.4835 -2.0761 -0.8257
20134SOL    HW272057   0.127   0.368   5.409  2.0779 -1.8643  2.3791
20135SOL     OW72058   7.404   2.783   1.319 -0.1781  0.8021 -0.1437
20135SOL    HW172059   7.488   2.836   1.323 -0.0069  0.4891  0.4516
20135SOL    HW272060   7.375   2.758   1.412 -0.0225 -0.4940 -0.4250
20136SOL     OW72061   4.420   2.408   5.564 -0.0260 -0.0760 -0.0852
20136SOL    HW172062   4.390   2.334   5.505 -0.2665  0.0396 -0.1061
20136SOL    HW272063   4.484   2.467   5.514 -1.6338  1.0719 -0.8263
20137SOL     OW72064   8.148   4.450   6.481  0.0706  0.0902  0.1679
20137SOL    HW172065   8.068   4.421   6.532 -1.2016  1.3903 -1.0361
20137SOL    HW272066   8.121   4.479   6.389  1.9637  0.1649 -0.3945
20138SOL     OW72067   2.466   2.905   2.864  0.8296  0.3181  0.2923
20138SOL    HW172068   2.467   2.806   2.847 -2.3873  0.1954  0.4656
20138SOL    HW272069   2.530   2.926   2.938  1.1049 -1.7104  0.6735
20139SOL     OW72070   1.268   8.682   4.893 -0.0171  0.1212 -0.2283
20139SOL    HW172071   1.210   8.726   4.825  0.2754  1.1274  0.1744
20139SOL    HW272072   1.225   8.689   4.983  0.0245 -0.4278 -0.1618
20140SOL     OW72073   6.281   4.359   1.530 -0.0941 -0.0354  0.0225
20140SOL    HW172074   6.204   4.406   1.573 -0.2135  0.0466 -0.2813
20140SOL    HW272075   6.315   4.288   1.592  0.3269  0.6981  0.6373
20141SOL     OW72076   8.825   4.638   3.432  0.0038  0.3432 -0.4863
20141SOL    HW172077   8.884   4.692   3.492  1.0742 -0.2125 -1.0157
20141SOL    HW272078   8.734   4.679   3.428 -0.7966 -0.8830  3.3363
20142SOL     OW72079   9.666   0.559   7.383 -0.4668 -0.5155 -0.1202
20142SOL    HW172080   9.763   0.536   7.372 -0.7040 -1.3967 -0.4796
20142SOL    HW272081   9.619   0.544   7.296 -0.9679 -0.3329  0.1197
20143SOL     OW72082   6.327   0.286   3.378  0.0844  0.0229  0.1611
20143SOL    HW172083   6.299   0.356   3.443  1.5434  1.8814 -1.1934
20143SOL    HW272084   6.252   0.221   3.366 -1.6946  1.9375  0.6102
20144SOL     OW72085   2.773   0.014   7.682 -0.2612  0.0545  0.1382
20144SOL    HW172086   2.856   0.068   7.691 -1.4418  1.7825  0.9323
20144SOL    HW272087   2.760  -0.012   7.586  0.8690  0.2834 -0.0767
20145SOL     OW72088   2.042   8.679   0.813 -0.1521 -0.0421 -0.0593
20145SOL    HW172089   2.064   8.777   0.809 -1.0631  0.2956  2.3911
20145SOL    HW272090   1.975   8.663   0.885 -1.4377 -2.2347 -1.6664
20146SOL     OW72091   8.560   0.374   0.483 -0.6903  0.2335  0.2316
20146SOL    HW172092   8.518   0.363   0.392  1.2457  0.4657 -0.7206
20146SOL    HW272093   8.514   0.449   0.531 -0.8414  1.0287 -1.0970
20147SOL     OW72094   2.792   1.870   2.457 -0.7274  0.3242  0.7800
20147SOL    HW172095   2.859   1.846   2.387 -0.8726 -0.1065  0.7864
20147SOL    HW272096   2.816   1.958   2.498 -0.6726  0.6066  0.1500
20148SOL     OW72097   0.677   2.678   2.791 -0.2621  1.0390 -0.5965
20148SOL    HW172098   0.670   2.595   2.735 -0.1604 -0.6772  1.8718
20148SOL    HW272099   0.585   2.711   2.812 -0.3817 -0.1995  0.9116
20149SOL     OW72100   3.458   9.686   4.483  0.1756  0.0245  0.8028
20149SOL    HW172101   3.436   9.593   4.514  0.9086 -0.2676  0.4569
20149SOL    HW272102   3.447   9.750   4.559  0.0828 -0.4089  1.1543
20150SOL     OW72103   2.476   3.004   3.599 -0.2018 -0.5801 -0.8699
20150SOL    HW172104   2.516   2.914   3.616  0.2382 -0.0919  0.6815
20150SOL    HW272105   2.532   3.054   3.532 -0.8060 -1.6852 -2.2406
20151SOL     OW72106   6.498   8.914   5.397 -0.5109 -0.1364 -0.2707
20151SOL    HW172107   6.450   8.971   5.464  0.2468  1.2882 -0.9299
20151SOL    HW272108   6.581   8.961   5.367  0.3967 -1.8150 -0.4359
20152SOL     OW72109   5.019   6.710   1.172 -0.0909 -0.3689  0.2036
20152SOL    HW172110   4.985   6.804   1.178  0.2455 -0.2534  0.3390
20152SOL    HW272111   5.050   6.691   1.079  2.5492  0.6160  0.8279
20153SOL     OW72112   2.690   1.101   2.524  0.4619  0.6978 -0.5049
20153SOL    HW172113   2.602   1.113   2.571  0.1847 -1.1987 -0.4936
20153SOL    HW272114   2.736   1.020   2.561  0.5557 -0.4240 -3.0032
20154SOL     OW72115   9.068   6.911   0.754  0.3449 -0.6077  0.0520
20154SOL    HW172116   9.013   6.858   0.690  0.0496 -0.3618  0.1020
20154SOL    HW272117   9.160   6.873   0.759  0.1456 -1.0927  0.0535
20155SOL     OW72118   3.334   2.696   7.501 -0.9342  0.4807  0.2037
20155SOL    HW172119   3.434   2.694   7.499 -0.8413  4.1842 -0.6218
20155SOL    HW272120   3.299   2.666   7.413 -0.4927  1.8352 -0.4369
20156SOL     OW72121   0.559   2.274   0.537  0.0352 -0.2372  0.5517
20156SOL    HW172122   0.498   2.335   0.485  2.3644  2.1233  0.4710
20156SOL    HW272123   0.541   2.285   0.635 -0.6829 -0.6812  0.4743
20157SOL     OW72124   9.551   5.182   6.689 -0.1172 -0.2951  0.4584
20157SOL    HW172125   9.517   5.122   6.617  2.7659 -1.5229  0.0376
20157SOL    HW272126   9.586   5.267   6.649 -1.9911  0.6650  0.8176
20158SOL     OW72127   2.365   1.942   7.617 -0.7659 -0.4002 -0.0436
20158SOL    HW172128   2.405   2.029   7.586 -1.6901 -0.7863 -2.4190
20158SOL    HW272129   2.384   1.930   7.714  2.5351  0.7172 -0.4840
20159SOL     OW72130   3.031   3.037   3.909  0.3989 -0.1203  0.0077
20159SOL    HW172131   3.030   2.939   3.930  2.7140 -0.4792 -1.4651
20159SOL    HW272132   2.978   3.055   3.826  2.0305 -0.4790 -1.1243
20160SOL     OW72133   9.507   8.102   7.230 -0.4134  0.7733 -0.4794
20160SOL    HW172134   9.455   8.155   7.297 -0.0672  1.4461 -0.7349
20160SOL    HW272135   9.520   8.157   7.147 -0.5061  0.0891 -0.9517
20161SOL     OW72136   1.645   2.865   6.281 -0.1214 -0.1466  0.5006
20161SOL    HW172137   1.642   2.799   6.206 -1.0098  0.9391 -0.4334
20161SOL    HW272138   1.696   2.946   6.252  0.7263 -0.2856  1.5493
20162SOL     OW72139   5.357   6.170   1.836 -0.8467  0.2368 -0.0686
20162SOL    HW172140   5.381   6.267   1.838  0.2443 -0.0033 -1.2221
20162SOL    HW272141   5.435   6.115   1.864 -1.3300 -0.3414  0.1745
20163SOL     OW72142   8.499   2.250   5.122  0.3517 -0.5082 -0.0140
20163SOL    HW172143   8.420   2.232   5.180  1.2010  1.0675  1.6969
20163SOL    HW272144   8.479   2.326   5.060  0.4854 -0.1761  0.3484
20164SOL     OW72145   7.068   9.540   2.151  0.0008  0.4442 -0.2592
20164SOL    HW172146   7.116   9.610   2.205  0.8910 -0.2673 -0.1028
20164SOL    HW272147   7.121   9.520   2.068 -0.0718 -0.2703 -0.1389
20165SOL     OW72148   1.334   4.876   8.080  0.6719 -0.1434  0.1193
20165SOL    HW172149   1.335   4.778   8.103  1.0056 -0.6055 -1.8183
20165SOL    HW272150   1.264   4.922   8.135 -0.9738 -1.8683 -0.4798
20166SOL     OW72151   5.846   0.457   4.676 -0.0737 -0.0594 -0.1654
20166SOL    HW172152   5.911   0.399   4.724  0.4686  1.4834  0.9971
20166SOL    HW272153   5.753   0.425   4.695  0.2307 -0.7196  0.2330
20167SOL     OW72154   9.263   4.423   1.339  0.7950 -0.3528  0.4478
20167SOL    HW172155   9.214   4.361   1.278  2.3717  0.0198 -1.2636
20167SOL    HW272156   9.269   4.383   1.430 -2.0023 -0.7226  0.5136
20168SOL     OW72157   1.689   6.968   7.856  0.0664  0.4277 -0.6686
20168SOL    HW172158   1.703   6.901   7.930 -0.8231  2.3875  1.3275
20168SOL    HW272159   1.714   6.926   7.769 -0.5329 -2.5469  0.5144
20169SOL     OW72160   6.616   1.250   5.121  0.0183  0.0772  0.3813
20169SOL    HW172161   6.605   1.307   5.040  3.8210 -0.1126 -0.3734
20169SOL    HW272162   6.602   1.154   5.096  1.6222 -0.0219 -0.1827
20170SOL     OW72163   1.294   9.543   2.233  0.2750 -0.3538  0.5843
20170SOL    HW172164   1.305   9.636   2.267 -1.8200 -0.9512  3.0232
20170SOL    HW272165   1.377   9.515   2.184  0.7264  2.9514 -0.6524
20171SOL     OW72166   6.467   3.387   8.136 -0.0526 -0.8125 -0.1670
20171SOL    HW172167   6.388   3.359   8.082 -0.9576  0.1034  0.6676
20171SOL    HW272168   6.437   3.443   8.213  1.3522 -0.9606  0.5094
20172SOL     OW72169   3.173   5.644   4.628 -0.3089 -0.6724 -0.0582
20172SOL    HW172170   3.160   5.688   4.716  0.3599 -0.8800  0.1506
20172SOL    HW272171   3.218   5.708   4.565  0.5816 -1.0149  0.2183
20173SOL     OW72172   9.808   7.120   0.392  0.1767 -0.0012  0.3773
20173SOL    HW172173   9.723   7.173   0.396 -0.4061 -0.6170 -2.5856
20173SOL    HW272174   9.882   7.174   0.433 -0.9840  1.9133  0.0479
20174SOL     OW72175   8.918   2.673   6.555  0.1126  0.0745  0.0297
20174SOL    HW172176   8.869   2.748   6.598 -0.7204 -0.5603  0.2026
20174SOL    HW272177   8.857   2.626   6.490  0.9167  0.1399 -0.7821
20175SOL     OW72178   6.431   9.947   4.556  0.0093  0.1535 -0.0840
20175SOL    HW172179   6.518   9.914   4.593 -0.0942  1.1615  1.0604
20175SOL    HW272180   6.379   9.869   4.520 -0.4262 -1.0508  2.9605
20176SOL     OW72181   5.444   1.092   4.141  0.4907  0.4120 -0.4729
20176SOL    HW172182   5.492   1.029   4.202 -0.2622 -0.3578 -0.6668
20176SOL    HW272183   5.483   1.087   4.049 -0.5603 -0.9091 -0.8587
20177SOL     OW72184   1.432   5.798   2.685  0.1417 -0.8317 -0.5735
20177SOL    HW172185   1.354   5.828   2.632 -0.3503  0.7736  1.0224
20177SOL    HW272186   1.509   5.860   2.670  0.2552 -0.8460 -0.0671
20178SOL     OW72187   2.042   7.256   5.508 -0.6738  0.1465 -0.4207
20178SOL    HW172188   1.999   7.251   5.598 -0.5895  0.6536 -0.3535
20178SOL    HW272189   1.981   7.303   5.445 -1.3112 -1.3677 -0.9704
20179SOL     OW72190   2.075   9.829   5.196 -0.5926  0.8345  0.7504
20179SOL    HW172191   2.077   9.748   5.138 -0.4175 -0.2551  2.2661
20179SOL    HW272192   2.071   9.911   5.138 -1.5264 -0.2650 -0.7795
20180SOL     OW72193   6.167   9.593   6.336 -0.0946 -0.3716  0.2695
20180SOL    HW172194   6.110   9.675   6.327  0.4620 -0.1978 -1.8651
20180SOL    HW272195   6.263   9.617   6.319  0.3016 -1.1524  1.3287
20181SOL     OW72196   9.624   4.379   7.790  0.1675 -0.1178 -0.0640
20181SOL    HW172197   9.539   4.338   7.758  0.2746 -0.7282  0.4270
20181SOL    HW272198   9.623   4.386   7.889  0.6942 -0.1424 -0.0545
20182SOL     OW72199   5.161   7.945   4.592 -0.5243  0.0118  0.1485
20182SOL    HW172200   5.245   7.994   4.616 -0.9345  0.8910 -0.1739
20182SOL    HW272201   5.182   7.850   4.572  0.3060  0.0743  0.6866
20183SOL     OW72202   8.703   0.302   8.144  0.0486  0.6887  0.4426
20183SOL    HW172203   8.721   0.258   8.232  0.6339 -0.8977 -0.4467
20183SOL    HW272204   8.766   0.266   8.076  0.7546  3.1528 -0.2655
20184SOL     OW72205   5.775   0.652   2.695 -0.7641  0.5265 -0.4115
20184SOL    HW172206   5.784   0.678   2.791 -2.6032  0.1208 -0.0965
20184SOL    HW272207   5.678   0.648   2.671 -0.4454 -2.5951 -1.3819
20185SOL     OW72208   7.571   9.601   4.594  0.0898 -1.0277 -0.7862
20185SOL    HW172209   7.612   9.574   4.507  1.1891 -1.2253 -0.2232
20185SOL    HW272210   7.509   9.530   4.627 -1.7150 -0.1785 -2.2698
20186SOL     OW72211   8.710   1.825   2.431 -0.1863  0.6099 -0.8432
20186SOL    HW172212   8.648   1.779   2.367  0.2187 -0.0871 -0.7354
20186SOL    HW272213   8.674   1.917   2.451 -0.9059  0.4118 -1.1907
20187SOL     OW72214   2.432   6.010   1.976 -0.1531  0.1899 -0.0743
20187SOL    HW172215   2.504   5.952   1.937  0.9553  1.5957 -0.1584
20187SOL    HW272216   2.379   6.051   1.902  0.0308  0.4882 -0.0388
20188SOL     OW72217   7.854   3.245   4.554  0.3690  0.4454 -0.4630
20188SOL    HW172218   7.918   3.172   4.573 -0.1985  0.0825  0.1051
20188SOL    HW272219   7.770   3.207   4.516 -0.7242  0.5388  1.7298
20189SOL     OW72220   6.090   1.402   4.867 -0.1999  0.3989 -0.3455
20189SOL    HW172221   6.040   1.368   4.947  1.7849 -0.0905  0.7326
20189SOL    HW272222   6.026   1.427   4.795 -1.9819 -0.0327  1.0648
20190SOL     OW72223   2.580   1.705   2.210  0.0043  0.0966 -0.2746
20190SOL    HW172224   2.567   1.647   2.289 -0.9830 -0.0166 -0.5168
20190SOL    HW272225   2.568   1.652   2.126 -1.6933  0.8033 -0.5006
20191SOL     OW72226   0.865   0.061   7.794 -0.0009 -0.1032 -0.5927
20191SOL    HW172227   0.812  -0.024   7.795  1.1448 -0.8167 -0.1242
20191SOL    HW272228   0.913   0.069   7.706 -0.2229  0.1349 -0.6934
20192SOL     OW72229   7.470   3.764   7.834 -0.0148  0.3730  0.1295
20192SOL    HW172230   7.441   3.829   7.764 -2.2630 -0.1133  0.5734
20192SOL    HW272231   7.510   3.814   7.911 -0.6591  1.1407 -0.0261
20193SOL     OW72232   1.973   9.351   5.899 -0.7128 -0.1827 -0.0779
20193SOL    HW172233   2.040   9.425   5.899 -0.1042 -0.7433  0.5629
20193SOL    HW272234   1.890   9.381   5.946  0.7640 -1.0297  3.1551
20194SOL     OW72235   7.661   4.799   2.291  0.3319  0.1408 -0.2611
20194SOL    HW172236   7.731   4.844   2.346  2.0366 -0.4400 -1.8785
20194SOL    HW272237   7.578   4.786   2.345  1.2403  1.4637  1.4807
20195SOL     OW72238   4.758   0.162   7.709 -0.1651 -0.0029  0.2188
20195SOL    HW172239   4.830   0.180   7.643  1.3964  0.9785  2.1574
20195SOL    HW272240   4.764   0.067   7.740 -0.3556 -0.2124 -0.3769
20196SOL     OW72241   8.545   0.153   2.485 -1.0264  0.6610  0.7603
20196SOL    HW172242   8.528   0.115   2.394 -0.6807  1.7468  0.2318
20196SOL    HW272243   8.458   0.166   2.533 -1.3546  1.8764 -0.1511
20197SOL     OW72244   3.748   0.198   4.240  0.1030  0.2417 -0.6497
20197SOL    HW172245   3.718   0.241   4.155  0.9758 -2.0583 -2.1664
20197SOL    HW272246   3.677   0.135   4.273  0.5679 -0.3175 -0.7160
20198SOL     OW72247   1.619   6.343   7.464 -0.3933  0.2311 -0.4596
20198SOL    HW172248   1.692   6.285   7.428 -2.9558 -1.8018 -2.6364
20198SOL    HW272249   1.614   6.333   7.563 -0.4352 -2.9084 -0.7463
20199SOL     OW72250   3.192   2.111   0.130 -0.3284  0.1172  0.4331
20199SOL    HW172251   3.183   2.209   0.111 -0.2983  0.2530  1.0751
20199SOL    HW272252   3.238   2.099   0.218 -0.6405 -0.4708  0.5202
20200SOL     OW72253   7.205   7.377   3.474 -0.2485  0.5336 -0.4626
20200SOL    HW172254   7.206   7.277   3.474 -1.1610  0.5227  0.0821
20200SOL    HW272255   7.167   7.410   3.560 -0.7307  1.3442 -0.9812
20201SOL     OW72256   8.107   6.111   5.319 -0.2222 -0.3479 -0.0667
20201SOL    HW172257   8.149   6.038   5.265  1.1835 -0.5636  1.2910
20201SOL    HW272258   8.136   6.200   5.283 -0.2817 -0.4772 -0.4374
20202SOL     OW72259   4.488   7.882   3.487  0.3987  0.0696  0.1384
20202SOL    HW172260   4.447   7.965   3.451  2.2006  1.2863  0.8227
20202SOL    HW272261   4.509   7.819   3.412 -0.3350  0.5149 -0.4440
20203SOL     OW72262   1.914   9.773   3.991 -0.1524 -0.3134  0.0406
20203SOL    HW172263   1.932   9.719   3.909 -1.0120 -0.1697 -0.2569
20203SOL    HW272264   2.000   9.795   4.037  0.3616 -0.1379 -0.9877
20204SOL     OW72265   8.320   1.569   6.999 -0.7961  1.0792 -0.4483
20204SOL    HW172266   8.225   1.543   7.013 -0.6304 -0.3058 -1.7300
20204SOL    HW272267   8.329   1.669   7.002 -2.0780  1.1696  0.8090
20205SOL     OW72268   6.006   0.984   4.717 -0.1343 -0.5465  0.3986
20205SOL    HW172269   6.019   0.886   4.733  0.8614 -0.5170 -0.1918
20205SOL    HW272270   5.969   1.027   4.800  1.6325 -1.0240  1.4642
20206SOL     OW72271   7.777   7.204   2.004  0.4578  0.1476  0.5431
20206SOL    HW172272   7.801   7.118   1.958  0.5455  0.5534 -0.1648
20206SOL    HW272273   7.689   7.236   1.971  0.3342  0.2343  0.9532
20207SOL     OW72274   0.702   0.950   6.444 -0.1745 -0.2846 -0.2429
20207SOL    HW172275   0.670   1.039   6.412  1.4646 -0.3486 -2.1923
20207SOL    HW272276   0.623   0.890   6.459 -1.2144  1.0373 -0.2838
20208SOL     OW72277   6.012   9.177   4.923  0.0697 -0.1723 -0.2711
20208SOL    HW172278   6.027   9.079   4.936 -2.6914 -0.6574 -0.4729
20208SOL    HW272279   6.074   9.228   4.982  0.0599 -2.0670  1.4531
20209SOL     OW72280   4.787   0.830   1.586 -0.2027  0.3245 -0.2070
20209SOL    HW172281   4.705   0.789   1.626  0.6812 -1.2656  0.0305
20209SOL    HW272282   4.868   0.790   1.629  0.7295  0.5165 -1.7667
20210SOL     OW72283   7.053   1.166   0.311 -0.6423  0.7628  0.3857
20210SOL    HW172284   6.979   1.136   0.251  0.4692 -0.1518 -0.5524
20210SOL    HW272285   7.100   1.244   0.270  0.1117  0.1441  0.0536
20211SOL     OW72286   9.965   7.260   7.284 -0.2590  0.1368  0.1935
20211SOL    HW172287   9.958   7.243   7.186  0.1853  0.5585  0.0835
20211SOL    HW272288  10.045   7.318   7.302 -0.4542  0.2279  0.7812
20212SOL     OW72289   2.619   0.876   4.643  0.3086  0.2729 -0.0014
20212SOL    HW172290   2.553   0.909   4.576  0.8330  2.1293  0.3659
20212SOL    HW272291   2.711   0.875   4.602  0.3501 -0.3988  0.1022
20213SOL     OW72292   9.061   6.308   1.244 -0.5944 -0.1333 -0.6856
20213SOL    HW172293   9.126   6.380   1.265  0.4928 -0.8690 -1.4577
20213SOL    HW272294   9.108   6.234   1.196 -2.5589  0.5629 -3.7829
20214SOL     OW72295   0.754   6.038   0.206  0.4029  0.3871 -0.2672
20214SOL    HW172296   0.683   6.082   0.151  0.3255 -0.2859 -0.7159
20214SOL    HW272297   0.832   6.100   0.216  0.5558  0.3861 -1.4209
20215SOL     OW72298   9.967   3.882   4.740  0.1040 -0.3371 -0.0001
20215SOL    HW172299   9.979   3.813   4.669  1.5206  0.4830 -0.5851
20215SOL    HW272300  10.001   3.971   4.707  1.3614 -0.0672  1.8785
20216SOL     OW72301   4.197   5.820   1.489  0.0115  0.2327  0.5076
20216SOL    HW172302   4.268   5.866   1.434  0.9188 -0.3658  1.1720
20216SOL    HW272303   4.200   5.856   1.582 -0.9693  0.6409  0.3820
20217SOL     OW72304   0.257   3.398   2.092  0.1125  0.3575  0.1777
20217SOL    HW172305   0.343   3.428   2.133  0.5815 -0.0746 -0.4671
20217SOL    HW272306   0.208   3.340   2.156  2.1205 -2.5827 -0.8111
20218SOL     OW72307   7.664   8.801   5.471  0.4851 -0.7108 -0.1473
20218SOL    HW172308   7.672   8.737   5.395  2.1925  0.0540 -0.6331
20218SOL    HW272309   7.717   8.768   5.549  0.9699 -0.1507 -0.2343
20219SOL     OW72310   2.199   7.598   3.441 -0.5834 -0.3617 -0.3109
20219SOL    HW172311   2.198   7.669   3.511 -1.0849 -1.0488  0.3864
20219SOL    HW272312   2.121   7.536   3.455 -1.0566 -0.1378 -1.8509
20220SOL     OW72313   1.291   4.370   1.306 -0.5626 -0.4702  0.0980
20220SOL    HW172314   1.282   4.407   1.398  0.1478 -0.6414  0.2432
20220SOL    HW272315   1.212   4.396   1.251 -0.5047  0.4907  0.4594
20221SOL     OW72316   7.942   1.666   1.355 -0.3037  0.3555 -0.0273
20221SOL    HW172317   7.968   1.692   1.448  0.1354 -0.0772 -0.0279
20221SOL    HW272318   7.847   1.695   1.338 -0.3968  0.4081  0.5615
20222SOL     OW72319   1.515   6.192   3.763  0.0895 -0.2374 -0.5451
20222SOL    HW172320   1.475   6.195   3.671 -1.0105 -1.6984 -0.1346
20222SOL    HW272321   1.526   6.285   3.798 -1.3599  0.2541 -1.3688
20223SOL     OW72322   2.277   7.481   3.983 -0.0489  0.2582 -0.3603
20223SOL    HW172323   2.352   7.419   3.962  0.0186  0.5736 -1.0539
20223SOL    HW272324   2.220   7.441   4.055 -0.0458 -0.6332 -0.8474
20224SOL     OW72325   0.781   4.994   6.517 -0.3176 -0.3680 -0.4770
20224SOL    HW172326   0.821   5.002   6.426 -0.7036 -1.2078 -0.7292
20224SOL    HW272327   0.837   4.933   6.574 -0.7153 -0.7924 -0.5344
20225SOL     OW72328   6.946   2.990   4.634 -0.3902 -0.1911  0.1616
20225SOL    HW172329   6.968   3.088   4.639  2.7369 -0.9000  1.4842
20225SOL    HW272330   6.931   2.964   4.538 -0.2675  1.3767 -0.2958
20226SOL     OW72331   8.128   9.467   7.298  0.1267  0.3249 -0.5020
20226SOL    HW172332   8.123   9.367   7.297 -1.6229  0.4013 -0.9583
20226SOL    HW272333   8.143   9.501   7.205  0.4207  0.5144 -0.3881
20227SOL     OW72334   0.612   5.810   4.995 -0.1492 -0.1035  0.2897
20227SOL    HW172335   0.637   5.820   4.898 -1.2960  0.5203  0.0531
20227SOL    HW272336   0.615   5.714   5.020 -0.3275 -0.3174 -0.4978
20228SOL     OW72337   3.474   1.498   0.419 -0.2641 -0.3637 -0.0261
20228SOL    HW172338   3.527   1.446   0.352  0.4851 -1.3961  1.3439
20228SOL    HW272339   3.438   1.581   0.376  0.1687 -1.0278 -1.7096
20229SOL     OW72340   3.420   7.730   3.797  0.5717 -0.1698 -0.6578
20229SOL    HW172341   3.452   7.736   3.892  0.6833  1.6300 -0.7802
20229SOL    HW272342   3.320   7.720   3.796  0.7093 -1.7100 -0.3425
20230SOL     OW72343   6.126   9.721   2.899  0.4916 -0.4158 -0.4724
20230SOL    HW172344   6.089   9.709   2.806  0.5554 -0.6157 -0.4721
20230SOL    HW272345   6.172   9.809   2.904  0.3488 -0.3347 -0.5847
20231SOL     OW72346   4.654   7.826   4.505  0.2354  0.7599  0.2698
20231SOL    HW172347   4.593   7.766   4.453 -1.3316  2.2945  0.2775
20231SOL    HW272348   4.670   7.787   4.596 -2.0517  1.0780  0.8519
20232SOL     OW72349   7.894   4.580   2.444 -0.5544 -0.0552  0.0110
20232SOL    HW172350   7.959   4.528   2.499 -1.8226 -1.4536  0.1880
20232SOL    HW272351   7.914   4.678   2.454  1.1067 -0.4334  0.5707
20233SOL     OW72352   1.367   4.366   2.521  0.1535  0.4776  0.1094
20233SOL    HW172353   1.432   4.340   2.593  1.1142  0.9461 -0.5676
20233SOL    HW272354   1.298   4.427   2.559  1.2454  1.5333  0.4303
20234SOL     OW72355   4.170   3.471   5.623 -0.2987 -0.1569 -0.0476
20234SOL    HW172356   4.174   3.371   5.613 -0.6205 -0.0867 -0.9254
20234SOL    HW272357   4.159   3.513   5.533  1.2447  0.7604  0.1768
20235SOL     OW72358   9.484   7.133   8.070  0.0300 -0.1862  0.4888
20235SOL    HW172359   9.398   7.083   8.080 -0.5144  0.7547  0.5644
20235SOL    HW272360   9.504   7.147   7.973  0.1220 -0.4278  0.4704
20236SOL     OW72361   2.959   3.615   4.376 -0.4367 -0.2128  0.2761
20236SOL    HW172362   2.991   3.568   4.294 -1.5909 -0.8422  0.1855
20236SOL    HW272363   2.927   3.706   4.352 -0.8259 -0.4181  0.0254
20237SOL     OW72364   9.100   0.022   8.140  0.0560  0.4367  0.5667
20237SOL    HW172365   9.123  -0.047   8.072  0.0885  0.2931  0.7266
20237SOL    HW272366   9.033   0.085   8.101 -0.5595 -0.1405  0.6941
20238SOL     OW72367   1.444   1.481   0.750 -0.7263 -0.0287 -0.0327
20238SOL    HW172368   1.532   1.440   0.726 -0.4787 -0.2350  1.1699
20238SOL    HW272369   1.399   1.517   0.668 -0.4048 -1.6611 -0.9356
20239SOL     OW72370   4.330   0.143   5.173 -0.2763  0.2336  0.3250
20239SOL    HW172371   4.351   0.200   5.094 -0.3368  1.4823  1.2038
20239SOL    HW272372   4.237   0.162   5.205 -0.3581 -0.4747  0.5128
20240SOL     OW72373   8.935   3.473   2.364  0.3811 -0.2092  0.7568
20240SOL    HW172374   8.883   3.558   2.369  0.4390 -0.1599  0.5176
20240SOL    HW272375   8.954   3.451   2.268 -1.4445 -1.5947  0.6830
20241SOL     OW72376   5.059   6.246   2.317 -0.0195  0.7955  0.0760
20241SOL    HW172377   5.131   6.248   2.387 -0.7208 -0.7849  0.8785
20241SOL    HW272378   5.098   6.269   2.228  1.2022  1.3255  0.7370
20242SOL     OW72379   2.634   2.094   0.888 -0.4306 -0.4655  0.4997
20242SOL    HW172380   2.571   2.028   0.928  1.3796 -1.5264  1.6963
20242SOL    HW272381   2.728   2.070   0.914  0.5441  0.6220 -1.8446
20243SOL     OW72382   3.710   4.199   4.502 -0.0943  0.1131  0.0667
20243SOL    HW172383   3.768   4.129   4.463 -0.4384 -1.5939  2.4922
20243SOL    HW272384   3.765   4.280   4.524  0.7220 -0.2400 -0.6605
20244SOL     OW72385   2.815   2.151   2.907  0.0171  0.1860  0.1079
20244SOL    HW172386   2.766   2.071   2.943 -0.7661  0.0242 -1.2978
20244SOL    HW272387   2.911   2.127   2.893  0.1711  0.0176  1.3283
20245SOL     OW72388   2.908   5.880   4.540  0.2033  0.0545  0.2099
20245SOL    HW172389   2.853   5.963   4.540  1.1325  0.6912 -0.6765
20245SOL    HW272390   2.854   5.804   4.503  0.8163  1.3390 -3.5793
20246SOL     OW72391   5.021   0.079   1.560  0.4841  0.2025  0.1130
20246SOL    HW172392   5.104   0.095   1.506 -0.7469  0.2767 -1.8099
20246SOL    HW272393   4.964   0.162   1.558 -0.1755 -0.2379  0.4473
20247SOL     OW72394   0.402   7.268   0.321 -0.1707  0.3215 -0.5478
20247SOL    HW172395   0.359   7.193   0.271  0.3295  0.2909 -0.9408
20247SOL    HW272396   0.360   7.278   0.411 -0.5919 -0.0898 -0.7033
20248SOL     OW72397   8.285   6.536   6.564  0.1136  0.1125  0.0863
20248SOL    HW172398   8.306   6.634   6.561 -0.1936  0.2150  1.1037
20248SOL    HW272399   8.362   6.484   6.527  0.8599  0.6568  0.8777
20249SOL     OW72400   9.519   6.535   4.471  0.2830 -0.3897  0.0124
20249SOL    HW172401   9.613   6.547   4.502  0.0058 -1.6401  1.4007
20249SOL    HW272402   9.477   6.624   4.457  2.0585  0.1853 -1.8761
20250SOL     OW72403   0.273   6.344   7.677 -0.0341 -0.2308 -0.2721
20250SOL    HW172404   0.179   6.363   7.648 -0.0209  1.3826  0.6899
20250SOL    HW272405   0.273   6.316   7.773  0.5498  0.4971 -0.0615
20251SOL     OW72406   1.614   5.696   1.380 -0.0808  0.5879  0.2015
20251SOL    HW172407   1.535   5.685   1.320  0.2445 -0.3539 -0.0545
20251SOL    HW272408   1.583   5.708   1.474 -0.6484  3.4400 -0.3021
20252SOL     OW72409   7.264   9.918   7.157 -0.0626  0.3039  0.9507
20252SOL    HW172410   7.254   9.985   7.231  0.6971  1.6566 -0.1334
20252SOL    HW272411   7.175   9.880   7.133 -1.0738  3.5476 -0.7621
20253SOL     OW72412   9.716   8.329   5.209  0.4643 -0.0396  0.4729
20253SOL    HW172413   9.622   8.315   5.179  1.4551  1.1874 -3.4602
20253SOL    HW272414   9.717   8.392   5.287 -1.9126  0.4838  0.1086
20254SOL     OW72415   2.935   2.895   0.874  0.1737 -0.3437  0.9069
20254SOL    HW172416   2.888   2.855   0.952  0.3619 -1.9879  0.2023
20254SOL    HW272417   3.005   2.831   0.842  0.6840  0.6945 -0.0534
20255SOL     OW72418   2.916   0.813   5.247 -0.0657  0.0025 -0.5258
20255SOL    HW172419   2.888   0.909   5.254  0.9420  0.2213  0.7261
20255SOL    HW272420   2.869   0.759   5.317  1.4299  0.0953  0.5759
20256SOL     OW72421   9.977   8.559   7.403 -0.0219 -0.4723 -0.2066
20256SOL    HW172422   9.997   8.611   7.320  0.5623 -0.7304 -0.2241
20256SOL    HW272423   9.983   8.462   7.383 -1.0746 -0.5522 -0.1620
20257SOL     OW72424   4.932   0.153   3.766 -0.2686  0.3106 -0.5459
20257SOL    HW172425   4.974   0.068   3.734 -1.4565 -0.3994 -0.2482
20257SOL    HW272426   4.919   0.148   3.865 -0.1682  0.9201 -0.4986
20258SOL     OW72427   6.707   1.233   1.270 -0.2611  0.2471 -0.7449
20258SOL    HW172428   6.621   1.275   1.296 -1.7537 -1.7772 -2.2362
20258SOL    HW272429   6.758   1.294   1.210 -1.3207  0.8973 -0.9928
20259SOL     OW72430   6.785   9.571   3.246  0.5608  0.3241  0.0093
20259SOL    HW172431   6.835   9.491   3.211  1.2822  0.1998  1.2887
20259SOL    HW272432   6.830   9.655   3.216  1.5636  0.2138  1.1451
20260SOL     OW72433   4.228   9.420   4.934 -0.3987  0.2460  0.7016
20260SOL    HW172434   4.309   9.375   4.896 -0.4278  1.3018 -0.6369
20260SOL    HW272435   4.209   9.383   5.025  0.9978 -0.7184  0.6125
20261SOL     OW72436   5.976   7.792   2.912 -0.3543 -0.1561 -0.4512
20261SOL    HW172437   5.893   7.740   2.892 -0.0917 -0.5768 -0.4399
20261SOL    HW272438   5.951   7.878   2.956 -0.8759  0.3241 -1.6608
20262SOL     OW72439   2.304   1.820   1.174 -0.1481 -0.3919  0.0420
20262SOL    HW172440   2.227   1.876   1.145  0.4526 -0.0310 -0.8657
20262SOL    HW272441   2.369   1.875   1.227 -0.7929 -0.8325  1.3010
20263SOL     OW72442   2.311   7.041   1.683  0.3895  0.1942  0.1156
20263SOL    HW172443   2.382   6.992   1.734 -1.0204 -2.6555 -0.5377
20263SOL    HW272444   2.311   7.009   1.588 -1.0743  0.9084 -0.1364
20264SOL     OW72445   4.224   4.474   7.270 -0.1764  0.0726 -0.5901
20264SOL    HW172446   4.253   4.497   7.177 -0.7445  1.9479 -0.3121
20264SOL    HW272447   4.145   4.413   7.266 -0.3613  0.3626 -1.3297
20265SOL     OW72448   8.143   4.333   2.890  0.5535 -0.3514  0.0220
20265SOL    HW172449   8.082   4.257   2.912  0.9339 -0.2738  1.3617
20265SOL    HW272450   8.156   4.390   2.971  3.0449 -0.8112 -0.0167
20266SOL     OW72451   8.512   9.197   2.476  0.1953 -0.0214 -0.0044
20266SOL    HW172452   8.438   9.131   2.465  0.8119 -0.6059 -0.6914
20266SOL    HW272453   8.474   9.290   2.477 -0.5943 -0.3400  0.1850
20267SOL     OW72454   8.966   2.927   2.328 -0.5849 -0.3884 -0.1005
20267SOL    HW172455   8.966   2.844   2.272  0.3867 -0.5557  0.1346
20267SOL    HW272456   8.916   2.999   2.280 -2.0807 -1.3308  0.0300
20268SOL     OW72457   8.342   5.575   0.753 -0.4024  0.4683 -0.2376
20268SOL    HW172458   8.344   5.570   0.653 -0.7867  0.4446 -0.2452
20268SOL    HW272459   8.257   5.535   0.787 -0.3280  0.5868  0.0928
20269SOL     OW72460   4.603   6.750   1.454 -0.4423 -0.4682  0.6214
20269SOL    HW172461   4.655   6.669   1.425 -0.9970 -0.9753  1.0483
20269SOL    HW272462   4.634   6.778   1.545  2.6765  2.2792 -1.1552
20270SOL     OW72463   7.407   1.173   7.030  0.1067  0.1456 -0.1420
20270SOL    HW172464   7.394   1.080   7.064  0.6987  0.1584  0.1209
20270SOL    HW272465   7.340   1.233   7.072  0.2794  0.0006  0.3373
20271SOL     OW72466   3.829   3.209   6.713  0.0966 -0.2645 -0.0321
20271SOL    HW172467   3.896   3.170   6.650 -0.3395 -0.6111 -0.2815
20271SOL    HW272468   3.762   3.139   6.739  0.9490 -0.4303  1.7336
20272SOL     OW72469   0.367   5.732   7.901  0.1652 -0.3269 -0.1604
20272SOL    HW172470   0.406   5.789   7.973  0.8326  0.7198 -1.3245
20272SOL    HW272471   0.271   5.715   7.920  0.0335  0.9617  0.3626
20273SOL     OW72472   8.773   9.671   6.577  0.1358 -0.0867 -0.4007
20273SOL    HW172473   8.838   9.595   6.575  1.3030  0.8577  1.0392
20273SOL    HW272474   8.814   9.748   6.625 -2.6567 -0.0187  1.9807
20274SOL     OW72475   0.942   2.601   1.782  0.0347 -0.2119 -0.0966
20274SOL    HW172476   1.030   2.610   1.828 -0.4676  0.4576  0.7635
20274SOL    HW272477   0.894   2.689   1.786 -0.0105 -0.1455 -1.9303
20275SOL     OW72478   5.019   4.046   2.302  0.2370  0.9896 -0.3378
20275SOL    HW172479   5.026   3.970   2.237 -0.0962  1.5257 -1.0115
20275SOL    HW272480   5.099   4.106   2.290  1.1389  0.1040  1.0397
20276SOL     OW72481   4.421   8.201   7.792  0.1817 -0.0526  0.0681
20276SOL    HW172482   4.406   8.215   7.890 -0.7316  3.3316 -0.4974
20276SOL    HW272483   4.516   8.173   7.778  0.6911  0.6711  1.8326
20277SOL     OW72484   0.325   9.015   5.268 -0.1047  0.1095 -0.0090
20277SOL    HW172485   0.416   8.987   5.238  0.3955  2.3187 -0.6404
20277SOL    HW272486   0.327   9.037   5.366  0.0484  0.2533 -0.0454
20278SOL     OW72487   9.360   7.314   2.615 -0.3171  0.2822  0.6430
20278SOL    HW172488   9.269   7.355   2.616 -0.1123  0.8236 -1.2961
20278SOL    HW272489   9.353   7.217   2.596 -0.5657  0.0679  1.7909
20279SOL     OW72490   3.514   7.504   2.549  0.0396  0.0610 -0.1735
20279SOL    HW172491   3.423   7.530   2.519 -0.9759 -0.6635  2.1613
20279SOL    HW272492   3.547   7.427   2.494 -1.7014 -1.1411  0.4251
20280SOL     OW72493   2.181   0.097   5.581  0.7669  0.1917  0.2811
20280SOL    HW172494   2.182   0.005   5.620 -3.0446 -1.2211 -2.6286
20280SOL    HW272495   2.233   0.098   5.495  0.3797  0.6306  0.0508
20281SOL     OW72496   5.000   7.719   3.240 -0.3986 -0.2107  0.2412
20281SOL    HW172497   4.957   7.786   3.301 -0.2688 -0.8904  1.0927
20281SOL    HW272498   4.970   7.735   3.146 -0.1062  1.2562  0.3854
20282SOL     OW72499   3.812   2.872   2.691 -0.5464  0.8293  0.5296
20282SOL    HW172500   3.749   2.898   2.618 -1.7187 -0.4432  1.0795
20282SOL    HW272501   3.771   2.800   2.747  1.4640 -0.1539  0.7832
20283SOL     OW72502   7.104   2.495   3.815 -0.2781  0.2011 -0.1186
20283SOL    HW172503   7.121   2.591   3.837 -0.2528 -0.1041  1.2287
20283SOL    HW272504   7.006   2.475   3.825 -0.2325  0.0046 -0.0602
20284SOL     OW72505   1.709   9.332   5.429 -0.0271  0.0888 -0.0563
20284SOL    HW172506   1.639   9.338   5.358 -0.8556 -1.1262  0.6295
20284SOL    HW272507   1.685   9.394   5.504  0.4698  0.8428 -0.5200
20285SOL     OW72508   1.455   4.894   7.531 -0.9179 -0.2791 -0.4157
20285SOL    HW172509   1.441   4.983   7.485  0.0892  0.6656  1.0778
20285SOL    HW272510   1.443   4.905   7.629 -1.2793 -1.9296 -0.2604
20286SOL     OW72511   2.730   1.645   6.826  0.2610  0.1161  0.8302
20286SOL    HW172512   2.655   1.662   6.891  1.8824  0.1048  2.7414
20286SOL    HW272513   2.802   1.712   6.840  0.9485 -0.3367 -0.4971
20287SOL     OW72514   9.059   2.146   5.348  0.2900  0.3145  0.3078
20287SOL    HW172515   9.147   2.167   5.306  0.4597  0.5419  0.7740
20287SOL    HW272516   9.062   2.053   5.385  1.6790  1.6455  3.7402
20288SOL     OW72517   0.132   7.161   8.046 -0.6638 -0.3468 -0.1031
20288SOL    HW172518   0.171   7.125   7.961  0.3703 -0.9436  0.6084
20288SOL    HW272519   0.046   7.208   8.026 -0.0527  0.1795 -1.5868
20289SOL     OW72520   6.906   2.158   2.025 -0.1213  0.9914 -0.2391
20289SOL    HW172521   6.914   2.073   1.974  0.0897  1.3128 -0.7500
20289SOL    HW272522   6.810   2.189   2.024 -0.5509 -0.2041  1.5410
20290SOL     OW72523   3.341   2.205   6.994 -0.1519  0.8387  0.1982
20290SOL    HW172524   3.419   2.240   6.942  0.2823 -0.5385 -0.0980
20290SOL    HW272525   3.257   2.220   6.941 -0.0655  2.0512  0.3869
20291SOL     OW72526   2.681   8.312   4.101  0.1801  0.5001 -0.1695
20291SOL    HW172527   2.678   8.245   4.174  0.1068  1.5743  0.8245
20291SOL    HW272528   2.769   8.360   4.102 -0.3469  1.4838  0.1101
20292SOL     OW72529   2.051   6.134   0.821 -0.1533 -0.3197 -0.0177
20292SOL    HW172530   2.143   6.139   0.858 -0.7423  1.3967  1.2975
20292SOL    HW272531   1.987   6.179   0.884 -1.6464 -0.0491 -1.6761
20293SOL     OW72532   3.382   3.487   1.478 -0.4990 -0.0774 -0.0127
20293SOL    HW172533   3.464   3.518   1.429 -0.7154 -0.6483 -0.7446
20293SOL    HW272534   3.373   3.539   1.563 -0.7168  1.7168 -1.0883
20294SOL     OW72535   3.103   3.496   3.756  0.7684  0.2315 -0.1051
20294SOL    HW172536   3.032   3.453   3.811 -1.7148  0.6145 -2.8358
20294SOL    HW272537   3.164   3.426   3.719 -2.0042 -0.8406 -2.8431
20295SOL     OW72538   8.891   0.472   5.771 -0.5241  0.0690  0.4338
20295SOL    HW172539   8.893   0.457   5.672 -0.5011  1.4397  0.2138
20295SOL    HW272540   8.952   0.407   5.816 -1.0900 -1.0539 -0.3780
20296SOL     OW72541   7.659   4.386   3.529  0.1844 -0.6588  0.1056
20296SOL    HW172542   7.626   4.364   3.437  1.2709  0.5935 -0.5984
20296SOL    HW272543   7.655   4.485   3.543  2.1663 -0.6341  0.5720
20297SOL     OW72544   9.667   9.221   7.349 -0.1781  0.2244  0.6843
20297SOL    HW172545   9.649   9.147   7.414 -1.2807 -1.3990 -1.4027
20297SOL    HW272546   9.583   9.271   7.331 -0.2214 -0.2635 -0.5560
20298SOL     OW72547   7.125   4.215   1.009  0.7567  0.0179 -0.1693
20298SOL    HW172548   7.066   4.155   0.954  0.9614 -0.5735  0.2491
20298SOL    HW272549   7.171   4.280   0.948  0.3851 -0.1220 -0.6069
20299SOL     OW72550   1.330   5.206   6.546 -0.5193 -0.3994 -0.1461
20299SOL    HW172551   1.325   5.110   6.519  1.2906 -0.8245  0.9259
20299SOL    HW272552   1.266   5.223   6.621  0.7840 -1.3330  1.2042
20300SOL     OW72553   5.268   7.977   6.726  0.1166  0.1581 -0.3707
20300SOL    HW172554   5.217   8.060   6.701 -0.8362 -0.2812  0.0910
20300SOL    HW272555   5.288   7.979   6.824 -1.1851 -0.8367 -0.0745
20301SOL     OW72556   9.597   5.669   5.531  0.2752  0.2622 -0.9767
20301SOL    HW172557   9.695   5.675   5.550 -0.1333 -1.3099  1.8591
20301SOL    HW272558   9.569   5.573   5.523 -1.6434  0.5123  1.9432
20302SOL     OW72559   2.767   0.291   2.185  1.1375 -0.0420 -0.0130
20302SOL    HW172560   2.773   0.195   2.212  1.3967 -0.2169 -0.6757
20302SOL    HW272561   2.678   0.328   2.213  0.3237 -0.9680 -1.3083
20303SOL     OW72562   9.864   8.975   3.951  0.4792  0.3663  0.5831
20303SOL    HW172563   9.897   8.892   3.906  1.2338  1.3756 -0.7707
20303SOL    HW272564   9.768   8.991   3.925  1.2573  1.5947 -1.7087
20304SOL     OW72565   9.293   9.327   0.731 -0.2059 -0.6103 -0.5826
20304SOL    HW172566   9.376   9.281   0.763 -0.4581 -0.3583  0.4164
20304SOL    HW272567   9.219   9.261   0.724 -0.7166 -0.2779  1.3775
20305SOL     OW72568   2.211   7.889   3.919  0.1409 -0.2984 -0.1508
20305SOL    HW172569   2.168   7.889   3.829 -0.4703  3.4055  0.0617
20305SOL    HW272570   2.300   7.935   3.914  0.3129 -0.4820  1.0507
20306SOL     OW72571   7.430   7.113   6.970 -0.5023 -0.0444  0.4112
20306SOL    HW172572   7.342   7.069   6.987  0.4511 -2.3294 -0.3822
20306SOL    HW272573   7.480   7.123   7.056 -0.0973 -1.9436  0.4164
20307SOL     OW72574   6.895   2.425   1.733  0.4665  0.4389 -0.3993
20307SOL    HW172575   6.913   2.403   1.638 -1.6817  1.5341 -1.0903
20307SOL    HW272576   6.901   2.524   1.746  0.4116  0.3285  0.5404
20308SOL     OW72577   1.684   2.534   7.179  0.1855 -0.2686 -0.2560
20308SOL    HW172578   1.638   2.594   7.114 -1.4184  1.0856  2.0762
20308SOL    HW272579   1.635   2.447   7.183  1.4773 -1.1400 -2.3098
20309SOL     OW72580   9.715   4.020   2.997  0.4131  0.2785  0.4892
20309SOL    HW172581   9.752   3.934   2.962 -0.9200 -0.5771  1.1302
20309SOL    HW272582   9.708   4.014   3.097  1.3388  1.5527  0.6416
20310SOL     OW72583   2.850   5.934   4.993 -0.1486 -0.1993 -0.0217
20310SOL    HW172584   2.763   5.984   4.998 -0.1373 -0.3552  2.0962
20310SOL    HW272585   2.842   5.849   5.045  0.6602 -1.1759 -1.4719
20311SOL     OW72586   2.887   5.289   3.574  0.4995  0.2054 -0.3434
20311SOL    HW172587   2.840   5.289   3.486  0.4201 -1.3012 -0.3157
20311SOL    HW272588   2.974   5.241   3.565  0.8601  0.7543  0.2096
20312SOL     OW72589   0.378   8.725   1.003 -0.5997  0.2200 -0.2307
20312SOL    HW172590   0.370   8.761   0.910 -0.6681 -3.1156 -1.5765
20312SOL    HW272591   0.306   8.765   1.060  0.0561  3.0754 -1.2772
20313SOL     OW72592   0.886   8.462   0.614 -0.2431  0.3859 -0.4147
20313SOL    HW172593   0.951   8.492   0.545 -1.3787  1.4129 -1.0546
20313SOL    HW272594   0.908   8.369   0.643  0.9806  0.4119 -1.2422
20314SOL     OW72595   4.375   1.160   1.550 -0.0095 -0.6769  0.1288
20314SOL    HW172596   4.385   1.197   1.458  1.4481 -4.3309 -1.2855
20314SOL    HW272597   4.458   1.180   1.603 -0.1373 -0.0330  0.0831
20315SOL     OW72598   8.220   7.820   8.123  0.1496 -0.1918 -0.3690
20315SOL    HW172599   8.121   7.812   8.137  0.2148 -0.4276 -0.0480
20315SOL    HW272600   8.254   7.901   8.170  0.1289 -0.1695 -0.3917
20316SOL     OW72601   1.954   0.199   2.313 -0.1981  0.3186  0.4974
20316SOL    HW172602   1.943   0.237   2.405 -1.1883 -0.6040  0.7710
20316SOL    HW272603   1.866   0.165   2.280  0.1016  0.8983 -0.9102
20317SOL     OW72604   1.529   6.840   4.157  0.1226  0.1558 -0.4216
20317SOL    HW172605   1.476   6.756   4.154 -1.6945  1.2248  1.0903
20317SOL    HW272606   1.579   6.845   4.244  0.9764  0.1933 -0.9093
20318SOL     OW72607   9.740   7.388   2.840  0.5870 -0.0328 -0.3578
20318SOL    HW172608   9.711   7.347   2.927  1.5524  0.2069  0.0868
20318SOL    HW272609   9.831   7.428   2.851  0.0417  1.4289 -1.0395
20319SOL     OW72610   7.386   3.019   6.507  0.0968 -0.6770 -0.1187
20319SOL    HW172611   7.305   2.964   6.526 -0.7447  0.1663 -1.1802
20319SOL    HW272612   7.358   3.109   6.472  1.3889  0.9094  2.7152
20320SOL     OW72613   9.645   4.881   6.873 -0.3478 -0.6221  0.3244
20320SOL    HW172614   9.745   4.892   6.873 -0.5608  1.5182 -1.2622
20320SOL    HW272615   9.604   4.951   6.931 -1.0912  0.2222 -1.1969
20321SOL     OW72616   7.323   3.710   5.398  0.3979  0.0084  0.0390
20321SOL    HW172617   7.392   3.770   5.360  1.4205 -1.8932 -1.2203
20321SOL    HW272618   7.363   3.653   5.470  0.1765 -1.0815 -0.6778
20322SOL     OW72619   4.888   9.113   7.961 -0.3857  0.3687  0.5299
20322SOL    HW172620   4.809   9.155   7.916 -0.8032  0.4810  1.3639
20322SOL    HW272621   4.939   9.058   7.895  0.4495  2.5682 -0.7127
20323SOL     OW72622   5.464   5.237   0.246 -0.0219 -0.5250  0.3372
20323SOL    HW172623   5.397   5.236   0.321 -0.7955 -2.3445 -0.3658
20323SOL    HW272624   5.422   5.277   0.165  0.7803  1.3312  0.8037
20324SOL     OW72625   0.818   2.086   3.645 -0.2453 -0.5224  0.5236
20324SOL    HW172626   0.839   2.013   3.580  1.4923  2.7679 -2.7796
20324SOL    HW272627   0.733   2.132   3.617  1.6966  2.3474 -0.8123
20325SOL     OW72628   0.846   2.644   3.613  0.7256  0.1696 -0.0038
20325SOL    HW172629   0.830   2.652   3.515  0.1619  0.3454  0.0992
20325SOL    HW272630   0.913   2.713   3.642  2.4666 -1.2213 -0.6134
20326SOL     OW72631   1.162   9.636   2.585  0.1476 -0.3797 -0.0757
20326SOL    HW172632   1.224   9.584   2.526  0.5288  0.2121 -0.1958
20326SOL    HW272633   1.185   9.619   2.681  0.9993  0.4464 -0.1296
20327SOL     OW72634   8.519   2.188   1.550 -0.2251  0.2972 -0.0238
20327SOL    HW172635   8.528   2.091   1.573 -1.2933  0.1668 -0.1299
20327SOL    HW272636   8.507   2.241   1.634 -0.4784  0.2372 -0.0208
20328SOL     OW72637   0.575   7.031   4.369  0.2449 -0.1877 -0.2116
20328SOL    HW172638   0.607   6.947   4.326 -0.7190 -1.2052  1.0452
20328SOL    HW272639   0.641   7.060   4.439 -0.6522 -1.2581  1.0780
20329SOL     OW72640   9.531   8.966   0.945  0.6910 -0.1601 -0.2706
20329SOL    HW172641   9.575   9.025   1.013  0.1198  0.9440 -0.8434
20329SOL    HW272642   9.435   8.955   0.967  0.6454 -0.3182 -0.5481
20330SOL     OW72643   9.781   2.710   1.180  0.7279  0.3825 -0.2800
20330SOL    HW172644   9.726   2.732   1.100 -0.4533 -0.3598  0.3184
20330SOL    HW272645   9.834   2.627   1.163 -0.6687 -0.6355  0.2298
20331SOL     OW72646   6.367   4.086   1.370  0.1607 -0.3744 -0.4572
20331SOL    HW172647   6.325   4.170   1.401 -2.2291 -1.9958  0.8032
20331SOL    HW272648   6.446   4.064   1.427  1.6980  1.7331 -1.7110
20332SOL     OW72649   2.226   4.729   7.756  0.1510 -0.0308 -0.1741
20332SOL    HW172650   2.145   4.788   7.760  0.8208  1.0751 -2.3081
20332SOL    HW272651   2.200   4.636   7.784 -1.2055  0.9189  1.8822
20333SOL     OW72652   2.958   1.499   6.179 -0.1625  0.0278  0.3100
20333SOL    HW172653   2.901   1.574   6.144  0.2194  0.5679  0.8263
20333SOL    HW272654   3.006   1.530   6.261 -1.8269 -1.5332  1.8969
20334SOL     OW72655   9.022   1.394   4.029 -0.0509 -0.3069  0.3047
20334SOL    HW172656   8.985   1.429   4.115 -1.2539 -0.5175 -0.1151
20334SOL    HW272657   9.119   1.416   4.023  0.2590 -1.0850  2.1293
20335SOL     OW72658   8.702   5.757   0.950  0.1898  0.4391  0.0249
20335SOL    HW172659   8.697   5.660   0.928 -1.7397  0.2208  1.3067
20335SOL    HW272660   8.663   5.810   0.875 -1.7556  0.0116  0.7185
20336SOL     OW72661   9.050   0.234   5.556 -0.1620 -0.3367  0.6705
20336SOL    HW172662   9.093   0.277   5.635  0.5176 -1.8626  1.1412
20336SOL    HW272663   9.079   0.138   5.549  0.6571  0.0444 -2.0417
20337SOL     OW72664   0.935   1.618   2.650  0.0012 -0.2828  0.1853
20337SOL    HW172665   0.865   1.555   2.617  0.5983 -0.0075 -1.6845
20337SOL    HW272666   1.012   1.566   2.688  0.8228 -0.7593 -2.0302
20338SOL     OW72667   4.119   9.510   6.760  0.2553  0.1240 -0.0206
20338SOL    HW172668   4.173   9.436   6.799  0.5743 -0.2224 -1.0803
20338SOL    HW272669   4.026   9.478   6.743  0.4956 -0.1612 -0.8317
20339SOL     OW72670   3.824   4.752   7.532  0.7005 -0.3926  0.0102
20339SOL    HW172671   3.761   4.688   7.574 -0.1643  0.6363  0.2968
20339SOL    HW272672   3.777   4.804   7.460  1.4735 -0.2990 -0.4392
20340SOL     OW72673   9.766   7.436   5.944 -0.3534 -0.2259  0.2593
20340SOL    HW172674   9.707   7.365   5.906 -0.6794 -0.1422  0.6029
20340SOL    HW272675   9.860   7.403   5.946  0.0591  0.5760 -2.7034
20341SOL     OW72676   7.543   2.593   2.031 -0.1139  0.2241 -0.5525
20341SOL    HW172677   7.530   2.681   1.985 -0.7796 -0.1074 -1.0084
20341SOL    HW272678   7.477   2.527   1.995 -0.2036 -0.2142  0.4225
20342SOL     OW72679   3.561   6.007   7.501 -0.7683  0.2729 -0.0667
20342SOL    HW172680   3.513   5.996   7.588  2.1476 -0.6090  1.5208
20342SOL    HW272681   3.610   6.094   7.500 -1.5364  0.7037 -1.2248
20343SOL     OW72682   9.191   9.274   4.867 -0.1843 -0.1140  0.0901
20343SOL    HW172683   9.118   9.244   4.806  1.1086 -1.6096 -0.7517
20343SOL    HW272684   9.222   9.196   4.923  1.0560  0.4012  0.1329
20344SOL     OW72685   1.899   3.681   3.759  0.9148  0.0126 -0.5084
20344SOL    HW172686   1.978   3.630   3.793  0.1491 -0.1941  1.0098
20344SOL    HW272687   1.896   3.771   3.803 -0.9464 -0.8351  1.2018
20345SOL     OW72688   8.365   2.484   5.368  0.4471  0.2326  0.1093
20345SOL    HW172689   8.371   2.583   5.385  1.6523  0.1458  0.1880
20345SOL    HW272690   8.444   2.438   5.408 -0.1096 -0.7689  0.0719
20346SOL     OW72691   8.038   7.755   6.420 -0.5993 -0.2952  0.4502
20346SOL    HW172692   8.054   7.773   6.323 -1.9941 -2.1074 -0.1449
20346SOL    HW272693   8.122   7.719   6.462 -0.2581 -0.3505 -0.2800
20347SOL     OW72694   0.151   2.168   8.153 -0.7614 -0.4722 -0.1356
20347SOL    HW172695   0.114   2.226   8.226 -0.8453 -1.0862  0.3151
20347SOL    HW272696   0.246   2.193   8.135 -0.7183 -0.3694  0.2309
20348SOL     OW72697   7.546   9.325   3.577 -0.2618  0.4605  0.4180
20348SOL    HW172698   7.563   9.417   3.541 -0.6729  0.6393  0.6749
20348SOL    HW272699   7.448   9.308   3.577 -0.0582 -1.0537 -2.2877
20349SOL     OW72700   2.998   8.613   7.423  0.4732 -0.5075  0.2490
20349SOL    HW172701   3.044   8.579   7.505 -0.5487  0.9389  1.4409
20349SOL    HW272702   3.027   8.707   7.405 -1.0481 -0.0220  0.2917
20350SOL     OW72703   4.138   9.698   2.592  0.6767  0.2924  0.1016
20350SOL    HW172704   4.236   9.684   2.579  1.0238  2.6906 -0.1391
20350SOL    HW272705   4.087   9.627   2.542  2.2668 -0.6437 -0.2220
20351SOL     OW72706   5.121   4.279   1.278 -0.2403  0.2913 -0.2083
20351SOL    HW172707   5.107   4.371   1.313 -2.1215  0.0921 -0.4308
20351SOL    HW272708   5.084   4.212   1.343  1.9847 -0.3850  0.4317
20352SOL     OW72709   1.843   7.799   3.442 -0.2416 -0.0826 -0.6378
20352SOL    HW172710   1.798   7.719   3.484  2.8505 -1.6686 -0.2387
20352SOL    HW272711   1.905   7.769   3.371  1.1098  1.9653 -0.3566
20353SOL     OW72712   3.985   9.862   5.364 -0.2946 -0.2132 -0.4394
20353SOL    HW172713   4.083   9.859   5.342 -0.2544  0.3115 -0.3439
20353SOL    HW272714   3.947   9.770   5.360 -0.1395 -0.2234 -2.0312
20354SOL     OW72715   2.433   3.267   2.295  0.1362 -0.4882 -0.7079
20354SOL    HW172716   2.357   3.218   2.338  0.5903 -1.0780 -0.5727
20354SOL    HW272717   2.398   3.348   2.248 -0.4561 -0.2686  0.1166
20355SOL     OW72718   6.906   4.048   0.897 -0.0627 -0.2881 -0.5255
20355SOL    HW172719   6.882   4.136   0.857 -2.3609 -0.3135  0.7220
20355SOL    HW272720   6.913   3.979   0.825  0.6553  0.6700 -1.3810
20356SOL     OW72721   7.485   1.632   0.895  0.1364 -0.7575 -0.4015
20356SOL    HW172722   7.551   1.571   0.939 -1.3888 -2.3613 -0.2974
20356SOL    HW272723   7.439   1.687   0.964  0.3138 -0.7051 -0.3258
20357SOL     OW72724   8.503   0.338   4.036 -0.2948 -0.5901 -0.0626
20357SOL    HW172725   8.451   0.310   3.956 -1.3223 -0.3552  0.5090
20357SOL    HW272726   8.447   0.400   4.092  0.5938 -0.3484  0.5675
20358SOL     OW72727   5.019   0.129   6.887 -0.4468 -0.0160 -0.6462
20358SOL    HW172728   5.111   0.167   6.875 -0.3667 -0.4123 -1.3398
20358SOL    HW272729   5.022   0.031   6.870 -0.9338 -0.0835 -0.3220
20359SOL     OW72730   9.771   1.354   4.661 -0.1661 -0.1325 -0.3700
20359SOL    HW172731   9.712   1.275   4.641 -2.3289  1.7794 -1.8547
20359SOL    HW272732   9.811   1.389   4.576  0.2174  0.7860  0.1762
20360SOL     OW72733   3.080   7.636   6.557 -0.3942  0.4268  0.7384
20360SOL    HW172734   3.016   7.602   6.488 -0.4300  1.8980  0.0233
20360SOL    HW272735   3.045   7.722   6.594  2.1567  2.3187 -1.1385
20361SOL     OW72736   8.654   4.803   0.524 -0.4757 -0.2134  0.0086
20361SOL    HW172737   8.693   4.879   0.577  0.2599 -1.0141  0.6321
20361SOL    HW272738   8.673   4.817   0.427 -0.3851  0.4303  0.1161
20362SOL     OW72739   2.819   2.191   3.677 -0.6301  0.0306  0.5196
20362SOL    HW172740   2.903   2.187   3.623 -1.1938  1.5269 -0.4860
20362SOL    HW272741   2.750   2.133   3.634 -0.2293 -0.9206  1.1497
20363SOL     OW72742   3.475   2.613   6.948 -0.2208 -0.5196 -0.1287
20363SOL    HW172743   3.380   2.610   6.978  0.2347 -0.4605  1.3787
20363SOL    HW272744   3.505   2.709   6.943  0.3611 -0.6113  1.4097
20364SOL     OW72745   2.376   5.670   4.700 -0.0110 -0.1589 -0.4666
20364SOL    HW172746   2.385   5.571   4.712  3.1431 -0.0966 -2.0053
20364SOL    HW272747   2.458   5.707   4.657 -1.9736  2.8528 -1.8375
20365SOL     OW72748   7.421   4.432   1.024  0.3614 -0.1190 -0.5137
20365SOL    HW172749   7.364   4.380   0.960  1.6331  0.2842 -2.0123
20365SOL    HW272750   7.489   4.484   0.972  0.2078  1.6944  1.0631
20366SOL     OW72751   7.763   2.542   4.178 -0.2491 -0.1312  0.3516
20366SOL    HW172752   7.764   2.503   4.270 -3.2806  0.9662  0.9017
20366SOL    HW272753   7.720   2.478   4.115 -2.8453  1.1510  0.7457
20367SOL     OW72754   7.738   4.999   7.797  0.3980  0.0901  0.0919
20367SOL    HW172755   7.655   5.019   7.746  0.2605 -0.6080  0.0367
20367SOL    HW272756   7.809   5.066   7.773  0.8904 -1.2552 -2.3187
20368SOL     OW72757   9.049   3.793   3.260 -0.0463  0.2228  0.2742
20368SOL    HW172758   9.144   3.780   3.289  0.9553  0.7531 -2.6649
20368SOL    HW272759   9.025   3.725   3.191 -1.5966  0.5304  0.4900
20369SOL     OW72760   2.198   0.665   1.613  0.2211  0.2419 -0.1277
20369SOL    HW172761   2.261   0.615   1.554  0.1807  0.3048 -0.2248
20369SOL    HW272762   2.110   0.618   1.615 -0.3734  1.2528 -1.6255
20370SOL     OW72763   3.958   8.400   1.337 -0.0142  0.2010 -0.5121
20370SOL    HW172764   3.960   8.303   1.312  0.6682  0.1427 -0.2235
20370SOL    HW272765   3.963   8.456   1.254 -1.1932 -0.0081 -0.7362
20371SOL     OW72766   9.775   8.699   0.160  0.3492  0.8992 -0.5524
20371SOL    HW172767   9.734   8.609   0.142 -0.6858  1.3365 -0.4223
20371SOL    HW272768   9.857   8.710   0.104  0.5445 -0.1672 -0.4963
20372SOL     OW72769   2.968   8.224   4.403 -0.4415  0.7657 -0.5541
20372SOL    HW172770   2.877   8.198   4.373 -0.4295  0.6272 -0.4730
20372SOL    HW272771   2.974   8.217   4.503 -0.6540  1.7761 -0.4665
20373SOL     OW72772   4.547   2.699   0.177  0.2604  0.0661 -0.2267
20373SOL    HW172773   4.572   2.676   0.271  1.0113 -1.2619 -0.7399
20373SOL    HW272774   4.472   2.766   0.178 -1.2120 -1.5371  1.3238
20374SOL     OW72775   0.343   1.217   2.133 -0.5329 -0.3642  0.4302
20374SOL    HW172776   0.344   1.196   2.231  0.9014  0.3983  0.5798
20374SOL    HW272777   0.273   1.286   2.114 -1.4124 -1.1380  0.7626
20375SOL     OW72778   6.788   5.153   1.802  0.0708 -0.5964  0.2986
20375SOL    HW172779   6.818   5.086   1.734  0.5880 -0.0204 -0.0447
20375SOL    HW272780   6.786   5.244   1.760 -2.4730 -0.6535  0.2013
20376SOL     OW72781   6.793   5.408   1.728  0.6855  0.4813  0.2549
20376SOL    HW172782   6.850   5.471   1.780  0.4533  2.7954 -2.2143
20376SOL    HW272783   6.707   5.453   1.703 -0.8628 -1.8771  1.1043
20377SOL     OW72784   7.129   6.910   7.455 -0.3961 -0.0186  0.3770
20377SOL    HW172785   7.045   6.861   7.435 -0.5122  0.5287 -0.4853
20377SOL    HW272786   7.207   6.850   7.444 -0.7487 -0.9768  2.6632
20378SOL     OW72787   7.400   5.471   0.942 -0.5191  0.2239  0.2359
20378SOL    HW172788   7.302   5.483   0.958 -0.6305 -0.3425 -0.0024
20378SOL    HW272789   7.417   5.378   0.910  0.2875 -0.1414  1.7197
20379SOL     OW72790   4.804   9.964   1.733  0.5553 -0.3287  0.1797
20379SOL    HW172791   4.753  10.036   1.780 -1.2460 -1.0527 -0.6081
20379SOL    HW272792   4.892  10.001   1.702  0.0607  1.2738  0.6152
20380SOL     OW72793   9.734   3.112   5.378 -0.3282  0.0290  0.3138
20380SOL    HW172794   9.762   3.042   5.443  2.2809  0.2825 -0.4796
20380SOL    HW272795   9.644   3.088   5.340 -0.3253 -1.8917  1.4370
20381SOL     OW72796   3.023   0.561   1.953 -0.2045 -0.0100 -0.3357
20381SOL    HW172797   3.086   0.527   1.884 -1.5164 -2.1195 -0.5540
20381SOL    HW272798   2.969   0.636   1.915  2.0880  1.7483 -0.1643
20382SOL     OW72799   0.938   3.619   0.073  0.2511  0.0479  0.5840
20382SOL    HW172800   1.010   3.605   0.140  0.6443 -1.8549 -0.1930
20382SOL    HW272801   0.976   3.661  -0.009 -0.0519  1.5225  1.1922
20383SOL     OW72802   2.402   5.726   3.049  0.1201  0.0884 -0.0894
20383SOL    HW172803   2.473   5.737   2.978  0.2518  0.2237  0.0628
20383SOL    HW272804   2.446   5.707   3.137  0.2051  4.0164  0.8189
20384SOL     OW72805   1.361   1.524   1.937  0.0303 -0.4470  0.3285
20384SOL    HW172806   1.281   1.492   1.886  1.7548  1.0462 -3.4406
20384SOL    HW272807   1.410   1.445   1.975 -0.6770 -1.6613 -1.2279
20385SOL     OW72808   9.924   5.956   5.280  0.2461  0.7006 -0.4132
20385SOL    HW172809   9.868   5.876   5.301  0.3910  0.3557 -1.3331
20385SOL    HW272810  10.013   5.947   5.325  0.4510  0.0988 -0.9324
20386SOL     OW72811   7.814   7.346   4.169 -0.7550  0.0166  0.0843
20386SOL    HW172812   7.761   7.285   4.111 -3.2419  1.2874  0.9547
20386SOL    HW272813   7.839   7.300   4.254  0.9224 -1.0921 -0.9820
20387SOL     OW72814   9.539   6.260   5.414 -0.0867  0.1255  0.4384
20387SOL    HW172815   9.470   6.188   5.406 -0.5562  0.5650  0.4988
20387SOL    HW272816   9.580   6.257   5.505 -0.6918  0.4539  0.7253
20388SOL     OW72817   6.682   4.919   7.888  0.4853  0.4711 -0.1352
20388SOL    HW172818   6.586   4.894   7.904  0.2915  2.4788  2.1488
20388SOL    HW272819   6.741   4.842   7.910 -0.3814  0.4342  2.2125
20389SOL     OW72820   1.101   4.276   4.982 -0.2675  0.0144 -0.6943
20389SOL    HW172821   1.179   4.222   4.951 -0.0634  0.1985 -0.5026
20389SOL    HW272822   1.025   4.214   5.004  1.3586 -0.6181  3.6692
20390SOL     OW72823   3.922   4.789   2.618  0.2774 -0.1693 -0.2003
20390SOL    HW172824   3.965   4.879   2.618  1.3105 -0.6546  0.2248
20390SOL    HW272825   3.937   4.745   2.529  2.1621 -1.0208  0.4970
20391SOL     OW72826   3.292   6.335   4.367  0.5031  0.2074 -0.2853
20391SOL    HW172827   3.391   6.338   4.359  0.5050  0.7172 -0.0589
20391SOL    HW272828   3.259   6.418   4.411 -0.0557  0.1859 -0.6561
20392SOL     OW72829   7.171   2.498   3.328 -0.0836  0.1325  0.1007
20392SOL    HW172830   7.200   2.422   3.271  0.2906 -0.4109  1.0094
20392SOL    HW272831   7.245   2.565   3.335  0.1481 -0.1705  0.5737
20393SOL     OW72832   0.454   3.800   5.099 -0.0265  0.2825  0.2347
20393SOL    HW172833   0.422   3.804   5.193  0.1916 -0.1003  0.3264
20393SOL    HW272834   0.545   3.759   5.096  1.1155  2.7364  0.1181
20394SOL     OW72835   2.717   9.153   5.898  0.1631  0.2788 -0.1379
20394SOL    HW172836   2.648   9.217   5.862 -0.1294 -0.4888 -0.9811
20394SOL    HW272837   2.696   9.131   5.993 -0.8945 -0.1086 -0.4496
20395SOL     OW72838   1.046   6.293   4.640 -0.5411  0.1616 -0.3127
20395SOL    HW172839   1.054   6.352   4.720 -2.0662  0.1002 -0.0957
20395SOL    HW272840   0.962   6.315   4.590 -0.7990 -1.3728 -0.5957
20396SOL     OW72841   3.356   2.984   3.562 -0.1053 -0.6867 -0.1476
20396SOL    HW172842   3.356   2.887   3.584  1.5270 -0.1563  2.2620
20396SOL    HW272843   3.450   3.017   3.554 -0.6445  0.5599 -1.6339
20397SOL     OW72844   1.167   6.451   1.731 -0.3320 -0.2632  0.4351
20397SOL    HW172845   1.194   6.415   1.821 -1.5898 -0.3500  0.7930
20397SOL    HW272846   1.232   6.521   1.702 -0.3776  0.3720  1.8049
20398SOL     OW72847   4.476   0.400   5.742 -0.1789  0.0043 -0.0212
20398SOL    HW172848   4.526   0.332   5.796 -0.6459  0.2371  0.7114
20398SOL    HW272849   4.442   0.358   5.658  0.3320 -0.4250 -0.0146
20399SOL     OW72850   1.085   5.867   0.576  0.4064  0.4017 -0.1883
20399SOL    HW172851   1.002   5.885   0.629  1.4256  0.2727  1.5153
20399SOL    HW272852   1.068   5.885   0.479 -0.9758  2.4500  0.4014
20400SOL     OW72853   9.212   1.988   3.135 -0.1167  0.4189 -0.2674
20400SOL    HW172854   9.172   2.043   3.062  0.7497 -0.3362 -1.3485
20400SOL    HW272855   9.312   1.996   3.132 -0.0912  0.7577  1.1506
20401SOL     OW72856   0.041   0.754   1.723  0.3068 -0.2635  0.2679
20401SOL    HW172857   0.126   0.753   1.672 -0.2219 -2.9677 -0.6504
20401SOL    HW272858  -0.036   0.770   1.661 -0.1319 -1.1454  0.5738
20402SOL     OW72859   3.839   9.706   7.069 -0.2443  0.1969 -0.2771
20402SOL    HW172860   3.791   9.638   7.125  1.0080  1.5977  2.5397
20402SOL    HW272861   3.932   9.675   7.051 -0.2120  0.3865 -0.4407
20403SOL     OW72862   2.337   0.166   4.813 -0.3667 -0.1602 -0.2787
20403SOL    HW172863   2.385   0.254   4.822 -1.3519  0.4258 -0.6762
20403SOL    HW272864   2.315   0.131   4.904  0.2383 -0.1138 -0.1122
20404SOL     OW72865   3.666   7.560   0.734 -0.3077  0.2010 -0.0323
20404SOL    HW172866   3.569   7.585   0.731 -0.7277 -1.5358 -1.5352
20404SOL    HW272867   3.675   7.465   0.765  0.8142 -0.1682 -1.4302
20405SOL     OW72868   9.386   9.445   5.277 -0.1422 -0.1250  0.2316
20405SOL    HW172869   9.421   9.371   5.218 -1.3647  0.2112 -0.9626
20405SOL    HW272870   9.393   9.418   5.373 -0.3355 -1.6981 -0.1820
20406SOL     OW72871   8.368   1.183   1.544  0.0407 -0.3160 -0.0426
20406SOL    HW172872   8.268   1.183   1.542  0.0405 -0.2002 -0.1025
20406SOL    HW272873   8.399   1.188   1.638 -0.0108 -0.4532 -0.0175
20407SOL     OW72874   2.667   5.313   2.530  0.5185 -0.3306 -0.3378
20407SOL    HW172875   2.752   5.260   2.529 -0.2228 -1.5366 -1.2092
20407SOL    HW272876   2.602   5.271   2.594  0.4699  0.4254  0.1172
20408SOL     OW72877   8.489   4.629   4.471 -0.1031 -0.1450 -0.8576
20408SOL    HW172878   8.433   4.546   4.460  0.5754 -0.2327 -4.0602
20408SOL    HW272879   8.561   4.612   4.537 -1.6994 -1.1894  0.6524
20409SOL     OW72880   4.716   1.226   4.587  0.2738 -0.3590 -0.2800
20409SOL    HW172881   4.780   1.193   4.518 -1.7682 -0.4047 -2.2155
20409SOL    HW272882   4.687   1.319   4.564 -0.0126 -0.1753  0.8042
20410SOL     OW72883   4.252   3.973   2.817  0.5142 -0.1020  0.2767
20410SOL    HW172884   4.168   3.976   2.872 -0.8903  1.7383 -1.8715
20410SOL    HW272885   4.331   3.980   2.877 -0.8577 -1.3824  2.3175
20411SOL     OW72886   6.410   1.000   1.035  0.5048 -0.1859  0.1368
20411SOL    HW172887   6.372   0.910   1.056  0.9292 -0.4561 -0.2515
20411SOL    HW272888   6.499   1.009   1.079  0.5982 -0.0722 -0.0773
20412SOL     OW72889   8.292   0.628   4.972  0.1028 -0.1000  0.1912
20412SOL    HW172890   8.208   0.642   5.024 -0.6186 -1.0005 -0.7174
20412SOL    HW272891   8.289   0.684   4.889 -1.4486 -3.2066 -1.9303
20413SOL     OW72892   0.629   7.366   1.707  0.0424  0.3487 -0.2110
20413SOL    HW172893   0.679   7.406   1.783  0.0027  0.6314 -0.3364
20413SOL    HW272894   0.530   7.372   1.725  0.0395  0.1740 -0.1621
20414SOL     OW72895   0.433   9.767   1.056 -0.3355 -0.1514 -0.3065
20414SOL    HW172896   0.519   9.767   1.005 -0.5192 -0.3271 -0.6150
20414SOL    HW272897   0.446   9.815   1.143 -0.0742  0.3283 -0.6093
20415SOL     OW72898   4.106   6.160   3.419  0.4152  0.2108  0.1372
20415SOL    HW172899   4.096   6.123   3.327 -1.0232 -0.0403  0.3835
20415SOL    HW272900   4.027   6.217   3.441  0.6919  0.1763  1.2679
20416SOL     OW72901   1.498   7.640   3.455  0.4697 -0.1854 -0.3882
20416SOL    HW172902   1.499   7.581   3.536 -0.9275 -0.6351 -0.6648
20416SOL    HW272903   1.494   7.582   3.373 -0.7812  0.2669 -0.6657
20417SOL     OW72904   3.442   3.149   4.377  0.0610 -0.6630  0.0182
20417SOL    HW172905   3.471   3.057   4.404  1.5921 -0.0792  0.3917
20417SOL    HW272906   3.521   3.210   4.374 -1.1853  1.0730  1.4527
20418SOL     OW72907   6.826   5.341   7.396 -0.4514  0.2789 -0.5638
20418SOL    HW172908   6.760   5.382   7.459 -0.8524  0.6399 -1.2138
20418SOL    HW272909   6.823   5.241   7.405  0.9391  0.3746  1.4392
20419SOL     OW72910   8.056   2.999   1.797  0.2018 -0.0435 -0.6269
20419SOL    HW172911   7.961   3.027   1.792  0.8785  2.0957 -2.4563
20419SOL    HW272912   8.095   3.027   1.885 -0.3310  0.8071 -0.6614
20420SOL     OW72913   0.408   4.399   7.119  0.4013  0.3270  0.5676
20420SOL    HW172914   0.337   4.365   7.182 -0.3223 -0.2808 -0.5637
20420SOL    HW272915   0.486   4.337   7.121 -0.0594 -0.2777  0.0819
20421SOL     OW72916   2.494   4.119   5.850 -0.0596 -0.0822 -0.2865
20421SOL    HW172917   2.532   4.147   5.938  0.8833 -2.1019 -0.0232
20421SOL    HW272918   2.415   4.059   5.866 -1.6718  1.8262 -0.8423
20422SOL     OW72919   9.983   1.006   6.412 -0.1758 -0.4413 -0.0361
20422SOL    HW172920  10.079   1.020   6.385 -0.1886  0.4932  0.4088
20422SOL    HW272921   9.932   0.970   6.334  0.1579  0.6711 -0.7728
20423SOL     OW72922   1.697   8.011   7.927  0.1604  0.6952  0.4592
20423SOL    HW172923   1.743   7.933   7.884 -0.6160 -0.3946  1.5768
20423SOL    HW272924   1.619   7.979   7.981 -0.0517  2.2296  1.1006
20424SOL     OW72925   2.269   9.357   3.593  0.4333  0.1828  0.3107
20424SOL    HW172926   2.317   9.270   3.608  0.0518 -0.1825 -0.5509
20424SOL    HW272927   2.313   9.406   3.518  2.1359  1.8483  2.3341
20425SOL     OW72928   8.732   7.980   7.864  0.0551 -0.3282 -0.2164
20425SOL    HW172929   8.665   7.907   7.877  0.8767 -1.2249 -0.8925
20425SOL    HW272930   8.802   7.974   7.935 -2.1980  2.5266  2.3991
20426SOL     OW72931   8.571   9.796   7.511 -0.3843  0.4353  0.0161
20426SOL    HW172932   8.553   9.740   7.430 -0.2768 -0.2858  0.4865
20426SOL    HW272933   8.504   9.775   7.582 -0.5165  1.1125  0.0887
20427SOL     OW72934   9.830   0.571   6.928 -0.3843 -0.0131 -0.4243
20427SOL    HW172935   9.744   0.525   6.909  0.0854 -0.0575 -2.5758
20427SOL    HW272936   9.900   0.539   6.864  0.7903  1.2820  0.1784
20428SOL     OW72937   4.651   0.193   5.819 -0.0124  0.0657 -0.0863
20428SOL    HW172938   4.745   0.188   5.851 -0.0066 -1.0021 -0.2796
20428SOL    HW272939   4.645   0.163   5.724 -0.9271 -2.2981  0.6887
20429SOL     OW72940   1.266   2.521   0.373 -0.1658  0.2566 -0.0486
20429SOL    HW172941   1.232   2.461   0.301  1.0674 -0.6436  0.1127
20429SOL    HW272942   1.201   2.596   0.387 -1.0924 -0.3328 -1.1218
20430SOL     OW72943   6.838   1.340   7.664  0.3770  0.7602 -0.5070
20430SOL    HW172944   6.779   1.405   7.712  0.4980 -1.1652  2.3966
20430SOL    HW272945   6.796   1.250   7.666  2.1998 -0.1090 -0.7129
20431SOL     OW72946   1.654   5.759   4.591 -0.0874 -0.2940 -0.3345
20431SOL    HW172947   1.655   5.706   4.506  2.1362 -1.3183  0.2963
20431SOL    HW272948   1.748   5.771   4.623 -0.7550  1.8172  0.9253
20432SOL     OW72949   4.760   7.706   4.752  0.0309 -0.1354 -0.3481
20432SOL    HW172950   4.764   7.701   4.852  0.4216  0.1367 -0.3465
20432SOL    HW272951   4.820   7.780   4.720 -1.8026  1.2661 -0.6403
20433SOL     OW72952   5.594   0.770   7.247 -0.4144 -0.4160 -1.0727
20433SOL    HW172953   5.597   0.866   7.217 -0.5138  0.1243  0.5809
20433SOL    HW272954   5.506   0.729   7.221 -1.4964  0.7723  0.6064
20434SOL     OW72955   1.492   4.442   1.127 -0.0944  0.3182  0.1241
20434SOL    HW172956   1.589   4.423   1.140 -0.2803 -0.6533  0.1379
20434SOL    HW272957   1.442   4.416   1.209 -0.4691  0.0612 -0.1849
20435SOL     OW72958   8.145   7.033   5.124  0.3048  0.6335  0.7425
20435SOL    HW172959   8.162   6.973   5.046  0.7156  0.7254  0.7617
20435SOL    HW272960   8.087   6.985   5.190  0.6815  0.2339  0.7849
20436SOL     OW72961   2.747   1.946   7.075 -0.3297  0.0106 -0.1121
20436SOL    HW172962   2.758   1.978   7.169  0.0371 -0.4324 -0.0076
20436SOL    HW272963   2.666   1.887   7.069 -1.5165  1.6249 -0.4748
20437SOL     OW72964   1.197   8.873   8.168  0.0623  0.1177 -0.4057
20437SOL    HW172965   1.252   8.795   8.197  1.0187  0.0135 -2.4387
20437SOL    HW272966   1.150   8.851   8.082 -3.8410 -0.0982  1.6350
20438SOL     OW72967   3.919   0.768   0.924 -0.1332 -0.0992  0.1834
20438SOL    HW172968   3.858   0.822   0.867 -0.6239 -0.7933  0.0455
20438SOL    HW272969   3.962   0.696   0.869  0.0016 -0.2689  0.5057
20439SOL     OW72970   4.139   3.828   2.222 -0.0210  0.2405 -0.3317
20439SOL    HW172971   4.097   3.821   2.312 -0.9237  0.9819 -0.6860
20439SOL    HW272972   4.230   3.786   2.224 -0.3199 -0.3758  0.7313
20440SOL     OW72973   7.903   2.938   0.073  0.9288 -0.1570 -0.1794
20440SOL    HW172974   7.996   2.917   0.043  1.0178  1.5503 -1.1278
20440SOL    HW272975   7.903   2.950   0.173  1.7787  0.1510 -0.2071
20441SOL     OW72976   8.280   6.724   6.943 -0.4032  0.7407 -0.1348
20441SOL    HW172977   8.209   6.789   6.917 -3.2265 -0.9973  2.8738
20441SOL    HW272978   8.320   6.752   7.030  0.9771  0.3965 -0.6435
20442SOL     OW72979   1.981   6.987   2.424 -0.0792 -0.2530  0.8646
20442SOL    HW172980   1.975   6.887   2.430  2.7990 -0.6718 -1.5640
20442SOL    HW272981   2.065   7.018   2.469  0.7512  0.6600 -1.2258
20443SOL     OW72982   1.131   4.891   6.300 -0.9133 -0.2866 -0.3187
20443SOL    HW172983   1.103   4.843   6.383 -0.3442 -0.6575 -0.3349
20443SOL    HW272984   1.217   4.939   6.316 -1.1853  0.2546 -0.4748
20444SOL     OW72985   2.041   8.012   4.278  0.4902 -0.8867  0.6939
20444SOL    HW172986   2.005   8.090   4.227  1.7634  0.0383  1.1713
20444SOL    HW272987   2.034   7.929   4.222  0.3711 -0.1827 -0.3529
20445SOL     OW72988   6.443   7.787   5.832  0.3240 -0.0675  0.0092
20445SOL    HW172989   6.460   7.881   5.803 -0.5852 -0.0640 -0.5356
20445SOL    HW272990   6.349   7.778   5.866  0.9882 -0.3633  1.8259
20446SOL     OW72991   8.835   4.741   5.623 -0.2053  0.2914 -0.3830
20446SOL    HW172992   8.797   4.814   5.680  1.1581 -0.6000  1.7419
20446SOL    HW272993   8.921   4.773   5.582 -0.6116  0.5425 -1.0481
20447SOL     OW72994   3.850   4.738   5.568 -0.4135 -0.2683 -0.4107
20447SOL    HW172995   3.867   4.642   5.547  0.2419  0.1584 -1.8776
20447SOL    HW272996   3.849   4.791   5.483  0.2275  1.1716  0.4658
20448SOL     OW72997   1.236   3.998   0.615  0.2092  0.3856  0.0711
20448SOL    HW172998   1.190   3.935   0.552 -1.7524 -1.5220  3.2531
20448SOL    HW272999   1.236   4.090   0.576 -1.8435 -0.5404 -2.2545
20449SOL     OW73000   2.296   8.056   3.292 -0.3521  0.3019  0.1219
20449SOL    HW173001   2.269   8.035   3.386 -0.5224 -0.9950 -0.2169
20449SOL    HW273002   2.216   8.084   3.240 -0.7133 -1.5515 -0.3363
20450SOL     OW73003   0.522   5.498   3.478 -0.0342  0.1300 -0.5807
20450SOL    HW173004   0.553   5.495   3.383 -2.7118 -1.0204 -1.4828
20450SOL    HW273005   0.496   5.592   3.502  0.7693  0.4455 -0.9527
20451SOL     OW73006   7.501   6.439   7.394  0.1044 -0.5510 -0.2898
20451SOL    HW173007   7.478   6.490   7.311  0.8884  0.6165  0.1901
20451SOL    HW273008   7.544   6.501   7.460 -0.2342 -1.5388  0.8677
20452SOL     OW73009   9.504   9.118   1.852  0.2503 -0.4539  0.0853
20452SOL    HW173010   9.419   9.065   1.844 -0.3864  0.7305 -1.2963
20452SOL    HW273011   9.583   9.059   1.838 -0.3138 -1.6598  1.8014
20453SOL     OW73012   3.465   9.587   2.485 -0.0319  0.4410  0.5687
20453SOL    HW173013   3.450   9.559   2.580 -0.7926 -1.2957 -0.0313
20453SOL    HW273014   3.387   9.641   2.454  0.0649  0.7353  0.8363
20454SOL     OW73015   0.830   3.869   4.583 -0.1188 -0.4936 -0.8052
20454SOL    HW173016   0.836   3.811   4.501 -0.7791 -1.6607 -0.0345
20454SOL    HW273017   0.898   3.943   4.576  1.4585 -1.9666 -1.3101
20455SOL     OW73018   2.935   4.884   7.139  0.4376  0.1490 -0.4513
20455SOL    HW173019   2.916   4.914   7.232  0.8626  2.1181 -0.9752
20455SOL    HW273020   2.927   4.784   7.133 -1.1720  0.1609  1.3038
20456SOL     OW73021   3.911   5.269   1.631  0.1153 -0.0800 -0.3181
20456SOL    HW173022   3.870   5.359   1.613 -0.1937 -0.1663 -0.0705
20456SOL    HW273023   4.001   5.281   1.674 -0.0017  0.1138 -0.1237
20457SOL     OW73024   2.604   7.535   3.282 -0.2198 -0.1138  0.2449
20457SOL    HW173025   2.580   7.632   3.292  0.7967  0.2657 -0.8174
20457SOL    HW273026   2.683   7.515   3.340  0.0935 -0.0985 -0.1753
20458SOL     OW73027   0.698   1.585   4.477  0.0947  0.0179 -0.8244
20458SOL    HW173028   0.713   1.645   4.556 -0.4598 -0.2070 -0.5399
20458SOL    HW273029   0.632   1.628   4.415 -1.3883 -0.9036  0.0735
20459SOL     OW73030   1.085   0.511   1.787 -0.2823 -0.5844 -0.3416
20459SOL    HW173031   1.104   0.512   1.885 -0.5939  0.3587 -0.2900
20459SOL    HW273032   1.072   0.417   1.756 -2.5997 -0.7273  0.9969
20460SOL     OW73033   3.713   1.017   7.200 -0.8903 -0.4157 -0.2420
20460SOL    HW173034   3.710   1.014   7.100  1.7893 -2.2907 -0.3154
20460SOL    HW273035   3.808   1.022   7.230 -1.6979  0.8116  2.2178
20461SOL     OW73036   3.987   8.409   5.776  0.2524 -0.1186  0.1743
20461SOL    HW173037   4.052   8.445   5.709  0.6175  0.4751  0.8390
20461SOL    HW273038   4.018   8.320   5.809 -0.1866 -0.6369 -0.8130
20462SOL     OW73039   3.158   8.544   5.233 -0.0579 -0.4529  0.7800
20462SOL    HW173040   3.166   8.556   5.134 -0.2919 -0.6763  0.7345
20462SOL    HW273041   3.166   8.447   5.256  1.7644 -0.2479  1.1454
20463SOL     OW73042   9.105   1.464   1.316 -0.2287  0.2217 -0.9534
20463SOL    HW173043   9.067   1.473   1.224 -1.9966 -1.1275 -0.3967
20463SOL    HW273044   9.124   1.367   1.334 -1.3033  0.3007  0.6367
20464SOL     OW73045   7.442   7.882   6.518  0.1609 -0.9166  0.0491
20464SOL    HW173046   7.455   7.784   6.504 -0.8964 -1.0620  0.0422
20464SOL    HW273047   7.442   7.902   6.616  2.4319 -0.6268  0.0034
20465SOL     OW73048   6.476   8.716   6.578  0.0593  0.4004 -0.2825
20465SOL    HW173049   6.450   8.668   6.494 -0.9343 -1.7885  1.2306
20465SOL    HW273050   6.406   8.702   6.648  0.0672  3.5535  0.4519
20466SOL     OW73051   7.865   6.996   4.736  0.1066 -0.0943  0.2821
20466SOL    HW173052   7.892   6.944   4.655 -1.1196 -2.4114  1.3186
20466SOL    HW273053   7.904   7.088   4.731  2.3334 -1.0845 -1.6011
20467SOL     OW73054   6.337   5.534   1.236 -0.5435  0.3770  0.1582
20467SOL    HW173055   6.340   5.568   1.142  0.6267 -1.0943 -0.3527
20467SOL    HW273056   6.304   5.606   1.296 -1.3157  1.3307 -1.3842
20468SOL     OW73057   1.237   6.795   3.020 -0.0268  0.3120 -0.2232
20468SOL    HW173058   1.237   6.888   3.057  0.6976  0.9210 -1.7391
20468SOL    HW273059   1.331   6.767   3.001 -0.4184  0.1156 -1.8866
20469SOL     OW73060   9.760   8.852   4.958  0.2123  0.1066 -0.5539
20469SOL    HW173061   9.799   8.789   4.891  0.0867 -0.0219 -0.5049
20469SOL    HW273062   9.784   8.946   4.933  1.2300 -0.0234 -0.0767
20470SOL     OW73063   4.238   3.632   2.517  0.2979 -0.5105 -0.0156
20470SOL    HW173064   4.204   3.618   2.424 -0.4944 -0.0863  0.2102
20470SOL    HW273065   4.286   3.720   2.522  0.5092 -0.6216 -0.0686
20471SOL     OW73066   9.787   0.925   4.496 -0.6362 -0.4050  0.0477
20471SOL    HW173067   9.739   1.012   4.504 -0.2464 -0.4114  2.8068
20471SOL    HW273068   9.767   0.884   4.407 -3.9378  0.6525  0.2400
20472SOL     OW73069   3.237   8.029   6.706 -0.0593 -0.2401 -0.2459
20472SOL    HW173070   3.273   8.122   6.696 -1.8319  0.3933 -0.8249
20472SOL    HW273071   3.291   7.966   6.650  0.0441  0.7183 -1.2304
20473SOL     OW73072   0.749   4.863   0.899 -0.2063  0.1958  0.2713
20473SOL    HW173073   0.781   4.956   0.916 -0.3562  0.6147 -1.5818
20473SOL    HW273074   0.810   4.798   0.944  0.7614  1.1521  0.3619
20474SOL     OW73075   3.478   5.934   5.264 -0.0728 -0.7137  0.3682
20474SOL    HW173076   3.473   6.032   5.243 -2.3602 -0.7817  0.4259
20474SOL    HW273077   3.491   5.921   5.362 -2.6924 -0.4380  0.7970
20475SOL     OW73078   8.813   4.260   6.594 -0.6772  0.8144  0.4692
20475SOL    HW173079   8.744   4.222   6.655  0.5244 -0.3440  1.1457
20475SOL    HW273080   8.812   4.211   6.507 -0.8431  0.9448  0.3963
20476SOL     OW73081   1.731   3.917   7.446 -0.0462  0.2224 -0.0926
20476SOL    HW173082   1.637   3.952   7.453 -0.3275 -0.5871  0.2407
20476SOL    HW273083   1.791   3.990   7.414 -0.6316  0.9989  0.5664
20477SOL     OW73084   9.887   8.099   0.294  0.5507 -0.4173 -0.2867
20477SOL    HW173085   9.853   8.013   0.256  1.3994 -0.6637 -0.5016
20477SOL    HW273086   9.938   8.080   0.377  0.6302 -0.1069 -0.2652
20478SOL     OW73087   1.934   4.790   6.991  0.0571 -0.0205  0.9168
20478SOL    HW173088   2.027   4.758   6.974 -0.4844 -0.6870 -0.9966
20478SOL    HW273089   1.901   4.753   7.078  1.4102 -0.1590  1.3742
20479SOL     OW73090   0.645   1.354   5.056 -0.5474 -0.3207 -0.0341
20479SOL    HW173091   0.579   1.280   5.045 -1.1664  0.1576  0.3972
20479SOL    HW273092   0.598   1.442   5.049 -0.0418  0.0201  0.7553
20480SOL     OW73093   9.875   2.249   1.305 -0.6103 -0.0184  0.4100
20480SOL    HW173094   9.935   2.296   1.369 -1.3260 -1.5916  2.2882
20480SOL    HW273095   9.786   2.295   1.302 -1.1164 -0.8906  1.8008
20481SOL     OW73096   1.173   6.567   3.870  0.2151  0.1081  0.0581
20481SOL    HW173097   1.158   6.666   3.866 -1.8028 -0.2314 -2.4774
20481SOL    HW273098   1.109   6.526   3.935  0.4156  0.3835  0.4276
20482SOL     OW73099   1.900   2.009   7.063  0.0792 -0.1764  0.0956
20482SOL    HW173100   1.961   2.084   7.036 -0.7035  1.0712  1.6983
20482SOL    HW273101   1.910   1.933   6.999  1.0520  1.2138 -1.4395
20483SOL     OW73102   3.340   7.228   4.258 -0.7845  0.0615  0.1375
20483SOL    HW173103   3.274   7.182   4.317 -2.0311  0.3840 -0.9717
20483SOL    HW273104   3.326   7.327   4.264 -1.0850  0.0850 -0.8672
20484SOL     OW73105   1.426   8.357   4.359  0.4829 -0.2122 -0.2620
20484SOL    HW173106   1.432   8.454   4.335 -1.5827  0.1046  0.4280
20484SOL    HW273107   1.503   8.332   4.418  0.6259  1.2004  0.1627
20485SOL     OW73108   2.168   3.264   6.969  0.0713 -0.1973  0.2071
20485SOL    HW173109   2.203   3.175   6.939  0.0905 -0.5073  1.1235
20485SOL    HW273110   2.170   3.268   7.069 -0.4351  0.6305  0.1862
20486SOL     OW73111   0.690   7.386   0.424 -0.0686  0.4799  0.1470
20486SOL    HW173112   0.602   7.356   0.388 -0.9220  2.7062  0.2777
20486SOL    HW273113   0.681   7.480   0.458  2.1906  0.4797  0.7903
20487SOL     OW73114   0.531   9.293   4.502 -0.0956 -0.0952 -0.3233
20487SOL    HW173115   0.566   9.383   4.525 -1.4621  0.0071  1.4730
20487SOL    HW273116   0.542   9.232   4.581  0.9978 -1.5763 -1.5805
20488SOL     OW73117   6.134   0.534   6.515  0.2663 -0.1730  0.7907
20488SOL    HW173118   6.164   0.496   6.603 -1.6138 -2.6698  0.3967
20488SOL    HW273119   6.214   0.547   6.456  1.3378 -0.1730  2.2093
20489SOL     OW73120   1.697   0.912   0.613 -0.4745 -0.5527  0.1514
20489SOL    HW173121   1.682   0.813   0.619 -2.7881 -0.1222  2.2468
20489SOL    HW273122   1.625   0.953   0.558  0.1831  0.0548 -0.2646
20490SOL     OW73123   7.810   3.883   3.334  0.1104  0.7707 -0.0170
20490SOL    HW173124   7.870   3.804   3.342  1.0362  1.4781 -0.0054
20490SOL    HW273125   7.758   3.893   3.419  0.8338  0.8641  0.4148
20491SOL     OW73126   4.617   0.909   2.313  0.1256 -0.3587  0.1615
20491SOL    HW173127   4.616   0.995   2.363 -3.1973 -1.3051  1.9113
20491SOL    HW273128   4.668   0.841   2.365  0.2389 -0.2265  0.2233
20492SOL     OW73129   9.632   9.976   5.341  0.0976  0.2022  0.1549
20492SOL    HW173130   9.639  10.076   5.334 -1.0328  0.2955  0.3344
20492SOL    HW273131   9.570   9.943   5.270  0.6733 -0.4043 -0.0673
20493SOL     OW73132   0.265   1.441   4.332 -0.0011 -0.1273 -0.0003
20493SOL    HW173133   0.187   1.397   4.289 -0.9695 -0.0644  1.6495
20493SOL    HW273134   0.311   1.376   4.392 -0.5208  0.6530  1.2552
20494SOL     OW73135   3.595   1.983   6.293 -0.6303 -0.2075  0.0053
20494SOL    HW173136   3.526   1.912   6.281 -0.3177 -0.4151 -0.6080
20494SOL    HW273137   3.648   1.993   6.209 -0.3335  0.3986  0.2542
20495SOL     OW73138   5.013   1.691   7.553  0.2428  0.5779 -0.1900
20495SOL    HW173139   4.924   1.707   7.511 -0.0232  0.3498  0.2896
20495SOL    HW273140   5.073   1.646   7.487 -0.7032 -1.3271  0.2121
20496SOL     OW73141   7.874   0.137   5.779 -0.5023 -0.0014 -0.2547
20496SOL    HW173142   7.886   0.058   5.839 -2.4807  0.1927  0.4153
20496SOL    HW273143   7.916   0.217   5.823  1.1934 -0.5852 -0.7768
20497SOL     OW73144   6.547   1.920   0.996  0.7423  0.4750 -0.0248
20497SOL    HW173145   6.550   1.995   0.930  0.3386  1.0340  0.5902
20497SOL    HW273146   6.468   1.931   1.056 -0.6604 -1.6856 -1.3834
20498SOL     OW73147   3.094   4.247   7.381  0.2676 -0.1828 -0.2772
20498SOL    HW173148   3.005   4.287   7.401 -0.7951 -2.1422 -0.9746
20498SOL    HW273149   3.166   4.307   7.416 -1.3136  1.3490  0.4248
20499SOL     OW73150   3.724   3.045   6.487  0.1736  0.4433  0.1182
20499SOL    HW173151   3.783   2.996   6.551  0.4650  0.4118 -0.1691
20499SOL    HW273152   3.748   3.018   6.394 -0.3269  0.4004  0.0038
20500SOL     OW73153   9.589   6.223   6.389  0.4314  0.2884 -0.1989
20500SOL    HW173154   9.667   6.161   6.387  1.3894  1.3794  1.9082
20500SOL    HW273155   9.512   6.178   6.435  0.4246 -0.0955 -0.5792
20501SOL     OW73156   0.147   1.290   8.136  0.2609 -0.1979 -0.4341
20501SOL    HW173157   0.204   1.314   8.058  0.8346  0.7493  0.2680
20501SOL    HW273158   0.076   1.225   8.107  0.3633  0.2768 -1.7727
20502SOL     OW73159   0.120   4.497   3.700  0.1656  0.3736 -0.3277
20502SOL    HW173160   0.123   4.550   3.784  1.7522  0.8673 -0.6798
20502SOL    HW273161   0.056   4.421   3.711  0.5938  0.2452  1.4358
20503SOL     OW73162   3.968   5.609   3.956 -0.2907 -0.0902  0.0207
20503SOL    HW173163   3.910   5.687   3.933 -1.3337 -0.7625  0.3337
20503SOL    HW273164   4.064   5.633   3.940 -0.7405  0.5750 -1.7975
20504SOL     OW73165   2.752   2.212   5.198 -0.1927 -0.3101 -0.1681
20504SOL    HW173166   2.757   2.277   5.123 -2.6984 -0.9959 -0.9797
20504SOL    HW273167   2.722   2.123   5.163  1.1261 -1.3612  1.2613
20505SOL     OW73168   7.593   1.730   6.077  0.1752  0.0416  0.2634
20505SOL    HW173169   7.608   1.730   5.978 -1.2020 -1.3009  0.0301
20505SOL    HW273170   7.658   1.668   6.120  1.4738  1.4258  0.3353
20506SOL     OW73171   1.704   8.705   3.488 -0.6080 -0.3600 -0.2016
20506SOL    HW173172   1.779   8.725   3.424 -1.0839 -0.2273 -0.7240
20506SOL    HW273173   1.741   8.691   3.580 -0.0759  1.1290 -0.1791
20507SOL     OW73174   9.763   7.129   7.999  0.3685  0.0001 -0.0131
20507SOL    HW173175   9.748   7.195   8.073  0.2390  0.8143 -0.7655
20507SOL    HW273176   9.741   7.037   8.032 -0.9159  0.5129  0.5647
20508SOL     OW73177   2.052   3.917   2.077 -0.8143 -0.0312  0.4981
20508SOL    HW173178   2.051   4.012   2.045 -1.9590 -0.5058 -0.9673
20508SOL    HW273179   2.140   3.875   2.054 -0.8479  0.2567 -0.1686
20509SOL     OW73180   8.538   8.323   4.817  0.1680  0.0855 -0.0690
20509SOL    HW173181   8.521   8.410   4.862 -0.4603  0.1202 -0.3607
20509SOL    HW273182   8.503   8.327   4.723  1.1545 -0.1016 -0.4485
20510SOL     OW73183   6.853   4.364   1.937 -0.0768  0.4119  0.1198
20510SOL    HW173184   6.871   4.452   1.893 -1.1354  0.6657  0.1719
20510SOL    HW273185   6.938   4.311   1.942  0.2166  0.7021 -1.4938
20511SOL     OW73186   1.432   1.158   7.158 -0.0321 -0.2382  0.2046
20511SOL    HW173187   1.489   1.117   7.087 -0.6074  1.2507 -1.1413
20511SOL    HW273188   1.389   1.086   7.212  1.5513 -1.3792 -0.0192
20512SOL     OW73189   8.042   6.217   2.967 -0.2218  0.0580  0.1370
20512SOL    HW173190   7.948   6.206   2.934  0.2640 -0.1474 -1.2043
20512SOL    HW273191   8.097   6.138   2.939  0.7598  0.9848 -0.6099
20513SOL     OW73192   3.687   0.363   6.670 -0.1498  0.0721 -0.5773
20513SOL    HW173193   3.703   0.409   6.582  2.1415  1.3478  0.4396
20513SOL    HW273194   3.621   0.416   6.723 -3.6562 -2.1411 -2.5268
20514SOL     OW73195   3.506   8.150   6.906  0.1447 -0.2123 -0.1174
20514SOL    HW173196   3.431   8.217   6.906 -1.0235 -1.5082 -0.3521
20514SOL    HW273197   3.478   8.068   6.954  2.4907  0.4257  2.4624
20515SOL     OW73198   6.427   3.512   1.078  0.1554 -0.1907  0.4415
20515SOL    HW173199   6.520   3.545   1.090  0.0977  0.3742 -0.6206
20515SOL    HW273200   6.406   3.504   0.981 -1.4782  1.3475  0.6462
20516SOL     OW73201   1.895   7.285   0.868  0.5167  0.0365 -0.2234
20516SOL    HW173202   1.861   7.192   0.882  3.6158 -1.2063 -0.5919
20516SOL    HW273203   1.872   7.341   0.948 -0.8689 -1.1733  0.2531
20517SOL     OW73204   7.543   3.043   2.507 -0.3464 -0.7139 -0.1032
20517SOL    HW173205   7.487   2.974   2.553 -1.2218  1.0816  1.5885
20517SOL    HW273206   7.486   3.097   2.445 -0.5989  1.3443  1.8757
20518SOL     OW73207   8.579   0.164   7.034 -0.0461 -0.2016  0.2827
20518SOL    HW173208   8.487   0.156   6.995  0.3940 -1.8009 -0.4753
20518SOL    HW273209   8.621   0.249   7.004 -0.5959 -0.3203 -0.8363
20519SOL     OW73210   5.513   0.357   2.349 -0.4226 -0.0018  0.0078
20519SOL    HW173211   5.599   0.338   2.396 -0.0473  2.6089  0.4887
20519SOL    HW273212   5.436   0.344   2.411 -0.3057 -1.2144 -0.0879
20520SOL     OW73213   0.996   9.455   7.938  0.2754  0.1490  0.0542
20520SOL    HW173214   1.082   9.499   7.915 -0.0231  0.5972 -0.2100
20520SOL    HW273215   1.014   9.372   7.992  0.8225  0.7489  0.8031
20521SOL     OW73216   0.855   5.204   1.936 -0.0762  0.4389 -0.1391
20521SOL    HW173217   0.764   5.229   1.969  0.1626  1.2729 -0.1089
20521SOL    HW273218   0.850   5.117   1.888 -0.6009 -0.3097  1.2511
20522SOL     OW73219   9.953   2.963   5.947 -0.7357  0.2315 -0.3447
20522SOL    HW173220   9.947   2.924   5.856  0.6021  0.2341 -0.4371
20522SOL    HW273221  10.040   3.011   5.958  0.2108 -1.8276  1.7318
20523SOL     OW73222   0.360   5.633   5.781 -0.1160  0.2002 -0.2096
20523SOL    HW173223   0.370   5.718   5.833  2.2660 -0.0084 -0.2796
20523SOL    HW273224   0.356   5.555   5.843 -0.0538  0.1695 -0.2446
20524SOL     OW73225   4.384   8.086   2.489  0.5719 -0.4952  0.1418
20524SOL    HW173226   4.306   8.047   2.440 -0.8767  1.9033  0.4635
20524SOL    HW273227   4.452   8.118   2.424  0.4344 -0.8836 -0.1961
20525SOL     OW73228   4.735   5.344   0.997 -0.1177  0.3946  0.0466
20525SOL    HW173229   4.781   5.328   1.084  2.1922 -0.7440 -1.3501
20525SOL    HW273230   4.686   5.432   1.001  2.2025  1.6663  1.5388
20526SOL     OW73231   1.465   1.235   2.311  0.6162  0.1545 -0.2976
20526SOL    HW173232   1.490   1.320   2.358  1.0862 -1.0766  1.7151
20526SOL    HW273233   1.390   1.253   2.247  1.1871  2.2213 -0.4073
20527SOL     OW73234   7.144   7.334   7.026  0.0260  0.4416 -0.2382
20527SOL    HW173235   7.118   7.240   7.050 -1.6826  1.3282  1.5008
20527SOL    HW273236   7.202   7.372   7.098  1.9830  0.2155 -1.6767
20528SOL     OW73237   8.191   0.882   1.181 -0.1586 -0.4471 -0.2566
20528SOL    HW173238   8.177   0.803   1.121 -1.6027  0.7351 -1.5141
20528SOL    HW273239   8.253   0.947   1.137 -1.1000  0.3594 -0.3914
20529SOL     OW73240   7.520   2.407   5.363  0.1377  0.0263 -0.8352
20529SOL    HW173241   7.597   2.352   5.395 -0.0499  0.0679 -0.3023
20529SOL    HW273242   7.545   2.504   5.364  0.8630 -0.1298 -2.8870
20530SOL     OW73243   2.545   4.063   0.825 -0.1267 -0.6443 -0.2696
20530SOL    HW173244   2.536   4.023   0.916  1.1743  0.4578  0.3583
20530SOL    HW273245   2.520   3.995   0.756 -0.9721 -1.5370  0.8951
20531SOL     OW73246   9.535   0.063   0.159 -0.7563 -0.0635  0.6730
20531SOL    HW173247   9.448   0.042   0.115 -0.9014  2.1067 -0.1340
20531SOL    HW273248   9.519   0.121   0.239 -0.0635  0.3071  0.5526
20532SOL     OW73249   6.292   2.029   4.671 -0.5728 -0.2694 -0.5292
20532SOL    HW173250   6.292   2.092   4.594  1.1338  0.0648 -0.2897
20532SOL    HW273251   6.331   2.074   4.751 -2.1397 -0.6783  0.4872
20533SOL     OW73252   9.173   3.857   2.935 -0.4045  0.1668  0.4848
20533SOL    HW173253   9.076   3.870   2.955 -0.7684  0.1598 -1.1563
20533SOL    HW273254   9.228   3.896   3.009 -1.6439  1.2505  0.8617
20534SOL     OW73255   3.014   8.864   4.855  0.0518  0.0871  0.2999
20534SOL    HW173256   3.013   8.964   4.857 -0.4166  0.0620  1.2614
20534SOL    HW273257   3.000   8.828   4.947  0.6008 -0.8667  0.0200
20535SOL     OW73258   0.141   8.484   7.679  0.0592  0.2801 -0.5383
20535SOL    HW173259   0.076   8.467   7.606  1.9168  0.7883 -2.3726
20535SOL    HW273260   0.217   8.419   7.672 -0.4631 -0.6544  1.8827
20536SOL     OW73261   9.045   3.039   2.766 -0.1765 -0.5999 -0.2437
20536SOL    HW173262   9.009   2.991   2.686 -0.8661  2.3867 -1.8013
20536SOL    HW273263   9.136   3.004   2.787  0.3254 -0.9573 -2.7945
20537SOL     OW73264   4.095   0.330   0.817 -0.6174  0.5209 -0.2907
20537SOL    HW173265   4.047   0.407   0.775 -0.5680  1.7879  1.8721
20537SOL    HW273266   4.029   0.266   0.856 -0.6242  0.3450 -0.5905
20538SOL     OW73267   6.844   7.202   3.427  0.7726 -0.2190  0.1023
20538SOL    HW173268   6.779   7.189   3.351  0.6813  0.6721  0.0233
20538SOL    HW273269   6.936   7.181   3.395  1.0108  2.1511 -0.8615
20539SOL     OW73270   2.211   3.180   7.302  0.1348 -0.3999  0.0332
20539SOL    HW173271   2.222   3.234   7.385  1.6331  1.1753 -1.1387
20539SOL    HW273272   2.301   3.166   7.259 -0.4782 -2.1158 -0.7645
20540SOL     OW73273   9.394   0.838   7.951 -0.3809 -0.7803 -0.2706
20540SOL    HW173274   9.388   0.805   8.045  1.6723 -1.7400 -0.4563
20540SOL    HW273275   9.483   0.880   7.935 -1.3725  1.0069 -1.2873
20541SOL     OW73276   5.642   1.946   4.790  0.5028 -0.0289 -0.0654
20541SOL    HW173277   5.655   1.976   4.696  1.4672 -1.3317 -0.3691
20541SOL    HW273278   5.597   2.018   4.843 -1.4095  0.1455 -1.8735
20542SOL     OW73279   4.467   1.559   3.578  0.3803  0.0836  0.0823
20542SOL    HW173280   4.403   1.542   3.653  1.3359 -1.4332  0.5556
20542SOL    HW273281   4.555   1.517   3.598  1.2105  1.2049 -1.0809
20543SOL     OW73282   3.583   7.299   0.728  0.1745  0.8841  0.5185
20543SOL    HW173283   3.527   7.228   0.770 -0.3613  0.6537 -0.5919
20543SOL    HW273284   3.550   7.318   0.636  2.2138  0.4155 -0.3207
20544SOL     OW73285   7.190   3.771   3.006  0.4107 -0.2875 -0.1700
20544SOL    HW173286   7.266   3.764   3.070 -0.1460 -1.7342  0.3693
20544SOL    HW273287   7.134   3.688   3.012 -0.4796  0.1988 -1.4761
20545SOL     OW73288   1.971   9.160   0.753  0.1889 -0.5499 -0.2564
20545SOL    HW173289   2.066   9.134   0.737  0.3020 -0.4328  0.2275
20545SOL    HW273290   1.964   9.260   0.756 -0.0547 -0.5408 -0.9318
20546SOL     OW73291   3.510   8.466   2.467 -0.2192 -0.4635  0.3746
20546SOL    HW173292   3.574   8.418   2.408  1.1163  0.2574  1.1961
20546SOL    HW273293   3.435   8.405   2.492  0.7827 -1.7139  0.3779
20547SOL     OW73294   5.387   4.317   1.350  0.5588 -0.2530  0.2048
20547SOL    HW173295   5.350   4.382   1.416 -2.4268  0.0896 -1.7025
20547SOL    HW273296   5.313   4.281   1.293  2.6999 -2.3667 -1.3712
20548SOL     OW73297   0.096   1.006   3.855 -0.0926 -1.0515 -1.0167
20548SOL    HW173298   0.164   1.055   3.910 -1.6532 -0.5782  0.5627
20548SOL    HW273299   0.037   0.952   3.916 -1.1875 -1.3746 -2.3361
20549SOL     OW73300   0.461   0.590   7.239 -0.3630 -0.4095 -0.0661
20549SOL    HW173301   0.383   0.575   7.178 -0.6593 -1.9081  0.6543
20549SOL    HW273302   0.540   0.620   7.186 -1.8663  2.8253 -0.6070
20550SOL     OW73303   8.723   1.546   4.597 -0.0038 -0.3546  0.2150
20550SOL    HW173304   8.675   1.546   4.685 -0.7658  0.7124 -0.1954
20550SOL    HW273305   8.751   1.639   4.574 -2.3039 -0.1630 -2.0176
20551SOL     OW73306   4.548   9.777   6.696 -0.2673  0.0944  0.2995
20551SOL    HW173307   4.631   9.756   6.644 -1.6167  0.8407 -2.2475
20551SOL    HW273308   4.497   9.693   6.712  0.7781 -0.3222  1.5927
20552SOL     OW73309   2.166   9.084   2.133  0.2157  0.1536  0.1601
20552SOL    HW173310   2.143   9.011   2.197  1.2884 -0.9526 -0.6953
20552SOL    HW273311   2.266   9.093   2.128  0.1172  0.6513 -0.9003
20553SOL     OW73312   2.584   6.463   0.935  0.3107 -0.3390  0.4854
20553SOL    HW173313   2.542   6.490   0.848  1.3866 -3.2417 -1.0290
20553SOL    HW273314   2.513   6.430   0.997 -0.4298  1.4347  0.6123
20554SOL     OW73315   1.230   5.994   0.051 -0.0639 -0.4216  0.3158
20554SOL    HW173316   1.156   5.933   0.079 -0.3063 -1.0097 -1.5571
20554SOL    HW273317   1.316   5.943   0.046  0.1227 -0.1498  0.6961
20555SOL     OW73318   0.395   7.799   3.660  0.4704 -0.5344 -0.4425
20555SOL    HW173319   0.412   7.846   3.573 -0.9509  0.1042 -0.3829
20555SOL    HW273320   0.297   7.787   3.673  0.7563 -2.2692  0.2256
20556SOL     OW73321   7.306   0.030   3.965 -0.5333 -0.4237  0.6151
20556SOL    HW173322   7.292  -0.061   3.925  1.8610 -0.0995 -1.0632
20556SOL    HW273323   7.311   0.098   3.892 -1.6939  0.9918  1.8278
20557SOL     OW73324   8.048   7.937   1.625 -0.1676 -0.1937 -0.8503
20557SOL    HW173325   8.069   8.011   1.690 -0.2067 -1.0977  0.2085
20557SOL    HW273326   8.071   7.967   1.533 -0.4979  1.2674 -0.4722
20558SOL     OW73327   1.907   3.051   0.343  0.1131 -0.6486 -0.2379
20558SOL    HW173328   1.983   2.997   0.378  1.1721  0.8196 -0.2459
20558SOL    HW273329   1.940   3.118   0.276 -1.1734 -0.0031 -0.2582
20559SOL     OW73330   4.742   4.358   7.819  0.0379  0.4413 -0.2617
20559SOL    HW173331   4.693   4.340   7.734 -0.5640  0.6901  0.0306
20559SOL    HW273332   4.812   4.288   7.833 -0.6699 -0.2915 -0.3569
20560SOL     OW73333   5.473   1.803   0.365  0.3481  0.1335 -0.2169
20560SOL    HW173334   5.461   1.890   0.316  0.3231  0.7557  0.8703
20560SOL    HW273335   5.570   1.782   0.372  0.4504  0.8661  0.8348
20561SOL     OW73336   4.169   9.708   2.219  0.3139 -0.1243 -0.0697
20561SOL    HW173337   4.097   9.721   2.287  2.4910  1.9104  1.9397
20561SOL    HW273338   4.191   9.610   2.212 -0.3643 -0.4149  1.7225
20562SOL     OW73339   6.908   8.198   3.132 -0.2073  0.2139  0.4941
20562SOL    HW173340   6.837   8.176   3.200 -0.8304  0.1034 -0.1867
20562SOL    HW273341   6.867   8.201   3.041  0.5140  0.9610  0.1930
20563SOL     OW73342   7.430   6.127   0.303 -0.0928 -0.9150 -0.2869
20563SOL    HW173343   7.382   6.041   0.285  3.6122 -3.5674  1.5342
20563SOL    HW273344   7.426   6.147   0.401  0.6032 -0.0513 -0.4307
20564SOL     OW73345   1.370   6.045   2.964 -0.0081 -0.0554  0.1704
20564SOL    HW173346   1.284   6.023   2.919  1.4112 -1.7148 -1.8135
20564SOL    HW273347   1.359   6.036   3.063 -2.7270  2.0927  0.1115
20565SOL     OW73348   8.761   4.670   0.056 -0.1347  0.0281  0.4150
20565SOL    HW173349   8.836   4.645  -0.006  0.7314  1.3772  0.9018
20565SOL    HW273350   8.681   4.615   0.034  1.4505 -2.5677  0.8945
20566SOL     OW73351   1.045   7.780   3.345  0.1344  0.3915 -0.0242
20566SOL    HW173352   1.003   7.830   3.269  0.4604 -0.6884 -0.9384
20566SOL    HW273353   0.985   7.705   3.373  0.0173  0.7872  0.7930
20567SOL     OW73354   1.088   1.770   5.974 -0.6541  0.4402  0.2850
20567SOL    HW173355   1.040   1.806   5.894 -0.1533 -1.0455 -0.7040
20567SOL    HW273356   1.102   1.671   5.963  1.1411  0.5657  1.3181
20568SOL     OW73357   1.604   3.548   0.261 -0.3044  0.6166  0.2388
20568SOL    HW173358   1.649   3.510   0.342 -0.8423 -2.2818 -0.7715
20568SOL    HW273359   1.670   3.554   0.186 -0.7534 -0.2881 -0.2215
20569SOL     OW73360   5.731   1.448   7.435 -0.4690  0.3119  0.0693
20569SOL    HW173361   5.757   1.381   7.505 -2.5726  2.1193  2.7139
20569SOL    HW273362   5.691   1.401   7.357 -1.9514 -1.5816  1.8853
20570SOL     OW73363   8.556   6.998   2.486 -0.6534  0.2487  0.4671
20570SOL    HW173364   8.466   6.965   2.513 -0.7062 -0.0984 -0.1342
20570SOL    HW273365   8.551   7.095   2.464 -1.2361 -0.1638 -1.2440
20571SOL     OW73366   8.074   5.198   6.344 -0.1898 -0.2441 -0.1884
20571SOL    HW173367   8.142   5.262   6.311 -0.2197 -0.3412 -0.4370
20571SOL    HW273368   8.042   5.140   6.269  1.7892 -2.3605  0.5443
20572SOL     OW73369   2.933   7.724   0.194  0.1185  0.0619 -0.4178
20572SOL    HW173370   2.931   7.807   0.251  1.1680 -0.7335  0.8043
20572SOL    HW273371   2.841   7.704   0.162 -0.5110  0.4951  1.0557
20573SOL     OW73372   6.441   0.533   2.645 -0.6232  0.1283  0.0782
20573SOL    HW173373   6.538   0.552   2.664 -0.4126 -0.0682 -0.7946
20573SOL    HW273374   6.435   0.457   2.580 -1.2990  2.1606 -2.3101
20574SOL     OW73375   5.577   4.887   0.003  0.7508 -0.4140 -0.0222
20574SOL    HW173376   5.501   4.851   0.057  2.2421 -0.3952  2.1700
20574SOL    HW273377   5.649   4.920   0.064  2.1974  0.3089 -2.0391
20575SOL     OW73378   2.988   2.133   6.601  0.0887 -0.0769 -0.1574
20575SOL    HW173379   2.894   2.167   6.599  0.9019  2.3865  1.4955
20575SOL    HW273380   3.047   2.193   6.547  1.1224 -0.2231  0.7816
20576SOL     OW73381   5.221   9.308   4.239  0.7322 -0.3696 -0.2854
20576SOL    HW173382   5.275   9.224   4.231  0.9451 -0.3081  0.4449
20576SOL    HW273383   5.136   9.289   4.288 -0.1316 -0.5599 -1.8438
20577SOL     OW73384   8.648   0.399   6.920 -0.1483 -0.0614 -0.3450
20577SOL    HW173385   8.587   0.469   6.957  0.4398  1.7512 -2.6907
20577SOL    HW273386   8.741   0.435   6.915  0.4131 -1.4691 -0.3836
20578SOL     OW73387   0.313   6.279   0.930  0.5396 -0.5816  0.2772
20578SOL    HW173388   0.284   6.310   0.839 -2.3099 -0.3095  1.2531
20578SOL    HW273389   0.282   6.185   0.945 -2.7860  0.7814  2.5532
20579SOL     OW73390   1.342   1.662   6.991 -0.7926 -0.4492  0.1713
20579SOL    HW173391   1.296   1.702   6.911 -0.0177 -1.8909 -1.0236
20579SOL    HW273392   1.440   1.676   6.982 -0.8977  2.1103  2.4325
20580SOL     OW73393   2.238   7.313   4.662  0.1909 -0.0607 -0.5403
20580SOL    HW173394   2.309   7.380   4.641 -0.1117 -0.3976 -2.7708
20580SOL    HW273395   2.280   7.223   4.675  0.4197  0.2196  0.6572
20581SOL     OW73396   8.809   3.379   8.087 -0.4924  0.5027  0.6426
20581SOL    HW173397   8.867   3.426   8.020 -1.3365  1.1774  0.3734
20581SOL    HW273398   8.846   3.393   8.179  1.1107 -1.0737  0.2698
20582SOL     OW73399   2.519   1.601   3.447  0.6687  0.2518  0.2240
20582SOL    HW173400   2.525   1.631   3.352  1.0848  0.0691  0.1944
20582SOL    HW273401   2.485   1.508   3.451 -2.2066  1.2666  0.3881
20583SOL     OW73402   2.896   5.826   3.615  0.4256 -0.1551 -0.2692
20583SOL    HW173403   2.932   5.886   3.686 -0.9946 -0.1976  0.5215
20583SOL    HW273404   2.841   5.754   3.658 -1.1975  0.3385 -1.4612
20584SOL     OW73405   0.374   2.252   3.151 -0.2590  0.0718 -0.0550
20584SOL    HW173406   0.467   2.220   3.167  0.2385  1.1842 -0.7197
20584SOL    HW273407   0.337   2.208   3.069 -0.0601  0.1889 -0.2062
20585SOL     OW73408   2.928   4.884   4.580  0.2681  0.6084  0.0553
20585SOL    HW173409   2.872   4.848   4.654  1.2332  1.2077  1.1044
20585SOL    HW273410   3.023   4.893   4.611  1.1446 -1.1899 -1.9485
20586SOL     OW73411   2.218   1.096   4.298 -0.3153 -0.4371  0.2586
20586SOL    HW173412   2.196   1.126   4.391 -0.7729 -0.4064  0.1386
20586SOL    HW273413   2.160   1.019   4.273  1.2845 -1.8443  0.7943
20587SOL     OW73414   7.174   9.772   2.283  0.0360  0.0896  0.4078
20587SOL    HW173415   7.164   9.823   2.368 -0.0890  1.2252 -0.2718
20587SOL    HW273416   7.262   9.795   2.240 -1.7413  2.8414 -1.9027
20588SOL     OW73417   8.793   1.602   6.932 -0.0751  0.0709 -0.1628
20588SOL    HW173418   8.771   1.609   7.029 -0.5762 -0.6144 -0.2227
20588SOL    HW273419   8.893   1.601   6.921 -0.0167  0.8889  0.2823
20589SOL     OW73420   3.261   7.803   1.523  0.0761 -0.2967 -0.2398
20589SOL    HW173421   3.194   7.771   1.590  1.1289 -1.0401  0.4515
20589SOL    HW273422   3.316   7.727   1.490  3.0185  0.8183  1.8752
20590SOL     OW73423   0.511   5.122   2.916  0.1613 -0.3276 -0.1677
20590SOL    HW173424   0.427   5.155   2.957  0.8937  0.4978  0.6959
20590SOL    HW273425   0.557   5.059   2.980 -0.1902 -1.4005 -0.9564
20591SOL     OW73426   1.542   3.167   1.568  0.4442  0.5917 -1.1348
20591SOL    HW173427   1.594   3.177   1.483  0.4786  1.6281 -0.9896
20591SOL    HW273428   1.539   3.070   1.593  0.0413  0.2150 -2.5675
20592SOL     OW73429   0.475   0.955   4.772 -0.0598  0.3339  0.5928
20592SOL    HW173430   0.481   1.031   4.708  2.5741  0.2775  0.7398
20592SOL    HW273431   0.566   0.933   4.807 -0.7962 -2.7360  0.7136
20593SOL     OW73432   9.439   8.101   7.564 -0.2462  0.0394  0.2087
20593SOL    HW173433   9.522   8.156   7.553 -0.6540  0.3848 -1.1592
20593SOL    HW273434   9.462   8.004   7.551  0.3897 -0.0934  2.1929
20594SOL     OW73435   9.811   1.584   5.372 -0.0051 -0.0040  0.2209
20594SOL    HW173436   9.861   1.538   5.446  1.1407 -0.3320 -0.7549
20594SOL    HW273437   9.858   1.570   5.286  0.7157  3.5430 -0.0265
20595SOL     OW73438   9.604   9.995   1.493  0.8977 -0.4262  0.3884
20595SOL    HW173439   9.521  10.005   1.549 -0.0519  0.6953 -1.1644
20595SOL    HW273440   9.674   9.948   1.546  0.5707  1.9599  3.1085
20596SOL     OW73441   8.952   5.425   5.213  0.7626  0.3531  0.6381
20596SOL    HW173442   8.898   5.374   5.279 -0.8497  2.2214  0.8246
20596SOL    HW273443   8.963   5.371   5.129 -0.6863 -0.3986  0.9167
20597SOL     OW73444   6.538   0.574   0.883  0.4630 -0.8254  0.0365
20597SOL    HW173445   6.625   0.594   0.928  0.5106 -1.9707  0.4761
20597SOL    HW273446   6.555   0.513   0.805  0.0007 -1.4939  0.4533
20598SOL     OW73447   2.809   0.884   0.551 -0.0007  0.3416 -0.0226
20598SOL    HW173448   2.725   0.867   0.602  0.9602 -0.4166  1.3271
20598SOL    HW273449   2.802   0.840   0.461 -0.0249 -1.9784  1.0724
20599SOL     OW73450   8.446   9.354   5.051 -0.0992 -0.4994  0.5042
20599SOL    HW173451   8.532   9.315   5.018  0.1308 -0.8641  1.5152
20599SOL    HW273452   8.399   9.399   4.976  2.1469  1.8712  0.4483
20600SOL     OW73453   2.136   2.950   6.723 -0.4034 -0.6502 -0.3844
20600SOL    HW173454   2.127   2.851   6.729  0.4965 -0.6790  0.4815
20600SOL    HW273455   2.056   2.994   6.764 -0.1424 -1.0045  0.5146
20601SOL     OW73456   2.120   6.698   4.600  0.3548 -0.0758 -0.0156
20601SOL    HW173457   2.122   6.618   4.659 -0.3718 -1.1612 -1.4450
20601SOL    HW273458   2.100   6.779   4.655  0.9615 -0.8878  1.4139
20602SOL     OW73459   3.053   3.636   2.450 -0.0295 -0.3891  0.0360
20602SOL    HW173460   2.969   3.605   2.405  0.0588  0.3315 -0.6401
20602SOL    HW273461   3.042   3.731   2.478 -0.2255 -0.9562  1.9089
20603SOL     OW73462   4.105   0.408   7.307 -0.2328  0.1296 -0.4175
20603SOL    HW173463   4.143   0.449   7.225 -0.2560 -0.2058 -0.5939
20603SOL    HW273464   4.113   0.309   7.303  1.7807  0.1983  0.9742
20604SOL     OW73465   3.576   8.133   6.136  0.4703  0.6565 -0.3363
20604SOL    HW173466   3.492   8.147   6.189  2.1479  0.6399  2.3967
20604SOL    HW273467   3.557   8.147   6.039 -1.9340  3.9937  0.5571
20605SOL     OW73468   9.025   1.224   6.838 -0.3951 -0.2358 -0.2887
20605SOL    HW173469   8.950   1.246   6.901  0.6952 -0.7621  1.2080
20605SOL    HW273470   9.026   1.291   6.764 -2.6352 -0.4881 -0.5926
20606SOL     OW73471   1.470   2.252   1.513  0.1604  0.7368  0.0128
20606SOL    HW173472   1.504   2.313   1.442  0.2437  3.1856  2.1105
20606SOL    HW273473   1.544   2.229   1.576  0.0975 -1.4429 -0.6394
20607SOL     OW73474   1.261   4.421   4.643 -0.0570  0.1533 -0.3652
20607SOL    HW173475   1.220   4.358   4.577  1.2635 -0.1133 -0.9425
20607SOL    HW273476   1.320   4.485   4.596  0.3970  0.3707  0.4874
20608SOL     OW73477   9.343   3.748   0.413 -0.1643 -0.3497  0.5440
20608SOL    HW173478   9.246   3.724   0.421 -0.3865  0.8836  1.7794
20608SOL    HW273479   9.365   3.766   0.317 -0.6372 -2.6709 -0.0410
20609SOL     OW73480   1.525   5.741   1.718  0.3783  0.5194  0.0923
20609SOL    HW173481   1.437   5.698   1.740 -0.4640  2.3532  0.3618
20609SOL    HW273482   1.595   5.706   1.782 -0.5206  0.3736  1.0190
20610SOL     OW73483   4.694   5.395   3.537 -0.0422  0.5611 -0.5002
20610SOL    HW173484   4.685   5.459   3.461 -0.4299  1.4115  0.2424
20610SOL    HW273485   4.696   5.447   3.623 -0.8117 -0.4609  0.1393
20611SOL     OW73486   3.796   3.788   7.654  0.1679 -0.6103  0.2448
20611SOL    HW173487   3.873   3.851   7.647 -0.7831  0.3179 -3.1008
20611SOL    HW273488   3.721   3.821   7.595 -1.4939 -3.2529  0.7961
20612SOL     OW73489   0.968   9.103   2.777  0.9995  0.0869 -0.3681
20612SOL    HW173490   1.022   9.122   2.695  2.5621  0.6255  0.7648
20612SOL    HW273491   0.993   9.014   2.814  0.7091  0.0945 -0.1580
20613SOL     OW73492   6.050   8.809   3.136  0.3507 -0.4323  0.2617
20613SOL    HW173493   6.121   8.874   3.109  0.3708 -1.5204 -2.4778
20613SOL    HW273494   5.969   8.859   3.168  1.4290  0.8528  1.0082
20614SOL     OW73495   7.118   6.866   6.172  0.2526 -0.0460  0.1743
20614SOL    HW173496   7.096   6.768   6.175 -1.4173  0.3590  2.3527
20614SOL    HW273497   7.181   6.888   6.247 -0.7070  0.8440  0.7325
20615SOL     OW73498   8.760   3.520   7.643  0.4400 -0.4041 -0.1819
20615SOL    HW173499   8.714   3.437   7.611 -0.7671  0.1339  0.1417
20615SOL    HW273500   8.760   3.521   7.743  0.1050  0.1636 -0.1842
20616SOL     OW73501   3.390   6.280   2.516  0.2181  0.1736  0.4359
20616SOL    HW173502   3.431   6.226   2.442 -2.3098 -0.9461 -0.2285
20616SOL    HW273503   3.314   6.333   2.479 -0.4168  0.3915  2.0428
20617SOL     OW73504   0.717   8.296   7.000 -0.3401  0.0819  0.3086
20617SOL    HW173505   0.696   8.348   6.917 -1.3051  0.4367  0.7743
20617SOL    HW273506   0.708   8.356   7.080  0.2250 -0.3586  0.7084
20618SOL     OW73507   2.453   2.628   2.838  0.3980 -0.1212  0.0096
20618SOL    HW173508   2.356   2.619   2.814  0.3527 -2.7189  1.0481
20618SOL    HW273509   2.504   2.551   2.801  1.7143  0.1768  1.1565
20619SOL     OW73510   0.815   9.476   2.279  0.1067 -0.2145 -0.0170
20619SOL    HW173511   0.800   9.401   2.214  2.1653 -1.5163  0.9717
20619SOL    HW273512   0.732   9.532   2.284 -0.3156 -0.4277 -3.2921
20620SOL     OW73513   9.614   2.849   7.034  0.1706 -0.0234  0.7010
20620SOL    HW173514   9.563   2.921   7.081  0.1779  0.3155  0.1918
20620SOL    HW273515   9.614   2.766   7.090  0.1401  0.3631  1.2764
20621SOL     OW73516   1.095   8.921   0.337 -0.3803  0.0409  0.0780
20621SOL    HW173517   1.041   8.850   0.291  2.5646 -1.3480 -1.3250
20621SOL    HW273518   1.070   9.010   0.300 -1.6120 -0.5730 -0.6241
20622SOL     OW73519   5.244   0.999   7.855  0.1607 -0.6116 -0.0908
20622SOL    HW173520   5.262   1.014   7.758 -0.3302 -1.7454 -0.3571
20622SOL    HW273521   5.198   0.912   7.868 -0.7247  0.0106  1.0606
20623SOL     OW73522   8.329   9.498   4.818 -0.2478  0.0877  0.3455
20623SOL    HW173523   8.363   9.592   4.819 -2.9426  1.1122 -1.0250
20623SOL    HW273524   8.386   9.444   4.755  1.0605  0.8736  0.8254
20624SOL     OW73525   0.805   9.366   5.632 -0.6816 -0.1167  0.0935
20624SOL    HW173526   0.835   9.448   5.681  2.0805 -1.3997  0.6751
20624SOL    HW273527   0.864   9.351   5.553 -1.4502 -1.3035 -0.2679
20625SOL     OW73528   4.191   3.529   1.843  0.6682  1.0187 -0.0768
20625SOL    HW173529   4.154   3.447   1.887  0.6132  0.6819 -0.7512
20625SOL    HW273530   4.131   3.607   1.862  0.0471  0.6436 -0.4759
20626SOL     OW73531   1.284   7.239   3.743  0.5774  0.1045 -0.3147
20626SOL    HW173532   1.299   7.337   3.754  1.3383 -0.0187 -0.2289
20626SOL    HW273533   1.305   7.192   3.829  0.4262 -0.1564 -0.4203
20627SOL     OW73534   1.188   6.285   6.725 -0.0765  0.1759  0.0154
20627SOL    HW173535   1.190   6.381   6.752  1.1593  0.1750 -0.0442
20627SOL    HW273536   1.265   6.237   6.767  0.2135 -0.4485 -1.2204
20628SOL     OW73537   2.777   2.225   1.232  0.3441  0.3682  0.2087
20628SOL    HW173538   2.683   2.244   1.203 -0.2515 -0.4799  1.5712
20628SOL    HW273539   2.814   2.305   1.280  0.3821  0.7519 -0.4440
20629SOL     OW73540   6.968   0.232   1.153 -0.1895 -0.7265 -0.2300
20629SOL    HW173541   6.930   0.193   1.069 -1.0708 -0.2191 -0.0723
20629SOL    HW273542   7.067   0.242   1.143 -0.3023 -0.5708 -1.2523
20630SOL     OW73543   4.214   3.565   3.466 -0.7795 -0.3509  0.4631
20630SOL    HW173544   4.174   3.512   3.540 -1.3916  0.4046  0.6832
20630SOL    HW273545   4.209   3.663   3.488 -1.6098 -0.0690 -0.8629
20631SOL     OW73546   1.845   9.488   1.185  0.7492 -0.1069  0.6392
20631SOL    HW173547   1.833   9.569   1.128  1.3220  1.2529  2.3948
20631SOL    HW273548   1.815   9.407   1.135  1.3025  1.0327 -1.5822
20632SOL     OW73549   7.839   2.954   6.113  0.1656 -1.0597 -0.1575
20632SOL    HW173550   7.861   3.009   6.033  1.1580 -0.2848  0.6208
20632SOL    HW273551   7.744   2.968   6.139 -0.3192 -1.7427 -1.5144
20633SOL     OW73552   8.057   8.555   3.704  0.7150 -0.0811 -0.6241
20633SOL    HW173553   8.057   8.626   3.774 -0.2335 -0.5741 -0.1147
20633SOL    HW273554   8.038   8.466   3.746  3.2571 -0.8716 -1.0540
20634SOL     OW73555   9.419   3.305   0.512 -0.1861  0.2119  0.2767
20634SOL    HW173556   9.348   3.273   0.450 -0.4270  0.5512  0.3761
20634SOL    HW273557   9.507   3.309   0.464  0.4655 -3.3909  1.0085
20635SOL     OW73558   8.967   6.090   6.694 -0.3838 -0.1998  0.1106
20635SOL    HW173559   8.944   6.134   6.607 -1.2260 -0.3265  0.2565
20635SOL    HW273560   9.049   6.131   6.733  0.0906 -0.2553 -0.8262
20636SOL     OW73561   8.822   9.765   0.617 -0.5428 -0.1164 -0.4526
20636SOL    HW173562   8.831   9.779   0.715 -1.8449 -0.5938 -0.2572
20636SOL    HW273563   8.912   9.772   0.574 -0.0930  1.0171  0.6470
20637SOL     OW73564   6.301   7.406   6.159  0.0088  0.0044 -0.0044
20637SOL    HW173565   6.301   7.456   6.245 -0.6029 -0.4169  0.2419
20637SOL    HW273566   6.208   7.383   6.134  0.2646 -0.7596 -0.2626
20638SOL     OW73567   2.567   3.162   0.609 -0.5452 -0.4465 -0.0887
20638SOL    HW173568   2.643   3.102   0.635 -0.8810 -0.6134  0.5150
20638SOL    HW273569   2.510   3.116   0.541 -0.1477 -0.3451 -0.4989
20639SOL     OW73570   3.704   6.438   7.804  0.1744  0.6022  0.0250
20639SOL    HW173571   3.791   6.421   7.852  1.2772  2.4857 -1.2764
20639SOL    HW273572   3.678   6.355   7.755  1.1300 -0.0548  0.5863
20640SOL     OW73573   4.306   9.011   8.052  0.2017 -0.5797 -0.0662
20640SOL    HW173574   4.270   9.028   8.143  0.1466 -1.8647  0.1582
20640SOL    HW273575   4.405   9.023   8.052  0.1858 -0.4491  0.1319
20641SOL     OW73576   3.155   7.700   3.732 -0.1032 -0.1188 -0.4008
20641SOL    HW173577   3.145   7.637   3.655 -0.2492 -1.4905  0.7240
20641SOL    HW273578   3.071   7.698   3.786  0.9127 -1.0342  1.1733
20642SOL     OW73579   9.152   7.897   7.332 -0.3765  0.0385 -0.8868
20642SOL    HW173580   9.191   7.894   7.240  0.1553  0.7444 -0.6979
20642SOL    HW273581   9.168   7.988   7.371  0.7563 -0.7179  0.4693
20643SOL     OW73582   1.306   5.478   6.425 -0.0485 -0.1394  0.0787
20643SOL    HW173583   1.357   5.528   6.495  2.6593 -0.4358 -1.6052
20643SOL    HW273584   1.282   5.387   6.460  1.7764 -0.5001  0.4201
20644SOL     OW73585   8.129   0.085   2.896  0.4147 -0.4363 -0.4165
20644SOL    HW173586   8.040   0.130   2.885  0.0952 -0.9427  0.0751
20644SOL    HW273587   8.148   0.073   2.994  0.7800 -0.8169 -0.5333
20645SOL     OW73588   4.245   4.276   7.987 -0.1905  0.6245  0.2527
20645SOL    HW173589   4.251   4.291   8.085 -0.3697  1.6498  0.1062
20645SOL    HW273590   4.269   4.360   7.938  1.5611 -0.3339 -0.6176
20646SOL     OW73591   4.642   0.936   3.604  0.1681 -0.5420  0.4551
20646SOL    HW173592   4.583   0.862   3.569 -1.0932  0.5956  0.1153
20646SOL    HW273593   4.648   0.929   3.703 -0.0978 -1.0171  0.4397
20647SOL     OW73594   8.001   2.378   2.115 -0.2534  0.1924 -0.2385
20647SOL    HW173595   7.979   2.351   2.022  0.2406 -1.0130 -0.0147
20647SOL    HW273596   8.042   2.470   2.115  1.7198 -0.6592 -1.4294
20648SOL     OW73597   3.386   3.515   3.526 -0.4159  0.3084 -0.1044
20648SOL    HW173598   3.441   3.597   3.540 -1.8696  0.7952  3.0510
20648SOL    HW273599   3.295   3.540   3.493 -0.7433 -0.0708  0.5096
20649SOL     OW73600   5.714   4.488   7.632  0.3484  0.3313  0.2688
20649SOL    HW173601   5.729   4.448   7.722 -0.1366  0.6395  0.4860
20649SOL    HW273602   5.786   4.555   7.613  0.7492 -0.1158  0.2053
20650SOL     OW73603   3.062   6.910   0.108  0.4999  0.1868  0.1533
20650SOL    HW173604   2.978   6.955   0.077  1.2021  0.4587 -1.4138
20650SOL    HW273605   3.110   6.872   0.029  1.9468  0.1899  1.0234
20651SOL     OW73606   9.934   7.206   2.555 -0.3988  0.0809 -0.1861
20651SOL    HW173607   9.866   7.137   2.580 -1.5956  1.8921  1.7394
20651SOL    HW273608   9.893   7.272   2.492 -0.4500  1.1213  0.9063
20652SOL     OW73609   6.064   5.294   0.622 -0.2518 -0.1771 -0.8944
20652SOL    HW173610   6.090   5.382   0.581  1.0800 -0.2009 -0.1185
20652SOL    HW273611   6.111   5.220   0.574  0.8982 -0.2450  0.3190
20653SOL     OW73612   8.302   0.775   4.757  0.8684  0.2554  0.4548
20653SOL    HW173613   8.400   0.758   4.766  0.6951 -0.8701  0.2323
20653SOL    HW273614   8.272   0.753   4.664  0.4223  0.7029  0.4883
20654SOL     OW73615   2.015   2.914   7.968 -0.3053  0.4289  0.5805
20654SOL    HW173616   1.941   2.848   7.976 -2.8566  3.3270  1.9895
20654SOL    HW273617   2.030   2.959   8.056  2.8567  0.2280  0.2113
20655SOL     OW73618   1.287   9.189   2.792 -0.0019  0.1887 -0.5883
20655SOL    HW173619   1.363   9.151   2.845  0.5216  0.8802 -0.8373
20655SOL    HW273620   1.215   9.221   2.855  1.4659  2.8193 -0.1693
20656SOL     OW73621   9.723   2.489   0.430  0.3199 -0.2003 -0.0602
20656SOL    HW173622   9.629   2.482   0.465  0.7200 -0.9187  0.9106
20656SOL    HW273623   9.766   2.399   0.433  0.9075  0.0440 -0.9058
20657SOL     OW73624   2.913   3.248   7.633  0.0765  0.1311 -0.7888
20657SOL    HW173625   2.973   3.320   7.599  1.3816 -0.6138 -0.0907
20657SOL    HW273626   2.926   3.165   7.580 -0.5277  0.0435 -0.8022
20658SOL     OW73627   6.276   1.620   1.132 -0.7334  0.3269  0.7789
20658SOL    HW173628   6.328   1.553   1.078 -0.3270  0.8040  0.5661
20658SOL    HW273629   6.307   1.617   1.227  0.4197  1.3146  0.4536
20659SOL     OW73630   9.376   7.281   0.573 -0.2456  0.3019 -0.3079
20659SOL    HW173631   9.388   7.239   0.663  0.4769 -0.6515 -0.8409
20659SOL    HW273632   9.324   7.366   0.583 -0.4495  0.0435  0.9656
20660SOL     OW73633   0.323   1.110   1.863  1.0489  0.3669 -0.6769
20660SOL    HW173634   0.307   1.163   1.946  0.2358  0.6773 -1.0276
20660SOL    HW273635   0.410   1.061   1.871  1.5957  1.4180 -0.1837
20661SOL     OW73636   1.161   6.933   1.767 -0.6383 -0.0612  0.6426
20661SOL    HW173637   1.074   6.911   1.811 -2.6275  0.9344 -2.5860
20661SOL    HW273638   1.143   6.985   1.683  3.0421 -0.5893 -0.5422
20662SOL     OW73639   4.037   5.050   2.567  0.4973  0.6722 -0.0262
20662SOL    HW173640   4.034   5.115   2.491  0.2646  0.0927 -0.5148
20662SOL    HW273641   4.052   5.100   2.653  0.9003  1.3128 -0.4638
20663SOL     OW73642   1.634   0.233   0.068 -0.0003  0.6459  0.4451
20663SOL    HW173643   1.700   0.262   0.137 -1.8055 -2.2549  3.5549
20663SOL    HW273644   1.555   0.294   0.069 -0.1206  0.4810  1.1118
20664SOL     OW73645   7.816   9.027   4.501  0.0996  0.5116  0.6385
20664SOL    HW173646   7.737   9.018   4.561 -0.8293  1.6267 -0.4059
20664SOL    HW273647   7.881   8.953   4.521 -1.4555 -0.7582  1.1042
20665SOL     OW73648   1.253   1.117   0.143 -0.1677  0.4949  0.2774
20665SOL    HW173649   1.215   1.187   0.204 -0.5759  1.6688 -1.2916
20665SOL    HW273650   1.240   1.145   0.048  2.4761 -0.2375 -0.3366
20666SOL     OW73651   2.830   6.055   6.921  0.0234 -0.3729  0.5720
20666SOL    HW173652   2.813   6.151   6.898 -2.5724 -0.9259 -0.0177
20666SOL    HW273653   2.786   5.997   6.853  0.8717 -1.9985  1.3903
20667SOL     OW73654   8.485   1.227   3.669  0.2534 -0.0032 -0.2612
20667SOL    HW173655   8.494   1.326   3.663  0.0658  0.0301 -0.0102
20667SOL    HW273656   8.479   1.200   3.765 -1.5877 -0.0875 -0.3899
20668SOL     OW73657   3.519   7.641   5.957 -0.2833  0.0085  0.1742
20668SOL    HW173658   3.464   7.608   6.034 -2.0539  0.1690 -1.0071
20668SOL    HW273659   3.547   7.735   5.974  1.2085 -0.6671  1.6163
20669SOL     OW73660   1.467   9.426   7.082 -0.1754 -0.3856 -0.6478
20669SOL    HW173661   1.475   9.510   7.028 -1.9496 -1.3993 -2.5443
20669SOL    HW273662   1.398   9.367   7.041 -0.7784 -1.6704  2.1430
20670SOL     OW73663   1.048   1.678   0.834  0.4778  0.1592  0.7198
20670SOL    HW173664   1.055   1.776   0.853  0.3782  0.3095  0.0246
20670SOL    HW273665   0.994   1.634   0.905  0.9782  0.5168  1.3249
20671SOL     OW73666   3.827   3.777   3.808  0.2317 -0.1143  0.4125
20671SOL    HW173667   3.739   3.731   3.794  0.3743 -0.4341  0.5746
20671SOL    HW273668   3.812   3.859   3.863 -0.0814  0.2513 -0.2077
20672SOL     OW73669   7.056   1.880   4.997 -0.0945 -0.3499 -0.5010
20672SOL    HW173670   6.982   1.888   5.064  0.5113  0.4822  0.0725
20672SOL    HW273671   7.059   1.962   4.941 -0.7084 -1.1115 -1.6786
20673SOL     OW73672   8.216   9.765   0.199  0.3042  0.1278 -0.1587
20673SOL    HW173673   8.177   9.840   0.252 -0.3744 -0.3287 -0.0099
20673SOL    HW273674   8.213   9.789   0.102  1.7548  1.0537  0.0191
20674SOL     OW73675   0.510   4.652   0.054 -0.2517 -0.2175 -0.2034
20674SOL    HW173676   0.574   4.626  -0.018 -0.2576  1.5787 -0.8798
20674SOL    HW273677   0.558   4.701   0.127 -0.5927 -0.2469  0.0470
20675SOL     OW73678   0.551   2.864   0.661 -0.3494  0.3143 -0.1715
20675SOL    HW173679   0.567   2.941   0.723 -0.7880  0.9151 -0.8018
20675SOL    HW273680   0.477   2.807   0.696  1.5716 -1.2107  1.5796
20676SOL     OW73681   8.759   2.903   6.577 -0.1919  0.1822 -0.0830
20676SOL    HW173682   8.800   2.934   6.491 -1.0966 -1.9105 -1.2965
20676SOL    HW273683   8.778   2.970   6.649  2.9705  0.6043 -1.2401
20677SOL     OW73684   4.765   9.355   4.145 -0.2993  0.1303  0.2002
20677SOL    HW173685   4.681   9.357   4.199 -0.8239  0.5517 -0.6091
20677SOL    HW273686   4.809   9.445   4.147  1.2951 -0.6749  2.3898
20678SOL     OW73687   2.804   3.776   7.962 -0.0066 -0.4735 -0.5357
20678SOL    HW173688   2.728   3.809   8.017  0.0633 -2.0429  0.5551
20678SOL    HW273689   2.778   3.690   7.918  1.3421 -1.4065  0.4213
20679SOL     OW73690   1.650   2.970   3.218 -0.1981 -0.5545  0.5058
20679SOL    HW173691   1.711   3.021   3.278 -1.6568  2.4736 -0.5202
20679SOL    HW273692   1.555   2.981   3.250 -0.8082 -0.3084 -1.3471
20680SOL     OW73693   2.098   6.267   2.592  0.3886  0.5134  0.3165
20680SOL    HW173694   2.192   6.294   2.572 -0.3462  3.1169  0.2199
20680SOL    HW273695   2.041   6.280   2.511 -0.2618 -0.1193  0.6597
20681SOL     OW73696   0.974   3.944   1.126  0.0449 -0.1546 -0.1203
20681SOL    HW173697   0.965   3.878   1.200 -3.5077  2.0146  1.5332
20681SOL    HW273698   1.016   4.028   1.162 -2.0150  1.0355 -0.3673
20682SOL     OW73699   3.047   6.028   3.736  0.0775  0.4026  0.3288
20682SOL    HW173700   3.042   6.039   3.835 -0.9776 -2.8334  0.7204
20682SOL    HW273701   3.140   6.004   3.709  0.2119  0.5954  0.6283
20683SOL     OW73702   7.448   2.608   6.139 -0.3106  0.5577  0.0987
20683SOL    HW173703   7.542   2.586   6.115 -0.9433  0.4459 -2.4358
20683SOL    HW273704   7.447   2.668   6.220  1.8609 -0.2478  0.7527
20684SOL     OW73705   4.643   1.382   5.036 -0.2569 -0.2408  0.2919
20684SOL    HW173706   4.673   1.443   4.963  0.3848 -0.4281  0.4032
20684SOL    HW273707   4.601   1.436   5.110 -0.2973  0.0020  0.0899
20685SOL     OW73708   9.629   4.250   3.118  0.3051  0.3995  0.3508
20685SOL    HW173709   9.541   4.296   3.106 -0.0750 -0.4260 -0.0681
20685SOL    HW273710   9.646   4.189   3.041  0.1743 -1.1635  1.5308
20686SOL     OW73711   3.653   4.072   6.540  0.2476  0.2459  0.1607
20686SOL    HW173712   3.720   4.038   6.474  1.8042  1.0315  1.2952
20686SOL    HW273713   3.562   4.037   6.517  0.9779 -0.5160 -1.6363
20687SOL     OW73714   0.189   5.582   0.461 -0.3760 -0.2306  0.1384
20687SOL    HW173715   0.284   5.611   0.467  0.3118 -2.2650 -0.5578
20687SOL    HW273716   0.181   5.505   0.398 -2.4737 -0.1227  0.2296
20688SOL     OW73717   4.270   7.715   6.553 -0.1069  0.6433 -0.1094
20688SOL    HW173718   4.336   7.651   6.590  1.0689  0.9895 -1.5503
20688SOL    HW273719   4.182   7.704   6.600  1.2143  0.8140  2.4598
20689SOL     OW73720   4.945   4.245   5.100 -0.0565  0.5329  1.0774
20689SOL    HW173721   4.963   4.324   5.160  0.9923  0.8078  0.4047
20689SOL    HW273722   4.994   4.165   5.135  0.5919  0.7038  0.5712
20690SOL     OW73723   4.257   1.299   7.865  0.1201  0.3746 -0.2634
20690SOL    HW173724   4.249   1.200   7.852  0.4526  0.2782  0.2762
20690SOL    HW273725   4.334   1.333   7.811  0.8935  0.1211  0.6745
20691SOL     OW73726   0.449   6.760   3.536 -0.5724 -0.9440  0.3768
20691SOL    HW173727   0.529   6.757   3.476 -1.1192 -0.4609 -0.3779
20691SOL    HW273728   0.371   6.798   3.486 -1.5026 -2.2140  0.8447
20692SOL     OW73729   6.709   1.755   0.209 -0.1073  0.4639  0.1320
20692SOL    HW173730   6.768   1.674   0.202  2.0734  1.7984  2.3288
20692SOL    HW273731   6.652   1.748   0.291 -0.7173  0.6213 -0.2814
20693SOL     OW73732   2.190   5.501   1.736 -0.0180  0.4080 -0.2898
20693SOL    HW173733   2.204   5.414   1.783  0.0272  0.7503  0.3520
20693SOL    HW273734   2.104   5.499   1.686 -0.9514  0.6566  1.2745
20694SOL     OW73735   8.337   4.076   7.394  0.3067 -0.1125 -0.1227
20694SOL    HW173736   8.302   3.983   7.388 -0.2051  0.1457 -1.1776
20694SOL    HW273737   8.285   4.127   7.462 -0.7063 -0.0306 -0.9461
20695SOL     OW73738   3.816   4.876   3.760  0.5438 -0.6469 -0.5327
20695SOL    HW173739   3.779   4.835   3.677  0.1432  0.0826 -0.7215
20695SOL    HW273740   3.831   4.974   3.745 -2.9513  0.2508  1.3983
20696SOL     OW73741   2.252   2.327   5.553  0.3392  0.3030 -0.0554
20696SOL    HW173742   2.155   2.349   5.548  0.2133  0.3072  1.9320
20696SOL    HW273743   2.275   2.296   5.646  1.9381 -1.0997 -0.8817
20697SOL     OW73744   1.140   3.388   4.803 -0.2683  0.4023 -0.0770
20697SOL    HW173745   1.225   3.345   4.772 -0.7443  0.2235 -1.1534
20697SOL    HW273746   1.157   3.485   4.823  0.0105  0.5729 -1.1076
20698SOL     OW73747   8.685   2.743   7.786 -0.3749  0.2169 -0.1396
20698SOL    HW173748   8.661   2.659   7.835 -0.1454  0.0600 -0.2980
20698SOL    HW273749   8.713   2.814   7.852  1.9192 -0.6232 -0.1724
20699SOL     OW73750   1.237   1.813   0.376 -0.0007  0.5976  0.0410
20699SOL    HW173751   1.240   1.818   0.277  0.1070  0.3601  0.0308
20699SOL    HW273752   1.198   1.897   0.413 -0.6714  0.4110 -0.2351
20700SOL     OW73753   2.494   9.414   4.165 -0.3340  0.0316 -0.2173
20700SOL    HW173754   2.493   9.419   4.065  1.5790  0.6101 -0.2241
20700SOL    HW273755   2.403   9.390   4.198 -1.1836  0.6511 -2.0595
20701SOL     OW73756   7.034   1.498   3.978 -0.4546 -0.1659  0.0551
20701SOL    HW173757   6.984   1.585   3.973  0.7401  0.5383 -0.0835
20701SOL    HW273758   6.994   1.432   3.914 -2.8008 -0.4859  1.8172
20702SOL     OW73759   0.302   3.241   1.858 -0.3202 -0.2867 -0.2463
20702SOL    HW173760   0.234   3.273   1.792 -1.4256 -0.6104  0.7210
20702SOL    HW273761   0.303   3.303   1.937  0.4750 -0.3068 -0.2403
20703SOL     OW73762   7.535   3.828   5.297 -0.0768 -0.5956 -0.0406
20703SOL    HW173763   7.573   3.918   5.278  0.4264 -0.7115  0.4358
20703SOL    HW273764   7.524   3.778   5.211 -1.7356  0.4681 -0.4712
20704SOL     OW73765   4.575   0.926   4.853  0.3690 -0.5145 -0.0939
20704SOL    HW173766   4.645   0.940   4.784  1.4157 -0.4354  0.9608
20704SOL    HW273767   4.553   1.013   4.897  1.2117 -0.8756  1.0770
20705SOL     OW73768   9.441   3.038   1.013  0.6169  0.0857  0.4467
20705SOL    HW173769   9.443   3.041   0.913  0.3892  0.5785  0.4570
20705SOL    HW273770   9.535   3.039   1.048  0.6797  0.7016  0.2606
20706SOL     OW73771   8.608   5.605   1.574 -0.4496 -1.1930  0.0800
20706SOL    HW173772   8.696   5.557   1.569  0.1433 -0.2433  1.1137
20706SOL    HW273773   8.535   5.538   1.590 -0.0417 -2.0777 -1.6134
20707SOL     OW73774   1.957   1.635   6.603  0.1594 -0.0615 -0.0302
20707SOL    HW173775   1.939   1.603   6.510  0.6686  0.8963 -0.4626
20707SOL    HW273776   2.033   1.584   6.642  2.4921  2.1293 -1.5535
20708SOL     OW73777   7.289   5.735   7.110 -0.2124  0.4346  0.2728
20708SOL    HW173778   7.311   5.674   7.034  0.5613  0.1201  0.7380
20708SOL    HW273779   7.192   5.759   7.107 -0.8751 -2.0119  0.9183
20709SOL     OW73780   0.802   3.233   0.637 -0.4342  0.5080  0.0071
20709SOL    HW173781   0.715   3.225   0.685  0.0291  0.2575  0.8202
20709SOL    HW273782   0.806   3.168   0.562 -0.7095  0.0955  0.3486
20710SOL     OW73783   4.008   2.939   5.421  0.5738 -0.1215 -0.0677
20710SOL    HW173784   3.973   3.031   5.443 -1.3496 -0.7103 -0.5287
20710SOL    HW273785   3.952   2.871   5.469  0.8373 -1.1239 -1.1733
20711SOL     OW73786   3.651   9.325   1.211  0.5923 -0.4247 -0.1679
20711SOL    HW173787   3.643   9.239   1.159  0.0430 -0.8614  0.6268
20711SOL    HW273788   3.598   9.318   1.295  0.5731  0.6927 -0.0806
20712SOL     OW73789   0.851   8.540   7.582 -0.6464  0.4413  0.4780
20712SOL    HW173790   0.855   8.469   7.512  0.3260  1.7364 -0.8069
20712SOL    HW273791   0.823   8.500   7.669  2.2297 -1.9689  0.3597
20713SOL     OW73792   2.735   8.315   4.551  0.3619  0.0339  0.3411
20713SOL    HW173793   2.709   8.385   4.617  0.7986  0.4503  0.0735
20713SOL    HW273794   2.805   8.256   4.590  1.0596  0.6523  0.0348
20714SOL     OW73795   0.934   8.359   7.370  0.6728 -0.5314  0.5192
20714SOL    HW173796   0.924   8.264   7.401  0.5652 -1.0217 -0.9772
20714SOL    HW273797   1.031   8.378   7.352  0.6104 -0.5606  0.1626
20715SOL     OW73798   8.500   4.679   6.785  0.3985 -0.0205 -0.5738
20715SOL    HW173799   8.503   4.615   6.863 -0.2050  0.1796 -0.3810
20715SOL    HW273800   8.456   4.634   6.707  0.6063 -0.0751 -0.6593
20716SOL     OW73801   0.598   3.921   7.299  0.3215  0.2117 -0.2772
20716SOL    HW173802   0.685   3.926   7.250  0.6346  1.0770  0.3608
20716SOL    HW273803   0.550   3.837   7.273  0.7065  0.4171 -1.6855
20717SOL     OW73804   7.576   1.671   2.655  0.2832  0.6250 -0.3318
20717SOL    HW173805   7.610   1.612   2.728  0.6805  0.3037 -0.7776
20717SOL    HW273806   7.490   1.635   2.620  0.8946 -0.1112 -1.1105
20718SOL     OW73807   0.129   2.395   6.951  0.0017 -0.4082 -0.7573
20718SOL    HW173808   0.068   2.459   6.905  0.4381  0.2398 -0.4530
20718SOL    HW273809   0.104   2.301   6.927 -2.0103 -0.2183  0.4654
20719SOL     OW73810   0.560   2.223   4.360 -0.1484  0.4488 -0.2292
20719SOL    HW173811   0.510   2.165   4.295  1.9643 -2.0334  0.2576
20719SOL    HW273812   0.504   2.302   4.384 -2.6146 -0.7080 -1.9270
20720SOL     OW73813   2.372   8.891   5.570 -0.4117  0.3485  0.5101
20720SOL    HW173814   2.466   8.865   5.545 -0.2706  1.2495  0.0461
20720SOL    HW273815   2.319   8.809   5.590  0.1373 -0.2622 -0.4549
20721SOL     OW73816   7.634   2.604   3.767 -0.2965  0.5921  0.0452
20721SOL    HW173817   7.670   2.512   3.782 -2.1280  0.0269  1.0727
20721SOL    HW273818   7.705   2.661   3.726  1.3021 -0.8893  0.6964
20722SOL     OW73819   0.030   3.032   2.838 -0.3651  0.0706  0.3848
20722SOL    HW173820   0.046   3.044   2.936  0.9475  0.0771  0.1747
20722SOL    HW273821   0.091   3.091   2.786 -0.4428 -0.5786 -0.4634
20723SOL     OW73822   4.336   4.878   2.959 -0.2498  0.4199  0.6746
20723SOL    HW173823   4.282   4.825   3.024  0.3272 -0.5134  0.4129
20723SOL    HW273824   4.433   4.853   2.968  0.0815  1.7071  0.8026
20724SOL     OW73825   6.669   7.892   3.582  0.4449  0.6061  0.5160
20724SOL    HW173826   6.661   7.956   3.659  0.0044 -1.4346  2.2194
20724SOL    HW273827   6.708   7.939   3.503  0.7499  2.7970  1.9389
20725SOL     OW73828   6.886   6.714   7.177  0.0334  0.3906 -0.4410
20725SOL    HW173829   6.866   6.741   7.083 -1.5166  1.9312  0.2870
20725SOL    HW273830   6.880   6.615   7.186  0.9819  0.1693 -2.1406
20726SOL     OW73831   9.768   5.155   4.244 -0.0823  0.1028 -0.1145
20726SOL    HW173832   9.748   5.247   4.279  0.6614  0.6699 -1.1460
20726SOL    HW273833   9.863   5.152   4.212 -0.6425 -0.4883 -1.7687
20727SOL     OW73834   2.734   7.279   7.088  0.0671  0.2743  0.0013
20727SOL    HW173835   2.793   7.210   7.130  0.8301  1.8310  1.5504
20727SOL    HW273836   2.758   7.288   6.991  1.1340 -0.4270  0.1900
20728SOL     OW73837   6.223   9.035   3.066  0.3313 -0.5810  0.0737
20728SOL    HW173838   6.281   9.097   3.119  1.1880 -0.6283 -0.7959
20728SOL    HW273839   6.128   9.064   3.073  0.4975 -0.3134  1.2563
20729SOL     OW73840   3.894   0.703   7.348 -0.0234 -0.5981  0.0436
20729SOL    HW173841   3.878   0.798   7.376 -0.1442 -0.3751 -0.7942
20729SOL    HW273842   3.977   0.670   7.392 -0.0664 -0.1613  0.4671
20730SOL     OW73843   2.385   8.578   6.824  0.6090 -0.3548  0.6373
20730SOL    HW173844   2.358   8.483   6.833  1.3009 -0.3235  3.6417
20730SOL    HW273845   2.484   8.586   6.837  0.5485  0.7724  0.4594
20731SOL     OW73846   9.901   6.127   6.072 -0.1012  0.1029 -0.0423
20731SOL    HW173847   9.848   6.076   6.140  0.0099 -0.2447 -0.2132
20731SOL    HW273848   9.973   6.068   6.036  0.4498  0.5966  0.2454
20732SOL     OW73849   6.505   8.377   2.848  0.0876  0.0182  0.2941
20732SOL    HW173850   6.495   8.281   2.821  0.5193  0.0172  0.1290
20732SOL    HW273851   6.437   8.432   2.800  0.2500 -0.1156 -0.0914
20733SOL     OW73852   3.824   4.842   4.174 -0.0754 -0.7637  0.2406
20733SOL    HW173853   3.810   4.919   4.237 -1.5780 -0.0969 -0.8693
20733SOL    HW273854   3.782   4.760   4.212 -2.0284 -0.0978 -0.3689
20734SOL     OW73855   5.620   9.549   4.680 -0.3640  0.2864 -0.1381
20734SOL    HW173856   5.596   9.452   4.671 -0.0273  0.3068 -1.4336
20734SOL    HW273857   5.561   9.604   4.620 -1.1108  0.9802  1.2116
20735SOL     OW73858   0.485   2.707   0.986  0.0412 -0.3583  0.4250
20735SOL    HW173859   0.557   2.767   1.020  0.7761 -0.8203 -0.2958
20735SOL    HW273860   0.512   2.611   0.998  0.4006 -0.5392 -1.5949
20736SOL     OW73861   2.760   1.982   6.456 -0.1785 -0.0237 -0.0891
20736SOL    HW173862   2.720   1.897   6.423  0.4620 -0.5160  0.3960
20736SOL    HW273863   2.858   1.970   6.472 -0.2073  0.6022  0.6209
20737SOL     OW73864   2.081   9.715   2.411  0.3969 -0.4036 -0.0119
20737SOL    HW173865   2.125   9.804   2.424  1.6998 -0.8648 -1.1379
20737SOL    HW273866   2.134   9.661   2.345 -1.8751 -0.9718 -1.4439
20738SOL     OW73867   2.263   8.128   5.228 -0.4540  0.2442 -0.0487
20738SOL    HW173868   2.188   8.178   5.271 -0.5708  0.4375 -0.4723
20738SOL    HW273869   2.265   8.149   5.130  0.4860  0.6685  0.0502
20739SOL     OW73870   4.590   4.996   8.067 -0.0746  0.3286  0.1238
20739SOL    HW173871   4.602   4.918   8.129 -0.7395  0.6012  0.6019
20739SOL    HW273872   4.541   5.069   8.115 -0.2063  0.7134 -0.5928
20740SOL     OW73873   1.440   0.655   0.170  0.5315 -0.1564  0.2486
20740SOL    HW173874   1.502   0.638   0.094  2.1482  1.1185  1.2262
20740SOL    HW273875   1.413   0.568   0.211 -0.0167 -0.8287 -1.4955
20741SOL     OW73876   7.262   4.969   0.490 -0.2765 -0.3231  0.0077
20741SOL    HW173877   7.164   4.947   0.490 -0.2638 -0.4116  1.3407
20741SOL    HW273878   7.292   4.986   0.584  1.0929 -0.7535 -0.3467
20742SOL     OW73879   6.766   0.629   4.140  0.8085  0.7184 -0.5570
20742SOL    HW173880   6.861   0.658   4.147  0.3096  2.3414 -0.2331
20742SOL    HW273881   6.758   0.533   4.167  2.5442  0.1664 -1.8845
20743SOL     OW73882   1.379   5.996   7.264  0.1657  0.5822 -0.7198
20743SOL    HW173883   1.475   6.012   7.239  0.1629  0.7466 -0.6218
20743SOL    HW273884   1.337   6.082   7.293  0.2887  0.3093  0.2677
20744SOL     OW73885   8.919   5.727   7.629  0.2933  0.0086  0.3871
20744SOL    HW173886   8.852   5.683   7.569 -0.2753 -0.1096  1.1006
20744SOL    HW273887   8.925   5.677   7.716  1.1107  0.1765  0.4317
20745SOL     OW73888   7.693   2.838   6.705 -0.3383 -0.5469  0.3733
20745SOL    HW173889   7.757   2.780   6.754  1.5308  0.6666 -0.5693
20745SOL    HW273890   7.727   2.854   6.612 -1.3382  1.1649  0.2788
20746SOL     OW73891   0.233   7.067   5.886 -0.5066  0.4033 -0.1094
20746SOL    HW173892   0.190   7.113   5.809 -1.1121 -0.8010 -0.4975
20746SOL    HW273893   0.219   6.969   5.878 -0.2572  0.2403  1.3421
20747SOL     OW73894   9.353   1.252   4.266 -0.7729  0.0233 -0.2196
20747SOL    HW173895   9.360   1.169   4.210  0.7199 -0.8358  1.2008
20747SOL    HW273896   9.305   1.231   4.351  1.1914  0.1836  0.9416
20748SOL     OW73897   2.745   8.997   0.281 -0.8329 -0.4477 -0.3339
20748SOL    HW173898   2.831   8.962   0.319 -1.2541 -0.3018  0.7473
20748SOL    HW273899   2.702   9.060   0.346 -1.9800 -0.8575 -0.6796
20749SOL     OW73900   7.400   4.730   1.316 -0.1093 -0.2140  0.1380
20749SOL    HW173901   7.448   4.756   1.231  1.4999  0.4915  1.2255
20749SOL    HW273902   7.371   4.812   1.364 -3.1577 -0.6408 -0.8592
20750SOL     OW73903   9.050   0.265   2.283 -0.0179 -0.0948 -0.4941
20750SOL    HW173904   9.126   0.257   2.347  0.4510 -0.4364 -1.0920
20750SOL    HW273905   8.965   0.281   2.334  0.4511  0.3034  0.1746
20751SOL     OW73906   2.475   5.516   6.661  1.0172  0.4082  0.0492
20751SOL    HW173907   2.519   5.430   6.685  1.5307  0.7393  0.2850
20751SOL    HW273908   2.377   5.500   6.645  1.1713 -0.2737 -0.2239
20752SOL     OW73909   5.332   9.383   2.899  0.0724 -0.4049  0.0365
20752SOL    HW173910   5.294   9.416   2.813 -0.2917 -0.1180  0.3025
20752SOL    HW273911   5.281   9.302   2.930  1.0529 -1.3029 -0.6838
20753SOL     OW73912   7.436   2.478   0.070 -0.2812  0.0769 -0.1309
20753SOL    HW173913   7.527   2.517   0.085 -0.4086  0.0155  0.8118
20753SOL    HW273914   7.432   2.385   0.107 -0.4561 -0.2559 -0.9760
20754SOL     OW73915   0.206   3.798   7.345  0.0838 -0.2440  0.1463
20754SOL    HW173916   0.261   3.878   7.371 -0.0975  0.1236 -0.5943
20754SOL    HW273917   0.162   3.815   7.257  0.6392 -1.4561 -0.3817
20755SOL     OW73918   8.881   4.848   7.781  0.1612 -0.4886  0.6034
20755SOL    HW173919   8.864   4.792   7.700 -1.4963 -1.0479  1.3021
20755SOL    HW273920   8.801   4.907   7.798  0.8100  0.1857  1.3819
20756SOL     OW73921   3.810   2.181   0.403  0.5060 -0.3464 -0.7178
20756SOL    HW173922   3.902   2.203   0.435 -0.9431  0.5010  3.2876
20756SOL    HW273923   3.781   2.094   0.444 -0.9510  0.0936 -0.7960
20757SOL     OW73924   1.328   4.589   0.967 -0.0417 -0.1963 -0.2247
20757SOL    HW173925   1.398   4.536   1.016 -0.7157  0.0646  1.0527
20757SOL    HW273926   1.300   4.538   0.886 -0.2962 -1.5701  0.6946
20758SOL     OW73927   2.693   6.580   3.271  0.0411 -0.0665 -0.6604
20758SOL    HW173928   2.704   6.544   3.364  1.5615 -0.5067 -0.9904
20758SOL    HW273929   2.657   6.673   3.275  0.0750 -0.0936  0.3766
20759SOL     OW73930   1.975   9.978   2.029 -0.1510 -0.9207  0.0832
20759SOL    HW173931   1.916  10.012   1.955 -0.7402  0.2039  1.0580
20759SOL    HW273932   1.968  10.039   2.108  4.1279  0.5988 -0.5808
20760SOL     OW73933   5.060   5.231   1.645  0.1930 -0.0662  0.0041
20760SOL    HW173934   5.154   5.243   1.677  0.8257 -1.8142 -1.1636
20760SOL    HW273935   5.034   5.311   1.591  1.3632  0.0134 -0.4753
20761SOL     OW73936   0.845   7.269   3.275 -0.3997 -0.2886 -0.7352
20761SOL    HW173937   0.760   7.317   3.254  1.1282  2.7481 -0.2569
20761SOL    HW273938   0.878   7.223   3.193 -2.2631 -1.1272 -1.0399
20762SOL     OW73939   8.714   5.671   6.588 -0.0040  0.0538 -0.0772
20762SOL    HW173940   8.622   5.638   6.568 -0.2056  0.2267  0.5618
20762SOL    HW273941   8.751   5.717   6.507  0.3713 -1.9418 -1.0805
20763SOL     OW73942   1.179   5.514   2.156  0.2576 -0.2509  0.0829
20763SOL    HW173943   1.158   5.555   2.067  1.7681 -0.3432 -0.3434
20763SOL    HW273944   1.264   5.553   2.191  0.9541 -1.9633  0.3464
20764SOL     OW73945   1.560   2.833   2.319 -0.1801 -0.0664 -0.1830
20764SOL    HW173946   1.482   2.893   2.339 -0.4438 -0.6045  0.4182
20764SOL    HW273947   1.560   2.756   2.383  0.7060 -0.2006 -0.3449
20765SOL     OW73948   1.327   0.150   1.568 -0.1333  0.2634 -0.0061
20765SOL    HW173949   1.419   0.167   1.603  0.5879  0.2507 -1.8727
20765SOL    HW273950   1.326   0.063   1.519 -1.4488 -0.3482  1.0821
20766SOL     OW73951   1.450   7.871   1.382 -0.4085  0.7799 -0.2627
20766SOL    HW173952   1.367   7.814   1.385  0.0205  0.0921 -1.1241
20766SOL    HW273953   1.428   7.963   1.412 -1.7042  0.8343 -1.3175
20767SOL     OW73954   1.393   6.398   7.320  0.3976 -0.3132  0.4630
20767SOL    HW173955   1.327   6.323   7.325  0.1983 -0.2301 -0.8211
20767SOL    HW273956   1.477   6.372   7.368  1.4881 -2.5721 -2.5414
20768SOL     OW73957   3.197   5.854   5.198 -0.3246  0.8647  0.5459
20768SOL    HW173958   3.254   5.876   5.277  0.8571 -0.4712  0.0820
20768SOL    HW273959   3.207   5.926   5.129 -0.6918  1.5924  1.2447
20769SOL     OW73960   9.001   9.146   4.713  0.3495 -0.5269  0.4400
20769SOL    HW173961   8.910   9.105   4.709 -0.0570  0.4364 -0.2819
20769SOL    HW273962   9.006   9.224   4.650  1.8269 -0.8819  0.0878
20770SOL     OW73963   5.903   0.027   4.151  0.1604  0.1573  0.1693
20770SOL    HW173964   5.934  -0.056   4.199 -0.4407  0.2167  0.6582
20770SOL    HW273965   5.883   0.099   4.218 -0.2200  0.3963 -0.2003
20771SOL     OW73966   7.957   1.460   1.068 -0.5726 -0.0271  0.2532
20771SOL    HW173967   8.028   1.519   1.106 -0.0401 -0.9112  0.6363
20771SOL    HW273968   7.986   1.364   1.073 -1.4899 -0.3404 -0.2326
20772SOL     OW73969   7.846   2.367   0.492 -0.1646 -0.4976 -0.7377
20772SOL    HW173970   7.843   2.291   0.557 -0.6967 -1.7682 -2.1790
20772SOL    HW273971   7.768   2.427   0.506 -1.0467 -1.5446 -1.0918
20773SOL     OW73972   8.128   1.670   7.550  0.1839 -0.0830  0.8610
20773SOL    HW173973   8.161   1.635   7.463 -0.2972 -0.6105  0.8829
20773SOL    HW273974   8.189   1.640   7.623 -0.9896 -2.1088  1.0556
20774SOL     OW73975   5.622   7.586   4.300 -0.0347 -0.3774 -0.1163
20774SOL    HW173976   5.538   7.610   4.250 -0.8101  1.7394  2.1099
20774SOL    HW273977   5.697   7.643   4.267 -0.8280  1.9224  1.9152
20775SOL     OW73978   5.624   2.755   0.636  0.0863 -0.2935 -0.2493
20775SOL    HW173979   5.667   2.768   0.547  2.1114 -1.3066  0.5354
20775SOL    HW273980   5.617   2.657   0.655  0.9366 -0.0774  1.2722
20776SOL     OW73981   2.270   3.399   6.310  0.0633  0.0663  0.3347
20776SOL    HW173982   2.202   3.403   6.383 -0.6415 -2.6539 -0.0841
20776SOL    HW273983   2.237   3.337   6.238  1.5955  1.1841 -1.3684
20777SOL     OW73984   8.214   0.075   4.236 -0.2024  0.0667  0.2054
20777SOL    HW173985   8.220   0.156   4.294  0.9660  0.6644 -0.7334
20777SOL    HW273986   8.298   0.065   4.183 -0.3149 -1.7721  0.3161
20778SOL     OW73987   3.474   5.041   0.479  0.2537  0.5789  0.4151
20778SOL    HW173988   3.444   5.012   0.570 -2.5160 -0.1877 -0.7018
20778SOL    HW273989   3.449   5.136   0.464  0.8412  0.7489  0.5027
20779SOL     OW73990   9.348   6.249   1.543 -0.1886 -0.0431 -0.2927
20779SOL    HW173991   9.347   6.246   1.443  2.7399  1.6833 -0.4361
20779SOL    HW273992   9.420   6.188   1.578 -1.1789 -0.6190  0.7539
20780SOL     OW73993   3.012   1.516   8.140 -0.3036 -0.1472  0.5571
20780SOL    HW173994   2.959   1.562   8.210 -0.8445  1.8175 -1.0810
20780SOL    HW273995   3.055   1.585   8.080  1.3392 -1.7412 -0.1464
20781SOL     OW73996   8.596   7.045   0.658 -0.1764 -0.4427 -0.4457
20781SOL    HW173997   8.672   7.075   0.717  0.8654 -3.0471 -0.4210
20781SOL    HW273998   8.589   7.108   0.580  0.8397  0.8781  0.4910
20782SOL     OW73999   2.493   7.222   5.910 -0.7667 -0.5581  0.1826
20782SOL    HW174000   2.569   7.269   5.954 -0.6958 -0.7174  0.2278
20782SOL    HW274001   2.503   7.228   5.811 -1.3732  0.5406  0.1722
20783SOL     OW74002   7.198   5.214   6.543 -0.1901  0.6618 -0.9989
20783SOL    HW174003   7.215   5.138   6.480 -0.3025 -0.1803 -0.0225
20783SOL    HW274004   7.231   5.299   6.502  0.1859  0.0519 -1.9848
20784SOL     OW74005   7.620   1.813   2.205 -0.9666  0.7091  0.4796
20784SOL    HW174006   7.592   1.880   2.274 -2.4420 -0.6594  1.2386
20784SOL    HW274007   7.697   1.760   2.239 -0.6403  1.1234  0.3992
20785SOL     OW74008   6.923   7.052   6.049 -0.0512 -0.3903 -0.3801
20785SOL    HW174009   7.005   7.015   6.093  0.3076 -1.6574 -2.0687
20785SOL    HW274010   6.842   7.005   6.086  0.1261 -0.4263 -0.0340
20786SOL     OW74011   8.109   3.280   0.174 -0.2449 -0.0837  0.0140
20786SOL    HW174012   8.120   3.252   0.269  0.9143 -1.0846 -0.4075
20786SOL    HW274013   8.015   3.264   0.145 -0.0939 -1.7181  0.3762
20787SOL     OW74014   9.455   5.471   0.151 -0.1864 -0.3353 -0.5434
20787SOL    HW174015   9.468   5.563   0.115 -1.1052 -0.2435 -0.6468
20787SOL    HW274016   9.464   5.472   0.250  1.0188 -0.3565 -0.6406
20788SOL     OW74017   3.794   5.708   3.397 -0.1831 -0.4163 -0.3172
20788SOL    HW174018   3.802   5.612   3.425  0.6463 -0.3309 -0.2343
20788SOL    HW274019   3.756   5.713   3.305 -1.3395 -0.7722  0.1404
20789SOL     OW74020   0.231   6.310   7.013  0.0665  0.1109  0.5269
20789SOL    HW174021   0.153   6.251   7.034  0.2616 -0.4588 -0.2988
20789SOL    HW274022   0.316   6.258   7.025  0.2801  0.5020  0.6909
20790SOL     OW74023   0.845   5.043   1.425  0.1031 -0.3201  0.1057
20790SOL    HW174024   0.801   5.069   1.511  0.4324  1.5563 -0.2589
20790SOL    HW274025   0.808   5.099   1.351  1.4798 -0.2922 -0.5721
20791SOL     OW74026   8.421   0.412   0.228 -0.0969  0.0324  0.6249
20791SOL    HW174027   8.474   0.474   0.170  0.0930  0.6944  1.5006
20791SOL    HW274028   8.447   0.317   0.207  1.4610  0.3501  1.0467
20792SOL     OW74029   1.841   9.151   2.977  0.4194  0.2003 -0.6469
20792SOL    HW174030   1.796   9.222   3.031  1.8664  1.8746 -1.6059
20792SOL    HW274031   1.815   9.160   2.881 -1.1441 -1.9853 -0.4654
20793SOL     OW74032   0.634   6.909   0.415  0.1261  0.0740 -0.3326
20793SOL    HW174033   0.561   6.889   0.350 -1.1027  1.1514  0.6680
20793SOL    HW274034   0.723   6.893   0.372 -0.6731  0.1256 -2.0481
20794SOL     OW74035   9.198   6.289   0.992 -0.1886 -0.2676 -0.3068
20794SOL    HW174036   9.162   6.373   0.953 -0.0880 -0.1156 -0.0748
20794SOL    HW274037   9.296   6.283   0.973  0.1017  0.3864  0.9402
20795SOL     OW74038   2.273   7.859   5.284  0.9655 -0.0073 -0.2408
20795SOL    HW174039   2.220   7.855   5.369 -0.4284 -2.1316 -1.1642
20795SOL    HW274040   2.278   7.953   5.252 -2.7969  0.1774 -0.4425
20796SOL     OW74041   0.981   9.698   6.194 -0.5164 -0.2485  0.4774
20796SOL    HW174042   1.045   9.669   6.123  0.6176 -0.1333  1.4221
20796SOL    HW274043   1.012   9.660   6.282 -2.0889 -0.6878  0.8490
20797SOL     OW74044   9.187   6.143   0.298  0.3780  0.2696  0.2770
20797SOL    HW174045   9.231   6.171   0.212  0.4928  1.5719  0.7537
20797SOL    HW274046   9.134   6.059   0.282 -0.2943  0.9585 -1.2655
20798SOL     OW74047   9.368   1.720   7.584 -0.2994  0.1905 -0.2467
20798SOL    HW174048   9.332   1.632   7.614 -0.2031 -0.5029 -2.0656
20798SOL    HW274049   9.409   1.709   7.493  0.2683  1.9801 -0.2160
20799SOL     OW74050   0.473   1.784   2.853  0.4563  0.0965 -0.1513
20799SOL    HW174051   0.571   1.798   2.837  0.6229  0.5862  1.2903
20799SOL    HW274052   0.454   1.781   2.951 -0.9723 -0.0342 -0.4133
20800SOL     OW74053   1.029   3.402   5.935  0.1807 -0.0099 -0.0362
20800SOL    HW174054   0.944   3.416   5.985  1.5198  0.5618  2.1905
20800SOL    HW274055   1.104   3.387   6.000  2.2509  2.1591 -1.7942
20801SOL     OW74056   8.106   7.723   4.733  0.3147  0.0372 -0.1760
20801SOL    HW174057   8.137   7.718   4.828  0.2681 -0.3362 -0.1790
20801SOL    HW274058   8.184   7.708   4.672  0.1822 -0.6285 -0.1857
20802SOL     OW74059   1.679   0.090   4.816 -0.2735 -0.3573 -0.0505
20802SOL    HW174060   1.579   0.086   4.823 -0.2795 -0.5842 -0.2717
20802SOL    HW274061   1.719   0.085   4.907 -0.5967  3.2226  0.3732
20803SOL     OW74062   5.781   3.795   8.148  0.2620 -0.2673  0.0397
20803SOL    HW174063   5.718   3.842   8.208  1.0826  1.2596 -0.2513
20803SOL    HW274064   5.824   3.719   8.196 -0.3413 -0.1046  0.8331
20804SOL     OW74065   8.888   0.993   2.058 -0.1368 -0.1132  0.1775
20804SOL    HW174066   8.922   1.049   1.982  0.7768 -0.3476  0.4078
20804SOL    HW274067   8.923   1.030   2.144  0.5235 -1.0818  0.3237
20805SOL     OW74068   4.649   4.127   5.016 -0.8746 -0.3138  0.2282
20805SOL    HW174069   4.595   4.084   5.090 -0.0878  1.0556  1.6179
20805SOL    HW274070   4.742   4.142   5.048  0.0869 -1.7511 -1.8348
20806SOL     OW74071   2.464   5.121   7.894  0.1737  0.3712  0.6937
20806SOL    HW174072   2.420   5.090   7.979  0.1809 -0.6201  0.3405
20806SOL    HW274073   2.537   5.185   7.917 -0.8397  1.3181  1.3392
20807SOL     OW74074   8.534   1.127   8.182 -0.3572 -0.4495 -0.3742
20807SOL    HW174075   8.560   1.130   8.085  0.4751 -0.8559 -0.1633
20807SOL    HW274076   8.477   1.206   8.203 -0.0527 -0.0444 -1.0620
20808SOL     OW74077   2.938   5.109   1.171 -0.0902  0.0271 -0.0355
20808SOL    HW174078   2.998   5.044   1.216 -0.3890  1.1535  2.0553
20808SOL    HW274079   2.844   5.075   1.174  0.3791 -1.7667 -3.3635
20809SOL     OW74080   7.212   3.039   6.242  0.0322 -0.5479  0.0887
20809SOL    HW174081   7.265   2.999   6.317 -0.5910 -0.8208  0.3914
20809SOL    HW274082   7.146   2.971   6.208  1.1663 -0.8540 -1.5488
20810SOL     OW74083   2.419   5.587   2.307 -0.2772  0.4570  0.1728
20810SOL    HW174084   2.441   5.506   2.253  1.1095  2.0594 -1.7283
20810SOL    HW274085   2.340   5.633   2.268 -0.6081  0.4382  0.8108
20811SOL     OW74086   2.380   9.506   5.130 -0.0028  0.3480 -0.1006
20811SOL    HW174087   2.290   9.541   5.105  0.3155  0.1720 -1.5284
20811SOL    HW274088   2.429   9.478   5.047  2.0878  2.1707  0.4878
20812SOL     OW74089   8.664   6.424   7.796  0.1299 -0.2656 -0.0326
20812SOL    HW174090   8.636   6.493   7.729  1.5995  1.1474  0.7683
20812SOL    HW274091   8.720   6.354   7.751  1.2641  0.7768 -0.2506
20813SOL     OW74092   7.277   9.228   4.425 -0.3704  0.4352 -0.0840
20813SOL    HW174093   7.239   9.272   4.344 -1.1873 -1.4174 -0.7413
20813SOL    HW274094   7.203   9.205   4.488 -0.2392 -2.1555 -0.8427
20814SOL     OW74095   1.219   5.296   5.100 -0.1659  0.9353  0.5226
20814SOL    HW174096   1.193   5.241   5.179 -0.8188  3.2151  1.9630
20814SOL    HW274097   1.318   5.303   5.095 -0.1134  0.4340  0.9173
20815SOL     OW74098   8.413   2.697   1.791 -0.0318  0.5368  0.8677
20815SOL    HW174099   8.314   2.696   1.772 -0.0320 -2.2142  0.7094
20815SOL    HW274100   8.463   2.684   1.705  0.3767 -0.4208  1.2435
20816SOL     OW74101   9.091   7.542   7.377 -0.4652  0.2690 -0.5204
20816SOL    HW174102   9.040   7.562   7.293  0.6983  0.6230 -1.1593
20816SOL    HW274103   9.084   7.445   7.398 -0.6133  0.1422 -1.1384
20817SOL     OW74104   9.908   4.398   4.059 -0.1386 -0.3580  0.5287
20817SOL    HW174105   9.818   4.390   4.102 -0.7171  1.7216 -0.2512
20817SOL    HW274106   9.973   4.437   4.124 -0.8452  2.1318 -0.2310
20818SOL     OW74107   9.883   5.968   2.327 -0.5167 -0.0491 -0.8843
20818SOL    HW174108   9.790   5.942   2.300 -0.1600 -2.0472 -0.2803
20818SOL    HW274109   9.948   5.900   2.290  0.5856  0.6953 -0.3339
20819SOL     OW74110   0.904   1.961   4.483 -0.2754 -0.0661  0.3047
20819SOL    HW174111   0.969   1.912   4.425  0.6668  1.2135  0.2689
20819SOL    HW274112   0.910   1.926   4.576  0.7141  0.2780  0.3752
20820SOL     OW74113   1.734   5.563   4.061  0.4990 -0.9742  0.4737
20820SOL    HW174114   1.695   5.579   3.970  1.0018 -0.8383  0.2861
20820SOL    HW274115   1.677   5.495   4.110 -0.7541  0.2146  0.7073
20821SOL     OW74116   4.999   1.188   0.007 -0.3100 -0.4209 -0.0942
20821SOL    HW174117   4.974   1.270   0.058  1.1707 -0.0727  0.0963
20821SOL    HW274118   5.059   1.213  -0.069  0.6632 -1.3918  0.3370
20822SOL     OW74119   1.906   5.547   0.593  0.8306 -0.0079  0.0949
20822SOL    HW174120   1.921   5.577   0.499 -0.5833 -1.4373 -0.6027
20822SOL    HW274121   1.824   5.591   0.630 -0.9029 -2.4422 -0.7262
20823SOL     OW74122   9.603   9.624   4.539  0.3490 -0.0570 -0.1234
20823SOL    HW174123   9.574   9.638   4.634 -0.2969  0.3218 -0.3751
20823SOL    HW274124   9.554   9.545   4.501  0.7801 -0.3533 -0.0705
20824SOL     OW74125   9.689   7.701   6.570 -0.1697 -0.6551 -0.1483
20824SOL    HW174126   9.682   7.635   6.495  0.4999  1.0521 -1.7343
20824SOL    HW274127   9.784   7.726   6.584 -0.6281  1.6396 -1.0248
20825SOL     OW74128   4.817   8.212   1.866  0.2456 -0.3430 -0.0980
20825SOL    HW174129   4.781   8.292   1.820 -0.6436 -0.7346 -0.1019
20825SOL    HW274130   4.876   8.160   1.804 -0.2493 -0.4018 -0.5189
20826SOL     OW74131   9.517   1.227   5.705 -0.4965  0.2538  0.2532
20826SOL    HW174132   9.440   1.195   5.759 -0.2592  0.6581  0.8463
20826SOL    HW274133   9.514   1.186   5.614 -0.6378 -0.8153  0.7265
20827SOL     OW74134   1.614   0.419   4.318  0.5573 -0.2285  0.1103
20827SOL    HW174135   1.694   0.476   4.337  0.9848 -1.4572  2.1347
20827SOL    HW274136   1.643   0.325   4.298 -0.3253 -0.4777 -0.0543
20828SOL     OW74137   5.942   1.881   4.978  0.1244 -0.1879 -0.2312
20828SOL    HW174138   5.877   1.892   4.902  0.3719  1.1955 -0.2505
20828SOL    HW274139   5.959   1.784   4.992 -1.0636 -0.5275 -0.9862
20829SOL     OW74140   6.642   0.868   7.610  0.4660  0.1651  0.6442
20829SOL    HW174141   6.584   0.842   7.687 -0.0271 -1.4897 -0.2670
20829SOL    HW274142   6.693   0.788   7.578  0.4200  0.7576 -0.9618
20830SOL     OW74143   7.646   1.864   5.128 -0.2447  0.2077  0.5238
20830SOL    HW174144   7.617   1.877   5.033  0.1984  1.5544  0.5633
20830SOL    HW274145   7.613   1.941   5.183  0.7843  0.1928  1.1649
20831SOL     OW74146   2.794   7.925   7.381  0.7939  0.0483 -0.1923
20831SOL    HW174147   2.850   7.850   7.346  1.4741  1.3538 -1.9668
20831SOL    HW274148   2.771   7.988   7.306 -1.0349  0.8075  0.9776
20832SOL     OW74149   1.526   1.717   7.591  0.0971  0.0689  0.3060
20832SOL    HW174150   1.518   1.621   7.565 -0.8429  0.6862 -1.7468
20832SOL    HW274151   1.608   1.756   7.549  0.1805  0.3261  0.7011
20833SOL     OW74152   9.464   7.960   0.356  0.0546 -0.0659 -0.4022
20833SOL    HW174153   9.476   7.963   0.257 -0.6507  2.6424 -0.4683
20833SOL    HW274154   9.471   8.053   0.393 -0.7600 -0.8925  1.9495
20834SOL     OW74155   4.388   2.232   2.119 -0.4710 -0.3451 -0.0132
20834SOL    HW174156   4.370   2.134   2.125 -0.7363 -0.2485  0.8092
20834SOL    HW274157   4.311   2.282   2.158  0.1680  0.1535  0.6241
20835SOL     OW74158   8.995   6.553   1.975 -0.1602  0.2346  0.2244
20835SOL    HW174159   9.018   6.459   2.002 -0.5435  0.7089  2.3018
20835SOL    HW274160   8.932   6.551   1.898  1.4464 -1.1785 -1.0848
20836SOL     OW74161   0.751   1.062   5.802 -0.1109  0.0325  0.6018
20836SOL    HW174162   0.800   1.118   5.735 -0.9169  0.4775  0.3782
20836SOL    HW274163   0.793   0.971   5.807  1.7702  0.9164  1.6022
20837SOL     OW74164   2.253   1.831   2.262  0.4648  0.0075  0.6887
20837SOL    HW174165   2.323   1.886   2.308  0.6219  0.4017 -0.0176
20837SOL    HW274166   2.283   1.736   2.258  0.3717 -0.0623  1.5538
20838SOL     OW74167   2.597   4.169   6.103  0.2294 -0.3770  0.2283
20838SOL    HW174168   2.680   4.113   6.106  0.4793  0.0451  1.1906
20838SOL    HW274169   2.559   4.177   6.195 -0.2219  0.4168 -0.0268
20839SOL     OW74170   5.673   3.683   0.560 -0.5478  0.2616 -0.1033
20839SOL    HW174171   5.630   3.595   0.541  0.1031 -0.2184  0.6157
20839SOL    HW274172   5.659   3.707   0.656  0.7459  0.1072  0.1396
20840SOL     OW74173   0.747   1.904   1.460  0.5654  0.2812 -0.1546
20840SOL    HW174174   0.772   1.934   1.552 -1.3051  1.2925  0.0732
20840SOL    HW274175   0.714   1.810   1.463 -0.8819  0.7901  0.4908
20841SOL     OW74176   7.615   9.273   6.958  0.0784 -0.7878  0.3927
20841SOL    HW174177   7.677   9.195   6.952  1.4200  0.1875  1.2402
20841SOL    HW274178   7.669   9.358   6.964 -1.3491  0.1685 -0.1083
20842SOL     OW74179   0.395   3.192   7.061 -0.2692 -0.1480 -0.2187
20842SOL    HW174180   0.390   3.113   7.123  1.3970  0.4877  0.7721
20842SOL    HW274181   0.324   3.258   7.085 -0.8353 -0.7562 -0.2058
20843SOL     OW74182   4.625   0.384   7.306 -0.0094  0.3504 -0.3471
20843SOL    HW174183   4.713   0.405   7.264  0.4041 -0.5933  0.0214
20843SOL    HW274184   4.631   0.296   7.352 -1.5019 -0.2970 -1.3477
20844SOL     OW74185   9.256   9.839   3.686  0.1519 -0.4297  0.2548
20844SOL    HW174186   9.212   9.919   3.645 -0.6358 -0.9283  0.1202
20844SOL    HW274187   9.331   9.808   3.627  1.4499  1.1125  1.0495
20845SOL     OW74188   8.349   7.412   2.276 -0.4344 -0.1185  0.4023
20845SOL    HW174189   8.337   7.423   2.375  2.4779 -0.8167  0.8665
20845SOL    HW274190   8.319   7.320   2.250  2.0586 -1.1933  1.2359
20846SOL     OW74191   3.667   7.044   5.914 -0.1445  0.2745  0.2921
20846SOL    HW174192   3.723   6.961   5.914  1.1238  1.1272  0.8959
20846SOL    HW274193   3.581   7.026   5.963  0.4327 -0.4766  1.0453
20847SOL     OW74194   4.089   5.973   0.285 -0.3298  0.1141  0.1832
20847SOL    HW174195   4.135   5.920   0.357  0.5311 -0.8563 -1.0626
20847SOL    HW274196   4.028   5.913   0.233 -1.2145  0.8880  0.2959
20848SOL     OW74197   3.030   9.278   4.789 -0.3310  0.7744  0.3013
20848SOL    HW174198   3.085   9.329   4.856  0.8633  0.1807 -0.2089
20848SOL    HW274199   3.059   9.303   4.697  0.2047 -0.7455  0.0451
20849SOL     OW74200   8.535   4.083   2.672  0.1005  0.0824  0.0786
20849SOL    HW174201   8.523   4.010   2.740 -0.6983  0.5895  0.4924
20849SOL    HW274202   8.529   4.172   2.718 -2.9800  0.5004 -0.9947
20850SOL     OW74203   4.517   1.881   7.749 -0.0046 -0.7805 -0.0569
20850SOL    HW174204   4.602   1.863   7.798 -0.4951  1.6870  1.7564
20850SOL    HW274205   4.537   1.898   7.653  1.4107 -1.3233  0.1223
20851SOL     OW74206   6.607   0.792   4.701  0.1950 -0.2710  0.4836
20851SOL    HW174207   6.515   0.830   4.685 -0.0574 -0.8439  0.5455
20851SOL    HW274208   6.666   0.814   4.624  0.7314  2.2835  1.5720
20852SOL     OW74209   7.036   5.594   0.599  0.1837  0.0480 -0.0248
20852SOL    HW174210   7.023   5.502   0.563  2.1025 -0.4354  0.4893
20852SOL    HW274211   7.064   5.656   0.526 -0.1092  0.0104 -0.1701
20853SOL     OW74212   6.576   0.322   4.414 -0.2226 -0.1958  0.3928
20853SOL    HW174213   6.546   0.261   4.488 -1.1685 -2.4845 -1.8097
20853SOL    HW274214   6.565   0.276   4.326  0.1083  2.7743 -1.2744
20854SOL     OW74215   3.002   5.573   4.897 -0.2025  0.4038 -0.0324
20854SOL    HW174216   3.032   5.531   4.812  0.1875 -0.5245  0.5574
20854SOL    HW274217   2.946   5.653   4.877  1.7426  1.5156 -1.1561
20855SOL     OW74218   2.074   9.311   2.929  0.0674 -0.0179  0.5687
20855SOL    HW174219   1.982   9.338   2.957  0.6248  1.8791  0.6408
20855SOL    HW274220   2.069   9.253   2.848 -1.2371 -0.7546  1.1630
20856SOL     OW74221   9.028   9.378   7.034 -0.2001  0.2121  0.0260
20856SOL    HW174222   8.930   9.396   7.024 -0.3175 -0.7867 -0.6728
20856SOL    HW274223   9.065   9.435   7.108 -1.4838 -0.0385  0.8866
20857SOL     OW74224   8.161   4.471   1.266  0.1236 -0.0418  0.1621
20857SOL    HW174225   8.096   4.547   1.271 -0.8047 -0.5732 -2.9137
20857SOL    HW274226   8.128   4.403   1.201  2.7046 -1.3867  0.1940
20858SOL     OW74227   4.343   5.008   2.687  0.2317  0.2213 -0.5940
20858SOL    HW174228   4.346   4.983   2.784 -3.0844 -0.5763 -0.6466
20858SOL    HW274229   4.434   5.039   2.658  1.5854 -0.7236  2.4243
20859SOL     OW74230   2.722   5.742   4.384 -0.6300  0.4713 -0.9817
20859SOL    HW174231   2.645   5.787   4.338 -0.9679 -1.9465 -2.8374
20859SOL    HW274232   2.775   5.689   4.318 -1.0462 -2.9892  1.3369
20860SOL     OW74233   2.532   8.639   2.361  0.1244  0.0264  0.3010
20860SOL    HW174234   2.607   8.573   2.367 -0.0944 -0.4021 -1.3247
20860SOL    HW274235   2.446   8.590   2.345 -0.0293  0.6867 -0.9956
20861SOL     OW74236   5.939   9.818   3.069 -0.6469 -0.4003 -0.2932
20861SOL    HW174237   5.905   9.888   3.006  0.4969  0.5048  0.0836
20861SOL    HW274238   6.008   9.762   3.023 -0.5296 -0.3765 -0.1440
20862SOL     OW74239   2.166   0.989   0.799 -0.5319 -0.0727  0.1122
20862SOL    HW174240   2.197   1.022   0.888  0.1716 -1.4809  0.3945
20862SOL    HW274241   2.213   1.040   0.727  0.3908 -0.3098  0.5389
20863SOL     OW74242   9.740   8.915   1.902 -0.9882 -0.1561  0.0737
20863SOL    HW174243   9.747   8.827   1.855  0.5182 -0.2900  0.5108
20863SOL    HW274244   9.806   8.980   1.862 -1.6522  0.5798  0.1609
20864SOL     OW74245   1.438   3.434   1.068  0.1157 -0.9892 -0.2169
20864SOL    HW174246   1.363   3.385   1.112 -0.0199 -1.5663 -1.0822
20864SOL    HW274247   1.470   3.382   0.989  1.9735 -1.1479  0.6180
20865SOL     OW74248   0.218   1.422   4.739  0.2695 -0.6921 -0.4362
20865SOL    HW174249   0.195   1.334   4.696  0.1414 -1.2887  0.8257
20865SOL    HW274250   0.269   1.405   4.823 -1.8721  0.3425  1.1220
20866SOL     OW74251   1.694   5.260   2.927 -0.1603 -0.4065  0.4583
20866SOL    HW174252   1.713   5.318   2.848 -0.8618 -1.7372 -0.6901
20866SOL    HW274253   1.743   5.297   3.007 -2.1106  2.8836  0.2328
20867SOL     OW74254   6.247   9.823   5.426 -0.4637  0.0486  0.6079
20867SOL    HW174255   6.315   9.757   5.393 -1.2770 -0.6372  0.2996
20867SOL    HW274256   6.282   9.869   5.507  0.6866  0.2413  0.0212
20868SOL     OW74257   6.266   8.968   4.126 -0.3497 -0.0313  0.3392
20868SOL    HW174258   6.243   8.926   4.213  0.2711  0.3149  0.6697
20868SOL    HW274259   6.206   8.932   4.055 -0.4007 -0.8316  0.7807
20869SOL     OW74260   6.645   1.813   2.533 -0.2005  0.0868 -0.1207
20869SOL    HW174261   6.727   1.784   2.583 -0.1526 -0.3944 -0.4760
20869SOL    HW274262   6.660   1.803   2.435  0.1461  2.1833 -0.3141
20870SOL     OW74263   5.933   1.024   5.602 -0.0078  0.2515  0.2668
20870SOL    HW174264   5.906   1.119   5.611 -1.6647 -0.1448 -0.2940
20870SOL    HW274265   5.868   0.966   5.651  0.8612 -0.6126  0.4177
20871SOL     OW74266   0.468   2.142   5.577 -0.2762  0.4745 -0.6552
20871SOL    HW174267   0.461   2.196   5.661 -0.4796 -1.2210  0.4515
20871SOL    HW274268   0.563   2.141   5.547 -0.2009  1.1102 -0.4519
20872SOL     OW74269   9.072   0.670   2.369  0.7890 -0.2288  0.6824
20872SOL    HW174270   9.158   0.720   2.383 -0.3067  2.7623 -2.4134
20872SOL    HW274271   9.081   0.609   2.290  0.3211 -0.5243  0.8572
20873SOL     OW74272   1.246   3.834   2.400  0.0227  0.2289 -0.3879
20873SOL    HW174273   1.220   3.925   2.430 -1.3670  0.5191 -2.3948
20873SOL    HW274274   1.346   3.828   2.393  0.3167  0.5763  2.7682
20874SOL     OW74275   6.479   1.180   1.984 -0.5037 -0.0736  0.8656
20874SOL    HW174276   6.414   1.203   2.056 -0.8993 -0.3180  0.5904
20874SOL    HW274277   6.572   1.198   2.016 -0.7076  0.3487  1.2355
20875SOL     OW74278   6.845   1.408   2.407 -0.4721  0.2010  0.2314
20875SOL    HW174279   6.872   1.456   2.323  2.0043  3.1582  2.5653
20875SOL    HW274280   6.755   1.440   2.437 -1.3448 -0.8385 -1.2555
20876SOL     OW74281   0.416   8.999   1.786 -0.0706 -0.7056  0.5759
20876SOL    HW174282   0.447   9.092   1.767 -2.6274  0.1702  0.4333
20876SOL    HW274283   0.491   8.946   1.825  1.6264  1.2001 -0.0107
20877SOL     OW74284   8.164   9.587   3.048 -0.1142  0.7250 -0.2245
20877SOL    HW174285   8.125   9.675   3.019  0.7707  1.1670 -0.1011
20877SOL    HW274286   8.199   9.596   3.142 -0.4379  0.1084 -0.0445
20878SOL     OW74287   9.028   2.824   0.365  0.4736  0.1865 -0.1118
20878SOL    HW174288   9.079   2.738   0.371  0.4549  0.1727 -0.1431
20878SOL    HW274289   8.993   2.849   0.455  1.1118  0.5432  0.0461
20879SOL     OW74290   0.158   8.655   3.548 -0.3375 -0.7023 -0.3192
20879SOL    HW174291   0.252   8.640   3.517 -0.4977 -1.9238 -0.2664
20879SOL    HW274292   0.155   8.649   3.648 -0.9413 -3.7412 -0.4611
20880SOL     OW74293   2.588   6.368   4.252 -0.5896 -0.2763 -0.0148
20880SOL    HW174294   2.582   6.467   4.265 -0.1184  0.1627 -2.9218
20880SOL    HW274295   2.679   6.337   4.277  0.1129  0.4569 -1.5872
20881SOL     OW74296   4.613   1.203   0.093  0.0671 -0.3107  0.8645
20881SOL    HW174297   4.591   1.230   0.187 -3.9041 -0.3869  0.0549
20881SOL    HW274298   4.615   1.103   0.087 -1.3911 -0.3310  0.5470
20882SOL     OW74299   1.124   0.742   7.039  0.5066 -0.4843 -0.3481
20882SOL    HW174300   1.174   0.703   6.962  1.4464 -0.4389  0.2317
20882SOL    HW274301   1.150   0.695   7.123 -0.1823 -0.2395  0.0127
20883SOL     OW74302   4.867   0.367   3.117  0.0125  0.0496  0.3469
20883SOL    HW174303   4.820   0.453   3.139  0.6156  0.6678 -0.7029
20883SOL    HW274304   4.800   0.300   3.086 -0.1571  1.1089 -1.7005
20884SOL     OW74305   1.131   8.134   4.732  0.3285 -0.3412  0.6287
20884SOL    HW174306   1.117   8.198   4.808 -0.0678 -0.0542  0.3159
20884SOL    HW274307   1.106   8.042   4.760 -2.3135  0.1656  0.0623
20885SOL     OW74308   7.823   9.386   2.437 -0.1630 -0.5064  0.0638
20885SOL    HW174309   7.875   9.303   2.415 -1.0182 -0.8844 -0.5793
20885SOL    HW274310   7.784   9.423   2.352  1.8774  1.6989  0.0305
20886SOL     OW74311   7.887   2.743   4.031 -0.3949  0.8627  0.2044
20886SOL    HW174312   7.812   2.786   3.981 -0.8592  0.1607  0.2814
20886SOL    HW274313   7.853   2.661   4.078  0.5629  0.1670 -0.2894
20887SOL     OW74314   1.161   8.255   2.548 -0.3871 -0.4352 -0.0780
20887SOL    HW174315   1.261   8.241   2.547 -0.2036  0.8577 -0.9932
20887SOL    HW274316   1.141   8.348   2.519 -1.7591  0.0469  2.2556
20888SOL     OW74317   1.940   6.630   3.007  0.5724  0.3177 -0.0578
20888SOL    HW174318   1.926   6.699   2.935 -1.1477 -0.8993 -0.9239
20888SOL    HW274319   1.968   6.544   2.965 -1.4301 -0.6832  0.6128
20889SOL     OW74320   4.121   0.754   5.125  0.1231 -0.2180 -0.0673
20889SOL    HW174321   4.061   0.745   5.046  2.3710  0.0090 -1.8656
20889SOL    HW274322   4.104   0.842   5.171  0.3847  0.6999 -1.6982
20890SOL     OW74323   6.786   8.262   3.578  0.1634 -0.0491 -0.1921
20890SOL    HW174324   6.725   8.340   3.571  0.0519 -0.0430  0.8746
20890SOL    HW274325   6.756   8.202   3.652  0.1759 -1.1645 -1.0751
20891SOL     OW74326   2.804   7.267   1.524 -0.2694  0.4302 -0.1875
20891SOL    HW174327   2.750   7.258   1.440 -0.9981  0.1120  0.3126
20891SOL    HW274328   2.764   7.339   1.582  0.2491  0.6720 -0.1229
20892SOL     OW74329   0.457   7.200   1.363  0.2963  0.0843  0.0658
20892SOL    HW174330   0.468   7.292   1.326  0.7071  0.3879  0.9210
20892SOL    HW274331   0.417   7.140   1.294  2.6246  0.2064 -1.4250
20893SOL     OW74332   5.175   8.766   6.599  0.2860 -0.2486  0.3093
20893SOL    HW174333   5.176   8.859   6.635  1.8606  0.6320 -1.9198
20893SOL    HW274334   5.268   8.729   6.601 -0.3876 -1.9052  1.4954
20894SOL     OW74335   9.276   2.523   5.410 -0.4340  0.8910  0.2619
20894SOL    HW174336   9.187   2.489   5.379  0.2559 -0.4327 -0.2827
20894SOL    HW274337   9.262   2.600   5.473 -2.0777 -0.8944  2.1760
20895SOL     OW74338   4.526   9.503   5.308  0.3078 -0.3951  0.1469
20895SOL    HW174339   4.537   9.537   5.215  0.2662  1.6585  0.8634
20895SOL    HW274340   4.548   9.576   5.373 -1.1323 -1.3320  1.7279
20896SOL     OW74341   3.535   9.963   5.975 -0.2449  0.3861 -0.4980
20896SOL    HW174342   3.510   9.892   5.909 -1.4684  0.6048 -0.2907
20896SOL    HW274343   3.460  10.029   5.983 -0.6410 -0.3282  2.0527
20897SOL     OW74344   2.679   6.858   6.905 -0.2104  0.3564  0.1992
20897SOL    HW174345   2.621   6.777   6.902  0.6357 -0.2887  0.9715
20897SOL    HW274346   2.713   6.871   6.998  0.3385  1.1186 -0.1037
20898SOL     OW74347   9.961   7.176   4.463 -0.3911 -0.4192 -0.4949
20898SOL    HW174348   9.864   7.152   4.458 -0.7705  0.2993  2.4820
20898SOL    HW274349   9.971   7.267   4.504  1.6043 -1.9352  2.6110
20899SOL     OW74350   0.697   9.197   1.976 -0.2016  0.2844  0.2997
20899SOL    HW174351   0.715   9.102   1.950  0.1928  0.0472  1.4052
20899SOL    HW274352   0.764   9.256   1.931 -0.4651  0.0445 -0.4144
20900SOL     OW74353   3.529   1.403   2.677 -0.2505 -0.3925  0.1495
20900SOL    HW174354   3.567   1.310   2.673  1.8448  0.3622  1.8397
20900SOL    HW274355   3.594   1.468   2.639 -0.9064  0.6222  0.7213
20901SOL     OW74356   4.396   2.903   6.317  0.1618 -0.0398 -0.2128
20901SOL    HW174357   4.334   2.831   6.285 -0.7176  0.0274  1.2681
20901SOL    HW274358   4.373   2.990   6.273 -0.5142 -0.1132 -0.0059
20902SOL     OW74359   2.882   0.660   3.356  0.1518 -0.0061  0.3006
20902SOL    HW174360   2.960   0.678   3.297 -1.7926  0.1321 -2.3568
20902SOL    HW274361   2.838   0.574   3.328 -2.0568  1.1399  0.1364
20903SOL     OW74362   9.466   2.128   7.598 -0.0807  0.7959 -0.5177
20903SOL    HW174363   9.533   2.187   7.554 -0.2782  1.0049 -0.5400
20903SOL    HW274364   9.374   2.151   7.565 -0.0864 -0.0190 -1.0745
20904SOL     OW74365   1.479   1.928   5.354 -0.0215 -0.6503  0.1839
20904SOL    HW174366   1.438   2.003   5.405  1.5030 -0.3885  1.0505
20904SOL    HW274367   1.537   1.874   5.415  0.9801 -0.9651 -1.0300
20905SOL     OW74368   8.317   7.447   4.971 -0.3068 -0.3727 -0.2477
20905SOL    HW174369   8.253   7.462   5.047 -0.4255 -1.4941 -0.1106
20905SOL    HW274370   8.346   7.352   4.971  2.9298  0.5612  0.8802
20906SOL     OW74371   2.997   4.110   1.072  0.2461 -0.3557 -0.3593
20906SOL    HW174372   2.985   4.081   0.977  0.9735 -0.1934 -0.5013
20906SOL    HW274373   3.092   4.097   1.099  0.6444  2.0252 -0.4805
20907SOL     OW74374   0.462   0.005   6.998 -0.5514  0.4646 -0.4916
20907SOL    HW174375   0.378   0.039   7.041 -0.2537  0.2988  0.2212
20907SOL    HW274376   0.444  -0.084   6.956 -0.4369 -0.1421  0.7085
20908SOL     OW74377   6.625   9.589   6.610  0.3302  0.0478  0.0965
20908SOL    HW174378   6.656   9.509   6.662 -1.4452 -0.2213  0.7480
20908SOL    HW274379   6.644   9.672   6.663  1.3367  0.0077 -0.1840
20909SOL     OW74380   9.843   5.986   1.144  0.0490 -0.3141  0.4189
20909SOL    HW174381   9.800   5.913   1.091  1.2904 -0.9360  0.2645
20909SOL    HW274382   9.772   6.038   1.191 -0.9288 -0.8921 -0.3979
20910SOL     OW74383   9.454   5.429   3.961 -0.5262 -0.0144 -0.2517
20910SOL    HW174384   9.534   5.437   3.901 -0.7013 -0.7655 -0.5852
20910SOL    HW274385   9.419   5.336   3.958  0.2609 -0.4179  2.0560
20911SOL     OW74386   8.378   2.749   7.746  0.1208  0.6703  0.3057
20911SOL    HW174387   8.353   2.722   7.840  0.7173 -0.0725  0.2597
20911SOL    HW274388   8.474   2.777   7.744 -0.4991  2.8654  0.3491
20912SOL     OW74389   0.289   7.657   0.112  0.3518  0.2572  0.5387
20912SOL    HW174390   0.264   7.577   0.058 -0.1993 -0.0547  1.2426
20912SOL    HW274391   0.208   7.713   0.128  0.7708  1.0511 -0.1032
20913SOL     OW74392   9.415   9.234   8.046  0.1844 -0.7141 -0.3357
20913SOL    HW174393   9.460   9.321   8.027  0.1080 -0.2714  1.3847
20913SOL    HW274394   9.483   9.166   8.072 -0.1462  0.2088  3.1928
20914SOL     OW74395   8.164   1.224   6.934 -0.4100  0.0297 -0.2727
20914SOL    HW174396   8.196   1.177   7.016 -0.6472  0.1621 -0.1040
20914SOL    HW274397   8.083   1.177   6.898  0.6552 -1.0000 -1.3691
20915SOL     OW74398   0.894   7.537   4.124  0.1837  0.4960 -0.4175
20915SOL    HW174399   0.811   7.501   4.165 -0.1130 -1.0409 -2.3050
20915SOL    HW274400   0.974   7.507   4.176 -0.3639  1.2488  0.8812
20916SOL     OW74401   4.171   2.086   4.075 -0.2567 -0.2248 -0.0545
20916SOL    HW174402   4.082   2.129   4.065 -0.1156  0.9782  3.1764
20916SOL    HW274403   4.168   2.019   4.150  1.4890 -0.3140 -0.0354
20917SOL     OW74404   0.430   2.776   3.129 -0.4249  0.0291  0.1974
20917SOL    HW174405   0.371   2.699   3.105  1.3286 -0.9786 -0.9714
20917SOL    HW274406   0.384   2.834   3.196 -2.0569 -1.6458  0.5436
20918SOL     OW74407   9.126   0.690   1.237  0.3857 -0.1885  0.4620
20918SOL    HW174408   9.122   0.604   1.187 -1.6896 -0.1005  0.4391
20918SOL    HW274409   9.080   0.680   1.325 -0.4977  1.0842  0.1575
20919SOL     OW74410   3.665   4.398   3.667  0.3845 -0.0963 -0.4580
20919SOL    HW174411   3.682   4.463   3.741 -1.6663 -0.9610  0.8258
20919SOL    HW274412   3.634   4.446   3.585  1.7931  0.7806 -0.4984
20920SOL     OW74413   3.101   3.917   2.508  0.2382  0.3819  0.4240
20920SOL    HW174414   3.192   3.958   2.505  0.4298  0.0763  2.2073
20920SOL    HW274415   3.032   3.990   2.502  0.5834  0.7260  0.6458
20921SOL     OW74416   9.703   2.887   6.384  0.0641  0.3418 -0.1516
20921SOL    HW174417   9.735   2.978   6.413  0.5944  0.3483 -0.7440
20921SOL    HW274418   9.621   2.863   6.435 -0.5069  1.4773 -0.5051
20922SOL     OW74419   2.676   1.963   3.662  0.1746  0.0310 -0.0981
20922SOL    HW174420   2.664   1.948   3.564  1.1608 -1.2139 -0.0319
20922SOL    HW274421   2.586   1.973   3.704 -0.2295  1.8212 -1.2926
20923SOL     OW74422   7.600   4.636   0.944  0.1331 -0.5160 -0.0554
20923SOL    HW174423   7.569   4.671   0.855 -1.0625 -0.3128  0.4317
20923SOL    HW274424   7.599   4.710   1.011 -3.8764 -1.7567  1.3530
20924SOL     OW74425   7.469   7.071   7.506  0.6276  0.1782 -0.2183
20924SOL    HW174426   7.553   7.091   7.455  0.0563  0.0113 -1.2461
20924SOL    HW274427   7.486   7.080   7.604  2.1659 -0.9925 -0.3535
20925SOL     OW74428   7.922   0.316   3.989  0.6168 -0.3806  0.0342
20925SOL    HW174429   7.974   0.329   3.905 -1.1751 -0.0035 -1.0431
20925SOL    HW274430   7.900   0.219   4.000  0.6550 -0.4004 -0.0648
20926SOL     OW74431   3.985   8.997   2.877  0.4419 -0.9821 -0.1333
20926SOL    HW174432   4.022   9.078   2.923  0.1586 -1.3930  0.8198
20926SOL    HW274433   3.887   8.992   2.893  0.8492 -2.9121  1.9692
20927SOL     OW74434   0.274   1.612   7.206  0.3483 -0.0756  0.2016
20927SOL    HW174435   0.341   1.544   7.234  1.1564  0.0694 -1.2804
20927SOL    HW274436   0.322   1.691   7.167 -0.6153  0.9069  0.9739
20928SOL     OW74437   2.353   8.302   5.711 -0.4738 -0.5274  0.2894
20928SOL    HW174438   2.327   8.338   5.622  0.3642  2.9537  1.3787
20928SOL    HW274439   2.290   8.335   5.781 -0.6817 -2.6059  1.1156
20929SOL     OW74440   8.404   5.159   1.710  0.4199  0.4658 -0.1154
20929SOL    HW174441   8.370   5.208   1.629 -1.3667 -1.4435 -0.5817
20929SOL    HW274442   8.468   5.087   1.681  0.4313  0.3328  0.2400
20930SOL     OW74443   0.971   0.195   3.308 -0.4292 -0.4323 -0.4088
20930SOL    HW174444   0.982   0.232   3.400  0.3395  0.4265 -0.8323
20930SOL    HW274445   0.923   0.261   3.251 -0.4136 -0.7244 -0.7673
20931SOL     OW74446   1.926   1.015   1.027  0.2913 -0.0704  0.5289
20931SOL    HW174447   1.884   1.096   0.986  1.8614  0.1795 -0.6463
20931SOL    HW274448   1.906   0.936   0.970  0.3286 -0.1848  0.6749
20932SOL     OW74449   0.081   8.183   3.099  0.0401 -0.3772 -0.5450
20932SOL    HW174450  -0.015   8.181   3.072  0.1072  1.3568 -1.0254
20932SOL    HW274451   0.134   8.121   3.041 -0.5787 -0.2687 -1.2365
20933SOL     OW74452   8.522   4.487   8.038 -0.1254  0.1442  0.3528
20933SOL    HW174453   8.499   4.500   8.134 -1.6332  2.2339 -0.2476
20933SOL    HW274454   8.447   4.520   7.981  0.9575 -0.6032 -1.5478
20934SOL     OW74455   8.250   5.230   6.669 -0.4145  0.8298 -0.4656
20934SOL    HW174456   8.303   5.267   6.593  1.8591 -0.6715  0.3292
20934SOL    HW274457   8.191   5.156   6.636  0.5847  0.1627 -0.7632
20935SOL     OW74458   1.640   2.139   5.669  0.1294  0.1285  0.4651
20935SOL    HW174459   1.541   2.133   5.682 -0.1455  0.0275 -1.4894
20935SOL    HW274460   1.684   2.062   5.715 -0.9772 -1.4881 -1.1108
20936SOL     OW74461   1.620   1.841   3.498  0.8083  0.1325 -0.1384
20936SOL    HW174462   1.717   1.820   3.515  0.5690  0.2102  1.3540
20936SOL    HW274463   1.594   1.806   3.408  1.8391 -1.1902  0.0606
20937SOL     OW74464   2.385   1.464   7.603 -0.2894  0.4364  0.4392
20937SOL    HW174465   2.331   1.469   7.687 -0.8344 -1.5039  0.2323
20937SOL    HW274466   2.476   1.428   7.623  0.3086  1.9101  0.4883
20938SOL     OW74467   1.368   3.413   6.618 -0.0579  0.5609 -0.4083
20938SOL    HW174468   1.403   3.491   6.669  3.1918 -1.8604  1.2394
20938SOL    HW274469   1.301   3.364   6.674  0.7776  0.0046  0.1213
20939SOL     OW74470   0.122   2.865   3.869 -0.3764 -0.3124 -0.3486
20939SOL    HW174471   0.165   2.940   3.919 -1.0382  0.1169 -0.4158
20939SOL    HW274472   0.051   2.901   3.808  1.6334 -0.6240 -2.9617
20940SOL     OW74473   0.650   1.575   0.294  0.2887 -0.0023  0.7074
20940SOL    HW174474   0.636   1.492   0.240 -0.7924 -0.0035  0.9735
20940SOL    HW274475   0.664   1.653   0.233  1.8801 -0.4772  0.4660
20941SOL     OW74476   9.272   7.704   1.013 -0.3339 -0.7260 -0.2564
20941SOL    HW174477   9.172   7.706   1.015 -0.3297 -0.8213  0.0496
20941SOL    HW274478   9.303   7.650   0.934 -0.5631 -3.9988  1.8176
20942SOL     OW74479   8.608   7.492   0.843 -0.0224 -0.0699 -0.2102
20942SOL    HW174480   8.635   7.582   0.809 -0.3956 -0.0589 -0.4844
20942SOL    HW274481   8.553   7.445   0.774 -0.2288 -0.3138  0.1162
20943SOL     OW74482   9.290   7.842   4.009 -0.2143 -0.2093 -0.2391
20943SOL    HW174483   9.357   7.897   4.059 -0.5674 -0.4122  0.4642
20943SOL    HW274484   9.246   7.898   3.939 -0.4344  0.3475  0.3433
20944SOL     OW74485   9.882   2.167   5.988  0.4530 -1.0308 -0.2429
20944SOL    HW174486   9.954   2.117   5.941  0.5658 -1.5123  0.4465
20944SOL    HW274487   9.914   2.197   6.078  0.6849  1.0443 -0.9919
20945SOL     OW74488   5.044   9.811   6.145 -0.1799 -0.3667  0.5786
20945SOL    HW174489   5.094   9.847   6.066 -1.7587  0.6359  0.0161
20945SOL    HW274490   4.959   9.770   6.115  0.2191 -1.9529  1.5532
20946SOL     OW74491   1.610   6.645   0.914 -0.0211  0.0461  0.7138
20946SOL    HW174492   1.692   6.665   0.862  0.5650 -0.5828  1.3845
20946SOL    HW274493   1.550   6.585   0.861 -0.0937  0.5712  0.1934
20947SOL     OW74494   2.157   6.840   3.862 -0.1453 -0.1052 -0.3505
20947SOL    HW174495   2.162   6.938   3.845  0.4847 -0.6044 -3.1862
20947SOL    HW274496   2.087   6.799   3.804  2.0586 -1.8807 -1.8321
20948SOL     OW74497   9.171   2.690   5.627 -0.2202 -0.2779 -0.0068
20948SOL    HW174498   9.247   2.683   5.691 -1.2605  0.6193  1.3562
20948SOL    HW274499   9.087   2.657   5.671 -1.1592  1.3912 -0.5147
20949SOL     OW74500   3.142   2.519   4.630  0.1696 -0.2864  0.1024
20949SOL    HW174501   3.115   2.463   4.551  1.0797  0.6189 -0.8659
20949SOL    HW274502   3.115   2.614   4.615  1.1103  0.0491  0.4910
20950SOL     OW74503   8.961   1.402   7.690 -0.2427 -0.8864 -0.0295
20950SOL    HW174504   9.006   1.341   7.625 -0.4079 -0.2934 -0.7147
20950SOL    HW274505   8.885   1.448   7.645  0.1369  0.1375  0.3470
20951SOL     OW74506   8.047   6.411   3.636 -0.5983  0.3959 -0.1657
20951SOL    HW174507   8.110   6.485   3.613 -0.7618  0.5728 -0.0484
20951SOL    HW274508   8.032   6.410   3.735 -0.5684  0.1824 -0.1630
20952SOL     OW74509   0.650   2.625   4.330 -0.1817 -0.0900 -0.4876
20952SOL    HW174510   0.660   2.620   4.231  0.9888 -0.3691 -0.3595
20952SOL    HW274511   0.583   2.557   4.360 -0.1272 -0.3819 -1.0203
20953SOL     OW74512   9.140   5.068   0.575  0.0785 -0.5313  0.3801
20953SOL    HW174513   9.086   5.093   0.656 -0.5655 -0.4402 -0.0710
20953SOL    HW274514   9.173   4.974   0.585  1.1743 -0.0391  1.3708
20954SOL     OW74515   1.505   8.205   2.994  0.2910  0.2969  0.1597
20954SOL    HW174516   1.483   8.225   3.089 -0.5814 -0.8873  0.2202
20954SOL    HW274517   1.455   8.267   2.934 -0.8446 -0.3696  0.4059
20955SOL     OW74518   2.149   0.193   0.552 -0.0204  0.0053 -0.3394
20955SOL    HW174519   2.161   0.148   0.463  0.9797 -0.1219 -0.1486
20955SOL    HW274520   2.175   0.290   0.543 -1.3230  0.3502 -0.5342
20956SOL     OW74521   4.179   4.500   4.651  0.1692 -0.2859 -0.2350
20956SOL    HW174522   4.116   4.424   4.635 -0.2621  0.4204 -1.9654
20956SOL    HW274523   4.258   4.467   4.704 -0.3548 -1.7773 -0.3508
20957SOL     OW74524   7.576   0.329   7.145  0.2977  0.3333  0.4165
20957SOL    HW174525   7.656   0.272   7.128  0.3672  0.5934 -0.1463
20957SOL    HW274526   7.603   0.414   7.190  0.3852  0.5851 -0.1118
20958SOL     OW74527   9.892   9.855   7.648 -0.3051 -0.6267 -0.5565
20958SOL    HW174528   9.968   9.907   7.688  0.8093 -1.2937 -1.7926
20958SOL    HW274529   9.899   9.857   7.548 -1.2721 -1.6542 -0.6488
20959SOL     OW74530   2.944   9.261   5.818  0.0627 -0.3475  0.2285
20959SOL    HW174531   3.014   9.190   5.818 -1.5297 -1.9753 -1.5326
20959SOL    HW274532   2.856   9.221   5.844 -0.7889  1.0697 -0.4026
20960SOL     OW74533   9.396   4.074   5.826 -0.7735 -0.2212  0.2546
20960SOL    HW174534   9.306   4.116   5.828 -0.2020  1.0109  0.7794
20960SOL    HW274535   9.443   4.100   5.742 -0.8890 -0.8524 -0.0124
20961SOL     OW74536   1.115   3.551   3.381  0.3470  0.0358  0.3040
20961SOL    HW174537   1.163   3.548   3.293 -2.6610  0.3249 -1.4463
20961SOL    HW274538   1.179   3.573   3.454  2.3452  3.3394 -2.3071
20962SOL     OW74539   0.157   9.042   2.047  0.0025  0.2792  0.8020
20962SOL    HW174540   0.068   9.017   2.084  0.0547 -1.1365  0.0001
20962SOL    HW274541   0.165   9.007   1.953  0.5610  2.2483  0.0906
20963SOL     OW74542   9.810   0.071   1.308  0.2607  0.3131 -0.7412
20963SOL    HW174543   9.844   0.035   1.221  1.2421 -0.1565 -0.1765
20963SOL    HW274544   9.731   0.018   1.337  0.8550 -0.5090 -0.6006
20964SOL     OW74545   1.419   9.779   0.200  0.2402 -0.6787 -0.0069
20964SOL    HW174546   1.366   9.863   0.191 -0.1750 -0.9355  0.0303
20964SOL    HW274547   1.443   9.765   0.296 -0.9003 -1.3321  0.2007
20965SOL     OW74548   9.597   8.079   5.034  0.1189 -0.4727 -0.0461
20965SOL    HW174549   9.540   8.080   4.952  0.7362  0.0757 -0.4684
20965SOL    HW274550   9.579   8.161   5.088  1.0957  0.0952 -0.5824
20966SOL     OW74551   8.539   3.635   2.317  0.5098 -0.0081 -0.8658
20966SOL    HW174552   8.474   3.708   2.295  0.9230  0.0639 -1.8383
20966SOL    HW274553   8.571   3.592   2.233  1.7638 -0.0126 -0.3915
20967SOL     OW74554   1.525   2.410   1.282  0.5047 -0.0518  0.2330
20967SOL    HW174555   1.540   2.327   1.229  0.0650 -0.5140  0.8318
20967SOL    HW274556   1.451   2.463   1.240  1.9492  0.9138 -1.1643
20968SOL     OW74557   1.914   3.892   6.702  0.1380 -0.9360  0.6331
20968SOL    HW174558   1.910   3.970   6.764  0.0044 -1.2862  1.0658
20968SOL    HW274559   1.822   3.865   6.677  0.2155  0.0772 -0.8262
20969SOL     OW74560   7.062   0.536   6.517 -0.7738  0.2649 -0.2086
20969SOL    HW174561   7.064   0.606   6.446  2.7656  0.0148 -0.4341
20969SOL    HW274562   7.090   0.448   6.479  0.5451 -0.0062  1.3213
20970SOL     OW74563   3.094   2.315   6.426 -0.1031  0.3378  0.2779
20970SOL    HW174564   3.024   2.319   6.355 -0.4320  0.3326  0.5987
20970SOL    HW274565   3.101   2.403   6.472 -0.1569  0.2277  0.4964
20971SOL     OW74566   0.742   1.240   0.554  0.8641  0.3460 -0.1695
20971SOL    HW174567   0.737   1.252   0.455  1.4045 -1.2525 -0.4017
20971SOL    HW274568   0.831   1.274   0.587  0.8956  0.3872 -0.2956
20972SOL     OW74569   8.320   1.618   0.355 -0.0533  0.2489  0.1522
20972SOL    HW174570   8.302   1.697   0.413  0.3823 -1.1917  2.3274
20972SOL    HW274571   8.413   1.586   0.372 -0.2519 -0.7757 -0.6642
20973SOL     OW74572   0.690   9.792   8.011 -0.2879  0.3563 -0.9095
20973SOL    HW174573   0.727   9.723   8.072  1.2246 -0.4923 -2.7286
20973SOL    HW274574   0.628   9.852   8.061 -0.2476 -1.2379  1.0815
20974SOL     OW74575   2.940   9.037   2.217  0.6851 -0.0394 -0.2830
20974SOL    HW174576   2.951   9.114   2.154 -1.3683  0.2631 -0.3361
20974SOL    HW274577   2.933   9.072   2.311  0.3977 -0.2016 -0.2429
20975SOL     OW74578   0.835   0.833   4.318  0.1418  0.1263  0.0767
20975SOL    HW174579   0.831   0.877   4.408 -0.6794 -2.6358  1.4241
20975SOL    HW274580   0.929   0.803   4.300 -0.4050 -2.7408  1.7444
20976SOL     OW74581   6.232   4.997   8.169 -0.5027 -0.5216  0.1346
20976SOL    HW174582   6.240   5.095   8.184 -0.0532 -0.4987 -0.2602
20976SOL    HW274583   6.161   4.978   8.102 -1.2972 -0.5268  0.9580
20977SOL     OW74584   6.739   1.198   7.396  0.0776  0.5360 -0.3649
20977SOL    HW174585   6.779   1.210   7.306 -1.3776  0.0868 -1.0975
20977SOL    HW274586   6.706   1.287   7.430  1.2643  0.8277  0.0504
20978SOL     OW74587   9.618   7.548   0.122  0.5444 -0.3239  0.0714
20978SOL    HW174588   9.524   7.548   0.088  0.7566 -0.3613 -0.5228
20978SOL    HW274589   9.666   7.467   0.088  1.2862  0.5643 -1.0256
20979SOL     OW74590   9.635   6.674   1.141 -0.0212 -0.0228 -0.1185
20979SOL    HW174591   9.623   6.774   1.141 -0.7079 -0.0980 -1.1997
20979SOL    HW274592   9.729   6.652   1.118 -0.3161  0.3495 -1.7477
20980SOL     OW74593   8.139   6.096   4.541 -0.4644 -0.1281 -0.1115
20980SOL    HW174594   8.180   6.035   4.474 -1.0265 -0.8369  0.1790
20980SOL    HW274595   8.046   6.119   4.512 -2.2163 -3.5836  2.2900
20981SOL     OW74596   5.766   6.022   1.388 -0.1138  0.0380 -0.2482
20981SOL    HW174597   5.788   6.090   1.458  0.3485 -0.4202  0.0445
20981SOL    HW274598   5.729   6.069   1.307 -0.4199  0.5812  0.2068
20982SOL     OW74599   2.735   4.843   2.760  0.5747  0.2962  0.1603
20982SOL    HW174600   2.704   4.848   2.855  0.1826  3.4961 -0.1048
20982SOL    HW274601   2.681   4.774   2.711  0.7781 -1.3625  2.2373
20983SOL     OW74602   3.607   2.751   7.445  0.0508 -0.0819 -0.5574
20983SOL    HW174603   3.662   2.807   7.382 -0.1053  0.6745 -0.0358
20983SOL    HW274604   3.662   2.729   7.526 -0.4287  0.7227 -0.0119
20984SOL     OW74605   7.014   9.534   4.845 -0.1750 -0.4771 -0.1472
20984SOL    HW174606   6.949   9.502   4.913  0.5826 -2.4384 -0.3250
20984SOL    HW274607   6.986   9.505   4.754 -0.8587  1.6180 -0.6394
20985SOL     OW74608   1.166   4.987   7.430 -0.1589 -0.0019 -0.2118
20985SOL    HW174609   1.164   4.934   7.346  0.9447 -0.4822  0.0585
20985SOL    HW274610   1.239   5.056   7.424 -0.2784  0.1650  0.2315
20986SOL     OW74611   8.690   5.229   6.256 -0.4046 -0.5176 -0.7573
20986SOL    HW174612   8.610   5.195   6.207 -0.0782  0.0867 -1.7044
20986SOL    HW274613   8.733   5.303   6.205 -1.0772  1.3308  1.2529
20987SOL     OW74614   3.881   6.355   1.202 -0.3724  0.4444  0.3345
20987SOL    HW174615   3.827   6.275   1.180  1.5342 -1.5409  2.5422
20987SOL    HW274616   3.821   6.431   1.228 -2.1525 -0.7030 -0.4058
20988SOL     OW74617   1.025   5.204   6.609  0.0044  0.6851 -0.5273
20988SOL    HW174618   0.967   5.157   6.676 -1.1818 -0.2408 -2.1457
20988SOL    HW274619   0.989   5.187   6.517  1.0767  2.6549 -1.3403
20989SOL     OW74620   8.425   3.077   0.568 -0.5812 -0.1557  0.4667
20989SOL    HW174621   8.505   3.033   0.528 -0.4891  0.4974 -0.0766
20989SOL    HW274622   8.413   3.167   0.527 -0.7101  0.3615  1.6330
20990SOL     OW74623   0.774   5.170   0.651 -0.0922 -0.6371 -0.3030
20990SOL    HW174624   0.688   5.219   0.636  0.0043 -0.7018 -1.0930
20990SOL    HW274625   0.823   5.211   0.727  0.0587  0.5932 -1.0581
20991SOL     OW74626   9.726   5.701   3.617  0.1231 -0.7168 -0.3746
20991SOL    HW174627   9.657   5.708   3.544  1.5997  0.9610 -1.6499
20991SOL    HW274628   9.803   5.645   3.584  1.2985  0.9685 -0.5398
20992SOL     OW74629   2.971   2.897   3.276 -0.2257  0.0826 -0.5073
20992SOL    HW174630   2.973   2.953   3.359 -0.3770  1.2310 -1.2742
20992SOL    HW274631   2.990   2.802   3.300  1.5695  0.7005  0.5900
20993SOL     OW74632   2.336   4.147   6.556 -0.6604 -0.4792  0.4156
20993SOL    HW174633   2.348   4.189   6.646 -0.1592 -0.1603  0.2038
20993SOL    HW274634   2.418   4.163   6.501 -1.4240  0.3344 -0.4992
20994SOL     OW74635   7.684   1.576   0.336  0.0339 -0.4590 -0.2105
20994SOL    HW174636   7.681   1.674   0.319  2.6740 -0.4787 -0.9227
20994SOL    HW274637   7.602   1.533   0.298 -1.0407  1.4241 -0.0641
20995SOL     OW74638   2.577   6.589   7.435 -0.1720  0.1772 -0.0374
20995SOL    HW174639   2.592   6.491   7.420  1.3633  0.5056 -0.7468
20995SOL    HW274640   2.575   6.636   7.347  1.5571  1.1182  0.4148
20996SOL     OW74641   1.672   5.858   6.231 -0.2145  0.0012 -0.3102
20996SOL    HW174642   1.771   5.863   6.239 -0.1348 -0.9122 -0.6177
20996SOL    HW274643   1.640   5.770   6.267 -0.9865  0.5866  0.4551
20997SOL     OW74644   7.556   0.524   3.761 -0.1361 -0.1756 -0.0706
20997SOL    HW174645   7.631   0.477   3.806 -0.2228  0.6845  0.9909
20997SOL    HW274646   7.492   0.458   3.722 -0.2206 -0.9145  1.3329
20998SOL     OW74647   8.860   8.690   1.511 -0.2042 -0.0014  0.1183
20998SOL    HW174648   8.837   8.635   1.591 -2.6390  2.2140  1.0213
20998SOL    HW274649   8.886   8.782   1.541 -0.3632  0.6144 -1.5820
20999SOL     OW74650   8.120   7.671   1.961 -0.0881 -0.9546  0.2452
20999SOL    HW174651   8.157   7.760   1.932  0.7094 -1.2734  0.2599
20999SOL    HW274652   8.021   7.670   1.948  0.0485 -0.4956 -0.9041
21000SOL     OW74653   9.046   5.009   4.788 -0.1575 -0.2900 -0.6430
21000SOL    HW174654   9.050   4.913   4.759 -0.4966  0.0866 -1.9613
21000SOL    HW274655   9.040   5.068   4.707  1.6682  0.9332  0.0845
21001SOL     OW74656   9.626   5.987   3.497  0.1586  0.1962 -0.2229
21001SOL    HW174657   9.638   5.898   3.454 -0.4298 -0.5283  1.0869
21001SOL    HW274658   9.662   6.059   3.436  0.4952 -0.9059 -1.3434
21002SOL     OW74659   2.225   1.308   1.626  0.0195 -0.5491  0.8114
21002SOL    HW174660   2.220   1.407   1.612 -1.5044 -0.6871  0.3825
21002SOL    HW274661   2.148   1.278   1.681  2.1256 -1.0790  3.5588
21003SOL     OW74662   8.434   0.525   1.188 -0.1400  0.0200  0.2783
21003SOL    HW174663   8.390   0.584   1.120  0.7128  0.1796 -0.1435
21003SOL    HW274664   8.413   0.558   1.280 -2.8293 -1.2650  0.1829
21004SOL     OW74665   8.152   1.637   3.644  0.1721  0.1978 -0.3935
21004SOL    HW174666   8.113   1.653   3.734 -0.9858  0.6016 -0.9475
21004SOL    HW274667   8.107   1.557   3.603 -0.2600  0.8169 -1.1427
21005SOL     OW74668   4.805   5.252   1.777 -0.1425  0.8999  0.0344
21005SOL    HW174669   4.885   5.252   1.717 -0.2840 -2.7553 -0.3122
21005SOL    HW274670   4.723   5.232   1.722 -0.4831 -0.8900  1.1541
21006SOL     OW74671   8.365   2.930   1.164 -0.4845 -0.4661  0.2883
21006SOL    HW174672   8.392   2.920   1.068 -1.4324 -0.0968 -0.0301
21006SOL    HW274673   8.297   2.860   1.187 -1.1417  0.1849  0.3471
21007SOL     OW74674   5.967   0.455   1.977 -0.2320  0.1486 -0.3709
21007SOL    HW174675   5.948   0.443   2.074 -0.3333 -1.3918 -0.5628
21007SOL    HW274676   5.882   0.476   1.929 -0.7739 -2.3023 -0.5729
21008SOL     OW74677   4.022   7.683   6.685  0.0474  0.3398  0.3688
21008SOL    HW174678   3.971   7.768   6.675 -1.9566 -0.7674  0.9527
21008SOL    HW274679   3.958   7.606   6.689  1.7700 -1.0896  1.0172
21009SOL     OW74680   7.732   3.656   6.317  0.4574 -0.2843  0.4778
21009SOL    HW174681   7.808   3.593   6.332 -0.9716 -2.2979 -0.4892
21009SOL    HW274682   7.649   3.619   6.357 -0.0173  2.0084  1.7255
21010SOL     OW74683   6.699   4.407   0.916  0.4249  0.4457  0.7247
21010SOL    HW174684   6.644   4.484   0.947 -0.5227  0.5129 -1.0538
21010SOL    HW274685   6.654   4.321   0.940  0.5161  0.4656  0.9741
21011SOL     OW74686   3.647   3.778   1.623 -0.2469 -0.0233 -0.4536
21011SOL    HW174687   3.568   3.730   1.661  1.0245 -1.5234  0.3641
21011SOL    HW274688   3.691   3.832   1.695 -1.5660  2.2900 -1.3297
21012SOL     OW74689   9.656   7.153   6.536  0.1451  0.0653 -0.1865
21012SOL    HW174690   9.610   7.231   6.580  1.4259  0.9379 -0.3759
21012SOL    HW274691   9.588   7.084   6.513 -1.2401  1.7681 -1.3541
21013SOL     OW74692   7.274   0.823   6.873  0.3738  0.8849 -0.3073
21013SOL    HW174693   7.222   0.755   6.821  2.1050  0.8254 -2.0092
21013SOL    HW274694   7.271   0.911   6.826  0.5980  1.2532  0.3571
21014SOL     OW74695   2.782   7.234   3.298  0.4741  0.1987  0.0389
21014SOL    HW174696   2.705   7.288   3.262  0.4907  0.5881  0.5888
21014SOL    HW274697   2.773   7.139   3.268  0.1797  0.4023 -0.5246
21015SOL     OW74698   9.567   5.385   6.494  0.2255  0.1481  0.4785
21015SOL    HW174699   9.540   5.475   6.459 -0.1227  0.0840  0.5839
21015SOL    HW274700   9.527   5.314   6.437 -1.0036  0.0278  1.4705
21016SOL     OW74701   4.587   8.194   3.273  0.2693  0.1253 -0.1152
21016SOL    HW174702   4.611   8.291   3.275 -1.3531  0.5325  0.6853
21016SOL    HW274703   4.514   8.179   3.205  0.8596 -0.6240 -0.5930
21017SOL     OW74704   9.316   6.493   2.365  0.7900 -0.0031 -0.3318
21017SOL    HW174705   9.284   6.578   2.324  0.3243  0.5916  1.2195
21017SOL    HW274706   9.384   6.451   2.306  1.0524  1.4687 -1.1037
21018SOL     OW74707   9.254   5.768   7.978  0.2064 -0.3618  0.3225
21018SOL    HW174708   9.273   5.719   8.063  0.4446 -1.3153 -0.2702
21018SOL    HW274709   9.200   5.710   7.917 -1.3546  0.9048  0.4503
21019SOL     OW74710   9.047   5.343   7.343 -0.7108  0.1496  0.3292
21019SOL    HW174711   9.005   5.316   7.257 -0.8193 -0.3965  0.5512
21019SOL    HW274712   9.141   5.373   7.326 -0.4221 -0.8529  0.1441
21020SOL     OW74713   5.237   8.230   5.424 -0.4164 -0.1487 -0.3292
21020SOL    HW174714   5.254   8.329   5.423 -0.4142 -0.1251  1.3262
21020SOL    HW274715   5.138   8.213   5.425 -0.4167 -0.1627 -0.5953
21021SOL     OW74716   0.552   0.960   4.446  0.2050  0.5647  0.2046
21021SOL    HW174717   0.645   0.997   4.452 -0.1968  1.8250 -1.0147
21021SOL    HW274718   0.538   0.895   4.520  2.9024 -1.5785 -1.0644
21022SOL     OW74719   2.111   5.427   0.375  0.3012  0.1692 -0.0249
21022SOL    HW174720   2.157   5.428   0.463  0.6570  1.6968 -0.2141
21022SOL    HW274721   2.048   5.505   0.369 -2.2309 -1.7679  0.1770
21023SOL     OW74722   2.967   8.115   2.101  0.2577 -0.2034 -0.5842
21023SOL    HW174723   2.953   8.018   2.083 -2.0284  0.4318 -2.4396
21023SOL    HW274724   3.016   8.156   2.025 -0.2251  0.4250 -0.5600
21024SOL     OW74725   8.705   5.589   8.178  0.4695  0.2401 -0.1156
21024SOL    HW174726   8.660   5.522   8.118 -1.4978  0.8076  0.6851
21024SOL    HW274727   8.733   5.544   8.263  0.0339  0.2095  0.0153
21025SOL     OW74728   9.166   2.104   0.863 -0.0377 -0.4444  0.1694
21025SOL    HW174729   9.258   2.127   0.832  0.0551 -1.4763 -0.3294
21025SOL    HW274730   9.171   2.070   0.957 -0.0797  0.7700  0.6245
21026SOL     OW74731   3.478   7.342   6.939  0.7267 -0.0397  0.2369
21026SOL    HW174732   3.399   7.318   6.996 -0.0629 -0.0770 -0.8399
21026SOL    HW274733   3.550   7.382   6.996 -0.7028  1.4910  1.0212
21027SOL     OW74734   8.001   9.894   5.161 -0.0404 -0.3828  0.5614
21027SOL    HW174735   7.924   9.868   5.103  0.5624  0.1333 -0.4906
21027SOL    HW274736   8.024   9.990   5.145  2.1184 -1.0576 -0.6729
21028SOL     OW74737   9.404   0.735   0.028  0.4855  0.0145 -0.1197
21028SOL    HW174738   9.411   0.797   0.106  1.3114  0.5009 -0.5727
21028SOL    HW274739   9.393   0.641   0.061 -1.7331  0.4804  0.5684
21029SOL     OW74740   3.637   2.722   8.178 -0.9519 -0.1899 -0.4613
21029SOL    HW174741   3.624   2.796   8.244 -1.2666 -2.2329  1.8412
21029SOL    HW274742   3.734   2.713   8.155 -0.8581  0.6164 -0.3815
21030SOL     OW74743   2.360   8.702   5.815 -0.3615 -0.2606 -0.0030
21030SOL    HW174744   2.340   8.673   5.721  0.1059  1.3897 -0.6295
21030SOL    HW274745   2.274   8.716   5.864 -0.6140 -0.9355 -0.2530
21031SOL     OW74746   3.830   2.841   6.661  0.3702  0.6159  0.6873
21031SOL    HW174747   3.897   2.884   6.720  1.1571 -0.7777  0.8381
21031SOL    HW274748   3.873   2.812   6.576 -0.4293  1.2837  0.0450
21032SOL     OW74749   7.679   5.522   0.090  0.0493  0.1022  0.2708
21032SOL    HW174750   7.674   5.422   0.094 -1.0170  0.2042  2.6170
21032SOL    HW274751   7.760   5.553   0.140  0.5044  0.4130 -0.6494
21033SOL     OW74752   7.996   4.530   7.152  0.6321  0.0784 -0.2123
21033SOL    HW174753   8.052   4.529   7.069  3.1307 -0.7883  1.4333
21033SOL    HW274754   7.994   4.622   7.190  1.5955 -0.0293  0.1201
21034SOL     OW74755   0.150   0.082   2.563 -0.3665 -0.0732  0.8142
21034SOL    HW174756   0.054   0.056   2.556 -0.7891  1.2811  1.4432
21034SOL    HW274757   0.204   0.002   2.591 -1.1364 -1.1130 -0.6097
21035SOL     OW74758   9.330   4.833   0.357  0.4397  0.1673 -0.0310
21035SOL    HW174759   9.350   4.752   0.302 -2.4807  0.4084 -1.5242
21035SOL    HW274760   9.241   4.824   0.401  0.4510  2.1831  0.4831
21036SOL     OW74761   8.684   0.351   4.413 -0.2722  0.3061 -0.0780
21036SOL    HW174762   8.588   0.338   4.437 -0.2424 -0.2243 -0.2219
21036SOL    HW274763   8.700   0.445   4.383 -0.6000  0.5887  0.6301
21037SOL     OW74764   3.380   2.122   0.397  0.5876 -0.0437  0.3348
21037SOL    HW174765   3.336   2.049   0.449 -0.3724  1.1992  1.2929
21037SOL    HW274766   3.401   2.198   0.458  2.7875 -0.0271 -0.3955
21038SOL     OW74767   5.213   4.495   0.099 -0.5824  0.2924 -0.7384
21038SOL    HW174768   5.201   4.429   0.172  0.2627  0.0252 -0.8336
21038SOL    HW274769   5.303   4.539   0.109 -0.5861  0.4628 -1.4400
21039SOL     OW74770   0.461   9.981   2.350 -0.1931 -0.0069  0.1360
21039SOL    HW174771   0.462  10.080   2.336 -0.3896 -0.0136  0.0656
21039SOL    HW274772   0.438   9.962   2.445 -0.4368  0.0101  0.0808
21040SOL     OW74773   1.500   1.109   2.543  0.2610 -0.4798 -0.1644
21040SOL    HW174774   1.488   1.155   2.455 -2.7146 -1.2441 -0.1878
21040SOL    HW274775   1.437   1.148   2.610 -0.5097 -2.8160  0.4924
21041SOL     OW74776   5.531   1.580   2.477  0.4311  0.0966  0.4628
21041SOL    HW174777   5.582   1.653   2.523  2.4283 -0.5031 -0.7195
21041SOL    HW274778   5.546   1.493   2.525 -0.0494  0.0416  0.5149
21042SOL     OW74779   9.304   4.729   4.607 -0.4240 -0.1770 -0.4031
21042SOL    HW174780   9.258   4.641   4.613 -0.5784 -0.1809 -1.5678
21042SOL    HW274781   9.272   4.778   4.526  0.0031  0.7504 -0.0171
21043SOL     OW74782   2.672   2.637   6.555 -0.2129 -0.2367 -0.6730
21043SOL    HW174783   2.684   2.713   6.491  0.4693  0.0207 -0.2479
21043SOL    HW274784   2.594   2.656   6.615 -0.8292 -0.4590 -1.3878
21044SOL     OW74785   6.025   6.255   1.312  0.2145  0.2114  0.1904
21044SOL    HW174786   6.070   6.277   1.226 -1.0000  0.0759 -0.4981
21044SOL    HW274787   5.938   6.305   1.318 -0.8006 -1.5346  0.2908
21045SOL     OW74788   2.690   6.215   0.903 -0.1019 -0.0514 -0.5692
21045SOL    HW174789   2.774   6.206   0.955  0.6382  0.6382 -1.6228
21045SOL    HW274790   2.655   6.308   0.911 -2.3867 -1.0603  2.2557
21046SOL     OW74791   0.987   2.301   5.617 -0.2538 -0.2170  0.0915
21046SOL    HW174792   0.991   2.279   5.519 -1.5804 -0.3142  0.0538
21046SOL    HW274793   0.982   2.216   5.670 -0.4342 -0.1360  0.2027
21047SOL     OW74794   2.775   8.450   0.179 -0.1525 -0.2678  0.1132
21047SOL    HW174795   2.866   8.408   0.167 -0.1136 -0.4535  0.9806
21047SOL    HW274796   2.725   8.447   0.093  0.1859 -1.3338 -0.0631
21048SOL     OW74797   9.985   9.668   4.664  0.6454 -0.0169  0.3144
21048SOL    HW174798  10.015   9.629   4.751 -0.7986  1.6297  1.6001
21048SOL    HW274799   9.936   9.599   4.612  0.2570 -0.6360  1.4741
21049SOL     OW74800   7.671   1.525   2.891  0.1069 -0.4866  0.0563
21049SOL    HW174801   7.601   1.453   2.892  0.8135 -1.1845  1.9885
21049SOL    HW274802   7.720   1.525   2.978  2.2505  0.2641 -1.1036
21050SOL     OW74803   8.544   1.503   2.779 -0.1634 -0.1189  0.0349
21050SOL    HW174804   8.591   1.446   2.846  1.6478  1.5542  0.2236
21050SOL    HW274805   8.603   1.519   2.701 -1.9938 -1.4374 -1.6679
21051SOL     OW74806   8.770   4.929   5.808 -0.5411 -0.0959  0.4999
21051SOL    HW174807   8.856   4.980   5.813 -1.3121  1.1709  1.0046
21051SOL    HW274808   8.693   4.993   5.803 -1.4738 -1.2139  0.2522
21052SOL     OW74809   0.874   5.771   6.220  0.2060  0.0826 -0.6760
21052SOL    HW174810   0.933   5.710   6.272 -0.3305  0.3561  0.2672
21052SOL    HW274811   0.842   5.724   6.138 -2.6168 -2.0388  1.5257
21053SOL     OW74812   8.162   5.609   3.775 -0.1889 -0.4057 -0.2255
21053SOL    HW174813   8.256   5.638   3.758 -0.4723  1.0534  0.6173
21053SOL    HW274814   8.115   5.677   3.831 -1.8719 -0.9187 -0.9571
21054SOL     OW74815   2.339   6.219   3.081  0.7049  0.1725 -0.1959
21054SOL    HW174816   2.308   6.124   3.072 -0.1884  0.6743 -2.9553
21054SOL    HW274817   2.438   6.220   3.097  0.3907 -1.2600  1.9788
21055SOL     OW74818   0.470   9.947   6.516 -0.3251 -0.2552 -0.4034
21055SOL    HW174819   0.563   9.984   6.512 -0.0345 -1.0868 -1.8317
21055SOL    HW274820   0.406  10.020   6.539  0.4026  0.8576 -1.8173
21056SOL     OW74821   2.797   4.584   3.133  0.2220  0.5638  0.2042
21056SOL    HW174822   2.867   4.515   3.150 -1.3873 -0.9784  0.6753
21056SOL    HW274823   2.723   4.573   3.199 -0.6669  1.9149 -0.5496
21057SOL     OW74824   0.755   8.900   0.115 -0.8477  0.0092  0.4776
21057SOL    HW174825   0.753   8.803   0.139  1.4358  0.6061  3.4444
21057SOL    HW274826   0.735   8.955   0.196 -1.3570  2.0336 -0.9778
21058SOL     OW74827   1.395   9.259   5.580 -0.0195 -0.1660 -0.2311
21058SOL    HW174828   1.359   9.240   5.489 -0.7721  0.6626 -0.1254
21058SOL    HW274829   1.473   9.200   5.599 -0.3067 -0.8430 -1.1275
21059SOL     OW74830   9.405   2.870   6.520  0.2517 -0.1011  0.8235
21059SOL    HW174831   9.458   2.953   6.503 -1.5791  1.1564  1.0919
21059SOL    HW274832   9.309   2.887   6.497 -0.1972 -2.0457  1.2211
21060SOL     OW74833   1.874   1.172   3.932  0.0988  0.2938 -0.1384
21060SOL    HW174834   1.900   1.128   3.846  2.3479 -0.1045  0.7388
21060SOL    HW274835   1.802   1.119   3.977  1.5064 -1.5075  0.0190
21061SOL     OW74836   8.402   5.122   6.900 -0.5569  0.2192  0.1873
21061SOL    HW174837   8.459   5.044   6.873  0.0136  0.7710 -0.2047
21061SOL    HW274838   8.347   5.151   6.822 -0.9293  0.0827  0.3933
21062SOL     OW74839   4.743   3.448   0.109  0.2685  0.5010  0.5083
21062SOL    HW174840   4.829   3.405   0.135  0.4935  1.4198  1.2798
21062SOL    HW274841   4.666   3.391   0.140  0.5873 -0.3176 -0.1851
21063SOL     OW74842   0.490   4.565   0.553  0.4042  0.1200 -0.3661
21063SOL    HW174843   0.515   4.536   0.645 -0.1373 -0.3390 -0.3531
21063SOL    HW274844   0.434   4.493   0.510  2.0404 -0.4012 -1.6655
21064SOL     OW74845   4.974   4.228   6.280  0.0149 -0.0427 -0.4622
21064SOL    HW174846   5.028   4.178   6.212 -1.6142  1.3196 -2.8238
21064SOL    HW274847   4.885   4.184   6.290 -0.2777  0.6070 -0.2468
21065SOL     OW74848   5.052   6.318   1.874  0.7199 -0.1770  0.0893
21065SOL    HW174849   5.012   6.231   1.845  1.4501 -0.3518 -0.3775
21065SOL    HW274850   5.139   6.301   1.920  0.9855  0.3351 -0.2312
21066SOL     OW74851   1.533   1.749   1.208  0.0718  0.1464  0.0706
21066SOL    HW174852   1.437   1.748   1.180 -0.0364 -1.8038  0.4717
21066SOL    HW274853   1.592   1.731   1.129  0.0526  0.2523  0.0322
21067SOL     OW74854   8.412   3.508   0.844  0.3031  0.0986 -0.2436
21067SOL    HW174855   8.400   3.492   0.746 -0.9896 -1.6737  0.1849
21067SOL    HW274856   8.498   3.467   0.874  0.0641 -0.5148 -0.3870
21068SOL     OW74857   9.464   3.102   4.921  0.0828  0.1892 -0.0645
21068SOL    HW174858   9.458   3.023   4.982 -1.3795  0.9499  0.7862
21068SOL    HW274859   9.402   3.090   4.844 -0.8043  0.9207  0.5361
21069SOL     OW74860   1.004   3.041   5.988  0.1103  0.9863 -0.0103
21069SOL    HW174861   1.003   2.951   5.945  0.0370 -0.3209  2.6354
21069SOL    HW274862   1.090   3.054   6.036 -0.4644  1.7190  0.8435
21070SOL     OW74863   9.989   9.537   1.733 -0.4874 -0.0238 -0.2009
21070SOL    HW174864   9.974   9.571   1.640  0.7204  1.2877  0.0757
21070SOL    HW274865  10.082   9.503   1.742 -0.3656  0.5424  0.7363
21071SOL     OW74866   6.103   0.317   1.614  0.0178 -0.1969 -0.0647
21071SOL    HW174867   6.026   0.316   1.550 -0.0588 -0.9145  0.0319
21071SOL    HW274868   6.183   0.275   1.571  0.3762  0.5907 -0.1823
21072SOL     OW74869   3.578   3.173   1.788 -0.3972 -0.0533 -0.1951
21072SOL    HW174870   3.556   3.094   1.730 -0.4845  0.3587 -0.7223
21072SOL    HW274871   3.638   3.143   1.863 -0.3060 -0.5918 -0.4812
21073SOL     OW74872   9.017   2.316   7.689 -0.2016  0.5923  0.4150
21073SOL    HW174873   9.100   2.290   7.640  0.1215 -2.4166  2.4257
21073SOL    HW274874   8.938   2.301   7.630  0.2490 -2.1770  0.4461
21074SOL     OW74875   0.194   3.397   6.555  0.3017 -0.5277 -0.0181
21074SOL    HW174876   0.196   3.496   6.540 -2.3249 -0.5179 -0.5108
21074SOL    HW274877   0.147   3.377   6.641 -0.5581 -1.3925 -0.6710
21075SOL     OW74878   1.531   3.792   0.386 -0.3973 -0.4837 -0.1407
21075SOL    HW174879   1.614   3.752   0.347 -0.0122 -0.8997  1.0854
21075SOL    HW274880   1.484   3.847   0.316  1.0665 -0.0017 -0.7575
21076SOL     OW74881   0.941   4.256   0.865 -0.0394 -0.2340 -0.0867
21076SOL    HW174882   1.036   4.243   0.891 -0.3518 -1.1697  0.6503
21076SOL    HW274883   0.904   4.169   0.830 -1.4863 -0.7264  2.5344
21077SOL     OW74884   3.541   6.365   0.488 -0.0442  0.1378  0.4884
21077SOL    HW174885   3.605   6.430   0.448  0.8697  0.4531  2.3994
21077SOL    HW274886   3.483   6.326   0.416  0.5124  1.8086 -0.8980
21078SOL     OW74887   0.755   7.269   7.130  0.0395 -0.3560  0.6544
21078SOL    HW174888   0.745   7.366   7.107  0.4195 -0.5802 -0.4829
21078SOL    HW274889   0.666   7.225   7.124 -0.1865 -0.0197  1.4621
21079SOL     OW74890   8.348   2.266   3.013  0.2474  0.2489 -0.3088
21079SOL    HW174891   8.310   2.221   3.094  0.6018  0.1001 -0.2271
21079SOL    HW274892   8.273   2.296   2.954 -0.0015 -0.0746 -0.1606
21080SOL     OW74893   0.236   0.123   7.085 -0.2268  0.2450 -0.1433
21080SOL    HW174894   0.253   0.208   7.135 -0.8591  0.6529 -0.5948
21080SOL    HW274895   0.142   0.093   7.103  0.3792 -1.0180  0.9619
21081SOL     OW74896   3.766   0.477   4.029  0.1147  0.5478  0.8620
21081SOL    HW174897   3.852   0.515   4.063  0.0865  1.8540 -0.4801
21081SOL    HW274898   3.784   0.391   3.982  1.3366  2.7374 -2.9494
21082SOL     OW74899   2.725   3.856   7.203  0.4144 -0.2396  0.1033
21082SOL    HW174900   2.774   3.811   7.277  0.4536 -0.7789 -0.2447
21082SOL    HW274901   2.724   3.955   7.219  1.9448 -0.1776 -0.0691
21083SOL     OW74902   8.794   1.825   2.699  0.0087 -0.3254  0.6641
21083SOL    HW174903   8.797   1.820   2.599  1.7744  4.0450  0.4082
21083SOL    HW274904   8.849   1.750   2.737  0.5373 -1.1629 -1.6487
21084SOL     OW74905   8.771   5.620   4.522 -0.1732 -0.2059  0.1021
21084SOL    HW174906   8.837   5.608   4.448 -0.0639  0.8892  0.0136
21084SOL    HW274907   8.683   5.582   4.494  0.3635 -1.5243  0.1578
21085SOL     OW74908   9.753   2.680   2.967  0.0165  0.4100  0.2543
21085SOL    HW174909   9.765   2.759   2.907 -1.1972 -0.1851 -0.7928
21085SOL    HW274910   9.735   2.598   2.912  0.4578 -0.4482  1.3626
21086SOL     OW74911   4.199   1.470   5.139  0.0005  0.2388  0.1777
21086SOL    HW174912   4.139   1.473   5.059 -3.1324 -0.4511  2.4485
21086SOL    HW274913   4.184   1.551   5.196  0.3117 -0.5811  1.4373
21087SOL     OW74914   7.919   3.031   3.258 -0.0675 -0.1179 -0.2443
21087SOL    HW174915   8.007   3.071   3.282 -0.4824  0.9761 -0.5085
21087SOL    HW274916   7.866   3.097   3.205 -0.8528 -0.9460 -0.4960
21088SOL     OW74917   9.862   9.246   1.185 -0.2329 -0.1969 -0.3736
21088SOL    HW174918   9.905   9.301   1.114 -1.2798  1.6259  0.3533
21088SOL    HW274919   9.931   9.190   1.230  0.7148 -0.1212 -1.7039
21089SOL     OW74920   2.163   8.143   7.300  0.1349 -0.1542 -0.8426
21089SOL    HW174921   2.188   8.050   7.276  0.0224 -0.1242 -1.0802
21089SOL    HW274922   2.066   8.157   7.280  0.4760  0.4391 -2.1195
21090SOL     OW74923   2.919   7.569   0.475 -0.3816  0.0444 -0.0744
21090SOL    HW174924   2.942   7.625   0.396 -1.0547 -0.5151 -0.6742
21090SOL    HW274925   2.948   7.616   0.559  0.0557  0.7768 -0.6289
21091SOL     OW74926   8.340   8.994   2.425 -0.1165  0.0495  0.3327
21091SOL    HW174927   8.287   9.048   2.360  0.4134  0.4469  0.2266
21091SOL    HW274928   8.297   8.905   2.437 -0.5002  0.1618 -0.1747
21092SOL     OW74929   4.399   5.698   0.261  0.4532 -0.7282  0.1718
21092SOL    HW174930   4.494   5.703   0.228  0.6604  0.7939  0.9332
21092SOL    HW274931   4.352   5.784   0.240 -0.6755 -1.3678  0.0686
21093SOL     OW74932   7.404   8.658   3.911  0.5087 -0.3168 -0.5277
21093SOL    HW174933   7.316   8.610   3.905  0.7901 -0.9215  0.1111
21093SOL    HW274934   7.394   8.739   3.969  0.5489 -0.7974  0.1562
21094SOL     OW74935   6.323   7.356   6.489 -0.1421 -0.0452  0.2385
21094SOL    HW174936   6.406   7.364   6.544 -0.6145  1.8990  0.7117
21094SOL    HW274937   6.253   7.419   6.524 -1.3171 -0.5944 -1.0448
21095SOL     OW74938   3.907   9.215   6.231  0.3188  0.6116 -0.2052
21095SOL    HW174939   3.924   9.304   6.274 -2.1693  1.1409 -0.2155
21095SOL    HW274940   3.964   9.206   6.150  0.8785  2.0393  0.0156
21096SOL     OW74941   4.345   3.570   1.604  0.2453  0.2437 -0.0382
21096SOL    HW174942   4.290   3.546   1.684  0.9309 -1.5481 -0.0698
21096SOL    HW274943   4.362   3.669   1.603  0.1902  0.3000  2.0149
21097SOL     OW74944   4.650   2.852   7.649  0.4601  0.9396  0.1210
21097SOL    HW174945   4.686   2.945   7.660  0.9755  0.5885  1.5372
21097SOL    HW274946   4.574   2.853   7.585  2.1374  1.9266 -1.9371
21098SOL     OW74947   0.148   0.054   5.692  0.0734 -0.4817 -0.0531
21098SOL    HW174948   0.096  -0.027   5.663 -1.3561  0.4967 -0.2664
21098SOL    HW274949   0.126   0.076   5.787 -1.4248  1.0733 -0.7256
21099SOL     OW74950   8.097   8.187   7.157 -0.1105  0.3092 -0.6843
21099SOL    HW174951   8.179   8.216   7.207  0.6574 -1.5472 -0.8286
21099SOL    HW274952   8.124   8.125   7.083 -1.4969  0.9538 -1.7310
21100SOL     OW74953   7.164   5.616   7.947 -0.2861  0.3191 -0.2085
21100SOL    HW174954   7.101   5.626   7.871  0.1542  2.5665 -0.2910
21100SOL    HW274955   7.226   5.540   7.928 -1.2457 -0.2088 -1.3204
21101SOL     OW74956   0.119   7.433   6.924 -0.4011  0.5628 -0.6666
21101SOL    HW174957   0.120   7.389   6.834 -0.2504  1.0573 -0.9044
21101SOL    HW274958   0.136   7.364   6.994 -1.4729  0.0026 -0.9413
21102SOL     OW74959   6.918   2.148   3.677  0.1841 -0.5480 -0.4241
21102SOL    HW174960   6.906   2.049   3.685 -3.0466 -0.2695 -1.1593
21102SOL    HW274961   6.985   2.168   3.606 -0.8985 -2.1973 -1.9641
21103SOL     OW74962   8.187   3.530   0.060 -0.0217  0.3597 -0.2925
21103SOL    HW174963   8.131   3.454   0.092  0.1676 -0.5913 -2.1631
21103SOL    HW274964   8.127   3.605   0.029 -0.2301  0.1947 -0.2849
21104SOL     OW74965   6.582   9.590   1.714  0.0517  0.4041 -0.3697
21104SOL    HW174966   6.508   9.651   1.740  0.5404  1.3857 -1.2233
21104SOL    HW274967   6.545   9.512   1.663 -0.3548  1.1507 -1.2412
21105SOL     OW74968   8.412   3.703   7.622 -0.0351 -0.0451 -0.5442
21105SOL    HW174969   8.445   3.762   7.696  0.8482 -1.5202  0.2664
21105SOL    HW274970   8.318   3.729   7.599 -0.0689  0.9219  0.5852
21106SOL     OW74971   3.683   3.928   2.108 -0.4958 -0.3000  0.1122
21106SOL    HW174972   3.695   3.840   2.062  1.4041 -0.2805  0.5422
21106SOL    HW274973   3.685   3.915   2.207 -3.2515 -0.1639  0.2114
21107SOL     OW74974   5.128   4.012   1.489 -0.1819 -0.6264 -0.0335
21107SOL    HW174975   5.138   4.078   1.564 -2.1637 -0.8252  0.4447
21107SOL    HW274976   5.109   3.921   1.526 -1.4944 -0.6688 -0.7599
21108SOL     OW74977   8.140   7.182   5.740 -0.0242 -0.3906 -0.2164
21108SOL    HW174978   8.154   7.195   5.642  0.6763 -1.7023 -0.3102
21108SOL    HW274979   8.131   7.270   5.785  2.2239  0.3064 -1.0999
21109SOL     OW74980   0.914   7.127   5.882 -0.0556  0.0022  0.4044
21109SOL    HW174981   0.852   7.049   5.884 -0.3531  0.1993 -0.5903
21109SOL    HW274982   0.862   7.211   5.873  0.3353  0.1883 -0.1755
21110SOL     OW74983   3.418   6.020   2.958  0.0172 -0.0603 -0.8668
21110SOL    HW174984   3.511   6.017   2.921 -0.2995  0.0079 -1.6795
21110SOL    HW274985   3.387   5.927   2.978 -0.1706 -0.1743 -1.6863
21111SOL     OW74986   0.496   9.029   7.173 -0.0695  0.4939  0.2305
21111SOL    HW174987   0.451   8.944   7.201  0.7624 -0.1983 -0.4883
21111SOL    HW274988   0.483   9.042   7.074  0.9068  0.5309  0.1035
21112SOL     OW74989   2.981   1.463   5.333 -0.1065 -0.2122  0.3051
21112SOL    HW174990   2.936   1.419   5.411  1.4397 -1.6066  0.4559
21112SOL    HW274991   3.080   1.445   5.337  0.2865  1.5381 -0.7997
21113SOL     OW74992   9.272   9.791   6.404 -0.0055  0.3282  0.3596
21113SOL    HW174993   9.270   9.789   6.304  1.1212 -0.1365  0.3362
21113SOL    HW274994   9.244   9.701   6.440  1.1144 -0.0032  0.4202
21114SOL     OW74995   0.701   7.068   1.061 -0.5837  0.0153  0.4389
21114SOL    HW174996   0.688   7.164   1.086 -0.7568 -0.1292  0.8966
21114SOL    HW274997   0.720   7.014   1.143  0.9130 -0.1091  0.0270
21115SOL     OW74998   0.494   7.087   7.727  0.4837 -0.8194 -0.7436
21115SOL    HW174999   0.396   7.075   7.739  0.0451  1.8672 -1.2494
21115SOL    HW275000   0.525   7.034   7.648 -0.3616 -2.4617  0.0154
21116SOL     OW75001   8.743   1.114   3.908 -0.1994  0.3966 -0.3471
21116SOL    HW175002   8.760   1.018   3.932  0.0989  0.3839 -0.5998
21116SOL    HW275003   8.751   1.125   3.809  2.0467  1.1211 -0.1240
21117SOL     OW75004   1.668   3.445   1.579  0.0849  0.0156 -0.5215
21117SOL    HW175005   1.644   3.367   1.637  0.8750  0.5518  0.5442
21117SOL    HW275006   1.591   3.508   1.573 -0.2971 -0.4777 -0.7577
21118SOL     OW75007   7.566   7.619   6.493  0.0261 -0.3459  0.0336
21118SOL    HW175008   7.660   7.597   6.465 -0.7818 -1.6696 -1.6722
21118SOL    HW275009   7.502   7.560   6.445 -1.7540  1.1296  0.5583
21119SOL     OW75010   1.662   3.011   3.870  0.6039 -0.2146 -0.5179
21119SOL    HW175011   1.564   3.028   3.863  0.8981  1.2574 -1.1675
21119SOL    HW275012   1.689   3.011   3.967  0.0670 -0.0293 -0.3676
21120SOL     OW75013   3.976   9.313   4.856 -0.3752  0.7612  0.0724
21120SOL    HW175014   4.060   9.342   4.903  0.3788  0.2152 -0.9389
21120SOL    HW275015   3.940   9.390   4.803 -1.4163  1.4897  1.7653
21121SOL     OW75016   2.022   0.248   1.308 -0.8793 -0.9102  0.5525
21121SOL    HW175017   2.028   0.299   1.222  0.8978 -1.9550  0.0246
21121SOL    HW275018   1.980   0.159   1.291 -0.4402 -1.1561  0.7310
21122SOL     OW75019   4.327   9.890   3.714 -0.0879 -0.0543 -0.3332
21122SOL    HW175020   4.259   9.963   3.703 -1.3932 -0.6930  3.0581
21122SOL    HW275021   4.289   9.804   3.681 -0.2319 -0.0759 -0.1072
21123SOL     OW75022   4.168   0.649   2.045  0.0946  0.6895  0.4475
21123SOL    HW175023   4.128   0.664   1.954  1.4296 -0.0348 -0.2777
21123SOL    HW275024   4.118   0.577   2.092  0.6712 -0.3496 -0.5272
21124SOL     OW75025   7.666   1.183   7.508 -0.3097 -0.1984 -0.2192
21124SOL    HW175026   7.581   1.167   7.457  0.2470 -0.6826 -1.0029
21124SOL    HW275027   7.708   1.268   7.477 -0.6198  0.1667  0.3371
21125SOL     OW75028   3.753   1.950   3.037  0.3055 -0.1998 -0.4245
21125SOL    HW175029   3.674   1.914   3.087 -1.2957  0.3682 -2.4870
21125SOL    HW275030   3.765   1.898   2.953  1.1523  0.7607 -0.8909
21126SOL     OW75031   6.449   2.182   4.036  0.3314  0.2022 -0.2643
21126SOL    HW175032   6.542   2.177   4.001 -0.1930  0.0890 -1.6639
21126SOL    HW275033   6.389   2.222   3.967 -0.5800  0.7082  0.7946
21127SOL     OW75034   8.401   4.571   6.552  0.2776 -0.2135 -0.2885
21127SOL    HW175035   8.471   4.577   6.481 -0.0629 -1.9858 -0.7902
21127SOL    HW275036   8.311   4.562   6.510 -0.0705  0.1225  0.3744
21128SOL     OW75037   9.091   4.410   5.067  0.1094 -0.8186  0.2441
21128SOL    HW175038   9.049   4.320   5.056 -3.1176  0.6889 -0.4231
21128SOL    HW275039   9.082   4.440   5.162  0.2457 -0.7718  0.2421
21129SOL     OW75040   9.404   2.176   6.128  0.4546 -0.3723  0.6566
21129SOL    HW175041   9.379   2.088   6.087  1.7409 -0.2319 -0.4822
21129SOL    HW275042   9.368   2.181   6.221 -0.6401 -1.6151  0.3208
21130SOL     OW75043   2.189   1.098   3.920  0.0838 -0.0036 -0.0895
21130SOL    HW175044   2.093   1.118   3.935 -0.0936 -1.3370  0.6226
21130SOL    HW275045   2.245   1.174   3.951 -0.6801  0.3147  0.4975
21131SOL     OW75046   7.234   4.767   7.319  0.6788  0.1879 -0.1079
21131SOL    HW175047   7.185   4.854   7.312  0.4163 -0.0457 -1.3153
21131SOL    HW275048   7.261   4.737   7.227 -0.7385 -1.8646  0.1089
21132SOL     OW75049   3.929   8.064   2.093 -0.4166  0.5514 -0.4726
21132SOL    HW175050   3.881   8.050   2.007  2.2398 -1.9815 -1.6202
21132SOL    HW275051   3.905   7.991   2.157 -0.3100  0.9051 -0.0278
21133SOL     OW75052   3.344   7.530   8.150 -0.1448  0.2142  0.2343
21133SOL    HW175053   3.375   7.435   8.155 -2.9717 -0.7402  0.1796
21133SOL    HW275054   3.245   7.533   8.139 -0.1125  3.1861  0.2744
21134SOL     OW75055   9.332   4.550   5.175 -0.4851 -0.2376  0.0282
21134SOL    HW175056   9.386   4.608   5.235 -1.1531 -0.7603  1.1547
21134SOL    HW275057   9.370   4.457   5.175  0.3855  0.1157 -1.5075
21135SOL     OW75058   8.404   5.830   5.711 -0.1778 -0.1122 -0.2739
21135SOL    HW175059   8.358   5.882   5.639 -0.0507  0.1270 -0.1846
21135SOL    HW275060   8.341   5.762   5.748 -0.3782  0.0400 -0.3278
21136SOL     OW75061   4.418   0.034   7.235  0.2113  0.1093 -0.9820
21136SOL    HW175062   4.484   0.003   7.303 -2.1354  0.5749  1.5449
21136SOL    HW275063   4.358  -0.041   7.209  0.0622  0.3560 -1.3562
21137SOL     OW75064   8.915   1.755   8.155 -0.2206 -0.0693 -0.3444
21137SOL    HW175065   8.996   1.696   8.162 -0.6331 -0.5100  0.9228
21137SOL    HW275066   8.929   1.821   8.082  1.3900  0.0103 -0.0038
21138SOL     OW75067   7.371   1.818   0.325  0.0532 -0.2426  0.4731
21138SOL    HW175068   7.365   1.779   0.418 -1.0285  0.4464  0.6983
21138SOL    HW275069   7.302   1.889   0.314 -0.0443 -0.5548 -0.9893
21139SOL     OW75070   3.503   8.812   2.447 -0.1758  0.2307 -0.3389
21139SOL    HW175071   3.464   8.743   2.386 -0.3858 -0.3242  0.4211
21139SOL    HW275072   3.528   8.770   2.534  0.1093  1.0226 -0.0341
21140SOL     OW75073   4.979   5.224   0.166 -0.0166 -0.1559  0.5993
21140SOL    HW175074   4.906   5.233   0.098  2.6575 -0.9482 -2.4917
21140SOL    HW275075   4.996   5.127   0.183 -0.4651  0.0370  2.2159
21141SOL     OW75076   6.667   9.199   6.565 -0.2389 -0.1585  0.6243
21141SOL    HW175077   6.680   9.156   6.654 -1.3591 -0.3650  0.6964
21141SOL    HW275078   6.586   9.161   6.521  0.3653 -0.1305 -0.5342
21142SOL     OW75079   3.211   0.430   1.782 -0.5114  0.5996 -0.4378
21142SOL    HW175080   3.303   0.407   1.814 -0.7927  0.2627  0.1412
21142SOL    HW275081   3.172   0.351   1.735 -0.7222  0.5498 -0.1807
21143SOL     OW75082   4.432   4.432   1.779  0.3954 -0.0689  0.3060
21143SOL    HW175083   4.456   4.401   1.871  0.2597 -0.9184  0.0560
21143SOL    HW275084   4.446   4.358   1.714  1.0315  0.6958 -0.4514
21144SOL     OW75085   6.542   2.402   3.280  0.2319  0.6594  0.2582
21144SOL    HW175086   6.573   2.336   3.211 -0.4737 -0.4197  0.9522
21144SOL    HW275087   6.595   2.486   3.272 -1.5586  1.5747 -3.3397
21145SOL     OW75088   3.920   8.093   2.743  0.0437  0.3737  0.1882
21145SOL    HW175089   4.001   8.150   2.732  0.7143 -0.4366  0.9065
21145SOL    HW275090   3.880   8.109   2.834  1.0494 -1.3477  0.9387
21146SOL     OW75091   0.200   7.651   7.108 -0.0354 -0.1069  0.2120
21146SOL    HW175092   0.140   7.712   7.056  0.7053 -0.7966 -1.4984
21146SOL    HW275093   0.155   7.562   7.119 -0.9069  0.5562  2.2737
21147SOL     OW75094   7.078   4.499   7.171  0.2082  0.3980 -0.5099
21147SOL    HW175095   6.994   4.520   7.220 -0.0126 -0.9913 -0.2690
21147SOL    HW275096   7.094   4.567   7.100 -1.0576  0.7193 -0.4834
21148SOL     OW75097   8.234   5.843   1.502 -0.1612 -0.4498  0.1439
21148SOL    HW175098   8.269   5.865   1.410 -0.4870  0.6716  0.2847
21148SOL    HW275099   8.194   5.752   1.501 -1.9209  0.3054 -1.3356
21149SOL     OW75100   4.487   0.917   0.422 -0.0477  0.0153  0.0973
21149SOL    HW175101   4.421   0.932   0.496 -0.8352 -0.2389 -0.5477
21149SOL    HW275102   4.495   0.819   0.404  1.3994 -0.0292  0.9758
21150SOL     OW75103   3.893   3.538   4.489 -0.0634 -0.2441 -0.6150
21150SOL    HW175104   3.839   3.483   4.552 -0.1319  0.2849 -0.2031
21150SOL    HW275105   3.834   3.607   4.446  0.4060  0.7776  0.3425
21151SOL     OW75106   0.135   6.541   4.535 -0.2054  0.1567 -0.4127
21151SOL    HW175107   0.158   6.638   4.530 -2.6816  0.8754  1.4035
21151SOL    HW275108   0.093   6.513   4.449 -2.2636  1.4656  0.1352
21152SOL     OW75109   0.401   4.660   2.213 -0.4510 -0.4444 -0.1857
21152SOL    HW175110   0.460   4.621   2.284 -2.0442 -1.5818  0.5466
21152SOL    HW275111   0.443   4.648   2.123  1.3395  0.5269  0.4817
21153SOL     OW75112   8.277   4.330   3.497 -0.6408  0.0007 -0.0824
21153SOL    HW175113   8.265   4.429   3.489 -1.2302 -0.1527 -1.4071
21153SOL    HW275114   8.225   4.285   3.424  0.7747 -1.2120 -0.3674
21154SOL     OW75115   4.167   3.428   5.214  0.4254  0.0540 -0.0812
21154SOL    HW175116   4.141   3.372   5.292 -1.0130  2.1258  0.9912
21154SOL    HW275117   4.088   3.441   5.154  0.0360  2.8457  0.9465
21155SOL     OW75118   8.058   9.448   6.633 -0.0962  0.2616  0.4116
21155SOL    HW175119   8.096   9.447   6.540 -1.0824  0.7780 -0.0069
21155SOL    HW275120   8.131   9.465   6.699  0.5087  0.5343 -0.3218
21156SOL     OW75121   0.993   9.169   7.034 -0.7713  0.0048  0.1391
21156SOL    HW175122   0.899   9.161   7.002 -1.3980 -1.8137  2.2793
21156SOL    HW275123   1.002   9.125   7.123  1.6020  2.1571  1.0433
21157SOL     OW75124   0.372   8.615   5.606  0.6790  0.0207  0.6408
21157SOL    HW175125   0.447   8.627   5.671  0.5480 -0.5314  0.8981
21157SOL    HW275126   0.408   8.616   5.513  0.9020  0.5447  0.7260
21158SOL     OW75127   2.159   4.828   2.993  0.2263 -0.0808 -0.5571
21158SOL    HW175128   2.094   4.770   2.944  1.0553 -2.8371  1.4883
21158SOL    HW275129   2.251   4.812   2.957  0.5102 -0.3001  0.2674
21159SOL     OW75130   6.328   9.679   3.603  0.2273  0.2443 -0.3659
21159SOL    HW175131   6.420   9.718   3.601  0.8413 -0.9605  1.9921
21159SOL    HW275132   6.333   9.582   3.581 -0.8382  0.6819 -2.7070
21160SOL     OW75133   1.359   9.225   6.710  0.6241 -0.0928  0.5387
21160SOL    HW175134   1.435   9.285   6.684  0.1802  0.8856  1.4908
21160SOL    HW275135   1.380   9.132   6.680  1.8386  0.3141  0.0673
21161SOL     OW75136   1.279   3.311   7.414  0.0192  0.0774  0.0680
21161SOL    HW175137   1.236   3.356   7.335  0.8124 -0.4160 -0.6555
21161SOL    HW275138   1.300   3.379   7.484  2.4449  1.0715 -1.5663
21162SOL     OW75139   8.231   7.609   7.257 -0.3583 -0.7553 -0.0694
21162SOL    HW175140   8.204   7.705   7.248 -1.0831 -0.7863  1.6133
21162SOL    HW275141   8.229   7.565   7.167  1.1038  1.0827 -1.0452
21163SOL     OW75142   4.219   5.148   6.535  0.1524  0.4613  0.1371
21163SOL    HW175143   4.314   5.115   6.529 -0.1175 -0.2845 -0.0675
21163SOL    HW275144   4.192   5.188   6.448  0.2155  0.4915  0.1317
21164SOL     OW75145   7.484   7.725   4.971  0.2432  0.1938  0.5304
21164SOL    HW175146   7.419   7.661   4.931  3.4341 -1.3108 -2.4240
21164SOL    HW275147   7.532   7.681   5.047 -0.6624  0.6469  1.3953
21165SOL     OW75148   8.036   9.235   3.813 -0.3063  0.5068 -0.4577
21165SOL    HW175149   8.092   9.175   3.870 -1.3857  0.4301  0.5253
21165SOL    HW275150   8.048   9.209   3.717 -1.8053 -2.1974  0.0409
21166SOL     OW75151   3.516   6.830   1.577  0.2409  0.6117 -0.2026
21166SOL    HW175152   3.493   6.893   1.652 -0.2229  0.1892  0.0161
21166SOL    HW275153   3.446   6.837   1.506 -0.9077 -1.1007  0.7249
21167SOL     OW75154   3.162   2.185   6.108  0.3063  0.2261  0.2317
21167SOL    HW175155   3.098   2.215   6.178 -0.4137  0.4142 -0.5006
21167SOL    HW275156   3.139   2.093   6.078  0.5397  0.1932  0.1484
21168SOL     OW75157   3.856   3.193   6.102 -0.0920 -0.4710  0.2093
21168SOL    HW175158   3.780   3.197   6.037  0.1343 -0.1836 -0.0410
21168SOL    HW275159   3.940   3.222   6.056  0.3906 -1.9391  0.1400
21169SOL     OW75160   5.846   5.332   1.965  0.5477  0.0299 -0.2473
21169SOL    HW175161   5.887   5.264   1.904  0.3670 -0.1998 -0.1108
21169SOL    HW275162   5.884   5.422   1.944  0.3729 -0.0238 -0.8068
21170SOL     OW75163   0.621   6.164   4.855 -0.1050  0.3658 -0.1471
21170SOL    HW175164   0.654   6.256   4.877  1.3817  0.1081 -1.2637
21170SOL    HW275165   0.611   6.155   4.756  0.2822 -0.8565 -0.0772
21171SOL     OW75166   5.905   1.902   0.003  0.1082  0.2845  0.2742
21171SOL    HW175167   5.980   1.922   0.067 -0.2021 -0.8721  1.0338
21171SOL    HW275168   5.931   1.823  -0.054 -0.2733  0.2807  0.1070
21172SOL     OW75169   9.684   6.627   8.114  0.1837 -0.0488  0.3949
21172SOL    HW175170   9.688   6.727   8.123 -0.4421  0.0505 -0.3398
21172SOL    HW275171   9.660   6.604   8.020 -1.4659 -0.8470  0.9995
21173SOL     OW75172   3.846   1.404   3.900 -0.2623 -0.1484 -0.0699
21173SOL    HW175173   3.806   1.366   3.983  2.2686 -2.0434  0.3224
21173SOL    HW275174   3.915   1.472   3.924  0.6012 -0.8290 -0.6077
21174SOL     OW75175   7.122   1.897   1.401 -0.1561  0.5236  0.2141
21174SOL    HW175176   7.047   1.863   1.458 -1.2172 -0.2206 -1.5669
21174SOL    HW275177   7.085   1.937   1.317  1.3581  1.8099  0.1278
21175SOL     OW75178   0.084   4.817   5.996 -0.3991  0.0389 -0.6844
21175SOL    HW175179   0.064   4.720   6.010  0.2977 -0.3613 -2.4573
21175SOL    HW275180   0.183   4.830   5.988 -0.6459  0.5558 -3.0069
21176SOL     OW75181   6.469   8.790   4.715  0.3370 -0.6241 -0.0816
21176SOL    HW175182   6.399   8.725   4.687  0.2163 -1.3193  1.7542
21176SOL    HW275183   6.550   8.740   4.748  0.9879  0.1632 -0.4672
21177SOL     OW75184   5.455   0.903   3.253  0.3137 -0.2509 -0.0711
21177SOL    HW175185   5.395   0.982   3.239  1.4767  0.5214 -0.8278
21177SOL    HW275186   5.401   0.825   3.285 -1.1365  0.3134 -1.1085
21178SOL     OW75187   2.395   7.585   5.301  0.2051  0.2573 -0.1109
21178SOL    HW175188   2.342   7.666   5.279 -1.1460  0.0326  2.1829
21178SOL    HW275189   2.335   7.505   5.303  0.8906 -0.2516  0.9808
21179SOL     OW75190   1.674   1.819   4.972  1.1813  0.1982  0.1622
21179SOL    HW175191   1.706   1.900   4.922 -0.3138  0.6005 -0.1853
21179SOL    HW275192   1.634   1.754   4.907 -1.0414  0.8472  0.8446
21180SOL     OW75193   1.416   7.431   6.030  0.4894  1.2442 -0.1400
21180SOL    HW175194   1.431   7.368   5.954 -2.9405  0.1886 -0.0044
21180SOL    HW275195   1.476   7.405   6.106 -1.7607 -2.8318  0.4017
21181SOL     OW75196   6.026   1.710   4.418 -0.2126 -0.1466  0.1478
21181SOL    HW175197   6.107   1.768   4.407 -0.3062 -0.0843 -0.1980
21181SOL    HW275198   5.996   1.713   4.514  0.4998 -0.5779  0.3883
21182SOL     OW75199   2.710   1.269   2.045  0.3211  0.3322 -0.1550
21182SOL    HW175200   2.610   1.271   2.042  0.3270 -0.1374 -0.7051
21182SOL    HW275201   2.740   1.237   2.135 -0.0163  0.9507  0.1780
21183SOL     OW75202   2.227   7.682   1.905  0.4900 -0.6862 -0.6805
21183SOL    HW175203   2.156   7.620   1.938  0.2111 -0.1010 -0.1786
21183SOL    HW275204   2.317   7.639   1.917  0.2802 -1.0834 -0.5333
21184SOL     OW75205   4.798   0.074   6.511 -0.1595  0.0805  0.1878
21184SOL    HW175206   4.846   0.160   6.499 -1.9228  0.8958 -1.3324
21184SOL    HW275207   4.770   0.064   6.607 -1.5008  2.0645  0.0312
21185SOL     OW75208   2.043   5.911   2.602 -0.6827  0.6662  0.5636
21185SOL    HW175209   2.095   5.859   2.669 -1.0508 -0.4067  0.0252
21185SOL    HW275210   2.045   6.008   2.627  0.8330  0.5316  1.0138
21186SOL     OW75211   6.365   1.706   3.887 -0.2521 -0.0302 -0.0048
21186SOL    HW175212   6.291   1.749   3.835 -2.2830 -0.0415  2.8018
21186SOL    HW275213   6.452   1.752   3.865 -1.3230  1.0488 -2.1082
21187SOL     OW75214   5.026   8.564   5.024  0.4643  0.1960 -0.6627
21187SOL    HW175215   4.947   8.616   4.991  0.9081  0.4424 -1.3278
21187SOL    HW275216   5.069   8.516   4.948  0.2695 -0.8851 -0.1167
21188SOL     OW75217   0.495   4.652   5.084 -0.1029  0.3629 -0.4259
21188SOL    HW175218   0.474   4.600   5.001  0.4581 -2.0366  0.9069
21188SOL    HW275219   0.420   4.643   5.149 -1.9114  4.6556 -1.7293
21189SOL     OW75220   7.740   5.909   7.182  0.1512  0.5275 -0.1900
21189SOL    HW175221   7.773   5.999   7.152  2.4515  0.2340  1.2921
21189SOL    HW275222   7.665   5.921   7.247  1.5175  1.4789  1.2722
21190SOL     OW75223   6.031   5.088   1.002 -0.1581  0.1546  0.3798
21190SOL    HW175224   5.981   5.091   1.088  3.2806 -1.9349  2.6010
21190SOL    HW275225   6.116   5.140   1.012  0.5786 -0.6445 -1.5340
21191SOL     OW75226   8.477   1.763   5.168  0.6701  0.1655 -0.2572
21191SOL    HW175227   8.522   1.851   5.183  1.6214 -0.3942  0.1594
21191SOL    HW275228   8.522   1.692   5.222 -0.9011 -0.3389  0.4380
21192SOL     OW75229   0.222   0.328   4.539 -0.6715 -0.5186  0.1967
21192SOL    HW175230   0.282   0.408   4.541 -0.5592 -0.5828 -0.4101
21192SOL    HW275231   0.262   0.257   4.481 -1.5237 -0.4099 -0.5431
21193SOL     OW75232   7.954   5.693   7.972 -0.1480  0.3071  0.1878
21193SOL    HW175233   8.050   5.696   7.945 -0.1763 -2.2926 -0.2698
21193SOL    HW275234   7.896   5.702   7.890 -0.2884 -0.1250  0.2416
21194SOL     OW75235   6.572   4.738   2.101  0.0831 -0.4050  0.0351
21194SOL    HW175236   6.632   4.720   2.179  0.6696 -1.4009 -0.6471
21194SOL    HW275237   6.518   4.821   2.119 -0.2090 -0.9486  1.7593
21195SOL     OW75238   1.801   1.966   5.172 -0.3199  0.2163 -0.1941
21195SOL    HW175239   1.741   1.971   5.252 -0.0433  0.4087  0.0013
21195SOL    HW275240   1.749   1.929   5.094 -0.2885 -1.0171  0.3600
21196SOL     OW75241   7.702   6.326   5.261  0.3727 -1.2526  0.6451
21196SOL    HW175242   7.717   6.284   5.350  0.6386 -1.6015  0.4381
21196SOL    HW275243   7.779   6.387   5.240  0.5757 -1.5833  0.4195
21197SOL     OW75244   1.789   4.393   3.602 -0.5111  0.3595 -0.3391
21197SOL    HW175245   1.705   4.371   3.651 -0.0920 -1.1972 -0.3004
21197SOL    HW275246   1.829   4.310   3.565  0.1977  1.2821 -1.6958
21198SOL     OW75247   7.617   7.820   7.097  0.2780 -0.4563  0.3181
21198SOL    HW175248   7.692   7.759   7.122  1.3419 -0.2589 -2.2323
21198SOL    HW275249   7.543   7.767   7.057 -0.6073 -0.5439  2.0243
21199SOL     OW75250   9.274   2.999   7.372  0.7737 -0.2018 -0.3142
21199SOL    HW175251   9.199   3.010   7.438  0.0477  1.0402 -1.3114
21199SOL    HW275252   9.280   2.904   7.343 -1.4810 -0.0375 -1.4211
21200SOL     OW75253   7.642   0.941   6.544  0.2017 -0.4515  0.8222
21200SOL    HW175254   7.737   0.971   6.561 -0.2257  0.5949  1.4523
21200SOL    HW275255   7.626   0.935   6.446  0.5321  0.6725  0.6921
21201SOL     OW75256   7.353   2.630   1.577  0.2741  0.6186 -0.2186
21201SOL    HW175257   7.269   2.580   1.598  0.1743  0.6150 -0.6099
21201SOL    HW275258   7.415   2.570   1.525  0.0688  0.9631 -0.8695
21202SOL     OW75259   0.266   1.684   4.168 -0.5572  0.1555 -0.4412
21202SOL    HW175260   0.319   1.636   4.098  0.5842  0.1887  0.3890
21202SOL    HW275261   0.254   1.624   4.248 -0.1578  0.8238  0.1244
21203SOL     OW75262   5.638   0.463   4.991 -0.0371 -0.3546  0.3277
21203SOL    HW175263   5.731   0.492   5.013 -0.1954  0.7867 -0.4443
21203SOL    HW275264   5.595   0.423   5.072  1.2936 -1.3410  0.5418
21204SOL     OW75265   3.602   2.727   3.169  0.2417 -0.4878  0.0428
21204SOL    HW175266   3.531   2.780   3.124 -0.7341 -0.5453  1.4709
21204SOL    HW275267   3.642   2.781   3.244  0.5227 -1.0720  0.3195
21205SOL     OW75268   5.338   1.578   4.745 -0.1898 -0.1885 -0.6388
21205SOL    HW175269   5.416   1.624   4.787  0.8126 -0.3845 -2.2157
21205SOL    HW275270   5.366   1.486   4.715 -1.0782 -0.3319 -1.0593
21206SOL     OW75271   2.018   0.229   7.690 -0.5664 -0.1599  0.4718
21206SOL    HW175272   1.947   0.168   7.725 -0.5770  0.6671  1.8789
21206SOL    HW275273   2.101   0.219   7.744 -0.1698  0.1812 -0.0630
21207SOL     OW75274   8.729   8.671   2.868  0.3442  0.0680  0.3357
21207SOL    HW175275   8.826   8.682   2.891  0.7865 -0.4812 -1.1940
21207SOL    HW275276   8.680   8.634   2.947  1.3340  0.6009  1.2070
21208SOL     OW75277   7.281   8.695   3.567 -0.1579 -0.1372  0.4548
21208SOL    HW175278   7.287   8.785   3.611  0.5382 -0.0078  0.0942
21208SOL    HW275279   7.354   8.637   3.602 -0.5356 -0.5279  0.5964
21209SOL     OW75280   9.167   5.776   3.425 -0.2729 -0.0501 -0.2874
21209SOL    HW175281   9.103   5.817   3.360 -0.0179 -2.1060 -1.9180
21209SOL    HW275282   9.144   5.804   3.518 -4.1467 -1.4146 -0.7316
21210SOL     OW75283   9.009   2.563   2.288  0.9731 -0.2853  0.4668
21210SOL    HW175284   8.955   2.628   2.235 -0.9043 -1.9880  0.2200
21210SOL    HW275285   9.091   2.609   2.324  1.5342  1.2629 -2.6347
21211SOL     OW75286   3.324   5.307   6.682 -0.1233  0.0205 -0.3742
21211SOL    HW175287   3.381   5.377   6.639  1.0602 -1.6689 -1.6815
21211SOL    HW275288   3.378   5.259   6.751 -0.4923 -0.4446 -0.4076
21212SOL     OW75289   0.599   2.386   6.987  0.4473  0.4495  0.0120
21212SOL    HW175290   0.694   2.408   7.007  0.5807 -0.1379  0.0440
21212SOL    HW275291   0.591   2.361   6.890  0.4422 -0.0909  0.1476
21213SOL     OW75292   4.024   9.014   1.844 -0.3199 -0.3118  0.9203
21213SOL    HW175293   3.999   9.108   1.822  1.4000 -0.0471  0.0495
21213SOL    HW275294   3.985   8.952   1.776  0.1978 -0.0369  0.3726
21214SOL     OW75295   1.198   9.114   4.733  0.3471  0.2934  0.3181
21214SOL    HW175296   1.210   9.203   4.688  0.1028  0.8564  1.3695
21214SOL    HW275297   1.156   9.127   4.823  0.2977 -0.8884  0.4724
21215SOL     OW75298   8.061   0.896   1.973 -0.2650 -0.1924 -0.1163
21215SOL    HW175299   7.962   0.889   1.958 -0.4154  0.4207  0.5786
21215SOL    HW275300   8.096   0.808   2.005 -0.5560 -0.4518 -0.5047
21216SOL     OW75301   8.779   8.115   3.192 -0.1858  0.5633 -0.4944
21216SOL    HW175302   8.738   8.024   3.186  1.3163 -0.1246 -0.3888
21216SOL    HW275303   8.757   8.166   3.108 -0.1188 -0.2801 -1.0367
21217SOL     OW75304   3.577   2.155   1.549  0.0749 -0.2457 -0.1374
21217SOL    HW175305   3.667   2.124   1.580  1.2175 -0.0603 -3.0977
21217SOL    HW275306   3.587   2.211   1.467 -2.7628 -0.2961 -0.5868
21218SOL     OW75307   1.230   4.617   3.673  0.5389 -0.6479 -0.1272
21218SOL    HW175308   1.329   4.606   3.676  0.4984 -0.8491  0.4206
21218SOL    HW275309   1.186   4.546   3.727  0.0733 -0.8148 -0.7128
21219SOL     OW75310   1.123   8.184   0.395 -0.4127  0.7733  0.3692
21219SOL    HW175311   1.167   8.122   0.461 -0.0995  1.3808  0.7427
21219SOL    HW275312   1.030   8.154   0.377 -0.5393  0.6717  1.1909
21220SOL     OW75313   3.370  -0.002   0.028 -0.2030  0.0311 -0.2191
21220SOL    HW175314   3.418   0.025  -0.055 -1.3573 -1.1050 -1.2776
21220SOL    HW275315   3.412   0.043   0.107  0.0292  2.2268 -1.5552
21221SOL     OW75316   0.793   8.357   6.093  0.1166  0.3197  0.2839
21221SOL    HW175317   0.861   8.415   6.048 -0.8293  2.6881  1.8207
21221SOL    HW275318   0.821   8.261   6.087  2.8958  1.1352 -0.2538
21222SOL     OW75319   5.715   9.484   6.280 -0.1025 -0.0037  0.6633
21222SOL    HW175320   5.771   9.480   6.197 -1.7627  1.5757 -0.5753
21222SOL    HW275321   5.635   9.426   6.268  0.4307 -1.0002  1.8085
21223SOL     OW75322   3.804   3.412   6.441 -0.0938 -0.4717 -0.2419
21223SOL    HW175323   3.763   3.485   6.496 -0.6023 -0.2172 -0.9354
21223SOL    HW275324   3.835   3.339   6.500  0.2955  0.2500  0.4567
21224SOL     OW75325   1.978   4.414   6.543 -0.2131 -0.2134 -0.2266
21224SOL    HW175326   2.032   4.361   6.608 -0.9130 -0.0605  0.4974
21224SOL    HW275327   1.942   4.496   6.589 -0.9287 -0.2409 -0.7254
21225SOL     OW75328   4.312   6.023   0.845  0.0384  0.1940 -0.0419
21225SOL    HW175329   4.250   6.101   0.853  1.2127  1.1894 -0.3625
21225SOL    HW275330   4.356   6.024   0.755  0.3394 -0.6299  0.0874
21226SOL     OW75331   2.762   1.946   5.286 -0.4885  0.1981  0.3178
21226SOL    HW175332   2.821   1.956   5.366 -1.5811  0.2359  1.1396
21226SOL    HW275333   2.698   1.871   5.301  0.5797 -1.0801 -1.3581
21227SOL     OW75334   9.652   1.250   6.115 -0.1029  0.5031 -0.5040
21227SOL    HW175335   9.726   1.216   6.173 -0.8273  1.2896  0.9001
21227SOL    HW275336   9.565   1.219   6.152 -0.6195  1.7604 -0.6557
21228SOL     OW75337   3.802   8.119   2.965 -0.5997  0.4632 -0.9433
21228SOL    HW175338   3.848   8.178   3.031 -0.8391 -0.4880  0.0824
21228SOL    HW275339   3.705   8.111   2.990 -0.7309  0.2391 -1.5129
21229SOL     OW75340   5.025   2.965   0.107  0.0914  0.4541 -0.1017
21229SOL    HW175341   5.080   2.963   0.024 -1.5280 -1.3474 -1.1757
21229SOL    HW275342   4.936   2.922   0.089 -0.9824  1.6914  2.0697
21230SOL     OW75343   2.820   2.289   0.146 -0.1013 -0.2017 -0.5365
21230SOL    HW175344   2.898   2.284   0.208 -1.6027 -0.1648  1.4247
21230SOL    HW275345   2.847   2.260   0.054  1.8681 -1.4271  0.4163
21231SOL     OW75346   9.947   8.542   4.383  0.3922 -0.0522  0.3045
21231SOL    HW175347   9.969   8.545   4.481  3.3627 -0.3875 -0.3194
21231SOL    HW275348   9.963   8.449   4.348 -0.1739  0.1926 -0.6250
21232SOL     OW75349   9.597   3.837   1.600 -0.2586 -0.0448  0.5884
21232SOL    HW175350   9.671   3.840   1.533 -0.0563 -1.6874  0.7186
21232SOL    HW275351   9.509   3.844   1.553 -0.1001 -0.6505  0.2026
21233SOL     OW75352   2.555   3.655   7.183  0.1913 -0.0701  0.3412
21233SOL    HW175353   2.619   3.731   7.174 -0.8679  0.6850 -0.8043
21233SOL    HW275354   2.534   3.640   7.280  1.8504 -0.1305  0.7085
21234SOL     OW75355   3.348   9.093   4.736 -0.4863 -0.0770  0.2969
21234SOL    HW175356   3.382   9.175   4.783 -1.3251 -0.7787  2.1794
21234SOL    HW275357   3.403   9.014   4.763 -0.6006 -0.3992 -0.3879
21235SOL     OW75358   5.255   1.651   0.398  0.4792 -0.6052  0.0484
21235SOL    HW175359   5.332   1.714   0.385 -0.4822  0.7312  0.7192
21235SOL    HW275360   5.199   1.649   0.316 -1.7821  2.6070  1.4219
21236SOL     OW75361   1.272   9.343   3.445  0.1933  0.7599 -0.0780
21236SOL    HW175362   1.251   9.325   3.541  0.5187  1.0747  0.0527
21236SOL    HW275363   1.371   9.343   3.432  0.1294 -0.5052 -0.6479
21237SOL     OW75364   5.528   2.218   5.325  0.2086  0.1100 -0.2801
21237SOL    HW175365   5.478   2.187   5.405  3.8425  1.0233  2.4383
21237SOL    HW275366   5.572   2.139   5.280  2.8214  0.2186  1.9730
21238SOL     OW75367   7.712   4.566   0.282  0.3235 -0.1392 -0.0634
21238SOL    HW175368   7.810   4.568   0.259  0.2278 -0.4023 -0.5066
21238SOL    HW275369   7.672   4.480   0.249 -0.2514  0.3694 -0.7159
21239SOL     OW75370   2.168   6.547   1.297  0.2254 -0.0363 -0.0539
21239SOL    HW175371   2.206   6.508   1.381 -1.7401  0.3709  1.0420
21239SOL    HW275372   2.106   6.622   1.320 -2.4783 -1.7153 -1.7267
21240SOL     OW75373   8.779   0.308   3.980  0.0428  0.5379  0.0593
21240SOL    HW175374   8.689   0.346   4.004 -0.3818 -0.2134 -0.3366
21240SOL    HW275375   8.774   0.208   3.983  0.6871  0.4894 -0.6524
21241SOL     OW75376   2.324   1.098   6.989  0.1197 -0.0045  0.0691
21241SOL    HW175377   2.256   1.050   6.935 -0.1735  0.9408 -0.4107
21241SOL    HW275378   2.298   1.194   6.998  0.6279  0.0444  1.1242
21242SOL     OW75379   2.685   6.924   0.602  0.1711  0.0771 -0.3159
21242SOL    HW175380   2.590   6.894   0.602 -0.1748  1.1442  0.1800
21242SOL    HW275381   2.703   6.978   0.520  0.0598  0.7168  0.0691
21243SOL     OW75382   3.715   9.259   5.730  0.7862 -0.4675 -0.1511
21243SOL    HW175383   3.790   9.193   5.724  1.3884  0.1553  0.3554
21243SOL    HW275384   3.636   9.215   5.774  0.8739 -1.1102 -0.6295
21244SOL     OW75385   8.438   5.785   1.091  0.0958 -0.0892  0.5146
21244SOL    HW175386   8.492   5.752   1.169  1.1023  1.0081  0.2964
21244SOL    HW275387   8.490   5.774   1.007 -1.0545 -1.4104 -0.0365
21245SOL     OW75388   8.201   1.845   2.824  0.2408  0.1723  0.2592
21245SOL    HW175389   8.256   1.888   2.896  2.0599 -0.1748 -0.8987
21245SOL    HW275390   8.260   1.816   2.749 -1.2013 -2.5118  0.0921
21246SOL     OW75391   0.416   9.436   8.154 -0.0483 -0.0756 -0.0347
21246SOL    HW175392   0.514   9.423   8.170 -0.3212 -1.0075  0.9200
21246SOL    HW275393   0.366   9.353   8.182 -1.3381  1.1783  1.4850
21247SOL     OW75394   7.934   7.425   3.800  0.0443  0.2950 -0.0386
21247SOL    HW175395   7.850   7.478   3.799 -0.0177  0.2310  1.1112
21247SOL    HW275396   7.962   7.408   3.894  1.8517  1.1228 -0.3857
21248SOL     OW75397   8.674   0.962   5.543 -0.3364 -0.4255 -0.6299
21248SOL    HW175398   8.649   0.882   5.489 -1.9502 -0.8119  0.6543
21248SOL    HW275399   8.654   0.945   5.640  2.6204  0.1932  0.1556
21249SOL     OW75400   4.009   2.290   6.582 -0.4326  0.2375 -0.2836
21249SOL    HW175401   4.040   2.382   6.605 -1.3499  0.1128  1.5696
21249SOL    HW275402   3.920   2.273   6.625  0.5491 -2.1467  0.9330
21250SOL     OW75403   6.991   0.247   3.994 -0.0376  0.0489 -0.5136
21250SOL    HW175404   7.035   0.336   3.983 -1.9218  0.7308 -3.0665
21250SOL    HW275405   7.039   0.195   4.064  2.7383  2.0245 -0.8418
21251SOL     OW75406   4.148   7.966   6.336  0.1165  0.2702 -0.2906
21251SOL    HW175407   4.231   7.912   6.326  0.3812  0.8085 -0.9872
21251SOL    HW275408   4.151   8.016   6.422  0.9614  1.0605 -0.7725
21252SOL     OW75409   7.915   0.768   1.266 -0.0816 -0.0118 -0.0536
21252SOL    HW175410   8.003   0.730   1.294 -0.6723 -1.4877 -0.1449
21252SOL    HW275411   7.841   0.712   1.303 -0.9657  0.8041 -0.5635
21253SOL     OW75412   5.674   4.745   1.764 -0.4322  0.2719 -0.2330
21253SOL    HW175413   5.770   4.771   1.756  0.0667 -1.1245  0.9704
21253SOL    HW275414   5.616   4.819   1.729  1.0861  0.8621 -1.5608
21254SOL     OW75415   0.733   5.904   4.606 -0.4193  0.0088  0.1097
21254SOL    HW175416   0.655   5.888   4.667 -0.4007  3.3117  1.0889
21254SOL    HW275417   0.710   5.974   4.540  0.5065 -1.6519 -2.0413
21255SOL     OW75418   9.612   1.814   3.161 -0.4974  0.3080  0.3456
21255SOL    HW175419   9.563   1.802   3.247  1.2726  0.6242  1.4045
21255SOL    HW275420   9.632   1.725   3.121 -1.6961  0.1706  0.0329
21256SOL     OW75421   1.395   5.196   2.858 -0.1076  0.3753  0.0556
21256SOL    HW175422   1.322   5.228   2.797 -0.7409 -0.1208  0.5433
21256SOL    HW275423   1.469   5.157   2.804 -0.5011  0.2745 -0.4170
21257SOL     OW75424   1.112   1.567   7.797 -0.0528 -0.2044 -0.0579
21257SOL    HW175425   1.122   1.659   7.759  0.6444 -0.3321 -0.1932
21257SOL    HW275426   1.172   1.503   7.747  0.3421 -0.5039  0.7855
21258SOL     OW75427   3.367   4.490   2.289 -0.3041 -0.4377 -0.6082
21258SOL    HW175428   3.346   4.553   2.364  0.3320 -1.7107  0.6609
21258SOL    HW275429   3.284   4.469   2.238 -0.8439  0.0076  0.0862
21259SOL     OW75430   0.174   9.994   3.405  0.3521 -0.0376  0.2561
21259SOL    HW175431   0.225   9.984   3.491  2.4130  1.0574 -0.8071
21259SOL    HW275432   0.197   9.918   3.344 -0.0460 -0.0651  0.1409
21260SOL     OW75433   0.315   6.162   3.249  0.4248 -0.1790 -0.5342
21260SOL    HW175434   0.404   6.179   3.290 -0.3309 -1.7807  1.8777
21260SOL    HW275435   0.320   6.079   3.193  0.4812 -0.2415 -0.4386
21261SOL     OW75436   9.662   8.391   2.612  1.0323 -0.4204  0.2801
21261SOL    HW175437   9.689   8.448   2.690  2.0340  0.6105 -0.8092
21261SOL    HW275438   9.725   8.313   2.605  1.3979 -0.1033  0.0492
21262SOL     OW75439   1.996   6.735   4.331  0.3520 -0.0171 -0.2939
21262SOL    HW175440   2.008   6.648   4.283  2.2902 -0.1025  0.3132
21262SOL    HW275441   1.997   6.718   4.430 -0.4608  0.5608 -0.1789
21263SOL     OW75442   8.478   1.126   5.832  0.8897  0.1586  0.1424
21263SOL    HW175443   8.573   1.094   5.827  0.4924 -1.0730  0.1333
21263SOL    HW275444   8.425   1.079   5.761 -0.0936 -0.4914  1.3026
21264SOL     OW75445   8.317   3.827   2.966  0.7686 -0.3433  0.3083
21264SOL    HW175446   8.407   3.860   2.938  1.6562 -1.5369  1.6914
21264SOL    HW275447   8.319   3.728   2.980  0.0150 -0.0248  3.0603
21265SOL     OW75448   8.255   6.143   4.167  0.2124  0.2424 -0.8623
21265SOL    HW175449   8.226   6.058   4.211 -0.4814  1.1108  0.3931
21265SOL    HW275450   8.220   6.146   4.074 -2.3180  0.4797  0.0610
21266SOL     OW75451   1.785   4.781   2.788 -0.8077 -0.0827 -0.2500
21266SOL    HW175452   1.687   4.762   2.793 -1.0644  0.4508 -2.4991
21266SOL    HW275453   1.799   4.880   2.786 -0.3909 -0.1627 -2.1444
21267SOL     OW75454   0.566   1.126   7.302 -0.3292 -0.1584  0.0891
21267SOL    HW175455   0.494   1.195   7.311  1.5800  2.2344 -2.0759
21267SOL    HW275456   0.559   1.084   7.211  1.2691  0.4209 -0.3052
21268SOL     OW75457   4.561   3.935   8.105  0.2074 -0.1364 -0.5739
21268SOL    HW175458   4.559   3.909   8.009 -1.3666 -0.6690 -0.4114
21268SOL    HW275459   4.594   3.858   8.160  0.8170  0.0668 -0.6526
21269SOL     OW75460   3.017   8.795   3.663 -0.3065 -0.2104  0.3730
21269SOL    HW175461   3.069   8.829   3.585 -1.2040  1.8791  0.6461
21269SOL    HW275462   3.063   8.821   3.748  0.2922 -1.8466  0.5589
21270SOL     OW75463   9.607   1.774   6.049  0.2677 -0.1653 -0.3999
21270SOL    HW175464   9.606   1.873   6.060  1.6259 -0.2090  0.1653
21270SOL    HW275465   9.557   1.749   5.965  0.9135  1.0631 -1.1587
21271SOL     OW75466   3.193   1.559   5.043 -0.2641  0.7408 -0.4738
21271SOL    HW175467   3.170   1.578   4.947 -1.3058  1.4385 -0.1041
21271SOL    HW275468   3.143   1.478   5.073  1.3413 -0.4579 -0.9883
21272SOL     OW75469   8.847   2.230   6.812  0.0073  0.2196 -0.1956
21272SOL    HW175470   8.924   2.167   6.800 -1.2884 -1.8686  1.8553
21272SOL    HW275471   8.878   2.324   6.795  2.4416 -0.7652 -1.5602
21273SOL     OW75472   4.235   0.164   0.499 -0.3508  0.4247 -0.0476
21273SOL    HW175473   4.298   0.184   0.573  0.5809 -1.1661 -0.3848
21273SOL    HW275474   4.260   0.077   0.456 -2.3035  0.1469 -0.6878
21274SOL     OW75475   1.443   1.206   1.294 -0.4654 -0.4990  0.1188
21274SOL    HW175476   1.436   1.146   1.373  1.0070  0.0826  0.7044
21274SOL    HW275477   1.408   1.296   1.318 -0.4317 -0.4475 -0.0270
21275SOL     OW75478   9.467   5.110   8.119 -0.0332 -0.3550 -0.2259
21275SOL    HW175479   9.487   5.065   8.033 -1.6796 -0.6185 -0.4762
21275SOL    HW275480   9.485   5.047   8.195  1.1322 -0.2168 -0.3751
21276SOL     OW75481   0.564   8.645   5.795 -0.2729 -0.5204  0.0637
21276SOL    HW175482   0.604   8.569   5.743 -0.7288  0.8421 -2.3816
21276SOL    HW275483   0.626   8.724   5.791  0.1057 -0.6661  2.4139
21277SOL     OW75484   3.967   3.047   2.097  0.1711  0.4435  0.4831
21277SOL    HW175485   3.964   3.076   2.001 -2.7564  0.7040  0.6310
21277SOL    HW275486   3.954   3.126   2.157 -0.4308 -0.0734  1.0417
21278SOL     OW75487   3.546   6.562   1.461  0.7654 -0.1145 -0.4013
21278SOL    HW175488   3.523   6.646   1.510  2.3139 -0.0975  0.3068
21278SOL    HW275489   3.562   6.583   1.364  1.0960  0.3829 -0.2362
21279SOL     OW75490   6.033   1.725   1.572  0.2284  0.2387  0.2140
21279SOL    HW175491   5.986   1.636   1.572 -0.4473  0.5961  0.9298
21279SOL    HW275492   5.966   1.798   1.580  0.7729  0.8357 -0.6109
21280SOL     OW75493   7.209   2.025   0.255  0.1384 -0.8909  0.3697
21280SOL    HW175494   7.183   1.989   0.165  0.2544  0.4739 -0.2250
21280SOL    HW275495   7.132   2.074   0.295  0.8746  0.7114 -0.1401
21281SOL     OW75496   5.351   8.979   7.367  0.5206 -0.1199  0.2389
21281SOL    HW175497   5.436   9.014   7.329 -0.3558  0.8492 -0.8549
21281SOL    HW275498   5.369   8.942   7.459  1.9432  0.8831  0.3901
21282SOL     OW75499   1.366   3.835   6.228  0.1913 -0.1073 -0.0908
21282SOL    HW175500   1.455   3.826   6.274 -0.1803 -1.5596  0.3700
21282SOL    HW275501   1.347   3.932   6.212  1.3014  0.2938  0.9069
21283SOL     OW75502   0.127   4.487   0.644  0.0249  0.0278  0.0687
21283SOL    HW175503   0.210   4.453   0.600  0.9372  0.4874  1.3964
21283SOL    HW275504   0.049   4.472   0.584  1.2995  1.1155 -1.9236
21284SOL     OW75505   2.597   6.830   3.271 -0.0271  0.2893  0.3058
21284SOL    HW175506   2.537   6.900   3.309  1.0842  1.1713  0.4600
21284SOL    HW275507   2.663   6.872   3.209 -1.1159 -0.9954 -1.7812
21285SOL     OW75508   9.099   4.459   0.490 -1.0396  0.6292  0.1257
21285SOL    HW175509   9.182   4.452   0.545 -0.0321  2.5107 -1.0977
21285SOL    HW275510   9.064   4.553   0.494 -1.4946  0.5548 -1.6641
21286SOL     OW75511   5.040   4.972   2.488 -0.3485  0.6162 -0.2694
21286SOL    HW175512   5.024   5.070   2.500  1.3692  0.9008 -0.2107
21286SOL    HW275513   5.071   4.953   2.395  1.1882  0.3962  0.2699
21287SOL     OW75514   4.212   4.747   4.325  0.2634  0.2684 -0.0420
21287SOL    HW175515   4.290   4.804   4.350  1.5902 -1.4491 -0.1953
21287SOL    HW275516   4.169   4.711   4.408  0.6925 -0.1730 -0.0085
21288SOL     OW75517   0.377   8.157   3.739  0.2006  0.2047 -0.5352
21288SOL    HW175518   0.426   8.074   3.767  0.2179  0.3059 -0.2689
21288SOL    HW275519   0.278   8.139   3.741  0.1629  0.5155  0.5546
21289SOL     OW75520   0.419   9.404   5.193 -0.1051 -0.4146 -0.2574
21289SOL    HW175521   0.481   9.426   5.268  0.0395  2.0181 -1.0560
21289SOL    HW275522   0.326   9.392   5.229  0.3286 -1.3066  0.5706
21290SOL     OW75523   0.313   9.778   2.300 -0.3208  0.1770 -0.3068
21290SOL    HW175524   0.255   9.786   2.381  0.0524  2.0373 -0.1834
21290SOL    HW275525   0.386   9.847   2.305  0.1639 -0.2052 -1.8485
21291SOL     OW75526   8.560   9.215   4.550 -0.1515 -0.1528 -0.1327
21291SOL    HW175527   8.476   9.209   4.604 -0.5359  0.4158 -0.6584
21291SOL    HW275528   8.575   9.310   4.524  0.5700 -0.2811 -0.1807
21292SOL     OW75529   7.878   1.035   6.680  0.2826 -0.0123 -0.1632
21292SOL    HW175530   7.949   0.974   6.646 -0.9650 -1.4603 -0.2550
21292SOL    HW275531   7.881   1.038   6.780  1.2834  0.9427 -0.2196
21293SOL     OW75532   5.135   2.510   3.625 -0.7406  0.0133  0.5397
21293SOL    HW175533   5.071   2.446   3.668 -0.0320 -0.4051  0.9823
21293SOL    HW275534   5.094   2.546   3.541 -0.1106 -2.9975 -1.1433
21294SOL     OW75535   7.686   7.813   2.603 -0.5174 -0.1247 -0.3557
21294SOL    HW175536   7.646   7.722   2.606 -0.9769  0.1099  0.8815
21294SOL    HW275537   7.720   7.831   2.511 -1.2553 -1.1852 -0.8488
21295SOL     OW75538   4.613   8.847   6.670 -0.4561  0.0729 -0.2620
21295SOL    HW175539   4.696   8.877   6.718  0.4131 -1.5921 -0.6662
21295SOL    HW275540   4.535   8.901   6.701  0.1227 -0.7912  2.8822
21296SOL     OW75541   1.569   6.342   6.800 -0.0093 -0.2545  0.0207
21296SOL    HW175542   1.499   6.271   6.804 -0.0488 -0.2850 -0.9821
21296SOL    HW275543   1.539   6.415   6.738 -0.1602  0.8516  1.3833
21297SOL     OW75544   3.620   3.057   3.553 -0.2244 -0.4710  0.2891
21297SOL    HW175545   3.718   3.037   3.558 -0.5392 -2.1996 -0.3162
21297SOL    HW275546   3.607   3.155   3.538  1.3807 -0.0580  1.4687
21298SOL     OW75547   1.834   1.716   7.915 -0.0235  0.1693  0.4237
21298SOL    HW175548   1.736   1.699   7.907  0.0473 -0.1042  0.1392
21298SOL    HW275549   1.851   1.771   7.996 -0.3927  0.0579  0.5791
21299SOL     OW75550   4.810   7.250   3.609  0.0503  0.4918 -0.0016
21299SOL    HW175551   4.907   7.238   3.630  0.7579  1.5420 -2.4836
21299SOL    HW275552   4.774   7.328   3.660  0.5929  0.2841  0.6997
21300SOL     OW75553   8.897   3.473   1.593  0.4429 -0.6404 -0.1436
21300SOL    HW175554   8.849   3.418   1.662  1.5625  0.8010  1.8667
21300SOL    HW275555   8.971   3.419   1.554 -1.5800 -2.2351 -1.8966
21301SOL     OW75556   1.841   1.649   4.640 -0.1873 -0.2280 -0.0177
21301SOL    HW175557   1.778   1.715   4.601 -0.1826 -0.8170 -1.0538
21301SOL    HW275558   1.816   1.630   4.735  0.5207  2.1290  0.6787
21302SOL     OW75559   7.889   6.591   6.811 -0.2391  0.1666 -0.3319
21302SOL    HW175560   7.869   6.627   6.720 -1.8832  1.2510  0.4465
21302SOL    HW275561   7.804   6.575   6.860  0.6785  0.9927  1.5668
21303SOL     OW75562   4.024   8.850   5.171  0.0404  0.7602  0.2956
21303SOL    HW175563   3.962   8.929   5.168 -0.9533 -0.0047  0.4366
21303SOL    HW275564   4.050   8.832   5.266 -2.6674 -1.3183  0.6920
21304SOL     OW75565   1.187   3.046   1.717  0.0725  0.2073 -0.4019
21304SOL    HW175566   1.148   3.132   1.751  1.2074  2.1733 -3.7195
21304SOL    HW275567   1.241   3.002   1.788  0.5327  2.9546  1.0001
21305SOL     OW75568   0.222   7.494   3.851 -0.1991  0.0860  0.4269
21305SOL    HW175569   0.162   7.428   3.894  0.0515  0.2411  1.0214
21305SOL    HW275570   0.317   7.465   3.862 -0.1734 -0.3057 -0.7541
21306SOL     OW75571   4.993   3.404   4.497  0.1462  0.7372 -0.0093
21306SOL    HW175572   4.961   3.415   4.403 -0.2418  1.6498  0.2287
21306SOL    HW275573   4.977   3.489   4.548 -1.2864 -0.3453  1.3829
21307SOL     OW75574   6.672   9.599   4.686 -0.1932  0.1257 -0.5796
21307SOL    HW175575   6.743   9.531   4.668 -0.4049 -0.5310  1.0089
21307SOL    HW275576   6.611   9.565   4.757 -0.0550  2.1566  0.5482
21308SOL     OW75577   4.300   8.807   5.395 -0.2385 -0.0636 -0.0649
21308SOL    HW175578   4.292   8.707   5.396  0.9619 -0.1624  1.3974
21308SOL    HW275579   4.381   8.833   5.343  0.3620  0.0573  0.9124
21309SOL     OW75580   5.756   5.307   0.111  0.5794 -0.3866 -0.2836
21309SOL    HW175581   5.749   5.326   0.209 -0.8783 -1.0469 -0.2525
21309SOL    HW275582   5.745   5.208   0.095  0.0821 -0.1943 -1.1786
21310SOL     OW75583   7.773   2.119   0.270 -0.3525  0.0785 -0.0197
21310SOL    HW175584   7.854   2.152   0.319  0.2843 -0.0502 -0.9693
21310SOL    HW275585   7.690   2.156   0.314  0.2330  0.5126  0.7319
21311SOL     OW75586   0.027   4.351   1.861 -0.0930 -0.2601 -0.1445
21311SOL    HW175587  -0.061   4.398   1.852 -0.3900 -0.8187 -0.1392
21311SOL    HW275588   0.097   4.403   1.812 -1.1116 -1.6543 -3.2056
21312SOL     OW75589   9.009   8.262   3.698  0.3132 -0.1696 -0.2172
21312SOL    HW175590   9.052   8.245   3.787  0.4968 -0.4514 -0.3564
21312SOL    HW275591   8.960   8.348   3.700 -2.0079 -1.4782  1.0111
21313SOL     OW75592   2.215   8.334   3.153 -0.6999  0.3201 -0.4407
21313SOL    HW175593   2.263   8.392   3.087  0.1134  0.8408  0.5818
21313SOL    HW275594   2.160   8.267   3.105  0.1566  0.4633 -1.6481
21314SOL     OW75595   7.345   6.185   6.359 -0.0173 -0.2025 -0.1722
21314SOL    HW175596   7.336   6.285   6.357 -1.1799 -0.3319 -1.3630
21314SOL    HW275597   7.293   6.149   6.436  0.7437  0.1325  0.5121
21315SOL     OW75598   7.169   2.935   3.515 -0.4594  0.4267 -0.0388
21315SOL    HW175599   7.263   2.955   3.540 -0.3868 -1.5533  1.3967
21315SOL    HW275600   7.165   2.902   3.421  0.4537 -0.7592  0.3316
21316SOL     OW75601   1.661   8.033   0.741  0.3718  0.4228  0.2396
21316SOL    HW175602   1.611   7.962   0.789  1.0038 -0.0940  0.1494
21316SOL    HW275603   1.728   7.991   0.679 -0.2983  1.0757 -0.9530
21317SOL     OW75604   8.239   5.594   4.815 -0.2222  0.1572 -0.0859
21317SOL    HW175605   8.313   5.533   4.844 -0.6493 -1.9736 -3.2346
21317SOL    HW275606   8.276   5.685   4.798  1.3196 -0.3925  0.2358
21318SOL     OW75607   9.738   9.950   3.325 -0.2162  0.7294  0.7238
21318SOL    HW175608   9.793   9.906   3.397  1.6804  3.0700  0.8058
21318SOL    HW275609   9.771   9.921   3.236  0.3151  1.1315  0.7846
21319SOL     OW75610   8.625   4.326   3.521  0.5819  0.2254  0.3281
21319SOL    HW175611   8.591   4.390   3.453  1.1552  0.6632  0.4450
21319SOL    HW275612   8.677   4.376   3.591 -0.4763 -0.1455  1.3961
21320SOL     OW75613   7.759   3.513   1.744  0.0419 -0.4915 -0.1486
21320SOL    HW175614   7.699   3.531   1.822 -0.2180  1.7735 -0.8407
21320SOL    HW275615   7.705   3.512   1.660  0.9390  1.8155 -0.8019
21321SOL     OW75616   7.615   1.745   4.198  0.3950 -0.4289 -0.2813
21321SOL    HW175617   7.573   1.657   4.222 -0.9776  0.9748  2.8089
21321SOL    HW275618   7.709   1.747   4.231  0.8353 -1.1646 -1.4536
21322SOL     OW75619   1.629   3.471   6.078 -0.3328 -0.1856  0.2060
21322SOL    HW175620   1.675   3.414   6.009 -0.5578 -0.7867  0.5453
21322SOL    HW275621   1.560   3.416   6.125 -0.2327  0.2413  0.8568
21323SOL     OW75622   8.776   0.478   1.834 -0.2895 -0.4191 -0.0254
21323SOL    HW175623   8.692   0.473   1.780 -1.3647 -1.1998  1.6967
21323SOL    HW275624   8.761   0.436   1.923  1.8723 -0.3677  0.3849
21324SOL     OW75625   4.166   4.422   6.688 -0.5572 -0.4399  0.0770
21324SOL    HW175626   4.144   4.339   6.636  0.1365 -1.2461  1.0392
21324SOL    HW275627   4.083   4.475   6.703 -0.8282 -0.3978 -1.4970
21325SOL     OW75628   2.568   7.932   5.534 -0.4980 -0.0553 -0.4758
21325SOL    HW175629   2.634   7.881   5.479 -1.1542 -1.0534 -0.3505
21325SOL    HW275630   2.514   7.992   5.475  1.2283  1.5813 -0.4510
21326SOL     OW75631   8.401   5.224   7.623  0.3048  0.9080  0.1189
21326SOL    HW175632   8.372   5.273   7.705 -1.5665 -0.5782  0.3589
21326SOL    HW275633   8.486   5.174   7.642 -0.0985  0.6072  1.1284
21327SOL     OW75634   2.449   1.484   0.839 -0.7528  0.1139  0.2385
21327SOL    HW175635   2.404   1.545   0.904 -1.9086 -0.6198  0.1304
21327SOL    HW275636   2.507   1.538   0.778 -1.3544  1.0477  0.4868
21328SOL     OW75637   3.221   0.924   6.645  0.0195 -0.3023 -0.4644
21328SOL    HW175638   3.217   0.967   6.555 -0.5776 -0.6223 -0.5936
21328SOL    HW275639   3.233   0.825   6.634 -0.3276 -0.3762 -0.2009
21329SOL     OW75640   8.034   9.758   4.109 -0.5479 -0.3070 -0.3528
21329SOL    HW175641   8.015   9.668   4.071 -0.3110 -0.1990 -0.7231
21329SOL    HW275642   7.992   9.765   4.200 -0.3276 -0.8931 -0.2028
21330SOL     OW75643   1.766   3.244   5.951 -0.7846 -0.9246  0.7629
21330SOL    HW175644   1.848   3.297   5.974 -2.3846  2.5072 -1.0899
21330SOL    HW275645   1.789   3.176   5.881  0.3960  0.2999 -0.0694
21331SOL     OW75646   8.547   1.381   5.582  0.3841  0.2813 -0.7171
21331SOL    HW175647   8.597   1.316   5.525  0.4243 -0.7055  0.4138
21331SOL    HW275648   8.593   1.469   5.582 -0.0898  0.5474 -2.8878
21332SOL     OW75649   7.888   6.090   0.995 -0.0396  0.2407 -0.2680
21332SOL    HW175650   7.895   5.996   0.961  0.8608  0.1497  0.1621
21332SOL    HW275651   7.957   6.147   0.950  0.9572  0.1870  1.1722
21333SOL     OW75652   8.679   9.159   0.721 -0.1876  0.6495 -0.0718
21333SOL    HW175653   8.615   9.234   0.705 -1.5737 -0.5686 -0.3687
21333SOL    HW275654   8.712   9.124   0.634  1.3736  1.6509  0.0905
21334SOL     OW75655   1.289   0.814   6.281 -0.3500 -0.1353 -0.3785
21334SOL    HW175656   1.369   0.874   6.283 -0.4921  0.0685 -0.7689
21334SOL    HW275657   1.301   0.745   6.209  1.1843 -2.4864  2.0359
21335SOL     OW75658   7.314   3.267   5.746  0.2190 -0.1761  0.2285
21335SOL    HW175659   7.223   3.307   5.735 -0.0544 -0.6650  0.6804
21335SOL    HW275660   7.324   3.190   5.683 -0.1578 -0.9369  1.0914
21336SOL     OW75661   9.012   2.500   7.905 -0.3588 -0.0018  0.2911
21336SOL    HW175662   8.958   2.489   7.988  1.0986  1.1027  1.4221
21336SOL    HW275663   9.002   2.419   7.848 -1.2002 -0.8781  1.6485
21337SOL     OW75664   0.640   9.383   6.821 -0.8439  0.5122 -0.7320
21337SOL    HW175665   0.614   9.432   6.904  0.5277 -2.2235  1.4030
21337SOL    HW275666   0.739   9.392   6.807 -0.6457 -1.1280 -0.5822
21338SOL     OW75667   4.053   6.265   2.386  0.0062  0.8759 -0.2377
21338SOL    HW175668   4.048   6.242   2.483  0.3501  1.0809 -0.1696
21338SOL    HW275669   3.966   6.243   2.342  0.3969 -0.7683 -0.2283
21339SOL     OW75670   6.730   0.346   4.070  0.0429 -0.3436 -0.1911
21339SOL    HW175671   6.814   0.318   4.024 -0.6219 -1.7672 -0.5849
21339SOL    HW275672   6.671   0.393   4.005  0.1470 -0.1605 -0.1538
21340SOL     OW75673   8.180   9.287   7.842  0.0957 -0.2540  0.2686
21340SOL    HW175674   8.225   9.262   7.927 -0.5716 -0.7292  0.4885
21340SOL    HW275675   8.183   9.386   7.830  1.3176 -0.2933  0.2083
21341SOL     OW75676   5.281   7.756   3.283  0.6770 -0.6764  0.3015
21341SOL    HW175677   5.184   7.734   3.277  0.4510  0.2082  0.6879
21341SOL    HW275678   5.312   7.752   3.378  0.8207 -0.1344  0.2813
21342SOL     OW75679   7.878   5.390   8.039  0.0679 -0.3188 -0.2260
21342SOL    HW175680   7.830   5.356   8.120 -0.5208  0.5064 -0.2133
21342SOL    HW275681   7.871   5.490   8.036  0.0690 -0.3408 -1.3033
21343SOL     OW75682   2.003   4.942   7.458 -0.6790 -0.4616  0.0576
21343SOL    HW175683   1.969   4.849   7.470  2.6232 -1.7902 -0.4565
21343SOL    HW275684   2.029   4.955   7.362 -2.1669  1.3713 -0.1122
21344SOL     OW75685   7.226   4.735   1.589 -0.3580 -0.1411  0.8185
21344SOL    HW175686   7.216   4.658   1.526  1.2762 -0.2635  0.6901
21344SOL    HW275687   7.253   4.701   1.679  0.5283  0.2765  0.7208
21345SOL     OW75688   7.206   6.541   6.754  0.1966 -0.0357  0.1736
21345SOL    HW175689   7.175   6.517   6.661  0.8950  0.7732 -0.2731
21345SOL    HW275690   7.306   6.532   6.759  0.2264  0.5638  0.6639
21346SOL     OW75691   9.256   3.197   3.959  0.1641  0.3712 -0.5488
21346SOL    HW175692   9.219   3.113   3.919  0.5176  0.7470 -1.6708
21346SOL    HW275693   9.328   3.173   4.025 -0.4453 -0.2467 -0.0982
21347SOL     OW75694   2.306   9.392   1.109  0.2140  0.2443  0.6008
21347SOL    HW175695   2.404   9.386   1.129  0.4196 -0.0854 -0.4961
21347SOL    HW275696   2.270   9.301   1.089  0.3135  0.7217 -1.9189
21348SOL     OW75697   1.041   6.884   2.672  0.3764 -0.3584  0.2959
21348SOL    HW175698   1.002   6.822   2.604  1.0096 -0.8903  0.4091
21348SOL    HW275699   0.979   6.961   2.687 -0.5461 -1.1027  0.3436
21349SOL     OW75700   8.535   8.245   5.833  0.3251 -0.0417  0.0258
21349SOL    HW175701   8.540   8.342   5.810 -1.7067 -0.3871 -2.1342
21349SOL    HW275702   8.522   8.235   5.932 -1.3809  1.9782  0.0417
21350SOL     OW75703   7.694   4.570   1.975  0.8825  0.4716 -0.5117
21350SOL    HW175704   7.688   4.669   1.957 -1.2644  0.3267 -0.7268
21350SOL    HW275705   7.705   4.555   2.073 -1.5714  0.8805 -0.1366
21351SOL     OW75706   3.772   6.980   4.653  0.2410  0.4294 -0.2417
21351SOL    HW175707   3.782   6.936   4.564 -3.0921 -0.9339  0.0074
21351SOL    HW275708   3.863   6.995   4.693  1.7170  0.0541 -3.3510
21352SOL     OW75709   8.850   2.821   6.916  0.0212  0.3299  0.0947
21352SOL    HW175710   8.861   2.722   6.918 -0.9290  0.2363  2.8469
21352SOL    HW275711   8.754   2.845   6.906  0.2496  0.9740 -0.6223
21353SOL     OW75712   3.796   5.043   6.437  0.5293 -0.2164 -0.6037
21353SOL    HW175713   3.840   5.043   6.526  0.3415  1.7801 -0.4840
21353SOL    HW275714   3.696   5.048   6.448  0.5565  1.3599 -0.9105
21354SOL     OW75715   4.314   1.022   3.610 -0.7990 -0.3729  0.2630
21354SOL    HW175716   4.410   1.032   3.584 -0.7099  0.5591  0.9273
21354SOL    HW275717   4.268   0.962   3.545 -0.3811  1.2266 -1.5579
21355SOL     OW75718   9.211   7.795   7.581  0.2778  0.1159  0.0386
21355SOL    HW175719   9.291   7.749   7.618  0.1945 -0.7879 -0.9024
21355SOL    HW275720   9.179   7.747   7.499 -2.1231 -0.4742  1.2438
21356SOL     OW75721   3.053   9.603   2.407  0.2011  0.0186  0.5024
21356SOL    HW175722   3.135   9.659   2.423  0.2082  0.2315 -0.2440
21356SOL    HW275723   3.058   9.521   2.464  1.2193 -0.2497  0.0544
21357SOL     OW75724   1.507   6.161   6.051 -0.4613 -0.4151  0.2569
21357SOL    HW175725   1.569   6.185   6.126 -0.5909  0.9944 -0.0908
21357SOL    HW275726   1.540   6.078   6.006  1.1236  0.2744  0.1310
21358SOL     OW75727   7.664   1.860   0.300  0.2446  0.1473  0.4190
21358SOL    HW175728   7.564   1.856   0.297  0.2436  1.2018 -1.3164
21358SOL    HW275729   7.694   1.954   0.285  1.4913 -0.0229  1.7245
21359SOL     OW75730   8.725   3.520   2.928 -0.4238 -0.1924  0.0374
21359SOL    HW175731   8.739   3.585   2.854 -0.1074 -0.2879  0.0099
21359SOL    HW275732   8.699   3.431   2.891  0.5500 -0.4659 -0.0166
21360SOL     OW75733   1.332   1.702   5.281 -0.4801 -0.2021 -0.2229
21360SOL    HW175734   1.274   1.694   5.201 -0.1686  2.4345 -0.7807
21360SOL    HW275735   1.383   1.788   5.276 -0.7154  0.1874  2.9474
21361SOL     OW75736   1.377   5.802   7.502 -0.2138  0.0695 -0.7510
21361SOL    HW175737   1.469   5.784   7.539 -0.0741 -1.5782 -1.8491
21361SOL    HW275738   1.386   5.847   7.413 -0.4095 -1.8570 -1.7676
21362SOL     OW75739   0.526   0.429   4.238  0.4077 -0.1450  0.2340
21362SOL    HW175740   0.552   0.335   4.261  1.2389 -0.4087 -1.7573
21362SOL    HW275741   0.602   0.491   4.258 -0.1423  0.1424  1.5545
21363SOL     OW75742   6.651   1.362   6.990 -0.1785  0.2273  0.1500
21363SOL    HW175743   6.603   1.435   6.941 -0.9109 -0.6939 -0.5240
21363SOL    HW275744   6.599   1.277   6.983 -0.0314 -0.0546  2.0970
21364SOL     OW75745   8.703   1.135   4.704 -0.1419 -0.0340 -0.5211
21364SOL    HW175746   8.669   1.093   4.620  2.7036 -0.0900 -1.6990
21364SOL    HW275747   8.787   1.186   4.685  0.8517 -0.4659  2.3846
21365SOL     OW75748   2.798   0.758   1.391 -0.3090  0.1397  0.1923
21365SOL    HW175749   2.823   0.808   1.308  0.7679  0.3205  0.6129
21365SOL    HW275750   2.739   0.815   1.449  1.1690  1.0549  0.8155
21366SOL     OW75751   3.732   3.725   0.638  0.1956  0.0670  0.0972
21366SOL    HW175752   3.709   3.817   0.669  0.0553 -0.0027  0.1981
21366SOL    HW275753   3.698   3.711   0.545  0.2742  0.1388  0.0574
21367SOL     OW75754   9.866   8.093   7.864  0.2183 -0.3411 -0.2880
21367SOL    HW175755   9.859   7.993   7.870  3.0131 -0.5884 -0.6854
21367SOL    HW275756   9.798   8.134   7.925  0.7606 -2.5082  1.9024
21368SOL     OW75757   2.362   4.746   0.919 -0.7467 -0.3304  0.0613
21368SOL    HW175758   2.397   4.755   0.825  3.4284 -1.7342  1.3545
21368SOL    HW275759   2.343   4.650   0.938 -0.3700 -0.2143  1.0337
21369SOL     OW75760   8.830   8.056   2.138  0.1124 -0.7245 -0.3493
21369SOL    HW175761   8.735   8.088   2.136 -0.1865 -1.6310 -0.5816
21369SOL    HW275762   8.891   8.135   2.144 -0.6913 -0.1780  0.8862
21370SOL     OW75763   3.195   5.134   1.873  0.2459  0.0264 -0.3665
21370SOL    HW175764   3.109   5.176   1.845 -0.6818  0.2005  2.6305
21370SOL    HW275765   3.269   5.201   1.863 -0.4688  0.8806 -0.0130
21371SOL     OW75766   3.783   2.264   4.281  0.0745 -0.1929 -0.7151
21371SOL    HW175767   3.800   2.289   4.377 -0.3025  0.3886 -0.7946
21371SOL    HW275768   3.793   2.165   4.270 -0.5240 -0.3494  0.0664
21372SOL     OW75769   4.196   0.011   2.435  0.2082 -0.1060 -0.0612
21372SOL    HW175770   4.275  -0.033   2.393 -0.3188 -0.6559 -0.4873
21372SOL    HW275771   4.204   0.008   2.535  1.9262  2.0432 -0.1007
21373SOL     OW75772   7.316   4.390   1.583  0.3355 -0.4196  0.2161
21373SOL    HW175773   7.226   4.346   1.583  0.3553 -0.4513 -0.5361
21373SOL    HW275774   7.386   4.323   1.607  0.1445 -0.3538  0.9895
21374SOL     OW75775   8.511   3.781   7.326  0.1514  0.1095 -0.2413
21374SOL    HW175776   8.413   3.798   7.313 -0.3466 -0.5414  2.2435
21374SOL    HW275777   8.533   3.688   7.297 -1.0928 -1.6048  3.8465
21375SOL     OW75778   5.133   5.512   0.688 -0.0451  0.9508  0.4748
21375SOL    HW175779   5.184   5.451   0.627 -0.1317  1.5575 -0.2076
21375SOL    HW275780   5.052   5.464   0.723 -0.3181  0.8010 -0.3590
21376SOL     OW75781   7.633   3.445   5.486 -0.7650  0.7308  0.1609
21376SOL    HW175782   7.617   3.374   5.555 -0.1863 -0.2201 -0.6513
21376SOL    HW275783   7.592   3.531   5.515  0.5074  0.6695  2.2526
21377SOL     OW75784   2.573   1.637   6.079  0.0447 -0.3007  0.1496
21377SOL    HW175785   2.582   1.543   6.044  0.3619 -0.8794  1.7262
21377SOL    HW275786   2.544   1.697   6.005  1.8089 -1.2662 -1.3692
21378SOL     OW75787   6.738   0.262   2.665 -0.2928  0.4631  0.6053
21378SOL    HW175788   6.684   0.192   2.711  2.5436 -1.8931  0.4730
21378SOL    HW275789   6.778   0.323   2.733 -1.1150  0.7335  0.8518
21379SOL     OW75790   3.184   4.335   2.823 -0.2104 -0.3570 -0.7121
21379SOL    HW175791   3.167   4.429   2.796 -0.6901 -0.4572 -0.7493
21379SOL    HW275792   3.099   4.283   2.824  0.1077 -0.9004 -1.1031
21380SOL     OW75793   0.934   5.392   1.271  0.4907 -0.2175  0.0039
21380SOL    HW175794   0.841   5.423   1.251  1.3053  1.2281 -1.6746
21380SOL    HW275795   0.946   5.299   1.236 -0.1351 -0.1835 -0.3159
21381SOL     OW75796   2.263   4.360   4.872 -0.0209  0.3327 -0.4146
21381SOL    HW175797   2.254   4.337   4.775 -1.4375  0.2467 -0.2770
21381SOL    HW275798   2.200   4.303   4.925 -0.9092  1.9549  0.3138
21382SOL     OW75799   7.030   9.252   7.037 -0.1835  0.8800 -0.0992
21382SOL    HW175800   6.989   9.165   7.012 -2.0679  1.6166  0.3202
21382SOL    HW275801   7.123   9.257   7.001  0.0286 -1.3855  0.0981
21383SOL     OW75802   6.625   7.592   6.309  0.2676  0.1897  0.0452
21383SOL    HW175803   6.570   7.653   6.251 -1.6738 -0.1697  1.4584
21383SOL    HW275804   6.673   7.646   6.378 -0.4912  0.2397  0.5351
21384SOL     OW75805   9.367   6.770   4.573  0.2502 -0.2951 -0.1330
21384SOL    HW175806   9.377   6.710   4.652  1.1735 -0.3814 -0.3058
21384SOL    HW275807   9.311   6.849   4.598 -3.0288 -2.3858 -0.5509
21385SOL     OW75808   5.566   9.097   2.773 -0.6321 -0.1301  0.5893
21385SOL    HW175809   5.579   9.170   2.839 -0.1362  0.1504  0.1871
21385SOL    HW275810   5.653   9.079   2.726 -1.0181 -0.2169 -0.0929
21386SOL     OW75811   8.596   0.757   0.923  0.4741 -0.8979 -0.1617
21386SOL    HW175812   8.640   0.779   1.010  0.0107 -1.8809  0.3362
21386SOL    HW275813   8.666   0.739   0.853  0.8518  1.8204 -0.5175
21387SOL     OW75814   7.264   9.757   5.643  0.1889 -0.1757 -0.9402
21387SOL    HW175815   7.208   9.708   5.710  0.1552  0.0548 -0.7996
21387SOL    HW275816   7.361   9.745   5.665  0.1163  2.2355  0.8111
21388SOL     OW75817   6.718   1.010   1.753  0.9135  0.5820  0.1307
21388SOL    HW175818   6.760   0.938   1.809  1.2872  0.7251  0.0399
21388SOL    HW275819   6.629   1.035   1.791  0.8667  0.2023  0.2693
21389SOL     OW75820   2.302   6.637   6.162  0.4717 -0.3658  0.0802
21389SOL    HW175821   2.365   6.619   6.088  1.8840 -0.4328  1.2762
21389SOL    HW275822   2.324   6.726   6.203  1.0577 -1.2594  1.7523
21390SOL     OW75823   8.243   4.621   3.490 -0.6377  0.1294  0.3897
21390SOL    HW175824   8.151   4.627   3.528  0.0323  0.6879  1.9526
21390SOL    HW275825   8.241   4.649   3.394 -2.2110 -0.5795  0.1945
21391SOL     OW75826   9.783   3.353   2.382  0.0537 -0.0380 -0.1110
21391SOL    HW175827   9.700   3.347   2.439 -1.5899  0.8295 -2.3305
21391SOL    HW275828   9.802   3.449   2.362  1.9741 -0.2033  0.8774
21392SOL     OW75829   2.371   3.892   2.162  0.4187  0.3861 -0.6331
21392SOL    HW175830   2.416   3.981   2.153  2.3800 -0.6077 -0.9265
21392SOL    HW275831   2.358   3.871   2.259  1.2156  0.3865 -0.5211
21393SOL     OW75832   2.599   9.462   1.712 -0.7406 -0.3016  0.1125
21393SOL    HW175833   2.596   9.467   1.812 -0.4462  0.4391  0.0898
21393SOL    HW275834   2.505   9.463   1.676 -0.8076  2.9842  0.2396
21394SOL     OW75835   8.966   1.611   3.319  0.5797 -0.5608 -0.4114
21394SOL    HW175836   8.869   1.631   3.332  0.8882  0.1928  0.9142
21394SOL    HW275837   9.019   1.663   3.387  1.8994 -0.9606 -1.1321
21395SOL     OW75838   2.974   9.868   4.889 -0.6848  0.1452 -0.1415
21395SOL    HW175839   2.919   9.808   4.946 -0.2174 -1.7953 -1.6665
21395SOL    HW275840   3.045   9.815   4.843 -0.7771  1.7251 -2.1946
21396SOL     OW75841   7.966   1.531   5.691 -0.1902  0.1564  0.4061
21396SOL    HW175842   7.905   1.496   5.762 -0.2802  1.9926  1.2723
21396SOL    HW275843   8.042   1.579   5.733  0.3920  0.2558 -0.7296
21397SOL     OW75844   9.541   5.227   1.480 -0.3453  0.2297 -0.7920
21397SOL    HW175845   9.481   5.267   1.550 -0.8214 -0.4334 -0.8257
21397SOL    HW275846   9.502   5.142   1.447  1.2698 -0.8983  0.1492
21398SOL     OW75847   3.538   0.418   5.738 -0.4428  0.1681 -0.1685
21398SOL    HW175848   3.599   0.495   5.720  2.1252 -2.0040 -0.9627
21398SOL    HW275849   3.501   0.384   5.652  0.8606 -1.4138 -0.1194
21399SOL     OW75850   1.554   1.962   4.297 -0.5053  0.6139 -0.2912
21399SOL    HW175851   1.539   1.915   4.210 -0.5657  0.6478 -0.2990
21399SOL    HW275852   1.628   2.029   4.286  0.0355  0.0573 -0.1071
21400SOL     OW75853   4.800   3.275   5.381 -0.1749  0.1893 -0.5565
21400SOL    HW175854   4.711   3.276   5.426 -0.2175 -0.0176 -0.6326
21400SOL    HW275855   4.872   3.270   5.451 -0.2706 -1.0892 -0.5275
21401SOL     OW75856   3.746   1.339   1.988 -0.0127  0.0512  0.2082
21401SOL    HW175857   3.704   1.256   1.950 -2.0476  1.3764 -0.5143
21401SOL    HW275858   3.753   1.408   1.916  0.2678  1.0297  1.1745
21402SOL     OW75859   3.536   9.536   6.620  0.7146  0.1465 -0.2937
21402SOL    HW175860   3.598   9.531   6.541  0.3169 -0.4080 -0.5706
21402SOL    HW275861   3.442   9.521   6.590  0.6020 -0.4336  0.3435
21403SOL     OW75862   5.417   5.797   1.401  0.1045 -0.1026 -0.3110
21403SOL    HW175863   5.376   5.889   1.397  1.1558  0.3575 -0.6137
21403SOL    HW275864   5.509   5.803   1.438 -0.4005 -1.2540  1.1969
21404SOL     OW75865   4.087   2.397   5.428  0.0851  0.2848 -0.0513
21404SOL    HW175866   4.170   2.437   5.389  0.2221 -1.3620 -1.4935
21404SOL    HW275867   4.112   2.329   5.496 -0.1198  0.7690  0.5165
21405SOL     OW75868   3.651   7.384   4.334  0.6086  0.1983 -0.2527
21405SOL    HW175869   3.558   7.420   4.325  0.7189  1.0884  1.9078
21405SOL    HW275870   3.652   7.289   4.304 -1.1108  0.0092  0.2178
21406SOL     OW75871   0.869   2.822   0.811  0.5530 -0.0210  0.2292
21406SOL    HW175872   0.935   2.806   0.739  1.6871 -0.5178  1.3551
21406SOL    HW275873   0.820   2.907   0.793  1.4842  0.3449 -0.6257
21407SOL     OW75874   8.789   3.241   5.369  0.5006 -0.3221  0.0919
21407SOL    HW175875   8.881   3.274   5.387  0.0178  2.0353 -1.5248
21407SOL    HW275876   8.763   3.174   5.438  3.3366 -0.8694  0.6694
21408SOL     OW75877   8.965   3.431   6.950  0.4541 -0.2843 -0.0725
21408SOL    HW175878   8.889   3.421   7.014  1.1173 -0.1096  0.7496
21408SOL    HW275879   8.958   3.519   6.903  0.5014  0.0124  0.4719
21409SOL     OW75880   7.244   1.287   7.669 -0.2911 -0.2619 -0.1276
21409SOL    HW175881   7.157   1.251   7.702  0.3919 -0.0291  2.0334
21409SOL    HW275882   7.251   1.384   7.692  0.2013 -0.0941 -0.9842
21410SOL     OW75883   8.355   5.521   1.678  0.0871 -0.4079  0.2515
21410SOL    HW175884   8.342   5.439   1.622 -0.9722 -1.4271  1.9417
21410SOL    HW275885   8.266   5.567   1.690  0.3369 -0.1040  0.9382
21411SOL     OW75886   8.429   7.962   1.517  0.0521  0.3031  0.7312
21411SOL    HW175887   8.526   7.974   1.499 -0.0924 -3.3649 -3.2757
21411SOL    HW275888   8.379   8.044   1.491  1.6703  0.7767 -0.9642
21412SOL     OW75889   9.956   7.171   7.047  0.3518  0.0671  0.0984
21412SOL    HW175890   9.868   7.128   7.028  0.8189 -0.5459 -0.6649
21412SOL    HW275891  10.027   7.133   6.988  1.1151  0.6492  0.6122
21413SOL     OW75892   0.461   9.155   7.674  1.0126  0.2260  0.5005
21413SOL    HW175893   0.438   9.059   7.666  1.0079  0.1387  1.5438
21413SOL    HW275894   0.489   9.190   7.585 -1.5635 -0.0657 -0.4596
21414SOL     OW75895   5.699   4.709   1.390 -0.3777  0.4639  0.2603
21414SOL    HW175896   5.747   4.794   1.412 -0.8017  0.7433  0.1029
21414SOL    HW275897   5.708   4.645   1.467  0.3190  0.4758  0.1996
21415SOL     OW75898   2.942   2.992   2.768 -0.1139 -0.0684 -0.0313
21415SOL    HW175899   2.946   2.934   2.850  0.9664  1.0890  0.7472
21415SOL    HW275900   3.034   3.008   2.734 -0.4892  0.3392 -0.8685
21416SOL     OW75901   1.002   4.053   6.544 -0.4568 -0.0573 -0.2850
21416SOL    HW175902   0.918   4.006   6.517  0.3024 -1.0578 -0.9353
21416SOL    HW275903   1.043   4.096   6.464 -0.6470  0.9036  0.1360
21417SOL     OW75904   3.328   4.095   6.768  0.1506 -0.1609 -0.1767
21417SOL    HW175905   3.324   4.023   6.699 -2.1438  2.2000 -2.6619
21417SOL    HW275906   3.248   4.088   6.827 -0.4524  0.7125 -0.8685
21418SOL     OW75907   2.979   0.012   0.126  0.3296  0.2563 -0.3438
21418SOL    HW175908   3.036  -0.070   0.115 -0.3342 -0.3057  0.3428
21418SOL    HW275909   2.940   0.013   0.218 -0.6243  0.7271 -0.7427
21419SOL     OW75910   3.043   2.756   2.414  0.1841  0.2061  0.0226
21419SOL    HW175911   3.011   2.694   2.343  0.3235 -0.6118  0.6700
21419SOL    HW275912   3.143   2.758   2.414  0.1808  0.3587  0.0584
21420SOL     OW75913   4.644   4.421   1.995 -0.0063  0.6253 -0.2014
21420SOL    HW175914   4.684   4.509   1.972  0.0195  1.1959  1.9166
21420SOL    HW275915   4.555   4.435   2.038  0.5845 -0.3019  1.3621
21421SOL     OW75916   5.352   0.496   1.629  0.6981 -0.2651  0.2756
21421SOL    HW175917   5.439   0.535   1.660  0.3740 -0.2327  1.1585
21421SOL    HW275918   5.369   0.436   1.551  1.4986 -0.1701  0.3692
21422SOL     OW75919   9.774   0.422   3.481 -0.5942  0.1374 -0.4733
21422SOL    HW175920   9.840   0.349   3.498  1.1626  1.0184 -3.1293
21422SOL    HW275921   9.703   0.388   3.419 -1.5797 -0.2455  0.8560
21423SOL     OW75922   7.891   1.960   1.055 -0.5606  0.1941 -0.5510
21423SOL    HW175923   7.967   1.945   1.119 -1.6036  0.1480  0.6817
21423SOL    HW275924   7.852   2.050   1.071 -1.2762 -0.0971 -0.6711
21424SOL     OW75925   2.775   9.943   8.102 -0.0372 -0.6339  0.3163
21424SOL    HW175926   2.799   9.941   8.199 -0.7078 -0.1555  0.4936
21424SOL    HW275927   2.834  10.008   8.054 -1.6574  1.3202  0.9422
21425SOL     OW75928   3.707   1.509   6.698 -0.2615 -0.3275  0.0479
21425SOL    HW175929   3.731   1.419   6.661  0.6452  0.0801 -0.3857
21425SOL    HW275930   3.728   1.579   6.630 -0.7293  0.2341  0.4831
21426SOL     OW75931   2.864   7.423   3.797  0.1802  0.1150 -0.2514
21426SOL    HW175932   2.773   7.415   3.836 -0.8503  1.1616 -2.3758
21426SOL    HW275933   2.911   7.502   3.837 -0.4070  0.4777 -0.2848
21427SOL     OW75934   9.598   9.173   2.096 -0.5259  0.3359 -0.5646
21427SOL    HW175935   9.572   9.164   2.000  0.6950 -2.2869 -0.7058
21427SOL    HW275936   9.678   9.232   2.104 -0.5849  0.5016 -1.1585
21428SOL     OW75937   4.761   9.776   1.949  0.0512  0.0585  0.2441
21428SOL    HW175938   4.680   9.718   1.946  1.5013 -2.0388  0.0085
21428SOL    HW275939   4.768   9.830   1.866  0.8427 -2.5569 -1.4618
21429SOL     OW75940   5.587   1.690   5.465  0.1060 -0.7542  0.7709
21429SOL    HW175941   5.639   1.716   5.384 -0.2086  2.3829  1.5443
21429SOL    HW275942   5.493   1.669   5.438  0.3458 -1.0760  0.1558
21430SOL     OW75943   6.913   5.464   7.703 -0.3026  0.0118  0.2800
21430SOL    HW175944   6.819   5.473   7.670  0.3454  0.0421 -1.6722
21430SOL    HW275945   6.952   5.556   7.714  0.7978  0.0022 -2.9625
21431SOL     OW75946   8.460   4.133   7.104  0.4037 -0.1381  0.1521
21431SOL    HW175947   8.540   4.187   7.077 -0.2588  1.2673  0.9501
21431SOL    HW275948   8.457   4.126   7.204 -0.0519 -0.8460  0.0911
21432SOL     OW75949   9.438   0.477   2.705  0.3338  0.4538  0.6334
21432SOL    HW175950   9.528   0.449   2.740  0.6988  0.2322 -0.4320
21432SOL    HW275951   9.433   0.455   2.607 -1.1826 -0.2812  0.8598
21433SOL     OW75952   1.564   6.391   0.241 -0.3707 -0.4223  0.1191
21433SOL    HW175953   1.539   6.456   0.312 -0.1409 -0.0200 -0.1691
21433SOL    HW275954   1.485   6.334   0.218 -0.2279 -1.0887  1.2626
21434SOL     OW75955   1.286   0.029   5.336  0.4323 -0.6372 -0.6225
21434SOL    HW175956   1.197  -0.009   5.361  0.8555 -0.9866  0.3687
21434SOL    HW275957   1.273   0.121   5.298 -0.1764  0.2521  1.6509
21435SOL     OW75958   9.470   8.294   5.117  0.2821  0.0390  0.1087
21435SOL    HW175959   9.449   8.384   5.077  2.3730 -0.0076 -1.1356
21435SOL    HW275960   9.385   8.244   5.132 -0.7980  1.6082 -0.6304
21436SOL     OW75961   8.254   7.374   7.798  0.2974  0.1345 -0.4017
21436SOL    HW175962   8.321   7.398   7.728  1.6757  0.8663  1.1433
21436SOL    HW275963   8.228   7.456   7.849  0.7918 -0.7196  1.2318
21437SOL     OW75964   6.082   4.271   7.730  0.3346  0.1566 -0.6839
21437SOL    HW175965   6.113   4.366   7.742  2.1347 -0.3577 -1.1243
21437SOL    HW275966   6.049   4.258   7.637 -0.3475  0.4456 -0.4944
21438SOL     OW75967   3.742   9.173   4.156 -0.2574  0.0332  0.1896
21438SOL    HW175968   3.709   9.115   4.230 -1.8523  2.3732  1.3680
21438SOL    HW275969   3.776   9.260   4.193  0.3338  0.6304 -1.6810
21439SOL     OW75970   1.113   9.524   6.903 -0.5653  0.0568 -0.5259
21439SOL    HW175971   1.044   9.539   6.974 -0.1019 -0.6289  0.0928
21439SOL    HW275972   1.181   9.458   6.938  0.3044  0.6084 -1.1815
21440SOL     OW75973   5.497   3.592   0.232  0.0317  0.2856  0.8825
21440SOL    HW175974   5.444   3.572   0.149  0.2532  0.2705  0.7441
21440SOL    HW275975   5.503   3.509   0.288  3.0528 -0.7837 -0.8679
21441SOL     OW75976   7.634   9.834   1.585  0.0242 -0.1713  0.6247
21441SOL    HW175977   7.663   9.757   1.642 -0.1501 -0.5197  0.2399
21441SOL    HW275978   7.540   9.820   1.554  0.7163 -0.8624 -1.2488
21442SOL     OW75979   5.422   0.745   2.426  0.3550  0.0035 -0.3460
21442SOL    HW175980   5.417   0.696   2.340  1.4171  0.1675 -0.5121
21442SOL    HW275981   5.464   0.687   2.496  0.6769  0.3116 -0.2785
21443SOL     OW75982   4.818   0.632   0.774 -0.4321 -0.2318 -0.5655
21443SOL    HW175983   4.862   0.641   0.684 -0.3683  0.7737 -0.4368
21443SOL    HW275984   4.739   0.693   0.778 -0.5247 -0.3932  0.0148
21444SOL     OW75985   4.235   2.627   3.820  0.0461 -0.7837  0.5047
21444SOL    HW175986   4.211   2.724   3.811  3.4696 -0.0818 -2.1419
21444SOL    HW275987   4.298   2.615   3.896  0.4992 -0.7276  0.1427
21445SOL     OW75988   1.173   4.462   7.552  0.2878 -0.7510  0.4022
21445SOL    HW175989   1.158   4.560   7.539 -1.0330 -1.1239 -0.9667
21445SOL    HW275990   1.101   4.425   7.612 -0.8340 -1.4002 -1.3236
21446SOL     OW75991   1.928   1.178   6.376 -0.5012  0.2029 -0.1899
21446SOL    HW175992   1.890   1.157   6.466  0.6694 -1.9189 -0.1599
21446SOL    HW275993   1.999   1.248   6.386  0.9324 -1.3595  0.8157
21447SOL     OW75994   5.306   0.872   4.705 -0.4671  0.5366 -0.3793
21447SOL    HW175995   5.337   0.897   4.614 -0.0845 -0.2178 -0.4652
21447SOL    HW275996   5.373   0.811   4.748 -1.7255 -0.9817 -0.5105
21448SOL     OW75997   1.010   5.320   2.233 -0.4898 -0.1036  0.0969
21448SOL    HW175998   0.939   5.349   2.170 -0.2241 -0.4439 -0.3592
21448SOL    HW275999   1.095   5.368   2.212 -0.7800  0.8826  1.1330
21449SOL     OW76000   1.966   6.722   1.373  0.0508  0.8484  0.0116
21449SOL    HW176001   1.937   6.628   1.389  1.3933  0.5810  0.8858
21449SOL    HW276002   1.885   6.781   1.364 -0.7847 -0.3318 -0.2631
21450SOL     OW76003   3.070   0.614   2.387  0.5557  0.1816  0.1592
21450SOL    HW176004   3.150   0.649   2.337  0.3856 -0.3930 -0.5125
21450SOL    HW276005   3.001   0.581   2.322 -0.0081  0.1799  0.7510
21451SOL     OW76006   3.547   0.960   1.643 -0.2022  0.6070  0.2422
21451SOL    HW176007   3.494   0.984   1.562  0.3264  3.0673  0.5847
21451SOL    HW276008   3.505   0.881   1.688 -1.6409  0.4609 -1.3325
21452SOL     OW76009   3.173   8.485   8.175 -0.2306  0.1503  0.3054
21452SOL    HW176010   3.259   8.534   8.186  0.0244 -0.5171  1.2369
21452SOL    HW276011   3.101   8.551   8.151  0.3589  0.8160  0.3374
21453SOL     OW76012   5.194   1.255   4.721  0.2762  0.5126 -0.1216
21453SOL    HW176013   5.112   1.311   4.711 -0.6767 -0.5608  1.4187
21453SOL    HW276014   5.168   1.159   4.732  1.6924  0.2508  1.1339
21454SOL     OW76015   1.195   0.345   2.335 -0.3202  0.2833 -0.2935
21454SOL    HW176016   1.202   0.356   2.236  0.4486 -0.7815 -0.3743
21454SOL    HW276017   1.113   0.292   2.357 -0.9664  1.2724 -0.2917
21455SOL     OW76018   5.803   8.070   5.175 -0.2674 -0.2529  0.1901
21455SOL    HW176019   5.872   8.125   5.223  1.3182 -1.9268 -0.0900
21455SOL    HW276020   5.717   8.120   5.171  0.1581  0.7961  2.9425
21456SOL     OW76021   2.775   6.012   0.763  0.1387 -0.0873 -0.4717
21456SOL    HW176022   2.739   6.091   0.813  2.0392  0.8204 -0.4824
21456SOL    HW276023   2.769   6.029   0.665  3.0587  1.2435 -0.4502
21457SOL     OW76024   9.532   3.406   1.892  0.0937 -0.0356 -0.1230
21457SOL    HW176025   9.511   3.351   1.973  1.6007 -0.9673 -0.3497
21457SOL    HW276026   9.501   3.357   1.810 -2.3092  1.3371 -0.0783
21458SOL     OW76027   9.232   7.178   4.497 -0.0939  0.1570 -0.4292
21458SOL    HW176028   9.183   7.142   4.576 -1.4586  0.4364 -1.1339
21458SOL    HW276029   9.166   7.208   4.428  0.9579  3.9203  0.1034
21459SOL     OW76030   3.657   7.201   1.994  0.2691 -0.1420 -0.2691
21459SOL    HW176031   3.710   7.140   2.053 -0.5435 -1.6490 -1.0621
21459SOL    HW276032   3.716   7.274   1.960  1.2106 -0.3624  0.8578
21460SOL     OW76033   7.410   9.986   5.284 -0.2531 -0.2491 -0.2976
21460SOL    HW176034   7.494   9.994   5.338  0.0212  2.8016 -1.0328
21460SOL    HW276035   7.429   9.935   5.200  0.7566 -0.0170 -0.2222
21461SOL     OW76036   9.198   1.999   4.948 -0.0433 -0.1280  0.2559
21461SOL    HW176037   9.216   2.006   5.046 -0.4514 -1.6015  0.4552
21461SOL    HW276038   9.105   1.967   4.932  0.7877 -2.3338 -0.5156
21462SOL     OW76039   8.022   3.865   4.468  0.1494 -0.4164  0.3593
21462SOL    HW176040   8.036   3.909   4.379  0.1491  1.9099  1.4481
21462SOL    HW276041   8.108   3.862   4.517 -0.0039 -0.9483  0.5913
21463SOL     OW76042   3.255   1.971   0.585  0.4159 -0.2258  0.2193
21463SOL    HW176043   3.310   1.900   0.630 -0.8569 -2.4344 -1.6490
21463SOL    HW276044   3.166   1.934   0.560 -0.0135  1.8323 -1.4551
21464SOL     OW76045   8.714   4.628   7.423 -0.7301 -0.1682  0.1759
21464SOL    HW176046   8.648   4.558   7.448 -2.3196  1.1971 -0.1006
21464SOL    HW276047   8.798   4.615   7.475 -1.7396 -1.0603  1.6202
21465SOL     OW76048   2.477   1.890   0.935  0.2488  0.2999 -0.3666
21465SOL    HW176049   2.438   1.839   1.011  0.5460 -0.5077 -0.7455
21465SOL    HW276050   2.441   1.854   0.849  0.7714  0.4629 -0.6535
21466SOL     OW76051   9.280   8.784   0.357  0.1784  0.0133 -0.0423
21466SOL    HW176052   9.360   8.831   0.393 -0.0856 -1.3434  2.3974
21466SOL    HW276053   9.303   8.740   0.270  2.2374 -0.8298  0.9133
21467SOL     OW76054   0.991   5.259   7.027 -0.2410 -0.0451 -0.2125
21467SOL    HW176055   0.913   5.283   7.085 -0.6786 -2.5473  0.3037
21467SOL    HW276056   1.071   5.242   7.084 -0.1949 -0.7121 -0.4660
21468SOL     OW76057   2.257   5.199   3.999 -0.4864 -0.6987  0.3515
21468SOL    HW176058   2.200   5.189   4.080 -0.2516 -0.1944  0.5826
21468SOL    HW276059   2.331   5.263   4.018 -0.2775 -0.7777 -0.1788
21469SOL     OW76060   0.613   6.605   3.966  0.2159 -0.0134  0.0772
21469SOL    HW176061   0.514   6.601   3.978  0.3192  0.5521  1.1615
21469SOL    HW276062   0.636   6.683   3.908  0.2442  1.9126  2.5871
21470SOL     OW76063   9.648   4.808   2.699 -0.6207  0.0416  0.1843
21470SOL    HW176064   9.709   4.776   2.626 -0.7972  0.6771 -0.2496
21470SOL    HW276065   9.572   4.744   2.710 -0.9455  0.2760 -0.6468
21471SOL     OW76066   5.971   7.665   3.843  0.1866  0.0357 -0.1748
21471SOL    HW176067   5.874   7.684   3.833  0.5015  1.9681  0.1211
21471SOL    HW276068   6.023   7.717   3.775  1.0749 -0.2926  0.2317
21472SOL     OW76069   5.695   0.093   3.427 -0.6298  0.4980  0.2500
21472SOL    HW176070   5.695   0.003   3.384  0.0509  0.3746  0.5055
21472SOL    HW276071   5.679   0.083   3.526  2.9771  0.3602  0.8718
21473SOL     OW76072   9.784   6.167   0.920 -0.1753 -0.4038 -0.0281
21473SOL    HW176073   9.859   6.221   0.882  0.7479 -1.6823 -0.0500
21473SOL    HW276074   9.810   6.133   1.010 -2.0583  1.9776  1.4697
21474SOL     OW76075   9.969   2.751   5.092  0.6303  0.4322 -0.5936
21474SOL    HW176076   9.889   2.711   5.046 -0.2370  3.9001 -2.2746
21474SOL    HW276077   9.963   2.732   5.190  0.4120 -3.6295 -1.2739
21475SOL     OW76078   8.230   6.403   2.854 -0.2101  0.2829 -0.1616
21475SOL    HW176079   8.234   6.484   2.913  0.5113 -0.3486  0.6844
21475SOL    HW276080   8.153   6.346   2.881 -0.8937  0.8176 -0.9488
21476SOL     OW76081   5.080   3.611   0.706  0.1648  0.1483  0.0244
21476SOL    HW176082   5.012   3.638   0.775  0.8395  1.6073  0.1257
21476SOL    HW276083   5.076   3.675   0.629  2.3976  1.0896  0.6657
21477SOL     OW76084   0.585   1.214   4.751 -0.2801  0.0025 -0.3803
21477SOL    HW176085   0.563   1.307   4.721 -1.6107 -0.4588 -0.8453
21477SOL    HW276086   0.534   1.193   4.834  1.0260  0.1453  0.4768
21478SOL     OW76087   9.887   1.710   1.529 -0.1692  0.5113  0.2269
21478SOL    HW176088   9.956   1.703   1.601  0.6499 -0.0481 -0.6060
21478SOL    HW276089   9.847   1.620   1.512 -1.7664  0.9787  1.3264
21479SOL     OW76090   8.992   2.923   3.719  0.0215 -0.1700 -0.0616
21479SOL    HW176091   9.023   2.958   3.631  0.3064 -0.4841 -0.0869
21479SOL    HW276092   9.068   2.922   3.783 -0.0513 -0.4800  0.0204
21480SOL     OW76093   3.915   5.533   6.293 -0.2703  0.2245  0.3434
21480SOL    HW176094   3.856   5.518   6.214  0.3507  1.6697 -0.4132
21480SOL    HW276095   4.009   5.509   6.269 -0.1096  0.4801  0.7152
21481SOL     OW76096   1.365   2.187   4.251 -0.3685  0.8530 -0.4344
21481SOL    HW176097   1.278   2.179   4.202 -1.7060  0.9778  1.8955
21481SOL    HW276098   1.414   2.099   4.246 -1.2917  0.3371 -0.4664
21482SOL     OW76099   0.612   0.447   1.004  0.0851  0.0509 -0.4941
21482SOL    HW176100   0.692   0.504   1.019  1.7371 -1.9281 -1.4994
21482SOL    HW276101   0.640   0.352   0.993 -2.6900 -1.1428  2.1199
21483SOL     OW76102   2.658   1.377   7.676 -0.2341  0.1693  0.6433
21483SOL    HW176103   2.642   1.360   7.774 -1.9382 -2.8209 -0.0926
21483SOL    HW276104   2.752   1.407   7.662  1.1809 -3.0455  2.8029
21484SOL     OW76105   9.829   1.779   1.272 -0.1547  0.0136  0.1958
21484SOL    HW176106   9.761   1.712   1.240  0.0098 -0.2108  0.3169
21484SOL    HW276107   9.829   1.782   1.372 -0.5818  0.6258  0.1805
21485SOL     OW76108   0.295   3.899   1.619 -0.6046 -0.1770  0.1725
21485SOL    HW176109   0.348   3.926   1.538 -2.5186  0.7045 -0.8292
21485SOL    HW276110   0.324   3.952   1.698 -0.1999  0.5137 -0.4348
21486SOL     OW76111   9.264   1.502   7.661  0.1295  0.2635  0.5914
21486SOL    HW176112   9.231   1.525   7.752  2.5618 -0.4153  1.6758
21486SOL    HW276113   9.312   1.414   7.664 -1.2901 -0.6318 -1.7021
21487SOL     OW76114   9.886   3.222   4.621 -0.3328 -0.3262 -0.0593
21487SOL    HW176115   9.902   3.282   4.542 -0.6922 -0.0694  0.0649
21487SOL    HW276116   9.802   3.170   4.606 -0.4157 -0.2575  0.1690
21488SOL     OW76117   9.707   7.033   0.804  0.1266 -0.0365  0.1918
21488SOL    HW176118   9.702   6.964   0.732 -0.4540 -0.3972  0.5742
21488SOL    HW276119   9.753   7.114   0.769 -1.7738  0.4961 -1.1506
21489SOL     OW76120   1.644   9.034   4.368  0.2483  0.3629  0.1539
21489SOL    HW176121   1.547   9.023   4.387  0.2748  0.5895  0.4195
21489SOL    HW276122   1.668   8.982   4.285  0.3827 -1.5864  1.3909
21490SOL     OW76123   0.074   1.987   5.871 -0.0907 -0.1703  0.0893
21490SOL    HW176124   0.027   1.902   5.895 -0.9891  0.1036 -0.6946
21490SOL    HW276125   0.173   1.972   5.874 -0.2501 -1.5133 -1.0218
21491SOL     OW76126   0.287   0.424   1.876  0.1075 -0.1839 -0.6412
21491SOL    HW176127   0.200   0.469   1.892  0.8502  1.2416 -0.5255
21491SOL    HW276128   0.323   0.389   1.963 -0.4095 -0.8793 -0.7100
21492SOL     OW76129   9.466   4.873   4.772 -0.6562  0.1287 -0.2250
21492SOL    HW176130   9.422   4.820   4.700 -0.3931 -0.2425 -0.1152
21492SOL    HW276131   9.481   4.815   4.852 -1.7065  0.7489  0.4430
21493SOL     OW76132   9.278   8.552   5.308  1.0523  0.1835  0.5827
21493SOL    HW176133   9.214   8.487   5.267 -0.7158  0.7927  2.3102
21493SOL    HW276134   9.262   8.643   5.269  0.8847  0.3317  1.0011
21494SOL     OW76135   5.793   1.583   1.904 -0.2475 -0.3030  0.4302
21494SOL    HW176136   5.695   1.590   1.883 -0.1660 -1.0176 -0.2229
21494SOL    HW276137   5.814   1.637   1.985 -1.0302  0.5397  0.0773
21495SOL     OW76138   6.638   2.067   7.970  0.4887 -0.1903  0.2562
21495SOL    HW176139   6.694   2.101   7.894  1.7149  0.4873  1.4261
21495SOL    HW276140   6.688   1.994   8.018  0.8505  1.1190  1.9311
21496SOL     OW76141   1.133   9.571   0.621 -0.2916 -0.2614 -0.1988
21496SOL    HW176142   1.145   9.532   0.530 -1.4017 -0.1902 -0.3804
21496SOL    HW276143   1.190   9.653   0.630  0.8377 -1.0128 -0.3589
21497SOL     OW76144   0.301   5.531   4.434  0.2341  0.5551 -0.1969
21497SOL    HW176145   0.226   5.566   4.490  1.7697  0.9057  1.6895
21497SOL    HW276146   0.264   5.490   4.351 -2.1235 -0.1848  1.1618
21498SOL     OW76147   5.374   0.135   4.582 -0.5928  0.0681 -0.0413
21498SOL    HW176148   5.341   0.165   4.672  0.3846  1.6767 -0.2062
21498SOL    HW276149   5.471   0.156   4.573 -0.9929  1.2482 -2.0212
21499SOL     OW76150   1.485   4.352   1.831 -0.3952  0.7551  0.1012
21499SOL    HW176151   1.506   4.447   1.856  0.9976  0.3740  0.4345
21499SOL    HW276152   1.544   4.324   1.755  0.7132 -0.4960  1.3775
21500SOL     OW76153   4.928   8.042   3.032 -0.3727 -0.0322  0.2857
21500SOL    HW176154   4.858   8.004   3.092 -1.2406 -0.3114 -0.8931
21500SOL    HW276155   4.912   8.140   3.021 -1.6219 -0.3997 -1.3577
21501SOL     OW76156   8.854   7.927   8.102 -0.5961  0.2263  0.0003
21501SOL    HW176157   8.761   7.919   8.136 -0.3948 -1.3708  0.1849
21501SOL    HW276158   8.914   7.865   8.152  0.6729  1.5854  0.2205
21502SOL     OW76159   7.802   2.549   2.766  0.0986  0.2906 -0.4185
21502SOL    HW176160   7.825   2.632   2.817  0.5008 -0.0713  0.0008
21502SOL    HW276161   7.815   2.565   2.669  0.1608  0.7239 -0.3431
21503SOL     OW76162   8.415   1.901   1.885 -0.2260 -0.5335 -0.2623
21503SOL    HW176163   8.472   1.884   1.804  0.2057 -1.1826  0.1751
21503SOL    HW276164   8.386   1.814   1.924 -0.8245 -0.2117  0.0074
21504SOL     OW76165   4.893   4.948   0.893  0.3987 -0.2745  0.0649
21504SOL    HW176166   4.891   4.864   0.839  1.5142 -1.2485  1.5200
21504SOL    HW276167   4.906   4.926   0.990  1.9082  1.6354  0.3255
21505SOL     OW76168   0.407   1.992   4.685  0.0483 -0.1649  0.2743
21505SOL    HW176169   0.481   2.013   4.621 -2.4872  3.2859 -1.7550
21505SOL    HW276170   0.344   1.927   4.643  0.9797 -1.7492  1.2994
21506SOL     OW76171   2.829   8.333   6.172 -0.0606 -0.0085 -0.0210
21506SOL    HW176172   2.741   8.367   6.205  0.9188  0.8506  1.7902
21506SOL    HW276173   2.877   8.406   6.124  0.2470 -0.0638  0.2009
21507SOL     OW76174   7.748   0.299   4.518 -0.1323  0.6696 -0.1417
21507SOL    HW176175   7.753   0.279   4.420  0.8631  0.1532  0.0150
21507SOL    HW276176   7.838   0.326   4.551 -0.0671 -0.9189  1.0202
21508SOL     OW76177   1.405   4.090   2.899  0.4352  0.1492 -0.0694
21508SOL    HW176178   1.308   4.073   2.915 -0.1660  1.6325 -2.0406
21508SOL    HW276179   1.457   4.059   2.979 -1.6690 -0.3888  1.1392
21509SOL     OW76180   1.481   2.061   7.058  0.9116 -0.2113 -0.6261
21509SOL    HW176181   1.552   2.098   6.998  0.6538 -0.7325 -1.2564
21509SOL    HW276182   1.397   2.048   7.006  0.1961  0.9065  0.2445
21510SOL     OW76183   4.258   6.195   0.288 -0.2508 -0.7818 -0.4670
21510SOL    HW176184   4.211   6.271   0.334  1.4971 -0.6867  1.2691
21510SOL    HW276185   4.198   6.115   0.285 -0.4393 -0.7809  2.0317
21511SOL     OW76186   8.665   3.357   0.699  0.4133 -0.3891 -0.4235
21511SOL    HW176187   8.673   3.352   0.798 -0.9789 -2.7572 -0.3936
21511SOL    HW276188   8.697   3.272   0.658 -1.2285 -0.3536 -1.8442
21512SOL     OW76189   0.924   9.426   3.870  0.1000  0.5209 -0.0678
21512SOL    HW176190   0.861   9.350   3.853 -0.3560  1.1010 -0.9472
21512SOL    HW276191   0.897   9.472   3.955 -0.7905  0.8895 -0.5385
21513SOL     OW76192   7.726   4.927   5.991  0.1645 -0.3548 -0.0258
21513SOL    HW176193   7.661   4.966   5.925  1.5882 -1.2278 -1.9967
21513SOL    HW276194   7.686   4.846   6.033 -1.0692  0.6628  0.8302
21514SOL     OW76195   2.913   1.841   6.851  0.7821  0.2746 -0.1667
21514SOL    HW176196   2.977   1.788   6.907 -0.0832 -0.2149  0.3656
21514SOL    HW276197   2.840   1.877   6.908 -0.2194 -0.3883 -0.9930
21515SOL     OW76198   1.075   6.851   1.264 -0.1495  0.8211 -0.1395
21515SOL    HW176199   1.094   6.778   1.330  0.7983 -0.2785 -1.5943
21515SOL    HW276200   1.001   6.909   1.299 -0.7497 -0.6813  1.1623
21516SOL     OW76201   8.788   6.647   7.545 -0.3536 -0.0096  0.0822
21516SOL    HW176202   8.696   6.608   7.543 -0.0675 -0.6221 -1.0796
21516SOL    HW276203   8.856   6.574   7.533  0.2580  0.5500  0.1147
21517SOL     OW76204   8.644   0.582   4.798 -0.2313 -0.2036  0.0000
21517SOL    HW176205   8.737   0.557   4.770 -0.0729 -1.0884  1.2844
21517SOL    HW276206   8.638   0.681   4.809  1.2991 -0.3555  2.4688
21518SOL     OW76207   9.693   0.792   4.258 -0.1164 -0.2290 -0.8266
21518SOL    HW176208   9.723   0.741   4.177 -1.0959 -0.3128 -1.1404
21518SOL    HW276209   9.649   0.876   4.229 -1.3614 -0.7327 -0.4181
21519SOL     OW76210   3.821   3.430   6.895 -0.7950 -0.0466 -0.3851
21519SOL    HW176211   3.778   3.389   6.975 -1.4566  1.6583  0.1692
21519SOL    HW276212   3.827   3.362   6.822 -3.1278 -0.7573  0.0182
21520SOL     OW76213   3.376   0.146   5.802 -0.3284 -0.1466 -0.2200
21520SOL    HW176214   3.283   0.153   5.838  0.2000 -0.1462  1.1857
21520SOL    HW276215   3.405   0.234   5.764 -1.1769 -0.3564 -1.3616
21521SOL     OW76216   5.857   9.533   3.763 -0.3483  0.1334 -0.2272
21521SOL    HW176217   5.898   9.540   3.854 -1.9063 -0.7442  0.5651
21521SOL    HW276218   5.871   9.440   3.728  0.1435  0.4344 -0.8386
21522SOL     OW76219   9.301   4.578   0.242  0.1061  0.0089  0.0333
21522SOL    HW176220   9.390   4.600   0.203  1.2812 -0.2965  2.4688
21522SOL    HW276221   9.312   4.514   0.318 -2.1024  0.7140  0.9961
21523SOL     OW76222   2.852   8.651   5.409  0.2029 -0.4363  0.4109
21523SOL    HW176223   2.825   8.744   5.384 -0.0898 -0.4297  0.7458
21523SOL    HW276224   2.825   8.633   5.504 -1.4290 -1.5234 -0.2413
21524SOL     OW76225   1.336   7.478   0.638  0.6441  0.1118 -0.2008
21524SOL    HW176226   1.341   7.575   0.612  0.6890  0.2183  0.1958
21524SOL    HW276227   1.248   7.440   0.610  0.2123  0.5401  0.5590
21525SOL     OW76228   0.139   6.551   2.352  0.3275 -0.1833 -0.0027
21525SOL    HW176229   0.197   6.551   2.434  2.1562 -1.8957 -1.2593
21525SOL    HW276230   0.178   6.612   2.284  0.5257 -1.1723 -0.7739
21526SOL     OW76231   8.847   7.534   5.924 -0.3994  0.1836  0.1715
21526SOL    HW176232   8.907   7.472   5.975  0.2033 -1.1706 -2.1043
21526SOL    HW276233   8.902   7.600   5.874 -0.7317 -1.3139 -2.2484
21527SOL     OW76234   4.009   5.670   3.034 -0.0088  0.4855 -0.4207
21527SOL    HW176235   4.037   5.728   3.111 -1.5235  0.4461  0.2027
21527SOL    HW276236   4.063   5.587   3.034  1.6520  1.5480 -0.8521
21528SOL     OW76237   2.336   2.684   6.915  0.1491  0.3869 -0.5752
21528SOL    HW176238   2.318   2.743   6.994  0.7424 -0.9285  0.5765
21528SOL    HW276239   2.251   2.644   6.882  0.1539 -0.9184  0.9194
21529SOL     OW76240   6.187   0.468   2.441 -0.3295 -0.0366  0.5811
21529SOL    HW176241   6.209   0.566   2.443 -1.1079  0.1237  1.1509
21529SOL    HW276242   6.122   0.446   2.513 -0.9841 -0.7802 -0.2177
21530SOL     OW76243   2.959   4.461   7.176 -0.4668 -0.1904  0.1805
21530SOL    HW176244   2.959   4.483   7.273 -0.9386 -3.1463  0.8943
21530SOL    HW276245   2.873   4.417   7.152  1.3985 -3.5765 -0.5583
21531SOL     OW76246   3.690   4.731   6.608 -0.4887 -0.1473 -0.3443
21531SOL    HW176247   3.643   4.674   6.675  0.1249 -1.4774 -1.0422
21531SOL    HW276248   3.623   4.790   6.562 -1.1000 -0.1840  0.4754
21532SOL     OW76249   0.046   2.887   4.778 -0.0370 -0.0897  0.4888
21532SOL    HW176250   0.108   2.851   4.848  0.2663 -1.2120 -0.3493
21532SOL    HW276251   0.009   2.974   4.809  0.7697 -0.1517  1.6743
21533SOL     OW76252   2.144   3.912   3.968 -0.1657 -0.3650 -0.2427
21533SOL    HW176253   2.060   3.861   3.953  0.2902 -1.2267  0.0657
21533SOL    HW276254   2.138   3.965   4.053 -0.6634  0.1398 -0.5947
21534SOL     OW76255   8.273   1.679   1.051 -0.0315  0.2297 -0.1444
21534SOL    HW176256   8.262   1.682   1.151  0.6030  0.3147 -0.0787
21534SOL    HW276257   8.354   1.730   1.024  2.7036 -3.9626 -0.2562
21535SOL     OW76258   1.690   3.858   7.820  0.1198 -0.6455 -0.3871
21535SOL    HW176259   1.693   3.780   7.757 -2.0479 -0.8252 -0.3066
21535SOL    HW276260   1.697   3.943   7.768  0.9419 -0.8555 -0.6216
21536SOL     OW76261   9.908   9.630   2.681  0.5705 -0.2842  0.0838
21536SOL    HW176262   9.875   9.629   2.775 -2.4118 -0.5946 -0.9070
21536SOL    HW276263   9.924   9.536   2.650 -1.9964 -0.4430 -0.8600
21537SOL     OW76264   5.653   1.114   7.760  0.0740 -0.3870 -0.2113
21537SOL    HW176265   5.585   1.177   7.799  0.4303  0.2710 -0.6473
21537SOL    HW276266   5.616   1.075   7.676  0.4031  0.3239 -0.6981
21538SOL     OW76267   5.558   0.921   2.987  0.2814  0.1883  0.0557
21538SOL    HW176268   5.548   1.017   2.961  0.8043  0.2997  0.2669
21538SOL    HW276269   5.498   0.901   3.065  0.4111  0.4218  0.2139
21539SOL     OW76270   5.233   1.246   7.308  0.2725 -0.4973  0.2847
21539SOL    HW176271   5.298   1.172   7.328  2.0002  1.0527  0.5490
21539SOL    HW276272   5.142   1.219   7.338  0.9668 -2.3278  0.8357
21540SOL     OW76273   3.086   6.036   0.329  0.5929 -0.0701  0.2987
21540SOL    HW176274   3.128   6.036   0.420  0.8189  0.1877  0.1973
21540SOL    HW276275   3.158   6.034   0.260  0.4077 -1.5119  0.1227
21541SOL     OW76276   6.387   8.284   3.867 -0.8860 -0.3023 -0.2392
21541SOL    HW176277   6.382   8.220   3.790 -0.4052  2.1708 -2.4231
21541SOL    HW276278   6.481   8.313   3.880 -1.3844  1.6997 -0.8253
21542SOL     OW76279   0.925   5.074   6.849 -0.2986 -0.2912  0.1101
21542SOL    HW176280   0.945   5.141   6.921 -0.0299  0.1909 -0.4015
21542SOL    HW276281   0.832   5.039   6.860 -0.0718 -0.6225  1.0026
21543SOL     OW76282   7.922   1.630   0.436 -0.3454 -0.0756  0.1170
21543SOL    HW176283   7.825   1.611   0.420  0.1118 -0.1168 -2.9379
21543SOL    HW276284   7.970   1.544   0.454 -0.8765 -0.0401  1.7801
21544SOL     OW76285   0.262   7.212   1.689  0.2218  0.6439  0.9621
21544SOL    HW176286   0.291   7.116   1.693 -1.0642  0.3273  3.1318
21544SOL    HW276287   0.257   7.250   1.781 -0.0853  2.5750  0.1834
21545SOL     OW76288   8.245   5.309   2.253 -0.8752  0.9603 -0.2326
21545SOL    HW176289   8.230   5.240   2.182  0.6978 -0.7478  1.0694
21545SOL    HW276290   8.168   5.307   2.317 -0.5166 -0.0704  0.1808
21546SOL     OW76291   6.361   0.885   6.608  0.0478  0.2868 -0.4861
21546SOL    HW176292   6.272   0.927   6.593  0.2327  0.7382 -0.3183
21546SOL    HW276293   6.406   0.870   6.519  0.1249  0.7504 -0.5233
21547SOL     OW76294   3.786   1.513   1.780 -0.5322 -0.1520  0.0183
21547SOL    HW176295   3.788   1.613   1.787  1.0971 -0.1256 -0.6331
21547SOL    HW276296   3.872   1.481   1.742 -1.7374 -1.6846 -1.4829
21548SOL     OW76297   1.501   8.105   1.593 -0.0573  0.0817  0.0818
21548SOL    HW176298   1.594   8.088   1.561 -0.4082 -1.4563 -0.1216
21548SOL    HW276299   1.502   8.115   1.693  0.1931 -0.8075  0.1677
21549SOL     OW76300   4.475   9.258   6.222 -0.2740 -0.5150 -0.2815
21549SOL    HW176301   4.445   9.323   6.152  0.7664  1.5813  1.1243
21549SOL    HW276302   4.398   9.235   6.282 -0.6148 -0.4080 -0.6787
21550SOL     OW76303   4.051   2.345   6.909  0.2899 -0.0656 -0.1168
21550SOL    HW176304   4.037   2.424   6.849  1.2788 -1.0181 -1.6571
21550SOL    HW276305   4.024   2.368   7.002 -0.6156  1.6808 -0.7942
21551SOL     OW76306   3.888   0.390   6.962 -0.0297  0.4549 -0.1390
21551SOL    HW176307   3.892   0.462   7.031 -0.9583 -0.9926  1.4627
21551SOL    HW276308   3.805   0.401   6.907  0.5215  1.3897 -0.7966
21552SOL     OW76309   0.392   2.582   6.777  0.0732 -0.6743 -0.5488
21552SOL    HW176310   0.310   2.526   6.789  0.2347 -0.6384  0.8374
21552SOL    HW276311   0.387   2.662   6.838  1.2921 -0.8599 -0.1777
21553SOL     OW76312   4.315   3.170   1.361  0.0866  0.0633 -0.5915
21553SOL    HW176313   4.356   3.177   1.271  0.5962 -1.1096 -0.4603
21553SOL    HW276314   4.383   3.136   1.426 -0.9696 -1.5329 -0.2927
21554SOL     OW76315   3.837   4.821   5.314 -0.4247  0.2694  0.2389
21554SOL    HW176316   3.768   4.893   5.323  1.6815  2.4172 -0.2827
21554SOL    HW276317   3.800   4.746   5.259 -2.9887  0.4994  1.6084
21555SOL     OW76318   0.021   8.313   0.469 -0.1458  0.3051  0.2451
21555SOL    HW176319  -0.017   8.400   0.436  0.4993  0.6466  0.3953
21555SOL    HW276320  -0.023   8.288   0.555 -1.9499 -0.6709 -0.9212
21556SOL     OW76321   9.517   5.775   0.797 -0.0204  0.0833  0.0459
21556SOL    HW176322   9.446   5.845   0.788  2.1387  2.1230 -1.6722
21556SOL    HW276323   9.518   5.719   0.714  1.4372  1.1044 -0.6404
21557SOL     OW76324   1.177   5.203   3.982  0.8867  0.0481 -0.2245
21557SOL    HW176325   1.190   5.281   3.921 -0.9860  0.2683 -0.3606
21557SOL    HW276326   1.236   5.213   4.062  1.1921  1.2234 -0.5960
21558SOL     OW76327   5.223   1.283   2.368  0.3466  0.9924  0.1671
21558SOL    HW176328   5.306   1.278   2.313 -0.0825  0.6456 -0.4611
21558SOL    HW276329   5.143   1.287   2.308 -0.1565  0.0801  0.7579
21559SOL     OW76330   5.119   2.756   5.390  0.3234  0.5473 -0.3140
21559SOL    HW176331   5.123   2.829   5.322  0.9245  0.4021 -0.4368
21559SOL    HW276332   5.133   2.668   5.345 -0.4468  0.3453 -0.1738
21560SOL     OW76333   7.004   0.685   6.297 -0.0799 -0.1691 -0.6048
21560SOL    HW176334   6.915   0.666   6.254  1.6740  0.1145 -4.5627
21560SOL    HW276335   7.031   0.779   6.278  0.5864  0.1069  1.5774
21561SOL     OW76336   9.108   1.011   4.117  0.2182  0.2420  0.2954
21561SOL    HW176337   9.187   0.950   4.126  0.5950  0.7370  0.3847
21561SOL    HW276338   9.093   1.059   4.204  0.0596  0.4348  0.1626
21562SOL     OW76339   0.590   5.644   7.291  0.3834  0.1153 -1.1531
21562SOL    HW176340   0.670   5.647   7.231 -1.2225  0.4703 -3.3237
21562SOL    HW276341   0.544   5.555   7.281 -0.2798  0.4353 -0.9887
21563SOL     OW76342   7.393   6.358   4.367 -0.6338  0.5174 -0.0632
21563SOL    HW176343   7.333   6.402   4.300 -1.3873 -0.7682 -0.2316
21563SOL    HW276344   7.425   6.270   4.331  0.4509  0.6717  0.4925
21564SOL     OW76345   0.510   5.385   7.623  0.4958 -0.2353 -0.0427
21564SOL    HW176346   0.510   5.483   7.643 -0.7835 -0.6391  2.0889
21564SOL    HW276347   0.563   5.368   7.540  4.3810  1.7635  1.9227
21565SOL     OW76348   8.255   7.886   2.795 -0.3594 -0.3630 -0.2000
21565SOL    HW176349   8.354   7.904   2.803 -0.6552  1.3033 -0.0812
21565SOL    HW276350   8.224   7.914   2.704 -0.7900 -0.5450 -0.1055
21566SOL     OW76351   3.584   1.544   5.914  0.1497  0.3881 -0.4653
21566SOL    HW176352   3.578   1.450   5.950  1.0196  0.0773 -1.1320
21566SOL    HW276353   3.645   1.598   5.972 -0.2754  0.5237 -0.1377
21567SOL     OW76354   5.015   5.574   1.801  0.4420  0.2590 -0.0254
21567SOL    HW176355   4.930   5.622   1.781 -1.4533 -2.5303  1.0103
21567SOL    HW276356   5.024   5.561   1.899  1.0325 -1.1954 -0.2480
21568SOL     OW76357   8.667   9.805   0.387 -0.3570  0.0671  0.0286
21568SOL    HW176358   8.745   9.769   0.438 -0.1907 -0.0246 -0.2856
21568SOL    HW276359   8.674   9.905   0.380  0.2377 -0.0288 -0.8209
21569SOL     OW76360   6.209   1.700   0.376 -0.7618  0.3059  0.0734
21569SOL    HW176361   6.280   1.664   0.315  0.6470  0.5017  1.5681
21569SOL    HW276362   6.145   1.756   0.323 -1.1858 -1.7904 -1.7149
21570SOL     OW76363   0.683   8.285   6.684  0.2725  0.1059 -0.3301
21570SOL    HW176364   0.642   8.365   6.727  0.0119 -0.2079  0.0140
21570SOL    HW276365   0.617   8.244   6.620  0.9049  0.9652 -1.5405
21571SOL     OW76366   3.525   4.168   5.368  0.0880  0.0234 -0.1308
21571SOL    HW176367   3.541   4.096   5.301 -1.5302 -0.1295 -0.3795
21571SOL    HW276368   3.464   4.134   5.440  0.3691  0.7313  0.4437
21572SOL     OW76369   5.688   4.215   1.136  0.0879  0.3661  0.4193
21572SOL    HW176370   5.719   4.136   1.083 -0.2998 -0.4756  1.4502
21572SOL    HW276371   5.595   4.240   1.107  1.1142  1.9739 -1.6236
21573SOL     OW76372   2.884   6.462   4.919 -0.5491 -0.8849  0.1435
21573SOL    HW176373   2.794   6.465   4.962 -0.5720 -0.0676  0.0412
21573SOL    HW276374   2.913   6.366   4.909 -2.3997 -1.2756 -1.8994
21574SOL     OW76375   5.505   1.556   1.994  0.1609 -0.8079 -0.2059
21574SOL    HW176376   5.450   1.607   1.928  0.8884  0.4402  0.1510
21574SOL    HW276377   5.458   1.556   2.083  0.9120  0.6090  0.2063
21575SOL     OW76378   8.383   3.635   0.246 -0.2477  0.0350 -0.9904
21575SOL    HW176379   8.341   3.643   0.336 -0.1324  2.5226 -1.1217
21575SOL    HW276380   8.315   3.604   0.180 -0.4075 -1.5023 -0.1389
21576SOL     OW76381   3.155   2.360   1.226  0.6223  0.1967  0.1542
21576SOL    HW176382   3.231   2.425   1.231 -0.5099  1.4636  1.4734
21576SOL    HW276383   3.124   2.338   1.318 -1.8911  1.2603 -0.3944
21577SOL     OW76384   2.634   8.961   8.051  0.4307  0.0232  0.0034
21577SOL    HW176385   2.596   8.987   8.140 -1.7385 -0.4025 -0.7780
21577SOL    HW276386   2.561   8.927   7.992  1.8581  0.2266 -1.9331
21578SOL     OW76387   5.441   7.813   3.530  0.0717  0.3277 -0.4086
21578SOL    HW176388   5.531   7.843   3.499  0.5798 -0.9120 -0.1578
21578SOL    HW276389   5.448   7.721   3.569 -1.1052  0.6570  0.6107
21579SOL     OW76390   8.530   1.837   7.046  0.5072 -0.4246  0.0077
21579SOL    HW176391   8.472   1.900   7.097  1.4876 -0.1242  0.7774
21579SOL    HW276392   8.624   1.871   7.047  0.8809 -1.4327 -0.3531
21580SOL     OW76393   5.924   5.846   1.510 -0.1172  0.8264 -0.1232
21580SOL    HW176394   5.984   5.805   1.442  0.0736 -0.8395  1.0307
21580SOL    HW276395   5.851   5.897   1.463 -0.0250 -0.3298 -1.5751
21581SOL     OW76396   7.427   4.448   2.351 -0.3181  0.6913  0.4556
21581SOL    HW176397   7.352   4.493   2.399  0.5645  1.9144  0.7137
21581SOL    HW276398   7.510   4.453   2.407  0.6665  1.9320 -1.0741
21582SOL     OW76399   1.871   0.189   8.006 -0.0363 -0.1674  0.3145
21582SOL    HW176400   1.959   0.209   8.049  0.9881 -2.0335 -0.8415
21582SOL    HW276401   1.838   0.270   7.957  0.8886  0.6267  0.9958
21583SOL     OW76402   2.865   1.341   0.574  0.1001  0.0799 -0.4632
21583SOL    HW176403   2.894   1.431   0.541 -1.2816  0.6557 -0.1740
21583SOL    HW276404   2.788   1.309   0.518 -2.1674  0.9902  2.0162
21584SOL     OW76405   7.224   8.091   3.326  0.4725 -0.3159 -0.4440
21584SOL    HW176406   7.225   8.154   3.248 -1.4631  0.3714  0.0594
21584SOL    HW276407   7.282   8.012   3.306  1.0145  0.4741 -2.0537
21585SOL     OW76408   9.470   6.698   7.408 -0.2943 -0.2046  0.0001
21585SOL    HW176409   9.529   6.690   7.328  0.6355 -0.2738  0.6777
21585SOL    HW276410   9.485   6.620   7.468 -1.6643 -0.6321 -0.1939
21586SOL     OW76411   6.639   4.543   1.422  0.0565 -0.4797 -0.1315
21586SOL    HW176412   6.673   4.495   1.503  0.4973  0.0064 -0.0199
21586SOL    HW276413   6.717   4.582   1.372 -0.3513  0.7806  0.2071
21587SOL     OW76414   0.195   1.818   6.171  0.6663  0.4181 -0.1366
21587SOL    HW176415   0.180   1.735   6.116 -0.9216  0.3826  0.3215
21587SOL    HW276416   0.270   1.802   6.235  1.9006  0.1326 -1.6330
21588SOL     OW76417   6.826   3.899   7.911 -0.0434 -0.2189 -0.5493
21588SOL    HW176418   6.896   3.845   7.958 -0.6670  0.4388  1.1615
21588SOL    HW276419   6.839   3.891   7.812  1.0235 -1.9826 -0.2931
21589SOL     OW76420   3.600   8.537   0.033 -0.6121  0.1560 -0.2414
21589SOL    HW176421   3.528   8.595  -0.005 -0.9148  1.4128  2.1708
21589SOL    HW276422   3.576   8.441   0.019 -1.2769  0.5696 -2.1128
21590SOL     OW76423   2.146   5.221   5.957  0.4651 -0.2342  0.2984
21590SOL    HW176424   2.191   5.268   6.033  1.0980  0.9701 -0.7936
21590SOL    HW276425   2.049   5.209   5.978  0.4027  1.0918  0.8356
21591SOL     OW76426   8.127   4.767   5.583  0.0268 -0.1943 -0.1331
21591SOL    HW176427   8.121   4.866   5.589 -1.4398 -0.1720 -1.5607
21591SOL    HW276428   8.090   4.726   5.667  2.1728  0.4671  1.1695
21592SOL     OW76429   5.209   8.962   1.979 -0.0035 -0.3913 -0.5485
21592SOL    HW176430   5.110   8.972   1.975 -0.2860 -2.1425  1.0882
21592SOL    HW276431   5.248   9.032   2.038 -0.3256 -0.0451 -0.7481
21593SOL     OW76432   1.095   4.491   1.149  0.1370 -0.1370  0.0567
21593SOL    HW176433   1.161   4.490   1.074 -0.3948  1.0945 -0.4258
21593SOL    HW276434   1.003   4.474   1.113  0.0052 -0.4800  0.5518
21594SOL     OW76435   2.417   5.709   3.333  0.1991 -0.8553  0.2463
21594SOL    HW176436   2.324   5.741   3.317  0.9283  0.6538 -1.1157
21594SOL    HW276437   2.474   5.785   3.365  0.8604 -1.8661  1.5015
21595SOL     OW76438   3.512   0.084   7.413  0.2985 -0.1360  0.3376
21595SOL    HW176439   3.570   0.153   7.455  0.4027 -1.2317  2.0194
21595SOL    HW276440   3.429   0.071   7.468  0.3512 -1.4558  0.1305
21596SOL     OW76441   0.285   5.855   6.139 -0.3074 -0.7860  0.0268
21596SOL    HW176442   0.355   5.795   6.177 -0.0688  0.0030  0.8600
21596SOL    HW276443   0.233   5.897   6.214 -0.5762 -0.0801 -0.5477
21597SOL     OW76444   7.324   7.107   4.042  0.1903 -0.0863  0.2110
21597SOL    HW176445   7.317   7.197   3.999 -2.6024 -0.4146 -0.0536
21597SOL    HW276446   7.304   7.035   3.975  0.5697 -0.8228  0.8758
21598SOL     OW76447   9.172   1.912   0.109  0.4057 -0.0791  0.3805
21598SOL    HW176448   9.190   1.886   0.014 -0.3894  0.2161  0.1417
21598SOL    HW276449   9.078   1.944   0.117  0.7539  0.7739  1.0853
21599SOL     OW76450   3.761   5.519   7.714  0.1385  0.1925 -0.8049
21599SOL    HW176451   3.711   5.472   7.641  0.7410  1.4158 -2.0389
21599SOL    HW276452   3.857   5.527   7.688  0.2882  0.9378 -0.0324
21600SOL     OW76453   6.884   2.618   2.453 -0.4355  0.2477 -0.3563
21600SOL    HW176454   6.970   2.567   2.444  0.0837  0.6250  1.9927
21600SOL    HW276455   6.835   2.586   2.534 -1.2068  1.9171 -0.1360
21601SOL     OW76456   8.727   0.274   4.670 -0.4932  0.2339 -0.4881
21601SOL    HW176457   8.715   0.316   4.580 -0.3744 -1.0293 -1.1050
21601SOL    HW276458   8.641   0.232   4.698 -0.3964  0.2184 -0.2135
21602SOL     OW76459   6.683   9.570   6.156  0.1117 -0.0721  0.1719
21602SOL    HW176460   6.651   9.478   6.130  0.1221 -0.4463  1.4494
21602SOL    HW276461   6.707   9.570   6.253  1.4909  0.9039 -0.1568
21603SOL     OW76462   2.416   6.458   3.371  0.0219 -0.3192 -0.2006
21603SOL    HW176463   2.462   6.494   3.290  2.1946 -2.4933 -0.0072
21603SOL    HW276464   2.480   6.454   3.447 -1.6233  0.3840  1.2456
21604SOL     OW76465   2.496   9.766   6.208  0.2256 -0.3097  0.0411
21604SOL    HW176466   2.437   9.838   6.246 -2.8716 -2.4577 -0.5088
21604SOL    HW276467   2.466   9.745   6.115  2.1025 -1.2693 -0.3674
21605SOL     OW76468   5.410   2.856   0.450 -0.3107  0.0233 -0.3534
21605SOL    HW176469   5.341   2.827   0.516  0.5185 -0.4710  0.3028
21605SOL    HW276470   5.471   2.924   0.493 -0.1043  0.1118 -0.7776
21606SOL     OW76471   1.714   7.229   2.637 -0.2350 -0.3438  0.1743
21606SOL    HW176472   1.749   7.323   2.641  0.7933 -0.7193 -0.0024
21606SOL    HW276473   1.615   7.231   2.653 -0.0157  0.6268  1.5789
21607SOL     OW76474   5.917   4.894   0.051  0.0994 -0.6303  0.0099
21607SOL    HW176475   5.935   4.952   0.130 -1.8879  0.6322 -0.4303
21607SOL    HW276476   5.965   4.931  -0.029 -0.3050 -0.1878 -0.0314
21608SOL     OW76477   2.256   5.597   7.293 -0.0856  0.1723 -0.0001
21608SOL    HW176478   2.349   5.563   7.279 -0.0482 -0.2720  1.2318
21608SOL    HW276479   2.245   5.684   7.245  0.6606 -0.2548 -0.9569
21609SOL     OW76480   1.339   8.397   2.276  0.1985 -0.3776 -0.1675
21609SOL    HW176481   1.286   8.386   2.192 -0.2032  0.0793  0.0244
21609SOL    HW276482   1.412   8.329   2.279  0.1185 -0.4877 -0.8148
21610SOL     OW76483   0.254   3.646   4.782 -0.0675  0.4931  0.7849
21610SOL    HW176484   0.268   3.663   4.880  0.9457  1.8234  0.4223
21610SOL    HW276485   0.275   3.730   4.731 -3.1470  0.6479 -0.3466
21611SOL     OW76486   0.125   8.220   0.759 -0.1541 -0.4696 -0.5551
21611SOL    HW176487   0.165   8.228   0.851  0.9744 -0.5211 -1.0283
21611SOL    HW276488   0.038   8.269   0.756 -0.1483 -0.3825  0.5175
21612SOL     OW76489   3.781   9.987   7.012 -0.5822 -0.0655 -0.1170
21612SOL    HW176490   3.809   9.898   7.047 -1.7160 -0.3244  0.1645
21612SOL    HW276491   3.696  10.015   7.058 -1.2262  0.3235 -1.5127
21613SOL     OW76492   3.817   2.834   4.674  0.4094 -0.2067 -0.3095
21613SOL    HW176493   3.878   2.784   4.734  1.5991 -0.1835 -1.4578
21613SOL    HW276494   3.819   2.793   4.582 -1.0331  0.0100 -0.4471
21614SOL     OW76495   2.037   4.147   5.907  0.3389  0.9670  0.1242
21614SOL    HW176496   1.938   4.150   5.914  0.3001 -0.6992  0.4432
21614SOL    HW276497   2.067   4.208   5.834 -0.9597  1.0998 -0.3047
21615SOL     OW76498   8.667   9.067   0.099 -0.2106 -0.5241  0.0852
21615SOL    HW176499   8.591   9.123   0.133 -1.3707 -2.3697  0.6455
21615SOL    HW276500   8.633   9.005   0.028  0.7825 -1.3514  0.3195
21616SOL     OW76501   5.786   4.157   8.180  0.2596 -0.7715  0.3778
21616SOL    HW176502   5.718   4.101   8.228  0.3341 -0.5382  0.7497
21616SOL    HW276503   5.778   4.139   8.082 -1.1391  0.1217  0.3093
21617SOL     OW76504   3.393   7.261   3.973 -0.3060 -0.6051  0.0006
21617SOL    HW176505   3.394   7.244   4.071 -0.5355  1.5170  0.3808
21617SOL    HW276506   3.337   7.341   3.953 -1.6481 -1.9924 -2.0464
21618SOL     OW76507   3.533   1.155   1.875  0.0447  0.2855 -0.1169
21618SOL    HW176508   3.560   1.096   1.799 -0.3421 -0.4041  0.2694
21618SOL    HW276509   3.462   1.109   1.928 -0.7529  1.3957 -0.2057
21619SOL     OW76510   0.000   7.637   3.732  0.2030  0.0006  0.0580
21619SOL    HW176511   0.077   7.595   3.781  0.1379 -1.3018 -0.9347
21619SOL    HW276512   0.032   7.672   3.644 -0.3373 -0.6477 -0.4110
21620SOL     OW76513   0.015   7.276   2.810  0.0134 -0.5909  0.5603
21620SOL    HW176514  -0.015   7.250   2.718 -0.5444 -0.9573  0.8432
21620SOL    HW276515   0.040   7.194   2.861  0.7484 -0.3512  0.5952
21621SOL     OW76516   4.970   0.681   3.640  0.2031  0.4814  0.2147
21621SOL    HW176517   4.871   0.682   3.625  0.5570 -2.8189 -2.7399
21621SOL    HW276518   5.017   0.695   3.553  2.3219 -1.3837  1.0167
21622SOL     OW76519   1.104   1.530   0.192 -0.6113 -0.3006 -0.4332
21622SOL    HW176520   1.040   1.560   0.263 -1.4109 -1.2891 -0.7296
21622SOL    HW276521   1.162   1.458   0.228 -0.9402 -0.7237 -0.7431
21623SOL     OW76522   8.116   1.533   1.713 -0.1046  0.1174  0.1691
21623SOL    HW176523   8.070   1.616   1.679  1.2054  1.0106  0.5416
21623SOL    HW276524   8.066   1.452   1.682 -0.3990  0.9915 -1.7008
21624SOL     OW76525   9.586   0.609   1.137 -0.0932 -0.2366  0.1673
21624SOL    HW176526   9.677   0.568   1.127  0.0584 -0.1873  1.2858
21624SOL    HW276527   9.529   0.584   1.059  0.6791 -0.8053 -0.2162
21625SOL     OW76528   8.262   2.873   3.711 -0.0776  0.8221  0.0345
21625SOL    HW176529   8.242   2.895   3.615 -1.2126 -0.6348 -0.0687
21625SOL    HW276530   8.267   2.774   3.722  1.7472  1.0166  1.1533
21626SOL     OW76531   0.534   0.812   8.163  0.2472 -0.2898  0.2135
21626SOL    HW176532   0.506   0.908   8.157 -0.9330 -0.5281  1.6603
21626SOL    HW276533   0.533   0.772   8.071  0.5762  1.0220 -0.3787
21627SOL     OW76534   2.134   5.433   4.769 -0.3791  0.4180  0.2983
21627SOL    HW176535   2.079   5.475   4.697  1.1321  0.2218 -1.0103
21627SOL    HW276536   2.076   5.376   4.827 -1.6693  0.8034 -0.6026
21628SOL     OW76537   8.168   6.658   3.236  0.2285  0.2459  0.0121
21628SOL    HW176538   8.193   6.622   3.146  0.5611  0.7889 -0.1191
21628SOL    HW276539   8.093   6.605   3.274  0.1735 -0.0681 -0.5336
21629SOL     OW76540   8.808   5.728   4.769  0.1545  0.1976  0.4035
21629SOL    HW176541   8.775   5.696   4.681  0.2697  1.9883 -0.3166
21629SOL    HW276542   8.901   5.764   4.759  0.3524 -0.0408  1.3521
21630SOL     OW76543   8.848   0.595   5.106  0.0199  0.0425 -0.0553
21630SOL    HW176544   8.848   0.572   5.203  0.8640  1.1099  0.2064
21630SOL    HW276545   8.808   0.520   5.054  1.0400 -1.2097  0.9508
21631SOL     OW76546   6.483   2.157   1.456 -0.1652 -0.0545  0.0997
21631SOL    HW176547   6.485   2.213   1.539 -1.1131 -1.3036  0.9947
21631SOL    HW276548   6.559   2.092   1.458 -0.2561 -0.1631  0.0646
21632SOL     OW76549   9.484   8.699   1.732  0.7616  0.0910  0.4050
21632SOL    HW176550   9.412   8.653   1.680  1.6114 -2.2981  1.3012
21632SOL    HW276551   9.561   8.719   1.671 -0.5435  2.4865 -0.5147
21633SOL     OW76552   3.081   5.742   1.279  1.0011 -0.1922  0.3042
21633SOL    HW176553   3.163   5.686   1.268  0.6103 -0.8893  0.9244
21633SOL    HW276554   3.067   5.797   1.197  2.2379  0.1221  0.3094
21634SOL     OW76555   8.172   8.019   2.508  0.2296  0.1254  0.1511
21634SOL    HW176556   8.109   8.071   2.451 -2.1757 -1.0626  1.6646
21634SOL    HW276557   8.160   7.921   2.491  0.7147 -0.1602  1.4092
21635SOL     OW76558   3.934   9.174   7.562  0.1968  0.3224 -0.1195
21635SOL    HW176559   3.871   9.096   7.557  1.5310 -0.8083  0.5500
21635SOL    HW276560   3.954   9.205   7.470  1.3901 -1.5555 -0.5287
21636SOL     OW76561   1.331   8.916   3.202  0.4979 -0.1627 -0.4521
21636SOL    HW176562   1.372   8.840   3.252  1.5552 -0.2906 -1.4939
21636SOL    HW276563   1.341   8.900   3.104 -0.7321  0.5291 -0.6990
21637SOL     OW76564   4.073   4.680   3.183 -0.5202 -0.0025  0.3915
21637SOL    HW176565   4.110   4.592   3.153  3.1517  1.4853  0.2430
21637SOL    HW276566   4.015   4.718   3.111 -0.5642 -1.3954 -0.3334
21638SOL     OW76567   9.615   2.376   3.282 -0.4018 -0.8380  0.0994
21638SOL    HW176568   9.669   2.327   3.214 -0.6335 -1.5210  0.4070
21638SOL    HW276569   9.604   2.472   3.253 -0.1314 -1.0165 -0.6020
21639SOL     OW76570   8.414   9.721   4.435  0.6535  0.2772  0.5120
21639SOL    HW176571   8.351   9.731   4.512 -1.7428  0.8148 -1.4241
21639SOL    HW276572   8.441   9.811   4.402 -0.1893  0.1142 -0.6826
21640SOL     OW76573   4.150   3.537   3.202 -0.4324 -0.3333  0.1925
21640SOL    HW176574   4.215   3.486   3.145  1.0635  0.7120  0.9051
21640SOL    HW276575   4.189   3.550   3.293 -0.9721  1.6453  0.1706
21641SOL     OW76576   9.372   0.039   1.606 -0.3427 -0.0204 -0.0549
21641SOL    HW176577   9.364   0.137   1.625 -0.1743  0.1417 -0.7913
21641SOL    HW276578   9.285   0.005   1.570  0.1392  0.2589 -1.5295
21642SOL     OW76579   0.907   1.291   7.997  0.6468  0.1652 -0.1713
21642SOL    HW176580   0.865   1.248   7.917 -0.2995 -0.1193  0.4725
21642SOL    HW276581   1.006   1.278   7.993  0.7043  1.0383 -1.8115
21643SOL     OW76582   0.369   8.039   2.173 -0.0429  0.1257  1.1916
21643SOL    HW176583   0.341   7.962   2.230 -0.0944 -1.6899 -1.1931
21643SOL    HW276584   0.415   8.004   2.091  0.6941  2.6848  0.4772
21644SOL     OW76585   0.132   4.569   1.620 -0.1299 -0.5165 -0.2177
21644SOL    HW176586   0.189   4.573   1.537  1.8340  2.6517  1.1905
21644SOL    HW276587   0.037   4.588   1.595  0.0148 -1.9996 -2.0561
21645SOL     OW76588   0.508   1.492   4.680  0.0639 -0.4711  0.2405
21645SOL    HW176589   0.424   1.545   4.666  0.3421 -0.1958 -0.4381
21645SOL    HW276590   0.574   1.515   4.607  0.2574 -1.6050  0.0571
21646SOL     OW76591   4.654   5.764   3.511  0.3198 -0.6378  0.6371
21646SOL    HW176592   4.750   5.789   3.502 -0.0302 -0.1649 -2.2339
21646SOL    HW276593   4.598   5.823   3.453 -1.7574 -0.7398  2.4548
21647SOL     OW76594   4.278   9.364   2.511  0.2593  0.0094  0.6932
21647SOL    HW176595   4.255   9.307   2.589  0.6224  0.2160  0.9522
21647SOL    HW276596   4.201   9.424   2.489  0.5645  0.7384  1.5871
21648SOL     OW76597   1.667   4.732   5.845  0.0414  0.4749  0.9978
21648SOL    HW176598   1.670   4.681   5.759 -2.5371 -0.8986  1.6870
21648SOL    HW276599   1.607   4.811   5.834 -0.8881 -0.1258  1.7532
21649SOL     OW76600   2.355   2.297   1.828 -0.0589  0.0513 -0.2847
21649SOL    HW176601   2.290   2.262   1.896  0.5168  0.4624  0.4920
21649SOL    HW276602   2.409   2.371   1.869 -0.3261  0.9311 -1.4714
21650SOL     OW76603   2.383   3.511   4.402 -0.1354  0.0134  0.2546
21650SOL    HW176604   2.340   3.462   4.326  2.3408 -0.5710 -0.8110
21650SOL    HW276605   2.349   3.474   4.488 -3.2882  0.9434 -0.5003
21651SOL     OW76606   2.426   9.405   5.392  0.1465 -0.0990 -0.7496
21651SOL    HW176607   2.505   9.346   5.410  1.4982  1.7922 -0.3752
21651SOL    HW276608   2.421   9.425   5.294  0.4581  0.2241 -0.7004
21652SOL     OW76609   7.010   3.108   1.823 -0.3366 -0.0480  0.3164
21652SOL    HW176610   7.080   3.143   1.761  0.4850 -1.3259  0.5112
21652SOL    HW276611   6.992   3.012   1.802 -1.7838  0.1636  0.5007
21653SOL     OW76612   8.254   5.891   8.162  0.1520 -0.2784  0.3349
21653SOL    HW176613   8.334   5.856   8.114 -0.8738 -1.5448 -0.5145
21653SOL    HW276614   8.204   5.955   8.103 -0.1365 -0.4675  0.3690
21654SOL     OW76615   6.740   8.058   3.379  0.2220 -0.1764 -0.4743
21654SOL    HW176616   6.674   8.068   3.305  0.3963  0.1633 -0.5854
21654SOL    HW276617   6.733   8.136   3.441 -0.2735 -0.7090  0.1506
21655SOL     OW76618   3.842   6.886   4.015  0.5637  0.7502 -0.2021
21655SOL    HW176619   3.834   6.826   4.094  0.7677  0.2954 -0.5257
21655SOL    HW276620   3.754   6.930   3.997  0.2488  0.0509 -0.3578
21656SOL     OW76621   2.452   9.560   0.433  0.1562  0.0069 -0.8458
21656SOL    HW176622   2.458   9.656   0.406 -1.1840  0.3059 -0.1399
21656SOL    HW276623   2.359   9.539   0.464  0.6693 -1.2715 -0.0807
21657SOL     OW76624   3.601   5.811   4.355 -0.0594  0.1969  0.1853
21657SOL    HW176625   3.688   5.771   4.326 -0.7793 -0.9570 -0.4014
21657SOL    HW276626   3.618   5.872   4.433  1.3069  0.1925 -0.0844
21658SOL     OW76627   0.196   6.408   3.931  0.2191 -0.0452  0.0913
21658SOL    HW176628   0.098   6.417   3.914  0.3964  1.2143 -0.2614
21658SOL    HW276629   0.236   6.345   3.865 -0.1843  0.1635 -0.3474
21659SOL     OW76630   9.998   8.323   5.254 -0.3804 -0.1973  0.0968
21659SOL    HW176631   9.905   8.357   5.238  0.0724  0.9683 -0.0623
21659SOL    HW276632  10.048   8.389   5.309  1.6643  1.1867 -3.2457
21660SOL     OW76633   1.738   5.484   6.077  0.0790  0.2669  0.6013
21660SOL    HW176634   1.722   5.386   6.063 -0.4446  0.4022  0.2231
21660SOL    HW276635   1.683   5.516   6.153  0.6594  0.1557  1.0686
21661SOL     OW76636   9.437   6.169   6.933 -0.3883  0.1867  0.5632
21661SOL    HW176637   9.422   6.143   6.838  0.2047 -0.1299  0.5535
21661SOL    HW276638   9.427   6.089   6.992  0.5464  0.1066  0.6269
21662SOL     OW76639   8.156   0.870   3.296  0.0039 -0.0168  0.1831
21662SOL    HW176640   8.086   0.936   3.269  0.2634 -0.5825 -1.9248
21662SOL    HW276641   8.175   0.808   3.220  1.9370 -0.6274  1.1252
21663SOL     OW76642   0.768   1.820   7.790 -0.1266 -0.4602 -0.5775
21663SOL    HW176643   0.804   1.752   7.855 -0.1193 -0.9710 -1.1191
21663SOL    HW276644   0.844   1.876   7.756 -0.1603 -0.0294  0.0292
21664SOL     OW76645   9.956   6.475   4.939  0.0736 -0.6283  0.8431
21664SOL    HW176646   9.857   6.482   4.937  0.0396 -1.3369 -2.0869
21664SOL    HW276647   9.983   6.396   4.993 -0.9031  0.2025  2.5690
21665SOL     OW76648   6.912   7.388   4.144  0.0136  0.1615 -0.0641
21665SOL    HW176649   6.821   7.375   4.184  0.6902 -0.6707  1.2098
21665SOL    HW276650   6.980   7.392   4.217  1.0196  0.6910 -1.0258
21666SOL     OW76651   6.673   1.688   1.071  0.1972  0.0307 -0.2619
21666SOL    HW176652   6.764   1.669   1.034  0.2161  1.0497 -0.7327
21666SOL    HW276653   6.647   1.782   1.049 -0.6806 -0.0435  0.4703
21667SOL     OW76654   8.912   0.029   2.175 -0.3971  0.4056 -0.3239
21667SOL    HW176655   8.882  -0.038   2.242  0.1911 -0.2893 -0.7469
21667SOL    HW276656   8.970   0.098   2.220  1.8293 -1.2915 -0.4821
21668SOL     OW76657   7.535   8.048   3.848  0.7113 -0.1296  0.2741
21668SOL    HW176658   7.593   7.987   3.794  2.1393 -0.2290  1.8853
21668SOL    HW276659   7.439   8.023   3.835  1.2434 -2.3311  0.4328
21669SOL     OW76660   4.407   6.268   1.114  0.0721  0.7484 -0.1041
21669SOL    HW176661   4.481   6.201   1.110 -0.9285 -0.4330  0.9102
21669SOL    HW276662   4.319   6.220   1.119 -0.6630  2.1420  0.4288
21670SOL     OW76663   9.086   8.929   0.489  0.3965  0.3869 -0.1990
21670SOL    HW176664   9.181   8.901   0.501  0.3621  0.8069  1.0893
21670SOL    HW276665   9.059   8.913   0.394  1.9192  0.7832 -0.7205
21671SOL     OW76666   4.903   5.393   7.327 -0.4213  0.1223 -0.4722
21671SOL    HW176667   4.863   5.456   7.393  0.8373 -1.7150  2.1079
21671SOL    HW276668   4.939   5.313   7.374  1.4791 -0.7592 -3.2887
21672SOL     OW76669   9.721   3.631   2.198 -0.5592 -0.3331  0.1897
21672SOL    HW176670   9.808   3.591   2.168  0.5003  1.2016  1.1204
21672SOL    HW276671   9.732   3.667   2.291 -2.0395  0.4022  0.0907
21673SOL     OW76672   4.106   9.193   3.032  0.1266  0.3629  0.2465
21673SOL    HW176673   4.170   9.184   3.108  0.9529  0.1815 -0.4651
21673SOL    HW276674   4.078   9.288   3.023 -1.5236  0.0881  2.0184
21674SOL     OW76675   8.603   2.085   8.038  0.3081 -0.1698  0.1484
21674SOL    HW176676   8.603   1.993   8.076 -1.7276 -0.7961 -1.2434
21674SOL    HW276677   8.671   2.090   7.964 -0.0421 -0.7686 -0.2241
21675SOL     OW76678   1.386   1.542   4.629  0.1839  0.3195 -0.4371
21675SOL    HW176679   1.326   1.529   4.550 -0.3641 -0.0441  0.0258
21675SOL    HW276680   1.361   1.476   4.700  0.4832  0.8304  0.1475
21676SOL     OW76681   8.685   8.949   4.952  0.1660 -0.0024  0.3758
21676SOL    HW176682   8.585   8.948   4.940 -0.0280  0.4910  1.8734
21676SOL    HW276683   8.724   8.871   4.904 -1.0529 -0.8000  0.6351
21677SOL     OW76684   1.977   5.487   8.024 -0.1110 -0.2152  0.4235
21677SOL    HW176685   1.921   5.551   7.971 -0.4706 -2.0938 -1.5322
21677SOL    HW276686   2.067   5.479   7.981  0.1207 -0.6144  0.9768
21678SOL     OW76687   2.484   2.794   4.319 -0.5512 -0.0822  0.1641
21678SOL    HW176688   2.519   2.881   4.282 -1.1415 -0.4704 -1.3368
21678SOL    HW276689   2.553   2.723   4.308 -0.6493 -0.1509 -0.0111
21679SOL     OW76690   9.257   3.414   2.728 -0.2340  0.0983  0.3658
21679SOL    HW176691   9.289   3.473   2.802  1.0168 -0.1723  0.0539
21679SOL    HW276692   9.157   3.410   2.729 -0.3649  2.6808  0.0236
21680SOL     OW76693   1.017   4.534   1.665  0.0131  0.2403  0.8034
21680SOL    HW176694   1.025   4.626   1.705  0.4551  0.5095  0.1164
21680SOL    HW276695   1.018   4.466   1.738  0.8447  0.7243  1.2632
21681SOL     OW76696   2.243   5.421   7.927 -0.6124 -0.4900  0.4165
21681SOL    HW176697   2.262   5.383   7.837 -1.2186  0.7280 -0.2426
21681SOL    HW276698   2.329   5.453   7.968 -0.2516 -1.6003  0.5426
21682SOL     OW76699   0.104   5.462   0.912 -0.2942 -0.0737  0.1780
21682SOL    HW176700   0.054   5.471   0.998 -1.1386  0.5177 -0.3755
21682SOL    HW276701   0.049   5.497   0.837  0.4442 -0.5815 -0.6130
21683SOL     OW76702   8.208   0.179   6.571  0.2502  0.2912 -0.2829
21683SOL    HW176703   8.288   0.167   6.511  0.8822  1.5183  0.3046
21683SOL    HW276704   8.191   0.093   6.620  0.4240 -0.3743 -1.3525
21684SOL     OW76705   9.219   7.379   1.971 -0.3402  0.5071  0.1418
21684SOL    HW176706   9.263   7.336   2.049 -1.8915  1.3633  1.5225
21684SOL    HW276707   9.119   7.370   1.979 -0.6169  2.4154 -0.6475
21685SOL     OW76708   7.432   3.820   3.441 -0.4717  0.3950  0.4074
21685SOL    HW176709   7.362   3.794   3.508 -1.2187  1.2927 -0.0259
21685SOL    HW276710   7.391   3.826   3.351  0.5223 -0.7181 -0.1401
21686SOL     OW76711   5.772   8.597   4.720  0.4114 -0.3385 -0.2844
21686SOL    HW176712   5.850   8.561   4.670  1.3142 -0.0429  0.8765
21686SOL    HW276713   5.694   8.607   4.658  1.7201  0.7532 -1.7825
21687SOL     OW76714   0.368   1.935   5.929  0.2438  0.0686  0.8247
21687SOL    HW176715   0.334   1.915   6.021  0.1782 -0.2982  0.7193
21687SOL    HW276716   0.451   1.990   5.936  1.5050 -1.8230  1.1689
21688SOL     OW76717   9.389   1.237   6.207 -0.2939  0.3504  0.3559
21688SOL    HW176718   9.374   1.210   6.302 -0.5090  0.9331  0.4926
21688SOL    HW276719   9.413   1.334   6.204  1.0213  0.0243 -0.0742
21689SOL     OW76720   1.992   1.225   2.983 -0.4558  0.0844 -0.0655
21689SOL    HW176721   2.015   1.129   3.003 -1.4385 -0.0623  0.3768
21689SOL    HW276722   1.910   1.228   2.925  0.8095  0.5988 -1.8649
21690SOL     OW76723   7.678   9.029   4.976 -0.1343  0.1595 -0.5635
21690SOL    HW176724   7.636   8.981   5.053 -0.6671  0.2560 -0.7930
21690SOL    HW276725   7.768   9.064   5.004  0.1598 -0.7787 -0.3336
21691SOL     OW76726   8.320   9.023   6.927 -0.5108 -0.1376 -0.0685
21691SOL    HW176727   8.284   9.039   7.019  1.7345 -1.4591  1.1159
21691SOL    HW276728   8.318   8.925   6.908 -0.0725  0.0373 -1.0202
21692SOL     OW76729   3.209   7.457   7.528 -0.1980 -0.1751  0.4481
21692SOL    HW176730   3.138   7.523   7.508  0.1029  0.1205  0.3492
21692SOL    HW276731   3.249   7.477   7.618 -0.5864 -0.6473  0.7280
21693SOL     OW76732   7.439   1.506   4.841 -0.4655 -0.4007 -0.0646
21693SOL    HW176733   7.408   1.439   4.909 -1.5294  0.5524  0.3880
21693SOL    HW276734   7.400   1.595   4.861  0.7801  0.3306 -0.7985
21694SOL     OW76735   9.067   3.880   0.701  0.0965  0.1440  0.6380
21694SOL    HW176736   9.021   3.869   0.789  1.8063 -0.5704  1.4489
21694SOL    HW276737   9.145   3.941   0.710  0.1777  0.2182 -0.4314
21695SOL     OW76738   1.908   5.951   4.756  0.3708 -0.0145 -0.8581
21695SOL    HW176739   1.873   5.863   4.724  0.3937  0.4210 -2.1006
21695SOL    HW276740   2.006   5.956   4.741  0.0832  0.9379 -2.4961
21696SOL     OW76741   3.388   2.110   7.512 -0.0480 -0.2711 -0.0662
21696SOL    HW176742   3.433   2.107   7.423  1.3583  0.9002  0.5671
21696SOL    HW276743   3.407   2.198   7.555 -2.1157 -0.1637  0.6885
21697SOL     OW76744   9.834   2.291   6.745  0.0828  0.0701 -0.3088
21697SOL    HW176745   9.921   2.271   6.701  0.5768  0.3532  0.5239
21697SOL    HW276746   9.804   2.383   6.721  0.9766  0.6983  0.9388
21698SOL     OW76747   3.515   9.207   1.623 -0.1254  0.5799  0.4854
21698SOL    HW176748   3.486   9.191   1.528 -0.0277  3.5475 -0.0793
21698SOL    HW276749   3.602   9.161   1.639 -1.1861 -1.7341 -0.2109
21699SOL     OW76750   7.943   7.510   2.511  0.3000  0.1139 -0.5022
21699SOL    HW176751   7.845   7.522   2.523  0.3640  2.1681 -1.8134
21699SOL    HW276752   7.960   7.429   2.454 -0.7996  1.6475 -3.0858
21700SOL     OW76753   1.836   7.110   7.530 -0.7234 -0.0516 -0.0803
21700SOL    HW176754   1.756   7.162   7.560 -0.9436 -0.9800  0.9641
21700SOL    HW276755   1.918   7.148   7.575 -0.5882  0.7876 -1.0154
21701SOL     OW76756   6.692   7.877   4.206 -0.0119 -0.5958  0.4823
21701SOL    HW176757   6.620   7.808   4.216  0.2999 -0.9996 -0.0629
21701SOL    HW276758   6.659   7.964   4.243 -0.6157 -0.8906  0.6494
21702SOL     OW76759   1.191   5.727   2.344  0.0135 -0.4178 -0.3747
21702SOL    HW176760   1.259   5.774   2.402  0.6873 -1.1445 -0.5660
21702SOL    HW276761   1.194   5.767   2.252  0.8367 -1.0550 -0.6347
21703SOL     OW76762   1.891   6.533   0.961  0.2375  0.5982 -0.6323
21703SOL    HW176763   1.983   6.524   0.999  0.1983  0.8145 -0.4865
21703SOL    HW276764   1.898   6.564   0.866  0.3615 -0.6848 -1.0491
21704SOL     OW76765   0.199   3.399   3.259 -0.2123 -0.3989 -0.0374
21704SOL    HW176766   0.193   3.390   3.160  0.4706 -0.4056 -0.0752
21704SOL    HW276767   0.278   3.454   3.284 -0.3384 -0.4592  0.5096
21705SOL     OW76768   4.350   5.067   7.006 -0.2196  0.0317  0.0361
21705SOL    HW176769   4.357   4.994   6.938  2.2725 -0.4253  0.7545
21705SOL    HW276770   4.341   5.155   6.959 -0.1853 -0.4372 -0.8642
21706SOL     OW76771   1.096   1.806   3.675  0.6826  0.0804 -0.2293
21706SOL    HW176772   1.162   1.754   3.621  0.6637 -1.1974  0.9334
21706SOL    HW276773   1.013   1.822   3.622  0.7479 -0.9639 -0.6523
21707SOL     OW76774   4.394   0.832   5.253  0.3725  0.3730 -0.1759
21707SOL    HW176775   4.307   0.812   5.208  0.4504  0.7161 -0.4828
21707SOL    HW276776   4.421   0.754   5.309  0.3761 -0.1532 -0.8968
21708SOL     OW76777   3.162   1.110   6.071 -0.5642  0.4060 -0.0968
21708SOL    HW176778   3.111   1.106   6.157  0.3581  0.3820  0.4516
21708SOL    HW276779   3.248   1.158   6.086  0.4917 -1.3148 -0.5629
21709SOL     OW76780   9.835   3.970   7.013 -0.2335  0.4209  0.3363
21709SOL    HW176781   9.810   3.905   7.084  1.9110 -0.4682  0.3286
21709SOL    HW276782   9.847   4.061   7.054 -0.0483  0.1305  0.9353
21710SOL     OW76783   9.561   3.357   7.144  0.2603 -0.0802 -0.3817
21710SOL    HW176784   9.557   3.402   7.233 -1.1487 -1.8829  0.5188
21710SOL    HW276785   9.501   3.405   7.080  0.7667  0.8326 -0.1832
21711SOL     OW76786   8.356   6.914   3.825 -0.2833 -0.6358 -0.4516
21711SOL    HW176787   8.279   6.970   3.794 -0.9118 -0.8767  0.6536
21711SOL    HW276788   8.322   6.824   3.854  0.7956 -1.8684 -2.8894
21712SOL     OW76789   9.967   5.879   4.484 -0.0361 -0.1338  0.0720
21712SOL    HW176790  10.041   5.945   4.486 -0.1745  0.0343 -0.3914
21712SOL    HW276791   9.991   5.800   4.541 -0.0942  0.5502  1.0411
21713SOL     OW76792   5.184   2.031   4.770  0.2002  0.0694  0.1448
21713SOL    HW176793   5.268   2.082   4.787  0.1205 -0.1624  1.2351
21713SOL    HW276794   5.164   1.971   4.847 -0.9654  0.1194 -0.0994
21714SOL     OW76795   9.687   4.471   5.484 -0.0774 -0.1549 -0.3211
21714SOL    HW176796   9.644   4.384   5.509 -2.0701  1.6044  2.7337
21714SOL    HW276797   9.757   4.494   5.552  1.2549  0.0977 -1.7577
21715SOL     OW76798   9.352   4.931   5.343  0.0306 -0.4023  0.4361
21715SOL    HW176799   9.305   4.976   5.419 -0.3247  1.4343 -0.8516
21715SOL    HW276800   9.331   4.978   5.258  1.0930 -1.9397 -0.7089
21716SOL     OW76801   6.457   2.706   4.193  0.2502 -0.0049 -0.2930
21716SOL    HW176802   6.437   2.608   4.194 -1.1908  0.2689 -0.5778
21716SOL    HW276803   6.424   2.748   4.277 -0.0373  0.3999 -0.6022
21717SOL     OW76804   3.208   6.129   7.090  0.2317  0.0219  0.2429
21717SOL    HW176805   3.239   6.142   7.185 -0.4095  1.1525  0.3065
21717SOL    HW276806   3.152   6.046   7.084 -1.1075  0.8371  1.2011
21718SOL     OW76807   3.653   1.867   2.332  0.1293 -0.9216  0.2529
21718SOL    HW176808   3.628   1.861   2.429  2.1003 -0.9287  0.7825
21718SOL    HW276809   3.587   1.814   2.278 -3.7120  2.7472  1.0181
21719SOL     OW76810   8.888   0.170   7.985  0.2285  0.5951  0.0552
21719SOL    HW176811   8.863   0.088   7.934  1.7386  0.2489 -0.1466
21719SOL    HW276812   8.911   0.244   7.921  1.9131  0.2258  0.2201
21720SOL     OW76813   1.685   2.617   6.077  0.1362 -0.4281 -0.3826
21720SOL    HW176814   1.777   2.632   6.113 -0.1245  0.0167  0.0966
21720SOL    HW276815   1.686   2.629   5.977  0.5676 -0.3009 -0.3640
21721SOL     OW76816   4.520   4.063   6.803  0.1884  0.0593  0.0761
21721SOL    HW176817   4.444   4.012   6.843  0.2181 -0.4435 -0.5064
21721SOL    HW276818   4.503   4.161   6.813 -0.1079 -0.0615  0.7510
21722SOL     OW76819   5.564   0.524   3.433 -0.7092  0.1053 -0.2969
21722SOL    HW176820   5.632   0.451   3.436 -0.8985 -0.0209  1.2766
21722SOL    HW276821   5.484   0.492   3.383  0.0028 -0.0777 -1.3310
21723SOL     OW76822   2.515   4.901   0.706  0.3992 -0.1876 -0.7767
21723SOL    HW176823   2.613   4.919   0.719  0.6961 -1.1380 -1.6288
21723SOL    HW276824   2.500   4.865   0.614 -0.7032 -0.4456 -0.4993
21724SOL     OW76825   3.478   6.588   7.930 -0.6393  0.4147 -0.3014
21724SOL    HW176826   3.426   6.503   7.927 -1.4423  0.8780  0.2490
21724SOL    HW276827   3.572   6.571   7.901 -0.0910 -1.1483  2.2997
21725SOL     OW76828   7.862   8.801   7.017 -0.3714  0.4299 -0.1027
21725SOL    HW176829   7.800   8.722   7.020 -0.4406  0.5047  0.5227
21725SOL    HW276830   7.924   8.797   7.096 -0.9919  1.5130  0.4369
21726SOL     OW76831   3.841   1.624   4.537  0.5509  0.4809  0.0338
21726SOL    HW176832   3.745   1.650   4.535  0.9422  2.0195  0.1696
21726SOL    HW276833   3.895   1.701   4.572  1.7246 -0.6848  0.8320
21727SOL     OW76834   5.519   0.420   1.177  0.1530 -0.1146  0.6037
21727SOL    HW176835   5.507   0.507   1.128 -0.9271 -0.3072  0.5023
21727SOL    HW276836   5.609   0.382   1.157  0.3418  0.6187  0.0528
21728SOL     OW76837   8.449   6.701   8.074  0.5347  0.4805  0.0825
21728SOL    HW176838   8.542   6.672   8.053  0.9055  1.7027  0.0095
21728SOL    HW276839   8.447   6.800   8.089 -0.7726  0.4866 -0.0545
21729SOL     OW76840   7.630   2.194   5.532 -0.2546 -0.0283 -0.1707
21729SOL    HW176841   7.673   2.284   5.547  1.2216 -0.3804 -2.0540
21729SOL    HW276842   7.651   2.135   5.609 -0.2523  0.8806  0.5424
21730SOL     OW76843   4.778   9.976   2.447  0.2541 -0.1277 -0.0608
21730SOL    HW176844   4.875   9.994   2.432  0.4637  1.3490  2.6993
21730SOL    HW276845   4.745  10.033   2.522 -1.8779 -3.2557  1.4818
21731SOL     OW76846   8.604   6.592   4.194  0.4028 -0.2584  0.1854
21731SOL    HW176847   8.549   6.566   4.115  0.4889  0.5854 -0.1572
21731SOL    HW276848   8.575   6.540   4.274 -0.3226 -0.4269 -0.1846
21732SOL     OW76849   0.258   7.247   1.956  0.2161  0.5654  0.3710
21732SOL    HW176850   0.180   7.204   2.002 -0.2624 -1.1267 -1.9618
21732SOL    HW276851   0.327   7.271   2.025 -0.5059 -1.8426  2.0170
21733SOL     OW76852   0.857   3.042   6.563 -0.2767  0.0459  0.2909
21733SOL    HW176853   0.796   3.121   6.555 -0.8136 -0.4916 -1.1236
21733SOL    HW276854   0.943   3.062   6.517  0.4883  0.6678  1.9703
21734SOL     OW76855   4.153   7.973   0.952  0.1363  0.0863 -0.3324
21734SOL    HW176856   4.172   7.899   1.016  0.2878  2.1365  2.0892
21734SOL    HW276857   4.238   8.021   0.930 -0.5440  2.3697  1.7779
21735SOL     OW76858   8.897   6.665   2.558 -0.0369 -0.2945 -0.0978
21735SOL    HW176859   8.866   6.689   2.650  0.5504  1.4387 -0.3441
21735SOL    HW276860   8.978   6.607   2.564  0.1115 -0.0307  0.4629
21736SOL     OW76861   7.338   9.415   5.503 -0.1067 -0.1167  0.0596
21736SOL    HW176862   7.416   9.372   5.548  0.1063  0.3080  0.0942
21736SOL    HW276863   7.368   9.495   5.451 -0.5631  0.2830  0.3906
21737SOL     OW76864   9.047   1.913   6.901 -0.0183 -0.2200 -0.0997
21737SOL    HW176865   9.108   1.977   6.948 -2.3425  2.1728 -0.2789
21737SOL    HW276866   9.045   1.935   6.803  1.5187 -2.5213 -0.6815
21738SOL     OW76867   8.582   8.167   2.134  0.0879  0.5816 -0.2677
21738SOL    HW176868   8.557   8.157   2.037 -1.7056 -2.1347  0.4248
21738SOL    HW276869   8.507   8.212   2.183  0.0512 -0.0984  0.2909
21739SOL     OW76870   1.808   2.437   1.030 -0.0125 -0.0101  0.4819
21739SOL    HW176871   1.725   2.423   0.977  0.7113 -0.5532 -0.5140
21739SOL    HW276872   1.860   2.513   0.992  1.0216 -1.0589 -0.2348
21740SOL     OW76873   6.998   2.380   2.173 -0.6250  0.0350  0.3581
21740SOL    HW176874   6.916   2.378   2.230 -0.9148 -0.3435 -0.0769
21740SOL    HW276875   6.998   2.302   2.110 -2.4968  2.7712 -3.2270
21741SOL     OW76876   3.053   6.414   3.282  0.0257 -0.5158  0.2733
21741SOL    HW176877   3.117   6.490   3.269 -2.5956  1.6546 -0.5039
21741SOL    HW276878   2.967   6.449   3.320 -2.3875 -2.5695 -3.0213
21742SOL     OW76879   7.472   3.471   3.214  0.5184  0.5695  0.2031
21742SOL    HW176880   7.511   3.402   3.153 -0.5990 -1.6916  1.9612
21742SOL    HW276881   7.511   3.460   3.306  1.4110  3.2566  0.1643
21743SOL     OW76882   8.139   9.464   0.514  0.1513 -0.0244  0.4672
21743SOL    HW176883   8.111   9.529   0.585 -0.9293  0.3327 -0.2719
21743SOL    HW276884   8.060   9.410   0.486  0.3329  0.5221 -1.1689
21744SOL     OW76885   9.987   0.596   0.639 -0.3234 -0.5013  0.1780
21744SOL    HW176886  10.046   0.538   0.584  0.8475  1.5318 -0.7831
21744SOL    HW276887  10.023   0.603   0.731  1.1674  0.9771 -0.4862
21745SOL     OW76888   3.595   1.886   4.336 -0.0232  0.2858 -0.0657
21745SOL    HW176889   3.551   1.930   4.257 -0.8710  1.2965  0.9658
21745SOL    HW276890   3.530   1.825   4.380  0.4222 -0.1955 -0.0707
21746SOL     OW76891   9.782   9.473   7.282  0.1917 -0.7094  0.1432
21746SOL    HW176892   9.865   9.460   7.228  0.5574 -0.5709  0.6738
21746SOL    HW276893   9.744   9.383   7.306  0.8010 -0.7863  0.8437
21747SOL     OW76894   2.001   9.792   7.952 -0.0138  0.4306  0.0354
21747SOL    HW176895   1.975   9.773   8.046  0.3584 -0.6077 -0.0679
21747SOL    HW276896   1.936   9.747   7.890 -2.8767  4.6746 -0.2378
21748SOL     OW76897   7.862   0.562   3.992  0.2347 -0.0140 -0.1211
21748SOL    HW176898   7.866   0.598   3.899 -4.3320 -0.4352 -0.6141
21748SOL    HW276899   7.883   0.465   3.992 -0.9262 -0.2683 -0.9126
21749SOL     OW76900   8.815   9.038   0.501 -0.2217 -0.1385  0.0755
21749SOL    HW176901   8.908   9.005   0.486  0.1061  0.8656 -0.1167
21749SOL    HW276902   8.753   8.994   0.437  0.1190 -0.8187  0.2089
21750SOL     OW76903   8.618   0.022   4.354 -0.7007  0.1720  0.1719
21750SOL    HW176904   8.582   0.105   4.397  1.9099  1.5139 -0.1358
21750SOL    HW276905   8.662  -0.035   4.423 -0.5986  0.0944  0.0437
21751SOL     OW76906   1.903   3.512   2.056  0.3156  0.1433 -0.3581
21751SOL    HW176907   1.817   3.562   2.062 -0.5254 -1.1305 -1.7531
21751SOL    HW276908   1.963   3.541   2.131  0.0549  3.6091 -1.4084
21752SOL     OW76909   8.511   4.069   1.111  0.2179  0.7326  0.3853
21752SOL    HW176910   8.505   4.148   1.051 -0.4464 -1.1729 -2.1489
21752SOL    HW276911   8.434   4.069   1.175 -0.5263  1.4223 -0.5044
21753SOL     OW76912   5.000   3.277   7.953 -0.3356  0.9593 -0.4078
21753SOL    HW176913   4.999   3.335   7.872 -0.5410  2.7464  0.8439
21753SOL    HW276914   5.045   3.325   8.028  1.5820 -1.4071  0.0325
21754SOL     OW76915   8.496   4.512   5.960 -0.6986 -0.1550 -0.3987
21754SOL    HW176916   8.439   4.434   5.935 -0.8369 -0.3471  0.4899
21754SOL    HW276917   8.576   4.516   5.901 -1.3494 -0.2098 -1.2949
21755SOL     OW76918   7.730   7.407   8.010  0.2113  0.1469 -0.1230
21755SOL    HW176919   7.670   7.331   8.033  0.7247 -0.5270 -1.0060
21755SOL    HW276920   7.677   7.480   7.967 -0.1589  0.0247  0.1224
21756SOL     OW76921   9.921   9.859   5.907 -0.8703  0.4677 -0.2193
21756SOL    HW176922   9.894   9.841   6.001 -1.4890  1.1077 -0.2721
21756SOL    HW276923   9.939   9.956   5.896  0.3065  0.2238 -0.4832
21757SOL     OW76924   8.317   0.956   4.986 -0.4378 -0.5700  0.5180
21757SOL    HW176925   8.303   0.892   4.910  0.2327  0.0796 -0.1671
21757SOL    HW276926   8.286   1.047   4.958  1.0545 -0.0407  0.5352
21758SOL     OW76927   0.948   8.578   1.230 -0.2757  0.5277 -0.1359
21758SOL    HW176928   0.909   8.517   1.161 -0.6077  0.0632  0.4650
21758SOL    HW276929   1.048   8.572   1.226 -0.2892 -3.1237  2.6213
21759SOL     OW76930   8.624   0.749   2.323 -0.0142  0.6030  0.6727
21759SOL    HW176931   8.696   0.783   2.262  0.1847  2.0904  1.7199
21759SOL    HW276932   8.603   0.818   2.392  1.4318 -1.9895  3.7962
21760SOL     OW76933   7.920   4.674   6.508  0.4785  0.4647 -0.5393
21760SOL    HW176934   7.984   4.599   6.488  2.1862  1.4809  0.9595
21760SOL    HW276935   7.826   4.641   6.498  1.1973 -1.9205  0.2816
21761SOL     OW76936   7.445   0.557   3.138 -0.2873 -0.5677  0.1856
21761SOL    HW176937   7.506   0.516   3.071 -0.7287 -0.6003 -0.1981
21761SOL    HW276938   7.436   0.496   3.217 -0.5476 -0.9784 -0.1630
21762SOL     OW76939   1.976   5.180   2.962 -0.3120 -0.0912 -0.1244
21762SOL    HW176940   2.055   5.149   2.909 -1.6212 -0.7793 -1.7172
21762SOL    HW276941   1.997   5.172   3.060  1.6828  0.0232 -0.5117
21763SOL     OW76942   9.000   9.189   7.480 -0.2834 -0.4868  0.4098
21763SOL    HW176943   8.951   9.237   7.406 -1.0342  0.0491  1.2378
21763SOL    HW276944   9.062   9.121   7.440  0.8235  1.1768 -0.7970
21764SOL     OW76945   5.510   2.795   0.877  0.1214  0.6349 -0.2084
21764SOL    HW176946   5.587   2.837   0.925 -0.4350  0.7842  0.5677
21764SOL    HW276947   5.534   2.781   0.781  1.6032 -0.5664  0.3216
21765SOL     OW76948   8.135   0.849   6.631  0.5571 -0.2693  0.3534
21765SOL    HW176949   8.181   0.763   6.609 -0.2979 -0.7906  0.5887
21765SOL    HW276950   8.173   0.887   6.715  0.0657 -1.0614  0.9299
21766SOL     OW76951   9.946   7.762   8.107 -0.0838  0.3101  0.1338
21766SOL    HW176952   9.999   7.732   8.027 -0.0216 -1.7798  0.9327
21766SOL    HW276953   9.858   7.716   8.108 -0.2422  0.6200  1.0662
21767SOL     OW76954   6.095   4.511   0.746  0.0368 -0.2691 -0.3004
21767SOL    HW176955   6.181   4.464   0.763 -0.6803 -0.5038  2.9984
21767SOL    HW276956   6.090   4.594   0.802 -2.2427 -0.7265  0.2167
21768SOL     OW76957   2.834   0.100   4.908 -0.4339  0.3264  0.1056
21768SOL    HW176958   2.901   0.171   4.926  0.2949  0.4300 -2.7536
21768SOL    HW276959   2.879   0.010   4.910 -1.0820  0.0149  2.3500
21769SOL     OW76960   3.102   2.284   1.473 -0.8727  0.3604  0.3022
21769SOL    HW176961   3.018   2.329   1.502 -0.8705  0.1645  0.6168
21769SOL    HW276962   3.174   2.300   1.541 -1.0210 -0.5527  0.6852
21770SOL     OW76963   4.534   5.571   3.101  0.2459 -0.2981  0.3735
21770SOL    HW176964   4.524   5.474   3.076 -0.6262 -0.0913 -0.1130
21770SOL    HW276965   4.443   5.613   3.107  0.6583  0.7280 -0.4002
21771SOL     OW76966   6.637   8.587   6.920  0.0583  0.2095  0.0428
21771SOL    HW176967   6.712   8.522   6.902  1.0401  1.2508  0.2990
21771SOL    HW276968   6.573   8.586   6.843  0.8871  0.0527 -0.6598
21772SOL     OW76969   0.451   4.567   4.837 -0.0417  0.1440  0.2286
21772SOL    HW176970   0.410   4.508   4.767  0.7895  0.6908 -0.7502
21772SOL    HW276971   0.536   4.606   4.801  0.0296  0.9951  1.2979
21773SOL     OW76972   1.678   4.968   7.007  0.2577  0.2988 -0.3071
21773SOL    HW176973   1.744   4.897   6.982 -0.3245 -1.1091  1.9860
21773SOL    HW276974   1.727   5.051   7.035  1.0585 -0.5468  0.8420
21774SOL     OW76975   4.943   2.396   1.147  0.2124 -0.2690 -0.5980
21774SOL    HW176976   4.945   2.301   1.179 -0.0799  0.0869  0.5075
21774SOL    HW276977   4.910   2.399   1.053 -0.3979 -1.2071 -0.4201
21775SOL     OW76978   0.289   9.721   3.839  0.5218  0.8479 -0.7944
21775SOL    HW176979   0.296   9.804   3.894 -0.5150  1.0880 -1.0153
21775SOL    HW276980   0.364   9.659   3.862  1.7486  2.1695 -1.1612
21776SOL     OW76981   3.894   9.412   5.171  0.1760  0.4380 -0.2321
21776SOL    HW176982   3.863   9.399   5.266  1.7417 -0.5312  0.1675
21776SOL    HW276983   3.946   9.497   5.165 -1.7944  1.6341 -0.7206
21777SOL     OW76984   1.013   3.482   6.952  0.3637 -0.4610  0.0736
21777SOL    HW176985   1.074   3.446   6.881 -0.3645  1.5556 -1.6197
21777SOL    HW276986   1.065   3.494   7.036  1.6016 -1.5105 -0.5105
21778SOL     OW76987   8.094   9.395   1.824  0.4745  0.4230  0.1365
21778SOL    HW176988   8.047   9.425   1.742  0.1348  0.1471  0.2275
21778SOL    HW276989   8.172   9.455   1.842  0.4312  0.6029 -0.2722
21779SOL     OW76990   3.014   4.873   3.372 -0.5217 -0.2380  0.0629
21779SOL    HW176991   2.969   4.892   3.459 -0.6507  1.2325 -0.3169
21779SOL    HW276992   3.027   4.958   3.322  0.0579 -1.0098 -1.1150
21780SOL     OW76993   8.800   5.517   1.797  0.9913 -0.2580 -0.3229
21780SOL    HW176994   8.705   5.486   1.807  0.7760  0.0812 -1.2551
21780SOL    HW276995   8.818   5.589   1.864 -0.1160  1.2727 -1.6371
21781SOL     OW76996   9.015   2.009   4.506  0.1589 -0.3346  0.5795
21781SOL    HW176997   9.064   2.011   4.419 -0.6931 -0.2441  0.1055
21781SOL    HW276998   8.997   2.102   4.537 -2.6016 -0.3622 -0.8701
21782SOL     OW76999   0.594   9.564   7.442  0.2245  0.2081  0.1617
21782SOL    HW177000   0.646   9.480   7.424 -0.0806 -0.4843  2.2612
21782SOL    HW277001   0.498   9.541   7.456 -0.2649  1.2074 -1.4556
21783SOL     OW77002   0.306   4.061   5.014 -0.1618 -0.7256  0.8060
21783SOL    HW177003   0.300   4.063   5.113 -1.8607 -0.2255  0.7164
21783SOL    HW277004   0.234   4.002   4.977 -0.8629  0.7322 -0.2028
21784SOL     OW77005   7.124   2.126   0.616  0.1914 -0.1222  0.0926
21784SOL    HW177006   7.072   2.145   0.699  0.8134 -1.0178  0.7031
21784SOL    HW277007   7.153   2.213   0.574  0.5049  0.3368  1.2247
21785SOL     OW77008   7.377   2.104   5.541 -0.0315 -0.7257 -0.3075
21785SOL    HW177009   7.473   2.134   5.539  0.1021 -0.9613  1.8399
21785SOL    HW277010   7.370   2.013   5.500  0.6432 -0.6619 -0.5717
21786SOL     OW77011   3.238   2.508   3.485 -0.1596  0.1389  0.1908
21786SOL    HW177012   3.286   2.456   3.414  0.9952  2.3103 -0.6826
21786SOL    HW277013   3.247   2.461   3.573 -0.1726 -1.7296 -0.7933
21787SOL     OW77014   2.355   8.950   8.027  0.0988 -0.7081 -0.3295
21787SOL    HW177015   2.365   8.986   8.120 -0.6347  1.1374 -0.9416
21787SOL    HW277016   2.304   8.864   8.030 -0.5202 -0.3180  0.9208
21788SOL     OW77017   9.906   8.818   7.804  0.3459 -0.4427 -0.0747
21788SOL    HW177018   9.919   8.809   7.705 -0.4398  2.3590 -0.4803
21788SOL    HW277019   9.810   8.803   7.827  0.1705  0.6896 -0.0066
21789SOL     OW77020   0.107   6.517   2.827  0.2533  0.8951  0.4216
21789SOL    HW177021   0.061   6.481   2.746  0.2110  0.7522  0.5083
21789SOL    HW277022   0.134   6.441   2.886  2.0591  0.8787 -0.4058
21790SOL     OW77023   8.857   0.401   5.502 -0.6549  0.6492 -0.6207
21790SOL    HW177024   8.787   0.358   5.446 -1.3020 -1.7745  1.9785
21790SOL    HW277025   8.934   0.338   5.515  1.8846  3.0711 -3.0162
21791SOL     OW77026   6.896   6.827   7.409 -0.0970  0.6614 -0.0953
21791SOL    HW177027   6.855   6.756   7.467  0.8293  0.7621  0.6961
21791SOL    HW277028   6.892   6.798   7.314 -0.5352 -0.0552  0.1364
21792SOL     OW77029   3.219   6.920   0.832  0.5806  0.7294 -0.1812
21792SOL    HW177030   3.170   6.981   0.894  0.2135  1.5964 -1.3116
21792SOL    HW277031   3.169   6.914   0.745  1.5521  0.2270 -0.7114
21793SOL     OW77032   8.837   2.590   3.203 -0.3519  0.4744  0.3203
21793SOL    HW177033   8.761   2.633   3.155 -1.0330  0.9919  1.8231
21793SOL    HW277034   8.818   2.492   3.215  0.0971  0.2203 -0.9708
21794SOL     OW77035   5.862   1.344   6.487  0.1806 -0.7407 -0.6974
21794SOL    HW177036   5.844   1.295   6.401 -1.0326  0.3619 -1.0840
21794SOL    HW277037   5.872   1.441   6.468 -0.1163 -0.4881  0.4288
21795SOL     OW77038   7.205   4.465   2.539  0.0206  0.4059 -0.0791
21795SOL    HW177039   7.182   4.407   2.617  4.9796 -1.7952 -0.0846
21795SOL    HW277040   7.141   4.447   2.465 -2.1676 -0.6128  1.9870
21796SOL     OW77041   5.335   1.792   4.340 -0.5913 -0.4459 -0.1552
21796SOL    HW177042   5.339   1.745   4.251 -1.3710  2.5204 -1.8247
21796SOL    HW277043   5.253   1.848   4.345  0.1849  0.5723  1.8568
21797SOL     OW77044   8.807   4.359   7.293  0.4864 -0.2539  0.7828
21797SOL    HW177045   8.819   4.447   7.248  0.7154 -1.2283 -1.1266
21797SOL    HW277046   8.722   4.360   7.346 -1.0127  0.2070 -1.5158
21798SOL     OW77047   2.690   9.461   0.934  0.5734  0.0318  0.1246
21798SOL    HW177048   2.668   9.540   0.990 -1.4389 -0.0844 -0.4815
21798SOL    HW277049   2.706   9.490   0.840 -0.4222 -0.3241 -0.1497
21799SOL     OW77050   3.082   9.354   3.925 -0.0689 -0.1732 -0.3499
21799SOL    HW177051   2.987   9.322   3.928  0.3055 -1.1740  1.3015
21799SOL    HW277052   3.087   9.447   3.962 -0.9007  1.2728 -3.6468
21800SOL     OW77053   1.737   2.939   0.776  0.1308  0.3412 -0.0021
21800SOL    HW177054   1.665   2.898   0.831  0.8520 -0.7941  0.1155
21800SOL    HW277055   1.698   2.974   0.691 -0.3335 -1.7020 -0.6609
21801SOL     OW77056   0.341   2.424   7.103 -0.0222  0.1935 -0.4498
21801SOL    HW177057   0.267   2.411   7.037  1.3396 -0.3907 -1.8999
21801SOL    HW277058   0.424   2.382   7.067  0.9122  0.5020  1.3394
21802SOL     OW77059   9.723   1.482   3.966  0.4692 -0.0689  0.3780
21802SOL    HW177060   9.712   1.490   3.867 -0.8106 -0.4325  0.4788
21802SOL    HW277061   9.767   1.395   3.987 -1.7759 -1.2471  0.2729
21803SOL     OW77062   6.313   7.394   5.616 -0.6312 -0.1672 -0.3333
21803SOL    HW177063   6.366   7.405   5.700  1.4575 -1.1361 -1.4595
21803SOL    HW277064   6.243   7.464   5.611 -1.3123 -0.5705  2.5843
21804SOL     OW77065   1.002   6.717   2.446  0.3122  0.1267 -0.0490
21804SOL    HW177066   1.071   6.689   2.379  0.4067  0.7652 -0.2209
21804SOL    HW277067   0.988   6.643   2.512  0.5538 -0.3282 -0.5011
21805SOL     OW77068   4.108   1.832   4.999  0.7505  0.7753 -0.2440
21805SOL    HW177069   4.190   1.793   5.043  0.5370  1.1121  0.4672
21805SOL    HW277070   4.103   1.930   5.020 -0.0156  0.6867  0.0052
21806SOL     OW77071   3.194   0.672   3.573  0.7676 -0.2216 -0.4055
21806SOL    HW177072   3.284   0.630   3.585  1.2803  0.3830 -1.9698
21806SOL    HW277073   3.133   0.606   3.530  0.6478 -0.4318  0.0922
21807SOL     OW77074   8.663   5.179   1.315 -0.5550 -0.7321  0.3085
21807SOL    HW177075   8.670   5.097   1.372  0.6010 -0.5631  0.4290
21807SOL    HW277076   8.709   5.255   1.362 -2.1440  0.1333  0.4747
21808SOL     OW77077   8.410   2.733   8.039 -0.2635  0.7602  0.4635
21808SOL    HW177078   8.479   2.784   8.090  1.4877  1.0432 -2.0931
21808SOL    HW277079   8.450   2.647   8.006 -0.7656  1.3972 -1.9259
21809SOL     OW77080   9.520   6.951   2.814 -0.5282 -0.5904 -0.3576
21809SOL    HW177081   9.475   7.030   2.855 -2.5590 -1.5465 -0.6620
21809SOL    HW277082   9.550   6.889   2.886 -1.1498 -0.7081 -0.1931
21810SOL     OW77083   1.863   5.529   0.898 -0.1155  0.0458 -0.2099
21810SOL    HW177084   1.943   5.484   0.858 -0.6875  0.6292 -2.0600
21810SOL    HW277085   1.784   5.467   0.893 -0.9005  1.1912 -2.7484
21811SOL     OW77086   2.879   9.999   3.143  0.2286  0.3497  0.3391
21811SOL    HW177087   2.793  10.047   3.126  0.1348 -0.1530 -0.6380
21811SOL    HW277088   2.876   9.956   3.233 -0.2902  0.8620  0.5724
21812SOL     OW77089   3.847   9.362   6.726  0.3401 -0.4739  0.0982
21812SOL    HW177090   3.781   9.378   6.799 -0.4542  0.6206 -0.8295
21812SOL    HW277091   3.800   9.364   6.638  1.5910  0.2096 -0.5675
21813SOL     OW77092   1.634   0.824   7.649 -0.5770  0.2512  0.5570
21813SOL    HW177093   1.707   0.815   7.581 -3.2493  2.3346 -2.8326
21813SOL    HW277094   1.649   0.906   7.704  3.0761 -2.9063  4.6022
21814SOL     OW77095   8.274   2.663   3.957 -0.9045 -0.6057 -0.2923
21814SOL    HW177096   8.261   2.564   3.943  0.9736 -1.0573  0.9583
21814SOL    HW277097   8.371   2.682   3.973 -0.9304  1.7425 -2.6399
21815SOL     OW77098   9.741   4.928   4.996  0.0738 -0.1049  0.2232
21815SOL    HW177099   9.746   4.863   4.920 -1.0406  0.0716 -0.0106
21815SOL    HW277100   9.802   5.005   4.977 -0.7053  0.2715 -0.8278
21816SOL     OW77101   1.830   9.098   0.502 -0.6005  0.1347 -0.0674
21816SOL    HW177102   1.842   9.151   0.418 -0.1197  0.4471  0.2004
21816SOL    HW277103   1.878   9.142   0.577 -0.9691 -0.1834  0.3620
21817SOL     OW77104   2.212   2.498   2.794  0.3335  0.0239  0.2738
21817SOL    HW177105   2.257   2.446   2.721  1.4738 -1.0645  1.7289
21817SOL    HW277106   2.127   2.537   2.759  0.8442 -0.5151 -1.6309
21818SOL     OW77107   5.397   4.350   0.865 -0.0441 -0.5883 -0.2717
21818SOL    HW177108   5.421   4.417   0.794 -0.6302 -0.3304 -0.2288
21818SOL    HW277109   5.423   4.386   0.954 -1.1570 -0.0192 -0.1582
21819SOL     OW77110   9.718   5.560   7.571  0.4667  0.0020  0.5014
21819SOL    HW177111   9.673   5.477   7.605 -0.2526  0.3231  0.3382
21819SOL    HW277112   9.770   5.538   7.489 -3.0231  0.4921 -1.9417
21820SOL     OW77113   3.692   1.342   7.777 -0.0913  0.1433  0.3942
21820SOL    HW177114   3.618   1.292   7.822  0.7793 -1.2115  0.3822
21820SOL    HW277115   3.658   1.383   7.692 -0.6970 -0.9894  0.0664
21821SOL     OW77116   3.093   3.733   5.182  0.3039 -0.2590 -0.4409
21821SOL    HW177117   3.082   3.634   5.174 -0.9768 -0.4442  2.8987
21821SOL    HW277118   3.003   3.777   5.173  0.6014  0.4323 -0.0332
21822SOL     OW77119   7.818   3.336   5.907  0.3276  0.6451 -0.1591
21822SOL    HW177120   7.798   3.325   6.004  2.1698 -0.7006  0.0949
21822SOL    HW277121   7.733   3.333   5.855 -0.7348  1.9534  1.4380
21823SOL     OW77122   2.552   8.572   0.966 -0.2700 -0.2082 -0.3294
21823SOL    HW177123   2.515   8.570   1.059  1.4974 -2.3932  0.3646
21823SOL    HW277124   2.501   8.638   0.911 -0.2886  2.3200  2.6223
21824SOL     OW77125   4.078   8.625   3.781  0.0495 -0.6792  0.3633
21824SOL    HW177126   3.980   8.635   3.797  0.2035  0.3192  0.7434
21824SOL    HW277127   4.126   8.623   3.869  0.5419  0.8218  0.1408
21825SOL     OW77128   3.938   1.331   5.093  0.5066  0.0130 -0.0494
21825SOL    HW177129   3.900   1.369   5.177 -1.2743 -1.5356 -0.1259
21825SOL    HW277130   3.939   1.400   5.022 -2.1048  0.1101 -0.0165
21826SOL     OW77131   3.157   9.553   3.101  0.8285  0.7053  0.1155
21826SOL    HW177132   3.115   9.521   3.016  2.7016  2.2350 -1.4413
21826SOL    HW277133   3.089   9.600   3.157 -0.6990 -1.3215  0.0185
21827SOL     OW77134   7.026   0.882   7.352 -0.4585  0.2588 -0.2229
21827SOL    HW177135   6.975   0.931   7.422  0.2416  0.1682  0.3480
21827SOL    HW277136   7.099   0.940   7.316 -0.0642 -0.1203 -0.0337
21828SOL     OW77137   2.448   8.175   2.302  0.0171  0.1689  0.8076
21828SOL    HW177138   2.432   8.235   2.380  0.2519 -0.5808  1.4357
21828SOL    HW277139   2.533   8.124   2.316  1.4791  1.9352 -1.1253
21829SOL     OW77140   0.415   9.890   0.364  0.3609 -0.7620 -0.2016
21829SOL    HW177141   0.319   9.866   0.383 -0.1974  0.7987 -1.0153
21829SOL    HW277142   0.420   9.984   0.332  2.5474  0.2650  2.9407
21830SOL     OW77143   2.293   9.660   4.223 -0.4892  0.2930 -0.0990
21830SOL    HW177144   2.264   9.581   4.170 -0.2622  0.1405  0.0035
21830SOL    HW277145   2.230   9.736   4.207 -1.7038 -0.4242  1.0934
21831SOL     OW77146   0.944   2.597   3.006  0.0209  0.8537 -0.0577
21831SOL    HW177147   0.866   2.601   3.069 -0.3289 -0.4324 -0.3788
21831SOL    HW277148   1.022   2.556   3.053  0.4833  2.0821  0.2440
21832SOL     OW77149   2.610   1.461   1.546  0.3220 -0.2355 -0.2560
21832SOL    HW177150   2.589   1.506   1.633  2.6707 -3.1110  1.8777
21832SOL    HW277151   2.684   1.510   1.500  1.0259 -0.3580  0.7462
21833SOL     OW77152   8.715   8.701   3.961 -0.1708 -0.1087  0.5898
21833SOL    HW177153   8.709   8.691   3.862 -2.5380 -1.3810  0.8185
21833SOL    HW277154   8.731   8.797   3.984 -1.3358  0.4768 -0.9684
21834SOL     OW77155   5.271   9.768   6.787 -0.0063 -0.9413 -0.2353
21834SOL    HW177156   5.219   9.685   6.807 -1.9707  0.1936 -0.5328
21834SOL    HW277157   5.213   9.848   6.802  1.5372  0.3315 -0.9602
21835SOL     OW77158   3.683   2.979   0.424 -0.3851  0.2566  0.2467
21835SOL    HW177159   3.607   2.980   0.490 -1.3065 -1.9041 -0.7322
21835SOL    HW277160   3.765   2.946   0.469 -0.9489 -0.9738  0.3901
21836SOL     OW77161   9.147   7.034   4.874  0.3547 -0.4142 -0.0613
21836SOL    HW177162   9.198   6.953   4.844  0.4762 -0.9902  1.6953
21836SOL    HW277163   9.205   7.089   4.934 -0.1638  0.3308 -0.2399
21837SOL     OW77164   8.518   4.884   5.115  0.2625 -0.1209  0.1588
21837SOL    HW177165   8.512   4.819   5.039  2.0297 -0.3998  0.2244
21837SOL    HW277166   8.557   4.971   5.081  0.9610 -0.2138  0.7153
21838SOL     OW77167   4.854   0.043   3.227 -0.2807 -0.1254 -0.1916
21838SOL    HW177168   4.908   0.080   3.303 -1.5414 -0.9546  1.1207
21838SOL    HW277169   4.776   0.103   3.210 -1.1758 -1.0672  0.5734
21839SOL     OW77170   8.228   8.593   2.688 -0.5545  0.1202 -0.1254
21839SOL    HW177171   8.196   8.504   2.720 -0.0485  0.6206  1.7904
21839SOL    HW277172   8.324   8.587   2.661 -0.6843 -0.0422 -0.5662
21840SOL     OW77173   1.353   9.656   6.207 -0.1630  0.5401  0.1008
21840SOL    HW177174   1.305   9.668   6.294 -0.4515  1.7893 -0.2363
21840SOL    HW277175   1.448   9.629   6.226 -0.3250  0.4415  0.7973
21841SOL     OW77176   2.105   7.321   0.220  0.4440  0.1560  0.1144
21841SOL    HW177177   2.135   7.314   0.316 -1.6114 -2.6373  0.6370
21841SOL    HW277178   2.037   7.394   0.212 -1.2244 -1.1963  1.3688
21842SOL     OW77179   5.650   9.884   4.258  0.1255 -0.3211  0.2382
21842SOL    HW177180   5.563   9.933   4.270  0.9111  0.4265  3.2274
21842SOL    HW277181   5.716   9.944   4.212 -0.8766 -0.8696 -1.9804
21843SOL     OW77182   3.302   4.385   8.184  0.0606 -0.1341 -0.0248
21843SOL    HW177183   3.279   4.349   8.274 -0.9727 -0.3079 -0.3516
21843SOL    HW277184   3.379   4.334   8.147 -0.1853 -0.7633  0.3224
21844SOL     OW77185   6.591   0.643   4.982  0.3602 -0.5702 -0.1428
21844SOL    HW177186   6.581   0.700   4.900 -3.8890 -1.9928 -0.7694
21844SOL    HW277187   6.599   0.702   5.062 -0.1255  0.8841 -1.1443
21845SOL     OW77188   2.732   0.526   0.543 -0.1726 -0.2535  0.1580
21845SOL    HW177189   2.789   0.548   0.464 -2.1796 -0.4150 -1.3643
21845SOL    HW277190   2.650   0.583   0.542 -0.4017 -0.5275  1.9253
21846SOL     OW77191   7.115   1.594   4.562 -0.1353  0.1672  0.1654
21846SOL    HW177192   7.018   1.569   4.562  0.3245 -1.6411 -0.6370
21846SOL    HW277193   7.137   1.639   4.648 -1.0864 -1.8236  1.4903
21847SOL     OW77194   1.046   5.425   4.193 -0.3053 -0.2501  0.2124
21847SOL    HW177195   0.966   5.458   4.243 -1.4872 -2.2307 -0.3464
21847SOL    HW277196   1.102   5.369   4.253  0.1407  0.2749  0.2972
21848SOL     OW77197   3.136   4.346   5.377  0.4802 -0.3115  0.0892
21848SOL    HW177198   3.206   4.332   5.307  1.1128  1.0937  0.4334
21848SOL    HW277199   3.177   4.341   5.468 -0.2435 -1.5623  0.3729
21849SOL     OW77200   2.331   0.201   1.158  0.4172  0.2541  0.1476
21849SOL    HW177201   2.320   0.184   1.256  0.7633  0.6928  0.2670
21849SOL    HW277202   2.353   0.298   1.144  2.6225 -0.2777 -0.1737
21850SOL     OW77203   2.641   3.523   3.212 -0.2109  0.4848 -0.4038
21850SOL    HW177204   2.550   3.542   3.248 -0.0670  0.2773  0.0723
21850SOL    HW277205   2.708   3.525   3.286 -0.1615 -1.7069 -0.3358
21851SOL     OW77206   0.300   9.654   1.721 -0.4906  0.0924  0.2873
21851SOL    HW177207   0.308   9.753   1.732 -1.5827  0.2026  0.1608
21851SOL    HW277208   0.390   9.612   1.727 -0.0436  1.0804  0.5112
21852SOL     OW77209   4.625   3.928   7.110 -0.6039  0.4704  0.2267
21852SOL    HW177210   4.586   3.870   7.182 -1.3922  1.0874  0.3107
21852SOL    HW277211   4.576   4.015   7.108  0.3572  1.0127 -0.1097
21853SOL     OW77212   1.665   4.697   3.812 -0.1755  0.6603 -0.3791
21853SOL    HW177213   1.683   4.695   3.911 -0.3252 -0.2509 -0.3657
21853SOL    HW277214   1.752   4.692   3.763 -0.1511  0.1378 -0.2921
21854SOL     OW77215   1.999   1.185   1.257  0.1638  0.0033 -0.0274
21854SOL    HW177216   1.994   1.139   1.169  1.4408 -0.9140  0.3535
21854SOL    HW277217   1.994   1.117   1.330 -1.4354  0.8026  0.6298
21855SOL     OW77218   7.599   1.572   4.635 -0.0440 -0.4254  0.4505
21855SOL    HW177219   7.692   1.574   4.672  0.1295 -0.8603  0.0447
21855SOL    HW277220   7.535   1.557   4.710  0.1574  0.5286  0.8179
21856SOL     OW77221   1.586   4.233   2.752 -0.1200  0.2347 -0.2471
21856SOL    HW177222   1.655   4.183   2.804 -0.8798  0.0186  0.5838
21856SOL    HW277223   1.498   4.187   2.762 -0.8940  1.8807  0.7838
21857SOL     OW77224   9.282   6.756   0.792  0.5249  0.1307  0.7322
21857SOL    HW177225   9.368   6.716   0.761  0.5970  0.9515 -0.1249
21857SOL    HW277226   9.292   6.787   0.887  1.4228  0.9599  0.3668
21858SOL     OW77227   9.648   1.059   6.475  0.2473 -0.0051 -0.0578
21858SOL    HW177228   9.618   1.154   6.482 -1.2209 -0.4547 -0.0062
21858SOL    HW277229   9.631   1.025   6.383 -0.6060 -0.6521  0.3294
21859SOL     OW77230   7.557   1.965   4.381  0.4657  0.5365 -0.1996
21859SOL    HW177231   7.526   2.060   4.384 -3.2307 -0.5142 -1.8227
21859SOL    HW277232   7.570   1.938   4.285  0.5453 -0.8605  0.1955
21860SOL     OW77233   9.802   2.108   7.403 -0.2575 -0.3028 -0.0193
21860SOL    HW177234   9.862   2.116   7.323  0.4168  2.9258  0.7476
21860SOL    HW277235   9.844   2.046   7.470  0.4856 -0.8740 -1.0133
21861SOL     OW77236   6.185   2.147   0.598  0.3961 -0.0290 -0.3268
21861SOL    HW177237   6.097   2.194   0.607  0.3603 -0.1717  0.0806
21861SOL    HW277238   6.259   2.208   0.627  0.3848 -0.0965 -0.1591
21862SOL     OW77239   1.763   7.780   4.467  0.5813 -1.1141 -0.5626
21862SOL    HW177240   1.723   7.851   4.525  1.1649 -0.4183 -1.0147
21862SOL    HW277241   1.732   7.690   4.499  0.2703 -0.6911  0.3455
21863SOL     OW77242   2.247   4.182   3.822  0.6412 -0.1551 -0.1154
21863SOL    HW177243   2.231   4.151   3.729 -0.4940  1.6793 -0.5378
21863SOL    HW277244   2.234   4.105   3.885 -0.9955 -0.8210 -1.2443
21864SOL     OW77245   1.007   5.765   7.538 -0.2978 -0.6933  0.7550
21864SOL    HW177246   1.070   5.703   7.491  0.2556 -0.5262  1.2840
21864SOL    HW277247   1.023   5.762   7.636 -0.7425 -0.2301  0.8454
21865SOL     OW77248   7.305   2.924   2.814 -0.2174 -0.7805  0.0450
21865SOL    HW177249   7.228   2.988   2.814 -0.9189 -1.5415  3.3497
21865SOL    HW277250   7.281   2.842   2.867  2.7898 -1.1276  0.9641
21866SOL     OW77251   2.655   7.312   8.113 -0.0076 -0.1660  0.2951
21866SOL    HW177252   2.609   7.223   8.108 -0.0912 -0.1214  0.2626
21866SOL    HW277253   2.728   7.315   8.045 -0.3203 -0.0293 -0.0362
21867SOL     OW77254   0.789   9.958   4.424 -0.1688  0.2763 -0.1064
21867SOL    HW177255   0.827   9.975   4.334 -3.1612  2.7259 -0.9810
21867SOL    HW277256   0.729   9.878   4.420 -0.8096  0.7715 -0.4552
21868SOL     OW77257   1.699   0.995   5.292 -0.7205  0.9319  0.0164
21868SOL    HW177258   1.634   0.925   5.262 -1.2187  1.2770  0.2826
21868SOL    HW277259   1.733   1.046   5.213  2.2395 -1.8063 -0.6041
21869SOL     OW77260   5.208   7.690   4.662 -0.2204  0.3229 -0.0504
21869SOL    HW177261   5.253   7.678   4.750 -1.6180  1.0259  0.7862
21869SOL    HW277262   5.144   7.615   4.647 -0.5598  0.6162 -0.0898
21870SOL     OW77263   2.953   6.184   0.962 -0.2017  0.3007 -0.4493
21870SOL    HW177264   3.029   6.121   0.942 -1.1422 -0.3802 -2.0309
21870SOL    HW277265   2.989   6.270   0.999  1.1361 -0.9722  1.2802
21871SOL     OW77266   3.171   5.783   7.271  0.1758  0.1406 -0.2482
21871SOL    HW177267   3.263   5.822   7.276  0.7150 -1.1963  0.6450
21871SOL    HW277268   3.146   5.767   7.176  1.7272 -1.4081 -0.4199
21872SOL     OW77269   7.099   3.048   5.719  0.3328  0.1637  0.0860
21872SOL    HW177270   7.141   2.958   5.707  0.9353  0.0924  2.5413
21872SOL    HW277271   7.115   3.103   5.636 -0.3726 -2.0776 -1.5892
21873SOL     OW77272   3.900   9.602   2.827 -0.1187  0.1573 -0.6921
21873SOL    HW177273   3.882   9.536   2.754 -2.1352  0.1402 -0.1915
21873SOL    HW277274   3.884   9.695   2.792  0.8940  0.2716 -0.8557
21874SOL     OW77275   9.283   5.328   0.803 -0.1407 -0.4132  0.7703
21874SOL    HW177276   9.239   5.240   0.789 -1.6185  0.5332 -0.8171
21874SOL    HW277277   9.216   5.401   0.790  1.0854  0.9472  1.9150
21875SOL     OW77278   2.533   3.795   4.974  0.4861 -0.9694 -0.1535
21875SOL    HW177279   2.555   3.872   4.914  1.5372 -1.1595 -0.0198
21875SOL    HW277280   2.525   3.711   4.920 -2.9784 -0.4204 -0.6476
21876SOL     OW77281   8.125   6.016   5.568  1.0454  0.1503  0.3141
21876SOL    HW177282   8.150   6.089   5.631  0.0578  0.6552  0.1324
21876SOL    HW277283   8.101   6.055   5.479  0.5792 -0.3930  0.1946
21877SOL     OW77284   3.361   2.544   1.234  0.0233 -0.0025 -0.1664
21877SOL    HW177285   3.412   2.604   1.173  0.6327 -0.8668 -0.5062
21877SOL    HW277286   3.406   2.541   1.323  0.3110 -0.4055 -0.3255
21878SOL     OW77287   0.347   9.923   3.601  0.4151  0.3242 -0.0538
21878SOL    HW177288   0.322   9.852   3.666  0.9319 -0.8817 -1.1517
21878SOL    HW277289   0.365  10.008   3.650 -1.2914 -0.0016  1.1753
21879SOL     OW77290   1.073   5.978   4.368  0.2561  0.3382  0.0996
21879SOL    HW177291   1.165   5.938   4.364 -0.1691 -0.5679 -0.7474
21879SOL    HW277292   1.044   5.984   4.464  0.0148 -2.1409  0.2136
21880SOL     OW77293   9.298   7.924   7.088  0.9197  0.8467  0.0391
21880SOL    HW177294   9.371   7.948   7.152  1.3771 -2.8634  1.0395
21880SOL    HW277295   9.337   7.894   7.002  0.4393  2.1034 -0.6213
21881SOL     OW77296   8.527   6.557   2.881  0.1938 -0.0293  0.7874
21881SOL    HW177297   8.553   6.463   2.858 -0.6588 -0.6750  2.3725
21881SOL    HW277298   8.520   6.611   2.797  1.2003 -1.2415 -0.1058
21882SOL     OW77299   2.652   3.111   0.978  0.0174  0.3628 -0.0016
21882SOL    HW177300   2.561   3.076   0.999  0.2299  0.5122  1.2489
21882SOL    HW277301   2.717   3.034   0.977 -0.3246  0.0793 -2.1941
21883SOL     OW77302   3.311   0.721   6.832  0.3118  0.4509 -0.4364
21883SOL    HW177303   3.211   0.718   6.833  0.3251  0.3040  0.8882
21883SOL    HW277304   3.344   0.775   6.909  1.3026 -1.4805  0.5407
21884SOL     OW77305   3.105   1.735   0.816 -0.3006 -0.0212  0.2979
21884SOL    HW177306   3.050   1.815   0.791 -1.5945 -0.6565  1.0800
21884SOL    HW277307   3.105   1.725   0.916 -0.2583 -1.0813  0.1888
21885SOL     OW77308   6.025   1.551   3.974 -0.2652 -0.0192 -0.1625
21885SOL    HW177309   6.072   1.553   4.062  0.9179  0.3067 -0.7897
21885SOL    HW277310   5.952   1.484   3.977 -1.4389  1.2985  1.6622
21886SOL     OW77311   3.447   7.126   5.458  0.5022  0.0760 -0.0372
21886SOL    HW177312   3.408   7.209   5.419 -1.5347 -0.3638  1.0154
21886SOL    HW277313   3.475   7.064   5.384 -0.2168  0.6566 -0.8041
21887SOL     OW77314   5.808   8.955   6.255  0.9285 -0.2473 -0.1745
21887SOL    HW177315   5.776   8.877   6.201 -1.3610 -0.6728  1.6908
21887SOL    HW277316   5.774   9.040   6.214 -0.5489 -0.5489  0.3606
21888SOL     OW77317   9.903   7.462   3.178  0.5778 -0.3110 -0.0834
21888SOL    HW177318   9.826   7.407   3.148  1.1924  0.1273 -2.5539
21888SOL    HW277319   9.963   7.407   3.236 -1.4498 -0.7060  1.7018
21889SOL     OW77320   9.380   0.931   3.023 -0.3852  0.3215 -0.4297
21889SOL    HW177321   9.315   0.933   2.946 -1.3856  0.2766  0.4000
21889SOL    HW277322   9.366   1.011   3.081 -0.9533 -0.6252  0.7667
21890SOL     OW77323   1.882   5.793   1.931 -0.6385 -0.4238 -0.0489
21890SOL    HW177324   1.970   5.841   1.925 -0.4319 -0.9976 -1.8030
21890SOL    HW277325   1.807   5.859   1.930 -0.4185 -0.1264 -3.7798
21891SOL     OW77326   1.615   5.188   6.022 -0.2469  0.2714 -0.2956
21891SOL    HW177327   1.546   5.175   5.951  0.0601 -1.9664 -0.2125
21891SOL    HW277328   1.583   5.148   6.108 -0.5856  2.8920  0.8457
21892SOL     OW77329   9.582   5.070   4.626  1.1109 -0.4305  0.2573
21892SOL    HW177330   9.556   5.001   4.693  0.6460 -0.0186  0.5046
21892SOL    HW277331   9.537   5.157   4.649  1.1672 -0.2207 -0.4267
21893SOL     OW77332   3.950   6.999   1.093  0.7548  0.4530 -0.0467
21893SOL    HW177333   4.011   6.960   1.163  1.0497  0.7269 -0.1471
21893SOL    HW277334   3.962   6.950   1.008 -0.4013 -0.5884  0.3800
21894SOL     OW77335   9.090   0.439   0.692  0.5935 -0.7763 -0.6173
21894SOL    HW177336   9.004   0.404   0.656 -0.3502 -0.7011  1.4610
21894SOL    HW277337   9.089   0.539   0.692  0.3930 -0.7726  0.0134
21895SOL     OW77338   0.460   0.458   6.494 -0.7708  0.3967 -0.2508
21895SOL    HW177339   0.513   0.448   6.578 -1.2955 -0.0281  0.0359
21895SOL    HW277340   0.497   0.397   6.424  0.9923  2.2802 -1.0139
21896SOL     OW77341   1.956   8.472   6.626  0.3618 -0.0760  0.0925
21896SOL    HW177342   2.033   8.446   6.684  0.0661 -1.2101  0.0037
21896SOL    HW277343   1.873   8.479   6.682  0.4413  0.6814  0.1140
21897SOL     OW77344   7.501   3.067   1.413 -0.3955  0.3466  0.4134
21897SOL    HW177345   7.405   3.080   1.388 -0.4993  1.3229  1.2945
21897SOL    HW277346   7.559   3.125   1.356 -0.1305 -1.7773 -1.5586
21898SOL     OW77347   4.016   5.056   7.634  0.2763  0.3561 -0.5631
21898SOL    HW177348   4.039   5.109   7.552  1.2830  0.9861  0.1189
21898SOL    HW277349   4.024   4.958   7.613  0.7140  0.5151 -1.1654
21899SOL     OW77350   1.601   3.104   2.971  0.0170  0.1216 -0.5166
21899SOL    HW177351   1.621   3.049   3.052 -1.5659 -1.8062 -1.3865
21899SOL    HW277352   1.504   3.128   2.970 -0.0862 -0.3030 -2.0800
21900SOL     OW77353   2.226   6.333   7.201 -0.3309  0.3253  0.4701
21900SOL    HW177354   2.132   6.343   7.234 -0.0634 -0.3373  1.4222
21900SOL    HW277355   2.286   6.305   7.276  0.3011 -1.0728 -0.5350
21901SOL     OW77356   8.669   8.527   6.285  0.0176  0.1448  0.0482
21901SOL    HW177357   8.717   8.510   6.371 -1.1957  1.5480  1.0259
21901SOL    HW277358   8.719   8.594   6.231 -0.5568  1.2079  0.8268
21902SOL     OW77359   8.317   9.574   2.241  0.1334  0.7257  0.0871
21902SOL    HW177360   8.359   9.622   2.164  2.2293  1.1674  1.4969
21902SOL    HW277361   8.273   9.640   2.302 -0.9673  0.4262 -0.3518
21903SOL     OW77362   8.006   0.540   7.886  0.2341 -0.1187  0.3491
21903SOL    HW177363   8.049   0.603   7.951 -0.3586 -0.9058  1.5066
21903SOL    HW277364   7.916   0.574   7.861  0.6512  0.4263 -0.4283
21904SOL     OW77365   2.721   5.538   8.167  0.4036 -0.2744 -0.2070
21904SOL    HW177366   2.807   5.546   8.216 -0.2675 -0.4693  1.0266
21904SOL    HW277367   2.712   5.614   8.103  0.6775  0.7601  0.9616
21905SOL     OW77368   0.784   1.737   2.819 -0.6921 -0.0929 -0.1341
21905SOL    HW177369   0.816   1.831   2.837 -1.8435  0.8727 -2.8611
21905SOL    HW277370   0.832   1.701   2.739 -1.0676 -1.4502  0.2445
21906SOL     OW77371   5.488   2.168   4.941 -0.4599  0.1911 -0.3207
21906SOL    HW177372   5.489   2.228   4.861  0.3478  1.4723  0.6570
21906SOL    HW277373   5.397   2.171   4.983 -1.0659 -0.9173 -1.4879
21907SOL     OW77374   2.633   2.633   5.568  0.1868  0.1683 -0.2426
21907SOL    HW177375   2.617   2.553   5.624 -1.1264 -0.5125 -1.5588
21907SOL    HW277376   2.697   2.695   5.615 -0.3285 -0.7037  1.6401
21908SOL     OW77377   3.745   5.608   6.495 -0.0743  0.2438  0.0749
21908SOL    HW177378   3.821   5.587   6.433  0.7447  0.0818  1.1002
21908SOL    HW277379   3.727   5.706   6.494 -1.2713  0.0123 -1.7631
21909SOL     OW77380   8.413   0.304   1.049  0.2783 -0.1657 -0.0346
21909SOL    HW177381   8.355   0.317   0.969 -0.3384 -1.7725  0.1225
21909SOL    HW277382   8.439   0.393   1.087 -1.9161  0.6009 -0.2430
21910SOL     OW77383   0.647   3.685   2.517 -0.0133  0.5913 -0.3249
21910SOL    HW177384   0.547   3.679   2.511 -0.1196 -0.2054  1.8195
21910SOL    HW277385   0.688   3.621   2.452 -0.9059  0.4151 -0.7216
21911SOL     OW77386   1.198   4.712   4.270 -0.2247  0.1754  0.4001
21911SOL    HW177387   1.130   4.733   4.201  0.7564  0.6450 -0.4261
21911SOL    HW277388   1.167   4.746   4.359 -2.1333 -1.6781  0.4795
21912SOL     OW77389   7.041   7.537   3.636 -0.2782  0.2206 -0.5950
21912SOL    HW177390   7.003   7.515   3.725 -0.1408  0.1733 -0.5464
21912SOL    HW277391   6.977   7.594   3.584 -0.8302 -0.6625 -0.8914
21913SOL     OW77392   7.841   1.685   2.310 -0.6358 -0.1692 -0.5584
21913SOL    HW177393   7.858   1.726   2.399 -0.3448  3.1980 -2.0811
21913SOL    HW277394   7.919   1.629   2.283  0.4688  1.0463  0.0885
21914SOL     OW77395   1.101   3.208   3.926  0.9881  0.4554 -0.8242
21914SOL    HW177396   1.136   3.119   3.898 -1.0330 -0.8758  0.7354
21914SOL    HW277397   1.139   3.232   4.016  0.8521  0.7763 -0.8522
21915SOL     OW77398   6.755   2.333   1.409  0.5747  0.5241  0.1826
21915SOL    HW177399   6.784   2.258   1.469 -2.3943 -1.5634 -0.9037
21915SOL    HW277400   6.659   2.355   1.426  0.1164  0.9615 -2.6999
21916SOL     OW77401   9.599   4.534   7.251  0.1631 -0.1658  0.6368
21916SOL    HW177402   9.568   4.557   7.343 -1.5978 -2.6273  0.7275
21916SOL    HW277403   9.579   4.610   7.189  1.6274  1.6309  2.3080
21917SOL     OW77404   7.462   4.218   1.334  0.0382 -0.0466  0.3964
21917SOL    HW177405   7.370   4.248   1.308  0.2620  0.5707  0.3059
21917SOL    HW277406   7.471   4.221   1.434  0.6186  1.8753  0.3072
21918SOL     OW77407   7.471   5.246   0.813  0.4526  0.0326  0.0429
21918SOL    HW177408   7.526   5.167   0.785 -0.1143 -0.3227 -0.0823
21918SOL    HW277409   7.425   5.284   0.732  0.4274  0.2550  0.1634
21919SOL     OW77410   7.160   1.147   3.414  0.0703  0.1449  0.0067
21919SOL    HW177411   7.214   1.113   3.491  0.8343  0.1234 -0.5331
21919SOL    HW277412   7.192   1.104   3.329 -0.0594  0.9551 -0.4597
21920SOL     OW77413   9.005   9.846   6.448  0.6363  0.1889 -0.1942
21920SOL    HW177414   9.096   9.806   6.436 -0.2731 -1.5370 -1.5615
21920SOL    HW277415   9.009   9.944   6.428  1.9470 -0.1001 -1.4405
21921SOL     OW77416   3.787   2.202   3.753 -0.3677  0.2462  0.3943
21921SOL    HW177417   3.709   2.233   3.806  0.9835 -0.1801  2.7013
21921SOL    HW277418   3.861   2.268   3.759  0.2343 -0.3752  0.0218
21922SOL     OW77419   6.252   1.629   2.779  0.1884 -0.3128  0.3457
21922SOL    HW177420   6.174   1.658   2.724  0.1050 -1.5810 -0.2379
21922SOL    HW277421   6.223   1.617   2.874 -0.4097 -1.1009  0.0689
21923SOL     OW77422   2.917   9.443   4.336 -0.2829 -0.3388  0.7306
21923SOL    HW177423   2.917   9.379   4.260  0.3876  2.8248 -2.0559
21923SOL    HW277424   3.007   9.485   4.345 -1.0203  1.0841  1.7339
21924SOL     OW77425   0.078   9.813   5.290  0.5914  0.3975 -0.2366
21924SOL    HW177426   0.046   9.785   5.199 -0.2893  1.6336 -0.3130
21924SOL    HW277427   0.178   9.813   5.291  0.6218 -1.4860 -0.6176
21925SOL     OW77428   0.546   7.322   7.352 -0.2468  0.1454 -0.0707
21925SOL    HW177429   0.645   7.322   7.370 -0.2940 -1.0591  0.2223
21925SOL    HW277430   0.525   7.394   7.287  0.7905  0.5963  0.0700
21926SOL     OW77431   4.254   4.633   7.479  0.0373 -0.3635  0.8038
21926SOL    HW177432   4.250   4.557   7.415 -0.1446 -1.0252  1.5831
21926SOL    HW277433   4.340   4.628   7.531  0.5131  0.5790  0.1122
21927SOL     OW77434   8.772   6.247   5.931 -0.1590  0.0320 -0.2979
21927SOL    HW177435   8.709   6.211   5.862  0.6700  1.1869 -1.6895
21927SOL    HW277436   8.745   6.340   5.955  0.2670  0.0697  0.0287
21928SOL     OW77437   5.514   6.193   1.164  0.0601 -0.1492 -0.1097
21928SOL    HW177438   5.484   6.151   1.249 -0.6259  0.0916 -0.2283
21928SOL    HW277439   5.434   6.225   1.113  0.4018 -1.0426 -1.2314
21929SOL     OW77440   6.931   5.141   1.435 -0.6218 -0.0410  0.7096
21929SOL    HW177441   6.883   5.228   1.442 -2.0543 -0.9145  2.0605
21929SOL    HW277442   6.932   5.096   1.524  0.4981 -1.2049  0.1289
21930SOL     OW77443   2.174   9.538   3.275  0.4660 -0.1410  0.3907
21930SOL    HW177444   2.239   9.474   3.316 -1.2447 -1.7565  0.6645
21930SOL    HW277445   2.150   9.608   3.343  0.7217 -0.4553  0.8111
21931SOL     OW77446   2.742   5.911   5.530  0.1636 -0.1049 -1.0164
21931SOL    HW177447   2.694   5.899   5.442 -0.3546  1.1623 -0.9321
21931SOL    HW277448   2.781   6.003   5.533  0.3378 -0.2119  0.0131
21932SOL     OW77449   2.716   4.376   4.613 -0.2545 -0.1340  0.3269
21932SOL    HW177450   2.698   4.325   4.528 -1.3753  1.3476 -0.3582
21932SOL    HW277451   2.699   4.473   4.597 -1.1280  0.0774  2.4573
21933SOL     OW77452   1.908   8.060   7.533  0.6009  0.1093 -0.1157
21933SOL    HW177453   1.910   8.020   7.441  1.2978  0.1785 -0.1372
21933SOL    HW277454   1.980   8.018   7.588 -0.5666 -0.7634  0.7531
21934SOL     OW77455   5.798   4.017   0.984  0.1773  0.0637  0.4071
21934SOL    HW177456   5.757   4.033   0.894  0.0788 -0.3686  0.3711
21934SOL    HW277457   5.809   3.918   0.998  1.6600  0.1987  0.2151
21935SOL     OW77458   9.747   0.451   5.053 -0.0182 -0.1346  0.0960
21935SOL    HW177459   9.819   0.400   5.099  0.5034 -0.7200 -1.3320
21935SOL    HW277460   9.713   0.398   4.976 -0.9457  0.7750 -0.1328
21936SOL     OW77461   3.769   3.214   4.413 -0.0686  0.3066  0.1981
21936SOL    HW177462   3.762   3.194   4.510 -0.5723  0.5853  0.2257
21936SOL    HW277463   3.808   3.136   4.365 -1.6570 -0.6126  0.3526
21937SOL     OW77464   8.602   2.700   2.817 -0.0629 -0.1556  0.1023
21937SOL    HW177465   8.583   2.676   2.912  0.7348 -2.8274 -0.3713
21937SOL    HW277466   8.692   2.741   2.810  0.3057 -0.8999  0.3860
21938SOL     OW77467   5.232   9.453   3.815  0.0925  0.3453 -0.0317
21938SOL    HW177468   5.197   9.458   3.909  1.3133  0.6813  0.4038
21938SOL    HW277469   5.210   9.538   3.768 -0.8685  0.0221 -0.1765
21939SOL     OW77470   8.851   8.715   2.104 -0.3216  0.8620  0.0573
21939SOL    HW177471   8.909   8.793   2.126 -0.6001  1.3190 -0.8206
21939SOL    HW277472   8.823   8.670   2.189  0.1542  1.4787  0.5504
21940SOL     OW77473   7.389   0.409   5.669 -0.1160  0.4991  0.1756
21940SOL    HW177474   7.335   0.468   5.729  0.7312  0.5334  0.9114
21940SOL    HW277475   7.484   0.408   5.700  0.5224  1.2232 -1.7028
21941SOL     OW77476   9.439   1.219   2.835  0.2905 -0.0233  0.3471
21941SOL    HW177477   9.351   1.188   2.799 -0.3250  0.4151  1.4444
21941SOL    HW277478   9.489   1.141   2.873  0.0722 -0.1558  0.3598
21942SOL     OW77479   1.719   0.784   3.491  0.1608 -0.0121  0.2157
21942SOL    HW177480   1.669   0.709   3.447 -0.9187  0.8615 -0.0812
21942SOL    HW277481   1.656   0.837   3.548  0.9455  0.5805  0.5343
21943SOL     OW77482   8.263   8.744   6.130 -0.4456 -0.2076 -0.0263
21943SOL    HW177483   8.210   8.806   6.188 -0.3276  0.5674 -0.7278
21943SOL    HW277484   8.360   8.748   6.156 -0.3246  0.4837 -0.5629
21944SOL     OW77485   1.068   1.820   1.691 -0.2528 -0.0661  0.3178
21944SOL    HW177486   1.124   1.813   1.773  0.1763 -0.9347 -0.0480
21944SOL    HW277487   1.004   1.896   1.701  0.9206  0.8664  0.7710
21945SOL     OW77488   4.212   5.674   3.874  0.2339  0.1459 -0.2364
21945SOL    HW177489   4.172   5.762   3.848 -1.2996 -0.3412  0.4110
21945SOL    HW277490   4.287   5.652   3.813 -0.3602  1.1891 -1.3556
21946SOL     OW77491   2.112   5.808   6.084 -0.5022 -0.0607  0.8102
21946SOL    HW177492   2.078   5.737   6.022  0.1127  1.5616 -1.4860
21946SOL    HW277493   2.051   5.816   6.162 -1.1491 -2.3872  0.5955
21947SOL     OW77494   4.026   5.419   2.740 -0.2211 -0.3509 -0.3132
21947SOL    HW177495   4.081   5.460   2.813  0.6916 -0.3015 -1.0075
21947SOL    HW277496   4.025   5.320   2.750 -1.9873 -0.1958  1.0650
21948SOL     OW77497   2.157   7.235   3.349 -0.2903  0.0122  0.1904
21948SOL    HW177498   2.132   7.202   3.440 -2.0364  0.9698  0.0866
21948SOL    HW277499   2.234   7.299   3.356 -1.2759  1.1193  1.1692
21949SOL     OW77500   3.383   9.441   4.202  0.2867  0.1762 -0.1781
21949SOL    HW177501   3.424   9.350   4.210  0.5749  0.2878 -0.3783
21949SOL    HW277502   3.434   9.494   4.134  0.3669  0.6233  0.2281
21950SOL     OW77503   1.664   8.461   1.890 -0.2217 -0.0788 -0.2509
21950SOL    HW177504   1.638   8.486   1.796 -0.8293  0.4229  0.0469
21950SOL    HW277505   1.685   8.363   1.893 -1.1280 -0.2957 -0.7175
21951SOL     OW77506   6.540   3.874   0.317  0.5571  0.0702  0.3037
21951SOL    HW177507   6.489   3.946   0.272  2.0160  1.4523  0.8084
21951SOL    HW277508   6.510   3.866   0.412  1.7101  1.3295  0.7849
21952SOL     OW77509   9.626   4.493   7.522 -0.4039 -0.1320  0.1823
21952SOL    HW177510   9.554   4.561   7.537 -0.5250 -0.7005  2.1972
21952SOL    HW277511   9.634   4.434   7.601  2.7755  0.3549  0.3040
21953SOL     OW77512   3.948   2.791   6.408 -0.2549 -0.2925  0.6214
21953SOL    HW177513   3.985   2.859   6.344  0.1916 -1.2157 -0.1276
21953SOL    HW277514   4.021   2.731   6.439 -0.7813 -0.9307  0.6470
21954SOL     OW77515   8.447   6.828   7.162  0.2958 -0.0036 -0.2469
21954SOL    HW177516   8.479   6.920   7.138  0.8647 -0.1809 -0.1639
21954SOL    HW277517   8.433   6.821   7.260 -0.0425  0.0880 -0.2888
21955SOL     OW77518   5.464   3.251   4.217 -0.2085  0.2013  0.6518
21955SOL    HW177519   5.389   3.225   4.156  1.8908 -2.1009 -1.0496
21955SOL    HW277520   5.459   3.197   4.301 -1.3993  1.2636  1.2812
21956SOL     OW77521   2.425   2.990   0.441 -0.9161 -0.4055 -0.1007
21956SOL    HW177522   2.363   2.934   0.386 -0.3219 -0.7357 -0.4309
21956SOL    HW277523   2.519   2.960   0.428 -0.3533  1.9164 -1.7972
21957SOL     OW77524   2.263   4.091   0.125 -0.1963 -0.3955  0.7981
21957SOL    HW177525   2.192   4.056   0.063 -1.7739 -0.2977  2.4930
21957SOL    HW277526   2.220   4.146   0.196  1.9888  2.8761 -0.3080
21958SOL     OW77527   2.947   1.849   7.532  0.3339  0.5247 -0.5058
21958SOL    HW177528   2.986   1.863   7.623  0.6342 -2.3101 -0.1492
21958SOL    HW277529   2.861   1.798   7.540  0.3627  0.2474 -1.8074
21959SOL     OW77530   9.153   1.144   0.978 -0.3727 -0.5923  0.7466
21959SOL    HW177531   9.097   1.063   0.962 -0.7357 -0.6210  2.1100
21959SOL    HW277532   9.232   1.143   0.917 -2.1095 -0.2881 -1.5776
21960SOL     OW77533   2.472   7.989   3.944 -0.5985  0.4790  0.0374
21960SOL    HW177534   2.508   7.961   4.033  1.4588  0.9025 -0.6427
21960SOL    HW277535   2.455   8.088   3.944 -0.2614  0.5400 -0.1351
21961SOL     OW77536   4.545   1.092   2.750 -0.3555  0.0906 -0.3946
21961SOL    HW177537   4.503   1.002   2.736  1.9588 -1.3723  1.6531
21961SOL    HW277538   4.499   1.138   2.826 -1.3989  0.5686 -1.3015
21962SOL     OW77539   0.367   0.164   0.339 -0.0232  0.3642  0.5113
21962SOL    HW177540   0.290   0.146   0.278  1.1869 -1.0721 -0.6071
21962SOL    HW277541   0.431   0.226   0.295 -0.4783  1.5062  1.4176
21963SOL     OW77542   4.266   0.415   2.368 -0.3573  0.1104  0.0184
21963SOL    HW177543   4.168   0.433   2.359 -0.2533  0.5719 -0.1677
21963SOL    HW277544   4.287   0.326   2.328 -0.6058  0.2644 -0.4462
21964SOL     OW77545   8.740   0.664   3.016  0.0602  0.4257 -0.2114
21964SOL    HW177546   8.776   0.581   2.973  0.7858  0.6312  0.0009
21964SOL    HW277547   8.810   0.735   3.016  0.4659  0.0714  2.3196
21965SOL     OW77548   4.784   6.173   0.420  0.3148  0.3841 -0.0020
21965SOL    HW177549   4.771   6.268   0.392  2.5878  0.5102 -0.7301
21965SOL    HW277550   4.795   6.115   0.339  0.4196 -0.2694  0.4747
21966SOL     OW77551   0.466   7.698   4.471 -0.0019 -0.1386 -0.2401
21966SOL    HW177552   0.529   7.766   4.507  1.0240 -0.2332 -1.8333
21966SOL    HW277553   0.398   7.675   4.541  0.2919  1.7105  0.6685
21967SOL     OW77554   7.929   2.321   3.512  0.0272 -0.2541 -0.1667
21967SOL    HW177555   7.994   2.377   3.461 -0.9666 -0.1668 -1.3472
21967SOL    HW277556   7.923   2.230   3.471  0.5961 -0.7801  0.9065
21968SOL     OW77557   0.977   5.725   3.956 -0.0689 -0.2224 -0.6712
21968SOL    HW177558   1.070   5.732   3.921  0.5996  0.3110  1.1723
21968SOL    HW277559   0.942   5.632   3.941  1.2729 -0.8290 -0.1443
21969SOL     OW77560   2.118   1.157   3.303 -1.1337 -0.4441  0.1436
21969SOL    HW177561   2.070   1.069   3.300 -1.7105 -0.1761  1.3052
21969SOL    HW277562   2.074   1.217   3.370  0.2942  0.1237  0.6002
21970SOL     OW77563   7.335   1.622   3.350 -0.0007 -0.0146  0.2181
21970SOL    HW177564   7.347   1.565   3.431  2.0573 -0.8262 -0.6158
21970SOL    HW277565   7.292   1.569   3.277  2.6481 -0.8001 -0.8251
21971SOL     OW77566   6.960   4.876   7.646 -0.0007  0.3549  0.0063
21971SOL    HW177567   7.000   4.803   7.590 -0.6363 -0.6403  0.8307
21971SOL    HW277568   7.030   4.911   7.709 -0.0825 -0.5252  0.5894
21972SOL     OW77569   0.332   9.385   4.077  0.0674 -0.2977 -0.1659
21972SOL    HW177570   0.270   9.388   3.999 -0.2538 -1.7718  0.0126
21972SOL    HW277571   0.297   9.321   4.145  0.9642  0.0693  0.6548
21973SOL     OW77572   0.114   5.648   5.637 -0.2995 -0.3862  0.2654
21973SOL    HW177573   0.197   5.635   5.692 -0.6141 -1.2457  0.5474
21973SOL    HW277574   0.062   5.563   5.635 -1.9272  0.5445  1.3278
21974SOL     OW77575   9.658   2.051   6.130 -0.1095 -0.2471 -0.0661
21974SOL    HW177576   9.571   2.099   6.129 -0.8781 -1.5844 -3.1199
21974SOL    HW277577   9.726   2.102   6.077  0.0296 -0.7910 -0.4222
21975SOL     OW77578   9.058   3.147   3.065 -0.3358  0.5939 -0.7453
21975SOL    HW177579   8.996   3.212   3.021 -0.8932 -0.7228 -1.9780
21975SOL    HW277580   9.069   3.067   3.005  0.7463 -0.2005  0.4968
21976SOL     OW77581   0.649   8.702   6.860 -0.7061 -0.3716  0.4100
21976SOL    HW177582   0.738   8.676   6.823 -1.4497 -3.5581  0.7683
21976SOL    HW277583   0.656   8.712   6.959 -0.1162  2.2746  0.1457
21977SOL     OW77584   6.440   7.536   4.643  0.1255 -0.2738  0.4473
21977SOL    HW177585   6.430   7.504   4.738 -1.0838 -0.9238  0.1175
21977SOL    HW277586   6.351   7.569   4.610  1.0726  2.3230  0.3654
21978SOL     OW77587   0.137   2.230   1.821  0.0938 -0.2837 -0.0722
21978SOL    HW177588   0.092   2.317   1.806  0.7643 -0.0800 -0.9417
21978SOL    HW277589   0.123   2.170   1.743  1.1326 -0.2925 -0.2680
21979SOL     OW77590   9.251   7.801   5.972  0.0424  0.2636 -0.0149
21979SOL    HW177591   9.327   7.785   6.035 -0.3192  0.7397  0.5475
21979SOL    HW277592   9.262   7.890   5.928  0.1061  0.0883 -0.3527
21980SOL     OW77593   8.999   0.249   5.106  0.0007 -0.2722 -0.1254
21980SOL    HW177594   9.002   0.335   5.055  0.4269  0.0475  0.4310
21980SOL    HW277595   9.056   0.257   5.188  0.2902 -1.1871 -0.2286
21981SOL     OW77596   1.630   2.721   3.445  0.1316 -0.3468 -0.1727
21981SOL    HW177597   1.725   2.718   3.416  0.4214  1.2062  0.5987
21981SOL    HW277598   1.614   2.802   3.500 -1.4848 -0.9415  0.2689
21982SOL     OW77599   3.190   8.338   4.271 -0.5666  0.4468  0.5338
21982SOL    HW177600   3.211   8.433   4.296 -0.6786  0.9482 -1.2265
21982SOL    HW277601   3.120   8.302   4.333 -1.0575  1.7460  0.7432
21983SOL     OW77602   8.291   2.144   5.242 -0.1560 -0.2032 -0.6886
21983SOL    HW177603   8.206   2.194   5.224  0.0584  0.2825 -0.3459
21983SOL    HW277604   8.281   2.050   5.209 -1.3577 -0.5734  0.6730
21984SOL     OW77605   4.226   2.603   6.385 -0.1047 -0.3714 -0.3943
21984SOL    HW177606   4.315   2.560   6.372 -0.4517 -1.6577  1.2959
21984SOL    HW277607   4.230   2.668   6.461 -0.5021 -0.1482 -0.5594
21985SOL     OW77608   4.981   5.185   7.744 -0.0245 -0.0615 -0.0995
21985SOL    HW177609   4.963   5.275   7.783  0.5848  0.3692 -0.8128
21985SOL    HW277610   5.005   5.194   7.648 -2.2908 -1.1750 -0.8168
21986SOL     OW77611   1.337   9.424   5.774 -0.4432 -0.2262  0.0559
21986SOL    HW177612   1.371   9.373   5.695 -0.4579  0.7585 -0.6070
21986SOL    HW277613   1.412   9.472   5.818 -0.2931 -1.4607  1.1752
21987SOL     OW77614   1.493   7.017   0.761  0.2260 -0.2592  0.0678
21987SOL    HW177615   1.408   6.969   0.737 -0.3084  0.8403 -0.2961
21987SOL    HW277616   1.495   7.034   0.860 -0.5507  0.7395 -0.0721
21988SOL     OW77617   2.080   9.069   4.799 -0.6540 -0.1781  0.4708
21988SOL    HW177618   2.006   9.036   4.856 -0.5669 -0.0619  0.6540
21988SOL    HW277619   2.114   9.156   4.836  0.2718 -0.7482  0.9988
21989SOL     OW77620   5.819   1.578   2.298 -0.6216 -0.4834 -0.4977
21989SOL    HW177621   5.739   1.586   2.357 -1.1977 -0.9295 -1.2045
21989SOL    HW277622   5.829   1.483   2.269  0.4042 -0.5127 -0.0940
21990SOL     OW77623   4.613   8.182   2.352  0.4953 -0.6854 -0.1541
21990SOL    HW177624   4.704   8.222   2.368 -0.0341  0.7061 -0.5651
21990SOL    HW277625   4.580   8.209   2.262 -1.0307  0.2075  0.6532
21991SOL     OW77626   8.355   9.277   3.272 -0.8111  0.4356 -0.3476
21991SOL    HW177627   8.411   9.335   3.212 -0.3933  0.0467 -0.3335
21991SOL    HW277628   8.261   9.275   3.238 -0.6371  0.4321 -0.8362
21992SOL     OW77629   3.973   4.058   4.420 -0.1398 -0.1628  0.0032
21992SOL    HW177630   4.012   4.077   4.330 -1.2603  0.2449 -0.4005
21992SOL    HW277631   4.008   3.970   4.454  1.1684  0.2335 -0.3217
21993SOL     OW77632   1.410   8.630   1.810 -0.2542  0.6345  0.0848
21993SOL    HW177633   1.405   8.711   1.869  0.6233  1.4466 -0.9388
21993SOL    HW277634   1.372   8.651   1.720  0.3978  0.0564 -0.3365
21994SOL     OW77635   1.175   9.405   3.023 -0.3547  0.0733  0.4542
21994SOL    HW177636   1.141   9.312   3.042  2.1605 -1.2492 -1.2376
21994SOL    HW277637   1.232   9.435   3.099  0.6177 -0.6707  0.0262
21995SOL     OW77638   7.153   9.195   7.271 -0.1725  0.3132 -0.1806
21995SOL    HW177639   7.108   9.250   7.200  1.4217 -1.5170 -2.6920
21995SOL    HW277640   7.159   9.100   7.241  1.6797 -0.2651  1.8808
21996SOL     OW77641   0.901   0.305   0.477  0.5198 -0.3629  0.2620
21996SOL    HW177642   0.906   0.293   0.378  1.3201 -0.7360  0.3434
21996SOL    HW277643   0.974   0.253   0.520 -0.3704 -0.9216  1.1126
21997SOL     OW77644   9.491   3.449   3.502 -0.1151 -0.3569 -0.1970
21997SOL    HW177645   9.499   3.415   3.409  1.0674  2.0313 -1.0085
21997SOL    HW277646   9.554   3.399   3.562  2.7931  1.3587 -1.6849
21998SOL     OW77647   2.873   8.935   2.611 -0.0005  0.4531 -0.0142
21998SOL    HW177648   2.797   8.968   2.667  0.2189 -0.6691  0.9662
21998SOL    HW277649   2.947   8.903   2.670 -0.4288 -2.2973 -0.8803
21999SOL     OW77650   1.042   6.456   4.838 -0.6207 -0.3269  0.3455
21999SOL    HW177651   1.005   6.538   4.882  1.2715  0.5602  0.3597
21999SOL    HW277652   1.130   6.433   4.879 -0.6240 -1.7421 -0.3994
22000SOL     OW77653   9.005   2.564   6.261  0.3660 -0.4579 -0.7581
22000SOL    HW177654   9.052   2.492   6.209  0.5608 -0.9993  0.1497
22000SOL    HW277655   8.912   2.535   6.281  0.4547 -0.4785 -0.3650
22001SOL     OW77656   6.254   1.802   1.428 -0.2766 -0.1508  1.3583
22001SOL    HW177657   6.170   1.769   1.472 -0.0814  1.8491  3.2771
22001SOL    HW277658   6.314   1.724   1.409 -2.1065 -1.4841  0.9240
22002SOL     OW77659   2.114   9.790   6.573 -0.7388 -0.0314  0.0784
22002SOL    HW177660   2.206   9.819   6.600 -0.2776 -1.0604 -0.3752
22002SOL    HW277661   2.061   9.770   6.655  0.6102 -2.9784  0.3016
22003SOL     OW77662   9.002   0.738   5.754  0.5117  0.5071 -0.6083
22003SOL    HW177663   8.974   0.657   5.807  1.9219 -0.7429 -1.7331
22003SOL    HW277664   9.049   0.802   5.814 -0.5971  0.5008  0.2939
22004SOL     OW77665   1.293   1.036   6.595 -0.5880  0.1720 -0.4612
22004SOL    HW177666   1.309   1.025   6.693 -2.3167  0.2083 -0.1602
22004SOL    HW277667   1.366   0.990   6.544  0.4068  0.2701  0.8239
22005SOL     OW77668   8.347   7.596   1.293  0.2669 -0.3568 -0.4781
22005SOL    HW177669   8.442   7.624   1.282  0.4704 -1.5783 -1.9634
22005SOL    HW277670   8.309   7.570   1.204 -0.2866 -3.5361  0.6309
22006SOL     OW77671   5.238   1.425   3.791 -0.5031  0.6185 -0.0776
22006SOL    HW177672   5.239   1.352   3.722 -0.4688  0.0511  0.5119
22006SOL    HW277673   5.326   1.426   3.839 -0.8513  0.3885  0.5867
22007SOL     OW77674   4.376   8.900   3.900 -0.2220  0.1658 -0.1058
22007SOL    HW177675   4.409   8.969   3.965  1.0840 -0.2951 -0.2607
22007SOL    HW277676   4.296   8.936   3.851  1.5495  2.2919 -1.5279
22008SOL     OW77677   9.956   7.326   0.867  0.0824 -0.3918  0.2616
22008SOL    HW177678   9.897   7.364   0.939  1.4890  2.8371 -0.1956
22008SOL    HW277679  10.016   7.256   0.907 -2.1607 -1.8044  1.2614
22009SOL     OW77680   1.989   9.837   7.529  0.3402 -0.4072  0.4388
22009SOL    HW177681   1.954   9.877   7.614 -1.3673  1.3172 -1.0402
22009SOL    HW277682   1.921   9.773   7.492  0.8359 -0.7283  0.0779
22010SOL     OW77683   4.363   1.760   5.115  0.0306  0.0183 -0.0918
22010SOL    HW177684   4.451   1.797   5.084 -0.5519  1.7009  0.2222
22010SOL    HW277685   4.377   1.707   5.199  0.7344  0.3624  0.0113
22011SOL     OW77686   4.438   9.089   2.840  0.3719 -0.2838  0.0499
22011SOL    HW177687   4.365   9.028   2.871  1.5563 -1.5993  0.3275
22011SOL    HW277688   4.509   9.094   2.910  0.7547  0.6321 -0.4004
22012SOL     OW77689   5.221   5.554   2.598  0.1570  0.1658  0.3618
22012SOL    HW177690   5.222   5.583   2.694  1.0576 -0.1155  0.4371
22012SOL    HW277691   5.127   5.536   2.570 -0.0860  0.0181  1.2617
22013SOL     OW77692   3.984   0.022   1.731 -0.3884 -0.4916 -0.3695
22013SOL    HW177693   3.913  -0.032   1.686 -1.4703  0.0512  0.6774
22013SOL    HW277694   3.962   0.034   1.827  0.5784  0.5709 -0.2621
22014SOL     OW77695   9.882   6.207   5.391  0.1400 -0.5046 -0.6297
22014SOL    HW177696   9.822   6.196   5.470  0.6229 -1.1392 -0.3435
22014SOL    HW277697   9.895   6.119   5.347  1.9609 -0.6389  0.1251
22015SOL     OW77698   4.009   4.784   1.717 -0.9142  0.1775 -0.2525
22015SOL    HW177699   3.973   4.877   1.719  0.5003  0.7312 -0.0186
22015SOL    HW277700   4.109   4.787   1.723 -0.9150 -1.3935  0.8803
22016SOL     OW77701   9.688   0.133   3.682 -0.2466 -0.3145 -0.8814
22016SOL    HW177702   9.736   0.115   3.597  0.8313 -0.9491 -0.1561
22016SOL    HW277703   9.649   0.048   3.717 -1.0749  0.0264 -0.9773
22017SOL     OW77704   0.894   6.915   1.848 -0.2535 -0.1059  0.2000
22017SOL    HW177705   0.827   6.980   1.810  0.1333  0.4019  0.3828
22017SOL    HW277706   0.900   6.927   1.947 -1.4525 -1.6129  0.4662
22018SOL     OW77707   2.099   8.385   5.843 -0.1857  0.3376 -0.4469
22018SOL    HW177708   2.086   8.466   5.786 -0.1411  0.4996 -0.2262
22018SOL    HW277709   2.012   8.359   5.884 -0.3749 -0.2193 -1.1748
22019SOL     OW77710   0.803   1.585   6.768 -0.6991 -0.7214  0.3736
22019SOL    HW177711   0.836   1.563   6.860 -1.7858 -0.9758  0.7095
22019SOL    HW277712   0.732   1.655   6.775  0.6510  0.7699 -0.4471
22020SOL     OW77713   6.810   1.622   4.484 -0.7305  0.3930 -0.3380
22020SOL    HW177714   6.834   1.711   4.447 -2.0509  0.3894 -1.2309
22020SOL    HW277715   6.812   1.554   4.411 -0.6150 -0.1444  0.1599
22021SOL     OW77716   8.071   6.264   0.191 -0.5892  0.6454  0.4657
22021SOL    HW177717   8.170   6.251   0.185 -0.8815 -1.5512  0.0342
22021SOL    HW277718   8.048   6.299   0.281  0.4840  0.1453  0.9467
22022SOL     OW77719   2.086   1.975   1.093 -0.0867 -0.2141 -0.2585
22022SOL    HW177720   2.023   1.921   1.149  0.1602  0.1536  0.3720
22022SOL    HW277721   2.047   2.064   1.074 -1.3715 -1.2949 -2.9696
22023SOL     OW77722   7.505   2.866   6.309  0.1556 -0.3323 -0.0114
22023SOL    HW177723   7.527   2.927   6.232 -1.1812 -1.1461 -1.0746
22023SOL    HW277724   7.472   2.920   6.386  0.1054  0.3919 -0.5340
22024SOL     OW77725   8.930   6.762   3.398 -0.0111 -0.1288  0.0118
22024SOL    HW177726   8.995   6.810   3.339  3.4670  0.1873  3.8303
22024SOL    HW277727   8.881   6.829   3.454 -0.4575 -0.6102  0.1909
22025SOL     OW77728   8.532   0.586   2.776  0.2120 -0.4876 -0.3093
22025SOL    HW177729   8.610   0.526   2.791  0.4202 -0.5762 -1.6544
22025SOL    HW277730   8.562   0.681   2.776 -0.2415 -0.3034  2.6249
22026SOL     OW77731   9.886   7.113   5.426  0.0885 -0.2274 -0.1693
22026SOL    HW177732   9.842   7.183   5.369 -0.4929  0.6295  1.2954
22026SOL    HW277733   9.921   7.040   5.368 -0.8194  0.4432 -1.5947
22027SOL     OW77734   0.417   5.886   8.115  0.4454 -0.1615  0.0271
22027SOL    HW177735   0.462   5.973   8.137 -0.4753  0.8885 -2.0554
22027SOL    HW277736   0.321   5.890   8.142  0.0943 -0.0325 -1.1808
22028SOL     OW77737   4.047   7.601   4.242  0.1245  0.0500 -0.5875
22028SOL    HW177738   3.991   7.677   4.208 -0.3949  0.4561  1.1697
22028SOL    HW277739   4.140   7.634   4.259 -0.4444  0.6284  1.4604
22029SOL     OW77740   7.971   0.952   1.613  0.0191  0.2426 -0.0170
22029SOL    HW177741   7.971   0.892   1.533 -0.5360 -0.6105  0.6174
22029SOL    HW277742   8.060   0.946   1.659 -0.1470 -0.3341  0.2266
22030SOL     OW77743   6.637   2.166   2.267  0.2451 -0.3772  0.5986
22030SOL    HW177744   6.687   2.246   2.303 -0.5891 -0.3437  1.7110
22030SOL    HW277745   6.609   2.184   2.173 -0.6399  0.9785  1.1072
22031SOL     OW77746   4.160   1.262   7.205  0.2955  0.9218 -0.0769
22031SOL    HW177747   4.209   1.232   7.287  2.4837  0.6259 -1.4539
22031SOL    HW277748   4.154   1.361   7.204 -1.4001  0.8775  1.3300
22032SOL     OW77749   4.624   3.722   5.201  0.9985 -0.5032  0.3821
22032SOL    HW177750   4.644   3.781   5.279  2.1378 -1.5493  0.8875
22032SOL    HW277751   4.706   3.710   5.145 -0.3405  2.0957 -2.3104
22033SOL     OW77752   4.413   4.856   6.783  0.5426 -0.3358  0.4874
22033SOL    HW177753   4.400   4.804   6.698  1.2066  0.0714  0.1377
22033SOL    HW277754   4.498   4.828   6.826  0.9921  0.5859  0.2098
22034SOL     OW77755   9.994   7.689   1.705  0.5898 -0.8330  0.2144
22034SOL    HW177756  10.043   7.772   1.679  1.6959 -1.0472  1.5877
22034SOL    HW277757  10.040   7.645   1.781 -2.7972 -0.0162  2.8910
22035SOL     OW77758   0.360   4.968   7.845 -0.2571  0.3770 -0.3217
22035SOL    HW177759   0.331   5.045   7.788 -1.6742  0.4093  0.4285
22035SOL    HW277760   0.292   4.952   7.917  0.6654 -0.7574  0.3132
22036SOL     OW77761   5.202   3.091   4.912 -0.3942 -0.2041 -0.3618
22036SOL    HW177762   5.180   3.071   5.008 -0.5302 -2.0846 -0.7782
22036SOL    HW277763   5.132   3.153   4.875 -2.4389 -2.3935 -0.2992
22037SOL     OW77764   0.071   2.675   7.744 -0.0349  0.0583 -0.0053
22037SOL    HW177765   0.065   2.597   7.681 -1.7892  1.6502 -1.8552
22037SOL    HW277766   0.131   2.745   7.705 -1.7589  1.3882 -0.2795
22038SOL     OW77767   7.836   7.966   4.046 -0.5687  0.0680  0.0811
22038SOL    HW177768   7.917   8.002   4.000 -1.1504  0.4584 -0.6373
22038SOL    HW277769   7.830   7.867   4.030  0.4209 -0.1814  1.1432
22039SOL     OW77770   0.864   3.338   1.596  0.3266 -0.1185 -0.1086
22039SOL    HW177771   0.790   3.378   1.651 -0.1868 -0.1895 -0.7325
22039SOL    HW277772   0.878   3.395   1.514  1.8511  0.6209  0.6489
22040SOL     OW77773   4.662   6.531   2.933  0.2346  0.0097  0.2411
22040SOL    HW177774   4.707   6.621   2.929 -0.1641  0.1550 -1.4080
22040SOL    HW277775   4.717   6.465   2.883 -1.2564  0.1342 -1.6042
22041SOL     OW77776   8.312   1.409   2.903 -0.1677  0.5783  0.0311
22041SOL    HW177777   8.386   1.439   2.843 -0.6151  0.5776 -0.5250
22041SOL    HW277778   8.233   1.381   2.848  0.2061 -1.5473  0.5415
22042SOL     OW77779   3.280   2.117   4.441 -0.3274  0.6644 -0.1463
22042SOL    HW177780   3.210   2.115   4.512 -0.6199 -0.3135 -0.4504
22042SOL    HW277781   3.244   2.074   4.358  0.8692 -0.4769 -0.0796
22043SOL     OW77782   8.314   8.725   4.855 -0.0023  0.0133  0.6272
22043SOL    HW177783   8.368   8.642   4.839  0.7545  0.2457  1.8699
22043SOL    HW277784   8.217   8.701   4.858  0.0682 -0.5064 -0.9894
22044SOL     OW77785   8.808   5.012   6.390  0.3296  0.4528 -0.7693
22044SOL    HW177786   8.787   5.080   6.320  0.2747 -1.8758 -3.0950
22044SOL    HW277787   8.819   4.922   6.347 -1.1163 -1.3101  2.3936
22045SOL     OW77788   9.266   1.567   7.091 -0.0257  0.0475 -0.4844
22045SOL    HW177789   9.364   1.548   7.098 -0.1188 -2.3458 -4.1568
22045SOL    HW277790   9.214   1.486   7.119 -0.7533 -0.6688 -3.6692
22046SOL     OW77791   0.411   5.274   2.613  0.1183  0.1694 -0.4260
22046SOL    HW177792   0.330   5.280   2.555  0.3044  1.5875 -0.5471
22046SOL    HW277793   0.485   5.229   2.562 -0.5029 -0.9157 -0.3922
22047SOL     OW77794   0.022   9.391   2.507  0.1243  0.2215  0.2709
22047SOL    HW177795   0.121   9.396   2.495  0.4020 -1.2168  1.7767
22047SOL    HW277796  -0.014   9.312   2.457 -0.2718  0.7491 -0.2852
22048SOL     OW77797   5.389   9.580   5.590  0.0751  0.1767 -0.0452
22048SOL    HW177798   5.351   9.493   5.560  1.6126  0.1882 -2.1829
22048SOL    HW277799   5.320   9.652   5.582 -0.0622 -0.1491 -1.9811
22049SOL     OW77800   4.998   2.990   5.836 -0.3014 -0.0758  0.2193
22049SOL    HW177801   4.997   2.981   5.736 -0.2911  0.6324  0.1554
22049SOL    HW277802   4.990   2.900   5.877 -2.5576 -0.1829 -0.4002
22050SOL     OW77803   3.722   0.713   5.064  0.6324 -0.4183 -0.3100
22050SOL    HW177804   3.701   0.750   5.155  1.7108  1.6423 -0.8638
22050SOL    HW277805   3.651   0.743   5.000 -0.1984 -1.9816 -0.1283
22051SOL     OW77806   8.595   0.263   6.043  0.2915  0.0394 -0.3257
22051SOL    HW177807   8.606   0.360   6.022  0.9475  0.0293 -0.0480
22051SOL    HW277808   8.498   0.242   6.052  0.1965  0.9572  0.9582
22052SOL     OW77809   5.208   0.402   7.277  0.0330  0.2117  0.2048
22052SOL    HW177810   5.172   0.416   7.369  1.6467 -1.9496  1.2009
22052SOL    HW277811   5.308   0.403   7.280  0.1188 -1.7159 -1.2313
22053SOL     OW77812   9.804   9.880   4.931  0.1220 -0.2199 -0.0529
22053SOL    HW177813   9.861   9.902   4.852  0.8413  0.3781  0.6309
22053SOL    HW277814   9.859   9.836   5.002 -0.8970 -2.4478 -0.6003
22054SOL     OW77815   8.439   5.351   0.964 -0.8878  0.4371  0.0846
22054SOL    HW177816   8.453   5.370   1.061 -1.4079  2.5547 -0.2301
22054SOL    HW277817   8.371   5.414   0.927 -1.6456 -1.1900 -1.3779
22055SOL     OW77818   1.822   4.130   1.208 -0.1280 -0.8247  0.0971
22055SOL    HW177819   1.847   4.141   1.305 -0.6920 -2.7821  0.4715
22055SOL    HW277820   1.735   4.082   1.201 -1.9870  2.5540 -1.3169
22056SOL     OW77821   9.004   0.200   4.689  0.3404 -0.2071 -0.5477
22056SOL    HW177822   8.912   0.230   4.663  0.7084  1.0640 -0.4158
22056SOL    HW277823   8.998   0.131   4.761 -0.4528  1.0408  0.5978
22057SOL     OW77824   6.508   1.730   6.150 -0.4429 -0.4660  0.6854
22057SOL    HW177825   6.541   1.825   6.155 -1.6188  0.0348 -0.7593
22057SOL    HW277826   6.535   1.690   6.063 -0.6666 -1.2001  0.9497
22058SOL     OW77827   3.720   6.728   2.892  0.2574 -0.7336 -0.3141
22058SOL    HW177828   3.709   6.680   2.979 -1.2030 -0.4737 -0.3343
22058SOL    HW277829   3.812   6.765   2.885  0.6891 -1.5951  0.6962
22059SOL     OW77830   8.875   4.894   2.213 -0.5131 -0.2453 -0.3111
22059SOL    HW177831   8.874   4.885   2.114 -1.6192  1.3202 -0.4475
22059SOL    HW277832   8.951   4.952   2.241  0.6543 -1.8298 -0.1250
22060SOL     OW77833   8.762   2.549   5.973  0.0145  0.1570  0.5963
22060SOL    HW177834   8.842   2.504   6.013  1.2271  0.6527 -1.2022
22060SOL    HW277835   8.706   2.481   5.926  0.3982  0.0756  0.2462
22061SOL     OW77836   2.762   1.596   1.333 -0.1436 -0.7223  0.4085
22061SOL    HW177837   2.732   1.674   1.277 -1.0168 -0.4636  1.2140
22061SOL    HW277838   2.775   1.516   1.275 -0.8797 -0.4108 -0.1960
22062SOL     OW77839   2.211   9.185   3.919  0.1571  0.0689  0.6780
22062SOL    HW177840   2.177   9.091   3.923  0.0413 -0.1537 -3.7058
22062SOL    HW277841   2.309   9.184   3.896  0.0554  1.0278  0.2094
22063SOL     OW77842   7.382   0.865   3.842  0.4184  0.5096  0.5110
22063SOL    HW177843   7.359   0.767   3.841  0.1054  0.5774  0.7931
22063SOL    HW277844   7.363   0.902   3.933  0.0485  0.9472  0.2577
22064SOL     OW77845   0.534   0.948   5.122 -0.0102  0.7039  0.7492
22064SOL    HW177846   0.477   0.894   5.183 -1.4830 -0.6638 -1.7815
22064SOL    HW277847   0.595   0.888   5.071 -0.6803  1.5436 -1.0720
22065SOL     OW77848   2.991   4.425   0.271  0.0081  0.3082 -0.2450
22065SOL    HW177849   2.969   4.502   0.331  0.1421  0.0442  0.1473
22065SOL    HW277850   2.907   4.379   0.243 -0.0206 -0.0035  0.3258
22066SOL     OW77851   0.463   1.152   0.606 -0.0515  0.1154 -0.1452
22066SOL    HW177852   0.541   1.206   0.575  0.7036 -1.1151 -0.4382
22066SOL    HW277853   0.414   1.201   0.677  1.2383  0.7227  0.3362
22067SOL     OW77854   2.780   6.781   1.568  0.1374  0.6309 -0.3318
22067SOL    HW177855   2.732   6.693   1.558 -1.9480  1.5315  1.4057
22067SOL    HW277856   2.875   6.763   1.593 -0.4342 -1.1359  0.6968
22068SOL     OW77857   2.843   6.819   7.729  0.6609 -0.1710 -0.3530
22068SOL    HW177858   2.936   6.785   7.746  0.5008 -1.2258 -1.4434
22068SOL    HW277859   2.841   6.867   7.642 -0.1978 -1.7832 -1.2459
22069SOL     OW77860   6.187   1.597   2.266 -0.1816  0.2790 -0.0394
22069SOL    HW177861   6.091   1.592   2.296  0.0278  2.3266  1.0926
22069SOL    HW277862   6.244   1.542   2.326 -0.5225 -0.1106 -0.0748
22070SOL     OW77863   2.573   3.503   5.974  0.2223  0.3741 -0.2994
22070SOL    HW177864   2.571   3.584   6.033 -0.5477  1.0743 -1.2659
22070SOL    HW277865   2.664   3.494   5.933  1.1845 -0.8849  2.0052
22071SOL     OW77866   2.911   4.593   5.002 -0.2075  0.0123 -0.1757
22071SOL    HW177867   2.911   4.585   5.102  1.3786 -1.0022 -0.2266
22071SOL    HW277868   3.005   4.606   4.970 -0.6502 -0.1259 -1.5662
22072SOL     OW77869   6.567   1.365   0.484 -0.5522  0.0859  0.4654
22072SOL    HW177870   6.503   1.427   0.529  0.4344  0.6514  1.0947
22072SOL    HW277871   6.652   1.414   0.463  0.0860 -0.9485  0.6205
22073SOL     OW77872   3.078   5.462   3.304 -0.5419 -0.1824 -0.2282
22073SOL    HW177873   3.021   5.400   3.249 -1.1361 -0.8458  1.1219
22073SOL    HW277874   3.128   5.410   3.372 -1.2416  0.8404  1.0882
22074SOL     OW77875   0.042   3.096   3.489  0.1832  0.2955  0.0370
22074SOL    HW177876   0.025   3.190   3.520  0.9094  0.5438 -0.3016
22074SOL    HW277877   0.135   3.089   3.454 -0.3872 -0.1532 -1.4162
22075SOL     OW77878   1.121   2.183   2.122 -0.0489  0.1792 -0.3948
22075SOL    HW177879   1.091   2.094   2.156  0.2045 -0.1275 -0.9611
22075SOL    HW277880   1.149   2.241   2.199  0.8295 -0.6167 -0.1022
22076SOL     OW77881   2.847   3.475   6.966 -0.7894 -0.0958  0.1841
22076SOL    HW177882   2.768   3.415   6.957 -1.9531  1.1574  1.8617
22076SOL    HW277883   2.816   3.569   6.977  0.8905  0.2731  2.0086
22077SOL     OW77884   1.843   9.229   3.468 -0.3273 -0.6462 -0.3212
22077SOL    HW177885   1.923   9.257   3.415 -0.5891 -0.5910 -0.6892
22077SOL    HW277886   1.871   9.206   3.561 -0.0723  0.6864 -0.0558
22078SOL     OW77887   4.463   5.977   1.076  0.6677  0.0358  0.1827
22078SOL    HW177888   4.556   5.984   1.041  1.0480  0.4635  1.2784
22078SOL    HW277889   4.399   5.970   0.999  1.8786 -3.9524 -0.5888
22079SOL     OW77890   1.894   8.103   2.678  0.5200 -0.5513 -0.1104
22079SOL    HW177891   1.938   8.179   2.629  0.1442 -0.8609 -0.9309
22079SOL    HW277892   1.856   8.137   2.764  0.8805  0.0700 -0.1910
22080SOL     OW77893   3.590   7.675   1.201 -0.2793 -0.0607 -0.0964
22080SOL    HW177894   3.620   7.585   1.167  0.2025  0.4021 -0.9313
22080SOL    HW277895   3.549   7.665   1.291 -2.5600 -1.4851 -1.2520
22081SOL     OW77896   8.149   1.722   5.803  0.1696 -0.3935  0.8082
22081SOL    HW177897   8.243   1.738   5.772 -0.2632 -2.0890 -1.5472
22081SOL    HW277898   8.092   1.799   5.775  0.3236 -0.6668 -0.2933
22082SOL     OW77899   6.924   2.919   2.998 -0.5364 -0.3473 -0.0771
22082SOL    HW177900   6.956   2.828   3.022  0.8872  0.1176 -0.1559
22082SOL    HW277901   6.846   2.943   3.057  0.0167 -1.0276  0.9596
22083SOL     OW77902   1.754   0.423   5.320  0.2038  0.3307  0.4156
22083SOL    HW177903   1.720   0.475   5.398  0.3852  0.7911  0.1848
22083SOL    HW277904   1.743   0.476   5.236 -0.1721 -0.2425  0.0983
22084SOL     OW77905   7.094   0.796   0.099  0.9488  0.0668  0.3560
22084SOL    HW177906   7.032   0.813   0.176  1.1730 -1.2883  0.8429
22084SOL    HW277907   7.121   0.700   0.098  0.0069 -0.2192 -2.1267
22085SOL     OW77908   3.325   7.390   1.800  0.4761 -0.0758  0.4490
22085SOL    HW177909   3.299   7.295   1.818  0.0916  0.0165  0.3909
22085SOL    HW277910   3.263   7.429   1.732  0.6190  0.2231  0.4892
22086SOL     OW77911   6.603   1.664   8.047  0.3770 -0.3077 -0.1676
22086SOL    HW177912   6.513   1.679   8.088  0.2580  1.2858 -0.9600
22086SOL    HW277913   6.672   1.713   8.101  0.3599  0.9084 -1.2276
22087SOL     OW77914   3.140   7.754   5.445 -0.6086 -0.4272  0.0624
22087SOL    HW177915   3.058   7.812   5.448  0.1375  0.6167  0.9672
22087SOL    HW277916   3.161   7.722   5.537  0.4907  0.0392 -0.0177
22088SOL     OW77917   2.099   0.083   1.049 -0.1277  0.2866 -0.1171
22088SOL    HW177918   2.174   0.135   1.089  1.0142 -0.9806 -0.5598
22088SOL    HW277919   2.109  -0.014   1.073 -2.2746  0.2691  0.7957
22089SOL     OW77920   1.493   9.579   5.958 -0.3943  0.0755 -0.0242
22089SOL    HW177921   1.548   9.647   5.910  1.0677 -0.0580  1.4284
22089SOL    HW277922   1.458   9.619   6.043 -0.6434 -0.5668  0.1754
22090SOL     OW77923   3.556   9.985   2.307  0.7764  0.2519 -0.2594
22090SOL    HW177924   3.530  10.053   2.238 -1.2220 -0.0795  0.1171
22090SOL    HW277925   3.488   9.985   2.380  0.4237 -2.5191 -0.5296
22091SOL     OW77926   1.405   7.491   6.415 -0.0208 -0.2020 -0.0439
22091SOL    HW177927   1.447   7.458   6.500 -0.2202 -0.7875 -0.1747
22091SOL    HW277928   1.308   7.509   6.431 -0.2889 -1.2907 -0.4125
22092SOL     OW77929   4.786   8.135   7.326  0.0389  0.3932  0.7497
22092SOL    HW177930   4.762   8.211   7.266  0.7386  0.2173  0.2428
22092SOL    HW277931   4.881   8.145   7.355  0.4602 -0.8695 -0.1894
22093SOL     OW77932   9.241   3.186   1.677 -0.7656  0.0432  0.3419
22093SOL    HW177933   9.213   3.238   1.757 -1.3080 -0.1365  0.2733
22093SOL    HW277934   9.341   3.187   1.669 -0.7463  0.5602  0.6765
22094SOL     OW77935   3.291   5.834   2.532 -0.2065 -0.1875  0.3122
22094SOL    HW177936   3.236   5.899   2.479  0.7588  1.1258  0.8699
22094SOL    HW277937   3.373   5.881   2.567  0.2636 -1.5903  1.1373
22095SOL     OW77938   5.576   2.538   4.319  0.0589  0.7052  0.3357
22095SOL    HW177939   5.660   2.547   4.372  1.1593 -2.7056 -0.7023
22095SOL    HW277940   5.575   2.606   4.246  2.0899  0.5488  0.1342
22096SOL     OW77941   8.427   3.004   6.178  0.3877  0.2554  0.8607
22096SOL    HW177942   8.335   2.982   6.146  0.8847  1.3871 -1.3754
22096SOL    HW277943   8.469   2.921   6.217 -0.1322 -1.2337 -1.6672
22097SOL     OW77944   1.362   4.205   7.059 -0.2637  0.4271  0.5342
22097SOL    HW177945   1.285   4.268   7.067  0.0211  0.8309  0.1674
22097SOL    HW277946   1.423   4.216   7.137 -0.8019 -0.2101  1.0526
22098SOL     OW77947   1.713   4.103   7.717 -0.0417  0.0613 -0.3022
22098SOL    HW177948   1.694   4.172   7.787  0.3193  0.5730 -0.7069
22098SOL    HW277949   1.741   4.148   7.632 -2.3197 -0.4532 -1.3762
22099SOL     OW77950   7.794   6.990   3.362  0.4733  0.1363 -0.3842
22099SOL    HW177951   7.784   7.079   3.316  1.3131  0.2966 -0.2518
22099SOL    HW277952   7.828   6.923   3.297  0.6487  0.1108 -0.2654
22100SOL     OW77953   5.660   5.053   0.199  0.5936 -0.2650 -0.2876
22100SOL    HW177954   5.593   5.117   0.238  0.5707 -0.3101 -0.2522
22100SOL    HW277955   5.745   5.057   0.251  0.5714 -0.3075 -0.2470
22101SOL     OW77956   2.827   3.283   3.595 -0.5217 -0.1140 -0.4255
22101SOL    HW177957   2.829   3.363   3.535  0.1373  0.8730  0.9108
22101SOL    HW277958   2.773   3.303   3.676  1.0030 -0.4468  0.6967
22102SOL     OW77959   8.645   0.540   5.889  0.3313 -0.1484 -0.3527
22102SOL    HW177960   8.731   0.536   5.839  0.5358  0.3798 -0.0539
22102SOL    HW277961   8.593   0.621   5.861  0.1835 -0.1656 -0.1355
22103SOL     OW77962   3.826   5.659   5.936  0.5711 -0.2497  0.0146
22103SOL    HW177963   3.801   5.576   5.986 -1.4361 -0.2638 -0.9724
22103SOL    HW277964   3.823   5.738   5.997  2.5682 -0.8834  0.9797
22104SOL     OW77965   4.178   9.713   1.839 -0.0563 -0.1789  0.0321
22104SOL    HW177966   4.115   9.777   1.884  0.2095  0.0764  0.0456
22104SOL    HW277967   4.177   9.626   1.888 -1.5118 -0.6689 -0.8484
22105SOL     OW77968   0.566   6.273   3.362 -0.0319 -0.3160 -0.2767
22105SOL    HW177969   0.594   6.301   3.454  0.0601 -0.1207 -0.3652
22105SOL    HW277970   0.639   6.294   3.297 -0.3175  0.0417 -0.4817
22106SOL     OW77971   0.603   0.158   4.269 -0.4448  0.0600  0.2681
22106SOL    HW177972   0.696   0.184   4.293 -0.3632  2.0847 -2.0695
22106SOL    HW277973   0.604   0.070   4.221  0.4416  0.7896 -1.0665
22107SOL     OW77974   4.979   2.914   0.368  0.2757  0.1513  0.3008
22107SOL    HW177975   5.012   2.924   0.274  0.4448 -2.6740  0.0248
22107SOL    HW277976   4.894   2.965   0.379  0.9987  1.6750 -0.9788
22108SOL     OW77977   2.504   4.017   6.880  0.0121 -0.2591 -0.3090
22108SOL    HW177978   2.438   3.994   6.951  0.4978 -0.0555  0.2136
22108SOL    HW277979   2.548   3.933   6.847  2.0894 -0.0803  1.8937
22109SOL     OW77980   8.134   9.978   3.563 -0.4386 -0.2513  0.0131
22109SOL    HW177981   8.096   9.929   3.484 -1.0785  0.5314 -0.1690
22109SOL    HW277982   8.151  10.073   3.538  1.4215 -0.5125  0.1702
22110SOL     OW77983   9.310   8.938   3.526  0.3463 -0.2110  0.1965
22110SOL    HW177984   9.404   8.942   3.561  1.1694  1.9565 -2.0854
22110SOL    HW277985   9.306   8.873   3.450 -0.5971 -2.1770  1.9069
22111SOL     OW77986   5.166   5.197   2.059 -0.2944 -0.1008 -0.2186
22111SOL    HW177987   5.223   5.241   1.990 -0.4731 -0.2728 -0.4765
22111SOL    HW277988   5.192   5.231   2.150  2.8073 -2.8778  0.0571
22112SOL     OW77989   0.961   0.087   2.784 -0.5158  0.0126  0.1956
22112SOL    HW177990   1.008   0.065   2.869 -2.0062 -0.1382  0.9882
22112SOL    HW277991   0.933   0.002   2.738  0.8223  0.0740 -0.7605
22113SOL     OW77992   4.486   9.597   5.052  0.0344 -0.4246  0.0386
22113SOL    HW177993   4.492   9.692   5.021 -0.3520 -0.9479 -1.6468
22113SOL    HW277994   4.437   9.542   4.984 -0.0713 -1.7582  1.1766
22114SOL     OW77995   8.726   5.158   7.629 -0.1811 -0.4797  0.3020
22114SOL    HW177996   8.734   5.074   7.575 -1.8131 -0.6167  0.2284
22114SOL    HW277997   8.780   5.231   7.587 -3.4348  0.1475 -3.0224
22115SOL     OW77998   1.748   2.336   5.042  0.2289 -0.3898 -0.0413
22115SOL    HW177999   1.822   2.324   5.108  0.5497 -0.7766 -0.4689
22115SOL    HW278000   1.679   2.398   5.080  0.3677 -0.6793  0.6891
22116SOL     OW78001   9.722   0.321   0.697  0.4240  0.4874  0.3737
22116SOL    HW178002   9.805   0.281   0.660  0.4342  0.7667  0.0945
22116SOL    HW278003   9.672   0.251   0.749  0.0284 -0.1263 -0.8012
22117SOL     OW78004   4.273   0.688   1.156 -0.8696  0.1273  0.0735
22117SOL    HW178005   4.363   0.677   1.114 -1.3810  1.1358 -1.3372
22117SOL    HW278006   4.245   0.784   1.150 -2.1448 -0.2228  0.2529
22118SOL     OW78007   6.407   2.264   5.445  0.0042  0.2418 -0.4070
22118SOL    HW178008   6.475   2.234   5.379  1.4765 -3.9341  2.7635
22118SOL    HW278009   6.452   2.287   5.531 -2.2781  0.4009  0.7904
22119SOL     OW78010   9.931   5.743   1.976 -0.3300  0.4911 -0.1536
22119SOL    HW178011   9.951   5.739   2.074  0.3890  0.0778 -0.3160
22119SOL    HW278012   9.963   5.659   1.932 -1.8317  0.0994 -0.5298
22120SOL     OW78013   7.664   9.872   3.368  0.1368  0.1701 -0.8689
22120SOL    HW178014   7.736   9.933   3.401 -0.0584 -1.5100  2.8763
22120SOL    HW278015   7.575   9.914   3.381  0.1083 -0.1587  0.0079
22121SOL     OW78016   1.223   2.256   0.195 -0.6207  0.4604 -0.0085
22121SOL    HW178017   1.124   2.253   0.212 -1.0674  0.3688 -2.3957
22121SOL    HW278018   1.244   2.334   0.136  0.4039 -0.7933 -1.3436
22122SOL     OW78019   4.108   3.250   5.411  0.2764  0.1716  0.0194
22122SOL    HW178020   4.184   3.190   5.438  1.2387  0.9608 -0.9143
22122SOL    HW278021   4.027   3.227   5.465  0.4826 -2.3142 -0.6487
22123SOL     OW78022   1.136   0.046   4.855 -0.1783  0.0039  0.3917
22123SOL    HW178023   1.063   0.023   4.920 -2.2835  1.4151 -1.3962
22123SOL    HW278024   1.151  -0.031   4.793  0.5914 -0.6706  1.3988
22124SOL     OW78025   0.726   7.067   8.136 -0.1613 -0.3622 -0.5446
22124SOL    HW178026   0.761   7.092   8.226  1.6768  1.6989 -1.7605
22124SOL    HW278027   0.644   7.121   8.116 -1.7960 -2.3221  0.6981
22125SOL     OW78028   3.427   3.772   4.375  0.1414 -0.0250 -0.1394
22125SOL    HW178029   3.418   3.714   4.294 -1.1103 -0.1877  0.0932
22125SOL    HW278030   3.433   3.714   4.456  0.1150  0.1531 -0.0104
22126SOL     OW78031   0.086   7.859   0.164  0.3502 -0.1992  0.2853
22126SOL    HW178032   0.036   7.795   0.222 -1.2975  0.8483  0.0408
22126SOL    HW278033   0.047   7.858   0.072  0.9083  0.4806  0.0355
22127SOL     OW78034   0.239   0.502   0.213 -0.2569 -1.2027  0.2369
22127SOL    HW178035   0.252   0.593   0.172 -2.2981 -0.7382  0.5367
22127SOL    HW278036   0.141   0.484   0.221  0.1356 -3.3209  0.4670
22128SOL     OW78037   9.498   8.881   7.179  0.2919 -0.0544 -0.1117
22128SOL    HW178038   9.447   8.801   7.149  2.2455 -0.4205 -2.6167
22128SOL    HW278039   9.490   8.953   7.110  1.5590  0.5644  0.3793
22129SOL     OW78040   1.093   9.294   8.139 -0.2222  0.5631  0.0837
22129SOL    HW178041   1.152   9.353   8.194  2.0070 -0.4660 -1.1270
22129SOL    HW278042   1.044   9.231   8.199 -0.7092  1.9586  1.1768
22130SOL     OW78043   0.146   6.802   4.458  0.7854  0.0612 -0.1293
22130SOL    HW178044   0.173   6.886   4.412 -0.2895  0.9716  0.8600
22130SOL    HW278045   0.048   6.785   4.442  1.1034 -1.2737 -0.7342
22131SOL     OW78046   6.192   8.236   2.747  0.2501  0.0641  0.2823
22131SOL    HW178047   6.233   8.169   2.809  1.0697 -0.2749 -0.6180
22131SOL    HW278048   6.139   8.302   2.800  0.6858 -0.4051  1.3164
22132SOL     OW78049   2.000   8.469   5.168  0.1501  0.3640 -0.9982
22132SOL    HW178050   2.080   8.528   5.173  0.9407 -0.7717 -0.0465
22132SOL    HW278051   1.917   8.524   5.181  0.8820  1.2541 -0.0242
22133SOL     OW78052   3.098   6.147   3.227 -0.2770 -0.0430 -0.4211
22133SOL    HW178053   3.196   6.126   3.237 -0.5482 -1.4137 -0.5831
22133SOL    HW278054   3.083   6.244   3.248  0.8302 -0.2478  1.4392
22134SOL     OW78055   3.550   3.328   3.687  0.0094 -0.2972  0.2848
22134SOL    HW178056   3.458   3.333   3.649 -0.0830 -1.9066  0.2569
22134SOL    HW278057   3.613   3.379   3.629 -0.7133  0.0568 -0.1948
22135SOL     OW78058   1.370   1.083   2.984 -0.3753  0.3335 -0.3144
22135SOL    HW178059   1.388   1.161   3.043  0.9488  0.3792 -0.7456
22135SOL    HW278060   1.349   1.115   2.891  0.4871  0.1884 -0.5706
22136SOL     OW78061   4.167   8.205   0.589  0.0556 -0.0852  0.0667
22136SOL    HW178062   4.127   8.134   0.647 -0.0039 -0.1247 -0.0231
22136SOL    HW278063   4.188   8.285   0.646  0.1669 -0.1920  0.1757
22137SOL     OW78064   3.170   9.871   1.863 -0.1245 -0.1061 -0.1270
22137SOL    HW178065   3.076   9.868   1.831 -0.2179 -0.8960  0.2186
22137SOL    HW278066   3.218   9.788   1.834 -0.5011 -1.3427  2.6798
22138SOL     OW78067   8.511   0.076   4.729  0.5747 -0.1899 -0.1582
22138SOL    HW178068   8.490   0.070   4.826 -1.3499  1.2513 -0.4444
22138SOL    HW278069   8.568  -0.002   4.702 -0.2066 -1.4658  1.7750
22139SOL     OW78070   2.075   6.225   6.003  0.3327 -0.0094  0.0331
22139SOL    HW178071   2.151   6.204   5.941 -0.4829  1.3531 -1.4652
22139SOL    HW278072   2.081   6.322   6.030  0.1192 -0.3457  1.3266
22140SOL     OW78073   0.521   4.441   1.375 -0.0092  0.1973 -0.2089
22140SOL    HW178074   0.431   4.483   1.388  0.5109  1.1817  0.3092
22140SOL    HW278075   0.589   4.513   1.359  1.0775 -0.3792  1.6639
22141SOL     OW78076   6.503   9.992   6.439  0.1878 -0.0081  0.1103
22141SOL    HW178077   6.404  10.002   6.451 -0.3771 -2.0025 -2.3907
22141SOL    HW278078   6.547  10.081   6.451 -1.9906  1.0444  0.5710
22142SOL     OW78079   0.271   5.062   2.353 -0.2133 -0.3367  0.0303
22142SOL    HW178080   0.210   5.132   2.391  0.6794 -0.6177  2.0534
22142SOL    HW278081   0.340   5.106   2.295  0.8305  0.6089  1.9140
22143SOL     OW78082   0.684   4.621   1.670  0.2353  0.0329 -0.0543
22143SOL    HW178083   0.772   4.660   1.642 -0.0390  1.9621  1.7067
22143SOL    HW278084   0.610   4.673   1.627 -0.0836 -1.0020 -0.7820
22144SOL     OW78085   6.375   9.135   5.125  0.0078  0.2259 -0.8035
22144SOL    HW178086   6.288   9.184   5.115 -0.2474 -0.2490 -0.9251
22144SOL    HW278087   6.386   9.072   5.048  0.0288 -0.3785 -0.3006
22145SOL     OW78088   2.655   3.060   7.908  0.7622  0.4573 -0.3796
22145SOL    HW178089   2.604   3.028   7.988  1.3075  0.7772  0.0920
22145SOL    HW278090   2.720   2.990   7.879  1.3962  0.8104  0.1736
22146SOL     OW78091   6.810   0.670   3.752  0.0815 -0.7128  0.5745
22146SOL    HW178092   6.804   0.611   3.671 -1.5199 -0.8203  0.7457
22146SOL    HW278093   6.734   0.649   3.814  0.0936  0.7986  1.1303
22147SOL     OW78094   1.572   9.323   7.524  0.3110 -0.1216  0.0172
22147SOL    HW178095   1.599   9.385   7.450 -2.5767  2.4337  0.9931
22147SOL    HW278096   1.519   9.247   7.486  0.1602  0.3402 -0.7083
22148SOL     OW78097   3.386   0.962   0.250 -0.4417  0.0067  0.4175
22148SOL    HW178098   3.377   0.957   0.349 -0.7083 -1.1194  0.3465
22148SOL    HW278099   3.371   1.056   0.219  3.0641  1.0967  1.7887
22149SOL     OW78100   6.958   1.025   7.585  0.1508  0.3427 -0.2802
22149SOL    HW178101   6.988   1.047   7.678  0.0145  1.4537 -0.4990
22149SOL    HW278102   6.862   1.051   7.574  0.4345  1.0773 -1.0188
22150SOL     OW78103   7.604   0.729   6.715  0.4652  0.0008  0.5781
22150SOL    HW178104   7.573   0.778   6.796 -0.4526  1.1140 -0.4510
22150SOL    HW278105   7.617   0.792   6.639 -0.3862 -1.2709 -0.6631
22151SOL     OW78106   3.905   0.066   1.315 -0.0035  0.0487  0.2565
22151SOL    HW178107   3.887   0.156   1.274 -1.4163  0.3698  1.5645
22151SOL    HW278108   3.829   0.040   1.374  0.8195 -1.6055  0.6169
22152SOL     OW78109   2.142   8.900   7.678  0.4887 -0.0566 -0.2101
22152SOL    HW178110   2.072   8.869   7.742  1.4684 -0.6419  0.5784
22152SOL    HW278111   2.168   8.994   7.700 -0.7033  0.4949 -1.0806
22153SOL     OW78112   9.444   9.273   5.076 -0.3447 -0.1742 -0.8319
22153SOL    HW178113   9.487   9.193   5.117 -2.1423 -0.1696  1.1413
22153SOL    HW278114   9.439   9.261   4.977  1.4231 -1.4853 -0.7760
22154SOL     OW78115   0.061   1.300   2.120  0.3017  0.2123  0.1039
22154SOL    HW178116   0.030   1.236   2.050 -0.2194  0.8490 -0.2554
22154SOL    HW278117  -0.018   1.348   2.158  0.7446  1.0861 -0.0710
22155SOL     OW78118   1.170   2.335   0.699 -0.1919 -0.1115  0.1130
22155SOL    HW178119   1.123   2.411   0.654  0.8203 -0.0861 -0.9375
22155SOL    HW278120   1.107   2.259   0.710 -0.6281  0.1121 -0.7806
22156SOL     OW78121   4.343   5.708   7.944 -0.0245  0.8497 -0.0887
22156SOL    HW178122   4.289   5.792   7.936 -1.4856  0.1435  1.8615
22156SOL    HW278123   4.320   5.647   7.868  0.5992  1.9632 -1.1836
22157SOL     OW78124   4.790   1.135   6.600  0.2436  0.0905  0.0964
22157SOL    HW178125   4.802   1.167   6.506  0.5768 -0.9621 -0.2225
22157SOL    HW278126   4.848   1.055   6.615  1.3322  1.1373  1.6428
22158SOL     OW78127   7.585   2.597   6.979 -0.1462 -0.5946  0.2541
22158SOL    HW178128   7.683   2.588   6.962  0.0548  4.4754 -2.4171
22158SOL    HW278129   7.571   2.636   7.070  0.3440 -0.6841  0.3726
22159SOL     OW78130   5.978   1.025   1.567  0.7617 -0.8203  0.3549
22159SOL    HW178131   6.073   1.050   1.586  0.8467  0.8513 -2.0452
22159SOL    HW278132   5.976   0.955   1.495  0.1852 -0.5070  0.0598
22160SOL     OW78133   7.932   8.282   5.026 -0.4795  0.6918  0.3690
22160SOL    HW178134   7.906   8.185   5.026 -0.6325  0.7309 -0.9742
22160SOL    HW278135   7.901   8.324   5.112 -1.4315 -0.1768  0.4641
22161SOL     OW78136   8.503   3.383   2.406  0.5910 -0.7725  0.6872
22161SOL    HW178137   8.594   3.343   2.391  0.5241  0.8201 -5.0904
22161SOL    HW278138   8.508   3.482   2.398 -1.4070 -0.5290  2.0979
22162SOL     OW78139   1.262   6.675   2.739 -0.1799 -0.3541 -0.1004
22162SOL    HW178140   1.262   6.660   2.838 -1.6147  0.0597 -0.0236
22162SOL    HW278141   1.184   6.733   2.714  1.2669  1.1450 -1.2425
22163SOL     OW78142   2.405   1.342   2.547  0.3248 -0.3035 -0.2423
22163SOL    HW178143   2.310   1.348   2.575  0.0373  0.2695 -1.3143
22163SOL    HW278144   2.428   1.246   2.530 -0.3946 -0.3379 -1.0787
22164SOL     OW78145   9.379   9.379   2.201  0.6389  0.3737  0.2812
22164SOL    HW178146   9.315   9.359   2.276  1.2141 -0.2647  0.6011
22164SOL    HW278147   9.415   9.294   2.163  1.9883  0.7347  0.7086
22165SOL     OW78148   1.686   7.991   3.564  0.1274  0.5594  0.0574
22165SOL    HW178149   1.699   7.900   3.525  1.6846  1.0453 -0.5960
22165SOL    HW278150   1.760   8.051   3.534 -1.2077  2.2183 -0.0140
22166SOL     OW78151   6.171   9.130   2.283 -0.0545 -0.0043 -0.5245
22166SOL    HW178152   6.263   9.092   2.294 -0.9200 -2.1461 -0.6289
22166SOL    HW278153   6.145   9.177   2.368  1.5860  1.6832 -0.9054
22167SOL     OW78154   4.874   1.857   3.168  0.2261 -0.4034 -0.1484
22167SOL    HW178155   4.856   1.952   3.190 -0.6473 -0.6543  0.2552
22167SOL    HW278156   4.970   1.836   3.185  0.4283  0.4090 -0.2725
22168SOL     OW78157   1.620   5.554   5.764 -0.2795 -0.3288 -0.2678
22168SOL    HW178158   1.609   5.650   5.738 -0.1710 -0.6782 -1.6714
22168SOL    HW278159   1.673   5.548   5.848 -1.3100  0.8869  0.5001
22169SOL     OW78160   0.134   8.263   5.818  0.3130 -0.4750 -0.1927
22169SOL    HW178161   0.198   8.233   5.888  1.3718 -1.3096 -1.4966
22169SOL    HW278162   0.073   8.332   5.856  1.9679  0.3140  1.0791
22170SOL     OW78163   4.850   4.815   1.423 -0.0375  0.0481  0.0554
22170SOL    HW178164   4.758   4.835   1.457  0.0527 -0.0360  0.3525
22170SOL    HW278165   4.902   4.768   1.494  0.2624  0.1689 -0.0829
22171SOL     OW78166   2.865   1.591   5.083  0.2948 -0.2117  0.1634
22171SOL    HW178167   2.886   1.500   5.046  0.1261  0.4548 -1.6122
22171SOL    HW278168   2.946   1.628   5.128 -0.4715 -2.4716  3.6115
22172SOL     OW78169   3.396   1.717   7.852  1.0298  0.2370 -0.6552
22172SOL    HW178170   3.460   1.723   7.776  0.7041 -0.1250 -0.9601
22172SOL    HW278171   3.415   1.634   7.905 -0.0836 -0.6126 -1.5687
22173SOL     OW78172   9.981   5.650   7.170  0.0284 -0.6342  0.0974
22173SOL    HW178173  10.012   5.741   7.199 -3.0154  0.7752 -0.9426
22173SOL    HW278174   9.997   5.639   7.072 -0.5522 -0.8400  0.0274
22174SOL     OW78175   4.067   9.378   5.492 -0.4031  0.4242 -0.3768
22174SOL    HW178176   4.120   9.411   5.414 -0.2007  0.4159 -0.2440
22174SOL    HW278177   3.972   9.407   5.483 -0.4719  0.0568 -0.8444
22175SOL     OW78178   0.981   0.882   2.105  0.5116  0.8483 -0.2399
22175SOL    HW178179   0.912   0.921   2.166  0.9860 -1.0712  1.6172
22175SOL    HW278180   0.936   0.838   2.027 -0.3455  0.2490  0.5799
22176SOL     OW78181   7.755   4.589   8.027 -0.0499 -1.1136 -0.4793
22176SOL    HW178182   7.787   4.546   7.942  1.6970 -2.2097  0.6854
22176SOL    HW278183   7.805   4.674   8.041  0.0376 -1.1935 -0.3022
22177SOL     OW78184   8.799   2.139   0.566  0.7767  0.0532 -0.1679
22177SOL    HW178185   8.887   2.180   0.592  0.6839  0.6920 -0.8548
22177SOL    HW278186   8.815   2.047   0.529  0.9761 -0.5951  1.4471
22178SOL     OW78187   3.671   3.670   1.993 -0.8415  0.3311 -0.0368
22178SOL    HW178188   3.644   3.583   1.951  1.2776  0.1303 -1.0119
22178SOL    HW278189   3.747   3.655   2.056 -0.6486  1.4441  0.0085
22179SOL     OW78190   2.002   2.114   7.850 -0.3483  0.6281  0.1458
22179SOL    HW178191   2.053   2.063   7.920 -0.1065  1.3443  0.4940
22179SOL    HW278192   1.963   2.050   7.784 -0.8598 -0.0779  1.1223
22180SOL     OW78193   3.013   6.627   4.705 -0.2231  0.0027 -0.0511
22180SOL    HW178194   2.941   6.672   4.652  0.8851  1.0914 -0.6463
22180SOL    HW278195   2.971   6.558   4.765 -1.9222  1.5966  0.6616
22181SOL     OW78196   2.300   9.583   2.555 -0.1755 -0.0547  0.1793
22181SOL    HW178197   2.338   9.580   2.463  1.6768  4.1805  0.6848
22181SOL    HW278198   2.215   9.636   2.554  1.2077  2.2839  1.2374
22182SOL     OW78199   8.558   5.904   3.887 -0.5652 -0.4890  0.0504
22182SOL    HW178200   8.530   5.847   3.964  1.7979 -2.8794 -0.7654
22182SOL    HW278201   8.658   5.905   3.883 -0.6276  2.1198 -1.1711
22183SOL     OW78202   0.448   5.700   1.650  0.2425 -0.2606  0.1027
22183SOL    HW178203   0.489   5.776   1.700 -0.0122  0.0297 -0.1299
22183SOL    HW278204   0.384   5.735   1.582  1.2291 -0.6041 -1.0182
22184SOL     OW78205   4.784   2.119   1.574  0.2281  0.2237  0.2572
22184SOL    HW178206   4.815   2.178   1.649 -2.2666  0.9020  0.7758
22184SOL    HW278207   4.819   2.155   1.488  0.7988  1.0206  0.8057
22185SOL     OW78208   8.291   8.874   0.836 -0.4038 -0.2024  0.4267
22185SOL    HW178209   8.326   8.854   0.928 -0.8174 -0.6266  0.4913
22185SOL    HW278210   8.289   8.790   0.782  0.8791  0.2285 -0.3338
22186SOL     OW78211   3.565   6.458   4.118  0.1907  0.1925 -0.4011
22186SOL    HW178212   3.661   6.432   4.107  0.3312  0.7396 -0.5018
22186SOL    HW278213   3.506   6.379   4.100  0.6823 -0.5266  1.0870
22187SOL     OW78214   0.192   8.574   0.567  0.0456  0.0464 -0.1679
22187SOL    HW178215   0.264   8.505   0.574  0.2698  0.3700  0.7715
22187SOL    HW278216   0.103   8.529   0.562  0.1506 -0.3013  1.0143
22188SOL     OW78217   3.522   3.426   0.960 -0.3168 -0.2789  0.4000
22188SOL    HW178218   3.483   3.497   0.901  1.1095 -0.0958 -0.3408
22188SOL    HW278219   3.620   3.442   0.971 -0.3355 -1.0549  1.7804
22189SOL     OW78220   2.209   3.233   6.114 -0.2102 -0.2004  0.3390
22189SOL    HW178221   2.162   3.148   6.093 -2.3698  1.4503 -1.7261
22189SOL    HW278222   2.308   3.221   6.100 -0.7192 -1.7184 -2.2043
22190SOL     OW78223   1.247   6.185   7.381 -0.2066  0.4919 -0.0377
22190SOL    HW178224   1.155   6.180   7.340  0.0750  1.5356 -0.8416
22190SOL    HW278225   1.241   6.171   7.479 -1.1361 -0.2000 -0.1840
22191SOL     OW78226   1.745   7.519   4.529 -0.2489  0.1076  0.1220
22191SOL    HW178227   1.712   7.480   4.443  1.1504 -0.4522 -0.1751
22191SOL    HW278228   1.842   7.498   4.540 -0.7815 -1.2932  2.6502
22192SOL     OW78229   4.392   4.517   6.549  0.1591 -0.0381  0.7408
22192SOL    HW178230   4.366   4.596   6.493 -1.2373 -1.2161 -0.2970
22192SOL    HW278231   4.313   4.485   6.600  1.1953  0.4244  2.7041
22193SOL     OW78232   8.910   8.067   6.722 -0.1773 -0.1754  0.1481
22193SOL    HW178233   8.991   8.052   6.778 -0.3951  1.5957  0.9624
22193SOL    HW278234   8.850   8.133   6.767 -0.8595  0.4613 -1.6553
22194SOL     OW78235   3.563   5.071   8.154  0.1869 -0.7091 -0.3125
22194SOL    HW178236   3.492   5.049   8.087 -1.8130  2.7322  0.5312
22194SOL    HW278237   3.539   5.031   8.242  0.9151 -2.1368 -0.7504
22195SOL     OW78238   1.356   5.333   1.709 -0.5103 -0.1107 -0.1713
22195SOL    HW178239   1.446   5.353   1.671 -0.0001 -1.5962  0.2144
22195SOL    HW278240   1.303   5.279   1.644  0.0014 -1.8101  0.8014
22196SOL     OW78241   7.390   2.687   3.869  0.1640 -0.0938 -0.0502
22196SOL    HW178242   7.418   2.751   3.941 -0.2824 -2.0260  1.8930
22196SOL    HW278243   7.471   2.642   3.832  0.1546 -1.6597  1.7413
22197SOL     OW78244   9.271   5.607   7.552 -0.6338  0.1487  0.0643
22197SOL    HW178245   9.334   5.680   7.579  0.1804 -0.6138  0.2320
22197SOL    HW278246   9.208   5.589   7.628 -1.0074  0.8591 -0.0754
22198SOL     OW78247   1.908   0.995   6.706 -0.4948 -0.4902  0.1586
22198SOL    HW178248   1.918   0.987   6.805 -0.2844  2.0909  0.3783
22198SOL    HW278249   1.979   1.055   6.670 -1.0525 -0.7686 -1.4587
22199SOL     OW78250   3.288   3.714   2.319 -0.4562 -0.0341 -0.5279
22199SOL    HW178251   3.260   3.795   2.268 -0.6777  0.5025  0.4474
22199SOL    HW278252   3.212   3.682   2.375 -0.3101 -0.8130 -0.7659
22200SOL     OW78253   6.117   3.828   7.612  1.3803 -0.0699 -0.0137
22200SOL    HW178254   6.146   3.753   7.671 -0.6514 -2.1632 -1.5806
22200SOL    HW278255   6.017   3.832   7.611  1.3950  0.1568 -3.0107
22201SOL     OW78256   1.917   0.698   3.678 -0.4171 -0.3528  0.8813
22201SOL    HW178257   1.994   0.700   3.614 -0.4240 -0.7490  0.8627
22201SOL    HW278258   1.839   0.745   3.639 -0.9045 -1.8832 -0.0044
22202SOL     OW78259   9.312   0.038   0.790 -0.6517  0.1671 -0.0138
22202SOL    HW178260   9.244  -0.009   0.734  0.5273 -1.1413 -0.3610
22202SOL    HW278261   9.282   0.039   0.885  0.4052 -3.4192  0.4158
22203SOL     OW78262   9.074   0.950   3.211  0.0128  0.0919 -0.4758
22203SOL    HW178263   9.133   1.027   3.186  1.5378 -1.0660 -0.5974
22203SOL    HW278264   9.105   0.910   3.297 -0.8972 -0.2442 -0.2946
22204SOL     OW78265   4.833   4.853   1.155 -0.5514 -0.1878  0.4785
22204SOL    HW178266   4.864   4.856   1.250  0.7326  0.9210  0.0332
22204SOL    HW278267   4.754   4.791   1.148 -0.6095 -0.3417  2.2386
22205SOL     OW78268   9.941   5.197   6.480 -0.3384 -0.3343 -0.0617
22205SOL    HW178269   9.913   5.291   6.460  0.9639 -0.3341 -1.9623
22205SOL    HW278270   9.865   5.135   6.461 -0.5542  0.1374 -0.7535
22206SOL     OW78271   4.365   4.236   4.506  1.0062  0.3935  0.0072
22206SOL    HW178272   4.320   4.302   4.565  1.4870  0.5891  0.1580
22206SOL    HW278273   4.334   4.248   4.412  0.8301  0.5994  0.0923
22207SOL     OW78274   3.467   3.010   2.618 -0.0750  0.1761 -0.6669
22207SOL    HW178275   3.560   3.028   2.588  0.6487  0.5912  1.7275
22207SOL    HW278276   3.403   3.060   2.559  1.3633  2.1556 -0.6028
22208SOL     OW78277   8.699   7.041   4.668 -0.4036  0.0875 -0.0666
22208SOL    HW178278   8.653   6.963   4.711  1.3443 -0.8989  0.0422
22208SOL    HW278279   8.779   7.009   4.618 -0.4499  1.6604 -1.1765
22209SOL     OW78280   7.121   3.064   2.060  0.0868 -0.6130  0.1299
22209SOL    HW178281   7.213   3.026   2.047  0.3177  0.1664 -0.5224
22209SOL    HW278282   7.075   3.071   1.972 -1.2814 -2.6809  0.6494
22210SOL     OW78283   9.604   8.151   5.452  0.7127 -0.1072 -0.0834
22210SOL    HW178284   9.623   8.161   5.550  1.7381 -2.7554  0.0211
22210SOL    HW278285   9.690   8.161   5.402  0.3100  0.4532 -0.6605
22211SOL     OW78286   4.625   3.535   3.081  0.0843 -0.3711  0.0785
22211SOL    HW178287   4.590   3.494   3.165  0.3305 -0.0555  0.3398
22211SOL    HW278288   4.548   3.565   3.024 -0.0685  0.5402  0.7597
22212SOL     OW78289   4.682   8.078   4.181 -0.1851 -0.1913 -0.2835
22212SOL    HW178290   4.730   8.163   4.202  1.1165 -0.4990 -1.9395
22212SOL    HW278291   4.748   8.003   4.173 -1.3628 -1.4904  1.7177
22213SOL     OW78292   1.225   2.866   5.639  0.3361  0.2103 -0.5625
22213SOL    HW178293   1.295   2.811   5.593  0.0048  0.3338 -1.2273
22213SOL    HW278294   1.269   2.934   5.698  0.7482 -2.0342  1.8273
22214SOL     OW78295   4.827   1.593   2.485 -0.7413  0.0639  0.1492
22214SOL    HW178296   4.811   1.614   2.582  1.1828 -0.3864  0.5719
22214SOL    HW278297   4.916   1.628   2.457 -1.1054 -0.1713 -1.3745
22215SOL     OW78298   3.521   0.413   4.191  0.1912 -0.3999 -0.3839
22215SOL    HW178299   3.561   0.456   4.109  0.0593 -0.2744 -0.3824
22215SOL    HW278300   3.579   0.433   4.270  0.1499 -0.2546 -0.3897
22216SOL     OW78301   5.278   2.522   8.012  0.6539 -0.4097 -0.3574
22216SOL    HW178302   5.222   2.555   7.936 -1.5806 -0.1580  1.3403
22216SOL    HW278303   5.279   2.422   8.012  1.8426 -0.4114 -1.5306
22217SOL     OW78304   0.221   3.868   0.590 -0.2694  0.3499 -0.3837
22217SOL    HW178305   0.287   3.798   0.562 -0.9507 -0.0479 -0.9978
22217SOL    HW278306   0.253   3.911   0.674  0.3868 -0.3802 -0.2506
22218SOL     OW78307   0.349   1.448   2.389 -0.4669 -0.0209  0.1651
22218SOL    HW178308   0.366   1.491   2.478 -0.3737  0.9044 -0.2998
22218SOL    HW278309   0.433   1.450   2.334 -0.6215 -0.2783 -0.0828
22219SOL     OW78310   4.308   4.259   6.950 -0.0668 -0.1392 -0.7004
22219SOL    HW178311   4.258   4.202   6.885 -1.3623 -1.0250  1.0301
22219SOL    HW278312   4.273   4.353   6.947 -1.0623 -0.4913 -0.3264
22220SOL     OW78313   6.301   9.702   3.217  0.3129 -0.2175 -0.1228
22220SOL    HW178314   6.248   9.779   3.253  1.3646 -0.0392  1.1110
22220SOL    HW278315   6.399   9.720   3.230  0.6148 -1.2239 -0.9356
22221SOL     OW78316   0.345   3.798   0.247  0.0231 -0.2457  0.1804
22221SOL    HW178317   0.397   3.768   0.167  0.7108 -2.9329  1.5772
22221SOL    HW278318   0.366   3.738   0.324 -0.8041  2.1680  2.3251
22222SOL     OW78319   5.119   0.348   4.951 -0.1076  0.2399  0.5253
22222SOL    HW178320   5.099   0.443   4.930 -0.8165 -0.0354 -0.0574
22222SOL    HW278321   5.033   0.298   4.963  0.1984 -0.8980 -1.7692
22223SOL     OW78322   0.774   2.780   4.673 -0.0665  0.0035 -0.1409
22223SOL    HW178323   0.790   2.717   4.597 -0.0749 -2.5289  1.9019
22223SOL    HW278324   0.857   2.832   4.691  0.1730  0.0719 -1.3512
22224SOL     OW78325   0.505   5.470   1.506 -0.0463  1.1205  0.6766
22224SOL    HW178326   0.483   5.557   1.550  0.4794  0.9303  1.3273
22224SOL    HW278327   0.510   5.483   1.407  0.0322  1.8295  0.7706
22225SOL     OW78328   0.952   9.348   1.903  0.5001 -0.2249 -0.1264
22225SOL    HW178329   0.996   9.424   1.951 -0.1490 -1.2332  2.1477
22225SOL    HW278330   0.960   9.361   1.805  1.6569  2.0445  0.2441
22226SOL     OW78331   9.054   5.039   5.274  1.1635 -0.1439 -0.0780
22226SOL    HW178332   9.045   5.007   5.180 -1.3884 -1.9302  0.7188
22226SOL    HW278333   8.980   5.102   5.296  1.3599 -0.2504  0.9376
22227SOL     OW78334   7.306   2.428   1.965  0.0174  0.1536  0.2007
22227SOL    HW178335   7.367   2.362   2.008  3.8546  3.6724  0.3787
22227SOL    HW278336   7.248   2.381   1.898  0.6855 -3.7730  2.2287
22228SOL     OW78337   1.201   7.911   7.192 -0.3839  0.1145  0.3889
22228SOL    HW178338   1.115   7.947   7.157 -0.1313 -0.7736 -1.1812
22228SOL    HW278339   1.277   7.956   7.146 -0.0195  0.0754  0.9487
22229SOL     OW78340   0.577   7.335   3.227  0.5264  0.4341 -0.3333
22229SOL    HW178341   0.513   7.278   3.174  0.0470  0.1647  0.5243
22229SOL    HW278342   0.544   7.429   3.227  1.2553  0.7072 -1.6508
22230SOL     OW78343   2.859   6.496   4.052  0.1805 -0.1139 -0.2181
22230SOL    HW178344   2.795   6.558   4.008  0.7722 -0.7113 -1.9574
22230SOL    HW278345   2.822   6.467   4.140 -1.4292  0.4003 -0.7055
22231SOL     OW78346   7.997   5.766   5.861  0.4089  0.2454 -0.3750
22231SOL    HW178347   7.900   5.743   5.858  0.7305 -1.2225  0.4353
22231SOL    HW278348   8.018   5.813   5.947  0.4882  0.2306 -0.3857
22232SOL     OW78349   3.073   5.615   5.183  0.0945 -0.2239  0.4851
22232SOL    HW178350   3.133   5.695   5.188 -0.8376  0.3745  2.1206
22232SOL    HW278351   3.047   5.599   5.087 -0.4690  1.9811  0.2562
22233SOL     OW78352   2.256   6.266   0.064 -0.0179  0.6351  0.0309
22233SOL    HW178353   2.344   6.293   0.102 -1.0986 -0.4580  3.4599
22233SOL    HW278354   2.192   6.246   0.138 -2.6096 -0.3904 -2.3919
22234SOL     OW78355   8.797   0.444   2.147 -0.1689  0.1215  0.3690
22234SOL    HW178356   8.776   0.408   2.238 -0.0874 -0.0874  0.3065
22234SOL    HW278357   8.823   0.540   2.154  1.7203 -0.3986  0.8230
22235SOL     OW78358   5.329   1.359   2.996  0.4907 -0.1797  0.1253
22235SOL    HW178359   5.298   1.371   3.091 -1.4232  1.6097 -0.6795
22235SOL    HW278360   5.255   1.384   2.934  1.5256 -1.9491 -1.8608
22236SOL     OW78361   4.351   7.336   1.586  0.0200 -0.2035 -0.3078
22236SOL    HW178362   4.366   7.394   1.666  2.1165  0.7648 -1.3529
22236SOL    HW278363   4.378   7.242   1.607 -1.7495 -0.4750  0.8511
22237SOL     OW78364   1.325   0.273   7.124  0.2052  0.6451  0.3520
22237SOL    HW178365   1.275   0.194   7.160  0.3612  0.1029 -0.6053
22237SOL    HW278366   1.383   0.311   7.196  1.6551 -1.3385  0.2669
22238SOL     OW78367   4.755   9.629   2.704 -0.2723 -0.4945  0.6515
22238SOL    HW178368   4.695   9.553   2.730 -0.1355 -1.3612 -1.4452
22238SOL    HW278369   4.851   9.598   2.708 -0.1188  0.0754  1.4072
22239SOL     OW78370   2.752   7.389   0.176  0.1854  0.1449 -0.6026
22239SOL    HW178371   2.701   7.424   0.255 -1.2357 -3.7625  0.3178
22239SOL    HW278372   2.692   7.385   0.096  0.0765 -1.0931 -0.4572
22240SOL     OW78373   8.213   6.201   1.883  0.8213 -0.2152 -0.1567
22240SOL    HW178374   8.270   6.147   1.945 -1.1030  0.3120  2.1653
22240SOL    HW278375   8.182   6.144   1.807  4.2779 -0.5347 -1.4040
22241SOL     OW78376   4.207   2.629   5.601 -0.1535 -0.1830  0.3335
22241SOL    HW178377   4.170   2.560   5.663 -0.0960  0.9558  1.6630
22241SOL    HW278378   4.300   2.604   5.576 -1.0627 -1.9776 -1.3655
22242SOL     OW78379   3.172   5.110   4.162  0.1909 -0.1688 -0.0815
22242SOL    HW178380   3.263   5.152   4.159 -0.0560  0.3572 -0.3024
22242SOL    HW278381   3.152   5.082   4.256  0.5849 -0.2974 -0.0327
22243SOL     OW78382   7.626   9.477   6.055  0.0055  0.3610  0.1049
22243SOL    HW178383   7.556   9.529   6.103 -0.0327  0.0115  0.4265
22243SOL    HW278384   7.702   9.459   6.116  1.0629  2.0530 -0.6822
22244SOL     OW78385   9.106   9.179   5.670 -1.4472 -0.3266  0.6403
22244SOL    HW178386   9.181   9.179   5.736 -0.9871 -0.3033  0.1259
22244SOL    HW278387   9.106   9.265   5.619 -1.2555 -0.7006  0.0034
22245SOL     OW78388   3.030   0.990   0.336  0.0561 -0.4345 -0.0872
22245SOL    HW178389   3.119   0.945   0.341 -1.0985 -2.5541  2.9673
22245SOL    HW278390   3.025   1.061   0.407 -0.0002  1.0516 -1.5519
22246SOL     OW78391   5.867   2.641   0.812  0.1791  0.0726 -0.3870
22246SOL    HW178392   5.895   2.654   0.717  1.5293 -1.6223 -0.2495
22246SOL    HW278393   5.856   2.543   0.830  1.2495  0.2858  1.5587
22247SOL     OW78394   2.586   0.800   3.487  0.2130 -0.2149 -0.2340
22247SOL    HW178395   2.685   0.795   3.470  0.3295 -0.1822  0.3979
22247SOL    HW278396   2.569   0.867   3.560 -0.3322  0.2678 -0.8009
22248SOL     OW78397   6.061   1.433   2.468  0.7822  1.0206 -0.6043
22248SOL    HW178398   6.027   1.512   2.520  0.1743  1.1986 -1.2776
22248SOL    HW278399   6.145   1.400   2.511 -1.3072 -0.7387  2.3606
22249SOL     OW78400   8.950   7.602   0.607 -0.0169  0.0702 -0.7320
22249SOL    HW178401   9.031   7.585   0.551  1.0440 -0.9681  1.0738
22249SOL    HW278402   8.975   7.660   0.685 -1.1475  0.2284 -0.4813
22250SOL     OW78403   8.539   8.465   0.364  0.0449 -0.2885 -0.2827
22250SOL    HW178404   8.490   8.511   0.289 -0.3344 -1.4310 -0.7436
22250SOL    HW278405   8.632   8.444   0.335 -0.2202 -1.0730 -0.5692
22251SOL     OW78406   1.695   4.278   1.590 -0.5072 -0.6099  0.5542
22251SOL    HW178407   1.737   4.189   1.604  1.3388 -0.3084 -2.6379
22251SOL    HW278408   1.638   4.276   1.508 -0.3526  1.1915  0.3881
22252SOL     OW78409   4.312   1.124   2.383  0.4538  0.0426  0.8949
22252SOL    HW178410   4.315   1.135   2.284 -0.6336 -0.6057  0.7848
22252SOL    HW278411   4.275   1.206   2.426 -2.1031 -0.8837  0.5158
22253SOL     OW78412   8.556   5.691   0.369  0.4551  0.8757  0.0597
22253SOL    HW178413   8.494   5.649   0.303 -0.2043  0.1221  1.1280
22253SOL    HW278414   8.529   5.786   0.385 -1.0095  0.2887  1.1953
22254SOL     OW78415   3.033   3.977   6.523  0.2618  0.2913  0.6717
22254SOL    HW178416   3.072   3.945   6.436  2.1304  0.8816  1.2696
22254SOL    HW278417   3.082   3.934   6.599 -0.2431  1.0536  1.4349
22255SOL     OW78418   8.935   1.451   5.710  0.6319 -0.0695 -0.0137
22255SOL    HW178419   8.881   1.403   5.780 -0.2928 -2.4349 -2.2579
22255SOL    HW278420   8.994   1.518   5.754  1.3568 -2.6868  3.2070
22256SOL     OW78421   9.328   5.793   4.683 -0.1831  0.3749 -0.2865
22256SOL    HW178422   9.352   5.718   4.621  0.0808  0.7779 -0.6770
22256SOL    HW278423   9.405   5.811   4.745 -0.9450 -0.9279  1.0814
22257SOL     OW78424   2.617   2.405   2.769 -0.0312 -0.2326  0.1006
22257SOL    HW178425   2.655   2.463   2.698 -0.8089  0.6336  0.3837
22257SOL    HW278426   2.629   2.309   2.744  0.5267  0.0600 -0.7511
22258SOL     OW78427   8.550   6.529   0.202 -0.1786  0.1180  0.9228
22258SOL    HW178428   8.556   6.472   0.283 -3.1002 -0.7584  0.5971
22258SOL    HW278429   8.470   6.501   0.148  1.1206  1.3479 -1.7185
22259SOL     OW78430   1.213   5.285   4.443 -0.2296 -0.0609 -0.5792
22259SOL    HW178431   1.296   5.281   4.498  0.6473 -0.6358 -1.9139
22259SOL    HW278432   1.140   5.328   4.496 -0.1118 -2.7831  1.9066
22260SOL     OW78433   1.364   0.478   1.696 -0.5544 -0.1127  0.4430
22260SOL    HW178434   1.397   0.481   1.790  0.0333 -0.4580  0.2464
22260SOL    HW278435   1.264   0.488   1.696 -0.2694  3.2391  0.8797
22261SOL     OW78436   2.886   3.356   5.468 -0.4901  0.2057  0.3845
22261SOL    HW178437   2.899   3.454   5.448 -1.0774  0.2859  0.4087
22261SOL    HW278438   2.941   3.302   5.404 -0.7923  0.5272 -0.1512
22262SOL     OW78439   5.757   2.869   0.948 -0.1039 -0.4246 -0.2760
22262SOL    HW178440   5.789   2.793   0.891 -0.7504 -0.2478 -0.8830
22262SOL    HW278441   5.835   2.913   0.992  0.2721 -1.4640  0.1033
22263SOL     OW78442   1.499   8.294   3.245 -0.2200 -0.0175 -0.1805
22263SOL    HW178443   1.444   8.256   3.320 -0.6824 -0.3753 -0.6976
22263SOL    HW278444   1.578   8.343   3.283 -1.1706  0.9476  0.5870
22264SOL     OW78445   1.023   2.544   0.575  0.1333 -0.1055 -0.8177
22264SOL    HW178446   0.960   2.516   0.647  0.1061 -0.0873 -0.8341
22264SOL    HW278447   1.027   2.644   0.571  1.9523 -0.0945  0.7410
22265SOL     OW78448   6.167   7.772   5.894  0.2694  0.2809  0.2688
22265SOL    HW178449   6.144   7.869   5.899 -1.3066 -0.0938  0.5860
22265SOL    HW278450   6.112   7.721   5.960 -0.2617 -1.0622 -1.1701
22266SOL     OW78451   9.647   1.438   6.953  0.0433  0.1506 -0.6998
22266SOL    HW178452   9.658   1.518   6.894  0.6840  0.2954 -0.3873
22266SOL    HW278453   9.666   1.355   6.900  1.0924  0.3072 -0.5792
22267SOL     OW78454   4.035   3.947   8.124 -0.4421 -0.6352 -0.3258
22267SOL    HW178455   3.959   3.903   8.077 -1.1559 -0.5890  0.7690
22267SOL    HW278456   4.116   3.946   8.065 -1.6355  0.4991 -2.0235
22268SOL     OW78457   5.549   1.216   6.738  0.5357 -0.4533 -0.2397
22268SOL    HW178458   5.489   1.158   6.683  0.4570 -0.3220 -0.2902
22268SOL    HW278459   5.545   1.310   6.705  2.3459 -0.8113 -1.5697
22269SOL     OW78460   1.303   3.853   1.402 -0.3045  0.0530 -0.0518
22269SOL    HW178461   1.352   3.898   1.477 -0.2032  0.3125 -0.2727
22269SOL    HW278462   1.350   3.768   1.379 -0.2193  0.0724  0.0482
22270SOL     OW78463   2.925   9.579   5.955  0.2086  0.0033  0.0806
22270SOL    HW178464   3.018   9.612   5.967  0.1172  0.0180  0.7727
22270SOL    HW278465   2.926   9.480   5.942  0.2185 -0.2082  1.5663
22271SOL     OW78466   8.724   9.625   3.645  0.0484  1.0594 -0.1627
22271SOL    HW178467   8.789   9.688   3.602  0.3810  0.6313 -0.2872
22271SOL    HW278468   8.655   9.598   3.578  0.2408  0.8350 -0.2706
22272SOL     OW78469   3.527   1.448   4.167  0.1492 -0.8811 -0.9902
22272SOL    HW178470   3.477   1.463   4.082 -1.2536 -0.3557 -0.0974
22272SOL    HW278471   3.588   1.370   4.157 -1.1543 -1.7875 -1.9801
22273SOL     OW78472   0.765   5.737   1.605 -0.3331 -0.3678  0.2296
22273SOL    HW178473   0.702   5.734   1.527 -0.4175 -0.2780  0.2949
22273SOL    HW278474   0.856   5.707   1.575  0.0530  1.2704 -0.3151
22274SOL     OW78475   2.784   4.661   0.641 -0.5251  0.7028 -0.4210
22274SOL    HW178476   2.751   4.665   0.736  0.0127 -3.2784 -0.0058
22274SOL    HW278477   2.738   4.587   0.593  2.0268  0.2220 -2.1648
22275SOL     OW78478   3.188   9.253   7.508 -0.2533 -0.3990 -0.6222
22275SOL    HW178479   3.283   9.222   7.506  0.1356  0.7867 -0.3297
22275SOL    HW278480   3.184   9.349   7.533 -1.4749 -0.2178 -1.4482
22276SOL     OW78481   7.514   4.735   0.725 -0.1201  0.3477  0.2058
22276SOL    HW178482   7.472   4.655   0.682 -0.9884 -0.1353  1.9192
22276SOL    HW278483   7.478   4.818   0.683 -0.0658 -0.1244 -0.7981
22277SOL     OW78484   2.490   4.471   7.925  0.1306  0.1412  0.0144
22277SOL    HW178485   2.403   4.426   7.945  0.1588  0.2900  0.4872
22277SOL    HW278486   2.478   4.570   7.930  0.1865  0.1764 -0.5179
22278SOL     OW78487   3.376   4.393   5.243  0.6553  0.3135  0.1705
22278SOL    HW178488   3.386   4.391   5.143 -1.8430 -0.2387 -0.0837
22278SOL    HW278489   3.448   4.336   5.284  1.0705 -0.3025 -1.3581
22279SOL     OW78490   8.441   5.238   0.571  0.2245  0.1669 -0.0413
22279SOL    HW178491   8.398   5.186   0.644  0.6617  0.8355  0.6990
22279SOL    HW278492   8.408   5.332   0.574 -0.8981 -0.1530 -1.6468
22280SOL     OW78493   5.475   8.669   3.554  0.2450  0.0886  0.3731
22280SOL    HW178494   5.393   8.718   3.522  0.0951  0.4410  1.2958
22280SOL    HW278495   5.453   8.572   3.564  0.1678  0.0460 -0.1526
22281SOL     OW78496   1.821   7.137   4.724  0.2801 -0.1636  0.2220
22281SOL    HW178497   1.728   7.151   4.758  0.5812 -0.3022  1.1262
22281SOL    HW278498   1.870   7.225   4.724  1.2367 -0.6340  3.0808
22282SOL     OW78499   4.436   7.580   2.478 -0.1906 -0.5775 -0.8790
22282SOL    HW178500   4.355   7.636   2.499 -0.7468 -1.8886  0.5596
22282SOL    HW278501   4.518   7.637   2.484 -0.8041  0.2510 -0.1367
22283SOL     OW78502   4.854   0.649   3.194 -0.3831  0.2009  0.4420
22283SOL    HW178503   4.805   0.684   3.113 -1.8470 -0.1418  1.1578
22283SOL    HW278504   4.816   0.692   3.276 -1.1092 -1.8713  1.2078
22284SOL     OW78505   1.178   6.612   0.656 -0.0089 -0.1308 -0.0053
22284SOL    HW178506   1.082   6.638   0.669  0.0358  0.6803 -1.2568
22284SOL    HW278507   1.194   6.590   0.560  1.2173  0.3627  0.0865
22285SOL     OW78508   2.370   7.406   3.371 -0.6072  0.1727 -0.0056
22285SOL    HW178509   2.326   7.494   3.387 -1.0132 -0.0161 -0.0704
22285SOL    HW278510   2.462   7.420   3.333 -0.6020  0.5682  0.1504
22286SOL     OW78511   3.642   6.594   3.124  0.4743 -0.3854 -0.3723
22286SOL    HW178512   3.691   6.671   3.165  0.4133 -0.5101 -0.0611
22286SOL    HW278513   3.597   6.541   3.196  0.1118 -0.4312 -0.6310
22287SOL     OW78514   1.754   4.857   7.694 -0.4098  0.3426 -0.5880
22287SOL    HW178515   1.782   4.950   7.671  0.7932  0.4107  1.0826
22287SOL    HW278516   1.791   4.792   7.627 -1.4722  1.0717 -1.9043
22288SOL     OW78517   2.564   9.488   0.666  0.4985  0.0480  0.0694
22288SOL    HW178518   2.527   9.514   0.577 -0.8282  0.0086  0.6069
22288SOL    HW278519   2.653   9.533   0.679  0.4440  0.4942 -1.0263
22289SOL     OW78520   0.301   0.409   1.122 -0.0358  0.5514  0.0583
22289SOL    HW178521   0.257   0.342   1.063 -0.7854  0.7510  0.3957
22289SOL    HW278522   0.394   0.379   1.143  0.4752  0.7873 -1.7646
22290SOL     OW78523   3.482   6.049   2.079  0.1756 -0.2484 -0.0127
22290SOL    HW178524   3.385   6.030   2.062  0.3217 -1.0522  0.0285
22290SOL    HW278525   3.533   5.963   2.080  0.8635  0.1581  0.1392
22291SOL     OW78526   2.801   1.447   2.473 -0.0113 -0.2871  0.1942
22291SOL    HW178527   2.811   1.451   2.572 -0.3034 -1.3860  0.2681
22291SOL    HW278528   2.868   1.508   2.430 -1.0546  1.5493  1.1138
22292SOL     OW78529   7.110   8.755   2.461 -0.3035  0.5252  0.2647
22292SOL    HW178530   7.048   8.803   2.524  0.6102  2.5302 -0.3064
22292SOL    HW278531   7.184   8.713   2.514  0.6519  2.4920  0.5605
22293SOL     OW78532   5.283   0.192   6.863 -0.5976 -0.4613 -0.4715
22293SOL    HW178533   5.263   0.185   6.961  0.9883  1.7068  0.0595
22293SOL    HW278534   5.378   0.166   6.847 -0.1545  1.3862 -1.0521
22294SOL     OW78535   9.206   9.609   1.903  0.1201 -0.8761  0.6830
22294SOL    HW178536   9.166   9.695   1.936  0.7839  0.2388 -1.3145
22294SOL    HW278537   9.285   9.585   1.958  0.0539 -0.0888  1.1293
22295SOL     OW78538   7.962   7.232   6.392  0.0951 -0.1030  0.2636
22295SOL    HW178539   7.870   7.236   6.354  0.2090  1.0965  0.0975
22295SOL    HW278540   8.027   7.265   6.324  0.8541 -2.4448 -0.2147
22296SOL     OW78541   6.331   9.434   4.249 -0.7067 -0.0631 -0.4383
22296SOL    HW178542   6.272   9.356   4.274 -1.3398 -0.0809 -1.9291
22296SOL    HW278543   6.274   9.512   4.224 -0.0707  0.5867  0.1203
22297SOL     OW78544   6.816   0.585   6.605  0.2653 -0.2168  1.0373
22297SOL    HW178545   6.794   0.581   6.702  1.1604 -0.9039  1.2116
22297SOL    HW278546   6.912   0.561   6.591 -0.5733 -3.0574 -0.2975
22298SOL     OW78547   3.269   9.440   6.479  0.1844 -0.0345 -0.1801
22298SOL    HW178548   3.261   9.503   6.402 -0.4222  1.2779  0.9327
22298SOL    HW278549   3.196   9.459   6.545 -0.7080 -2.6778 -0.3672
22299SOL     OW78550   0.338   8.041   5.475  0.3528 -0.4145 -0.3504
22299SOL    HW178551   0.318   8.137   5.495 -1.3557 -0.6118 -1.0171
22299SOL    HW278552   0.255   7.996   5.442  1.1624 -2.0992 -0.1492
22300SOL     OW78553   8.302   8.232   1.067  1.0186  0.2215  0.6548
22300SOL    HW178554   8.287   8.171   1.145  1.7635 -1.5901 -0.5636
22300SOL    HW278555   8.214   8.253   1.024  0.7267  0.2534  1.2613
22301SOL     OW78556   6.654   1.188   2.541  0.1823  0.1699 -0.3421
22301SOL    HW178557   6.749   1.165   2.557  0.3423 -0.4999 -2.1012
22301SOL    HW278558   6.641   1.287   2.547  1.0184  0.2684 -0.2332
22302SOL     OW78559   9.620   5.149   2.089  0.3270 -0.1786  0.0910
22302SOL    HW178560   9.596   5.134   2.185  0.1747  0.6027  0.1791
22302SOL    HW278561   9.578   5.077   2.033  0.7410 -0.8611  0.6491
22303SOL     OW78562   7.076   9.765   4.134  0.1590 -0.1631 -0.2845
22303SOL    HW178563   7.044   9.782   4.228  0.9642  0.8715 -0.1865
22303SOL    HW278564   7.157   9.706   4.138 -1.2519 -2.1312 -0.4849
22304SOL     OW78565   1.751   3.249   4.850 -0.4100 -0.2673  0.6946
22304SOL    HW178566   1.775   3.341   4.819 -1.5274  0.0064  0.6158
22304SOL    HW278567   1.750   3.247   4.950  0.1170 -0.3310  0.7003
22305SOL     OW78568   9.607   7.229   5.813  0.0669 -0.3318 -0.2786
22305SOL    HW178569   9.555   7.180   5.743  0.8378 -1.9436  0.2549
22305SOL    HW278570   9.561   7.219   5.902 -0.4321  0.9632 -0.3842
22306SOL     OW78571   7.777   3.723   4.172 -1.4236  0.2906  0.4820
22306SOL    HW178572   7.761   3.714   4.270 -0.1100  0.4415  0.7170
22306SOL    HW278573   7.759   3.817   4.144 -2.9089 -0.0149  0.3518
22307SOL     OW78574   1.377   8.812   0.250  0.3586  0.0234  0.5133
22307SOL    HW178575   1.379   8.712   0.251  0.2265  0.0091 -0.3245
22307SOL    HW278576   1.288   8.844   0.282 -0.9880 -0.2180 -2.7978
22308SOL     OW78577   8.687   7.266   2.657  0.2971  0.1505  0.2486
22308SOL    HW178578   8.638   7.239   2.574  0.4208 -0.2072  0.2899
22308SOL    HW278579   8.752   7.339   2.634  0.2921  0.0930  0.0433
22309SOL     OW78580   0.039   1.218   0.670  0.0985  0.7267 -0.3983
22309SOL    HW178581   0.057   1.136   0.725  0.7898  0.1445 -1.4726
22309SOL    HW278582  -0.050   1.256   0.694 -0.4971 -0.6942 -0.3266
22310SOL     OW78583   2.251   4.902   6.831  0.0735 -0.0149  0.5470
22310SOL    HW178584   2.184   4.947   6.771 -0.8182 -1.1190  0.7143
22310SOL    HW278585   2.288   4.969   6.895 -0.6471  0.6658  0.2596
22311SOL     OW78586   3.482   3.669   5.350 -0.9717  0.2953  0.2890
22311SOL    HW178587   3.435   3.655   5.437 -0.5719  0.6322  0.5612
22311SOL    HW278588   3.511   3.764   5.343  0.1265 -0.0275  0.3538
22312SOL     OW78589   0.493   0.497   3.757 -0.2512 -0.4995 -0.3910
22312SOL    HW178590   0.503   0.595   3.775 -1.9081 -0.3791 -0.0574
22312SOL    HW278591   0.467   0.450   3.842  2.7699 -1.5885 -0.0150
22313SOL     OW78592   6.106   3.662   0.691 -0.2707  0.0087 -0.0830
22313SOL    HW178593   6.035   3.592   0.702 -2.6788  2.5178  0.7230
22313SOL    HW278594   6.091   3.735   0.757  2.2174  1.3171 -0.9195
22314SOL     OW78595   0.335   5.591   2.449 -0.0880 -0.2333 -0.1094
22314SOL    HW178596   0.290   5.581   2.360 -0.2502 -0.9075  0.0487
22314SOL    HW278597   0.433   5.579   2.438 -0.2731 -2.0048  0.0722
22315SOL     OW78598   8.543   8.859   0.640 -0.4426 -0.1256  0.1756
22315SOL    HW178599   8.454   8.901   0.623  0.5604  1.9448 -0.0923
22315SOL    HW278600   8.565   8.865   0.737 -0.1809  0.2108  0.0959
22316SOL     OW78601   9.423   3.175   2.895  0.1687 -0.1079 -0.5555
22316SOL    HW178602   9.458   3.218   2.978 -0.2446  0.4013 -0.6369
22316SOL    HW278603   9.330   3.208   2.878 -1.0762 -2.8186  0.6729
22317SOL     OW78604   1.976   3.437   0.566  0.3940 -0.3190 -0.6977
22317SOL    HW178605   2.056   3.409   0.618  0.4109  3.8287  1.6949
22317SOL    HW278606   2.004   3.464   0.474  1.8690  1.6099  0.2903
22318SOL     OW78607   1.317   8.579   5.348 -0.3556 -0.2168 -0.2620
22318SOL    HW178608   1.379   8.656   5.365 -2.1935  0.9542  1.2666
22318SOL    HW278609   1.346   8.531   5.265  1.2672  1.6455 -0.8093
22319SOL     OW78610   8.433   4.848   8.126 -0.4451  0.6928 -0.5843
22319SOL    HW178611   8.432   4.888   8.218  0.4910 -1.5765  0.4400
22319SOL    HW278612   8.493   4.902   8.068  0.0597  1.3441  0.5134
22320SOL     OW78613   9.843   4.607   6.174  0.1626  0.0859 -0.3088
22320SOL    HW178614   9.779   4.608   6.098 -0.1420  0.7854 -0.0540
22320SOL    HW278615   9.816   4.538   6.240  0.8681 -1.0518 -1.1987
22321SOL     OW78616   1.506   9.617   6.927 -0.0459  0.1122  0.5418
22321SOL    HW178617   1.503   9.716   6.941 -0.0735  0.3563 -1.1762
22321SOL    HW278618   1.496   9.596   6.830  0.0631 -1.5782  0.8776
22322SOL     OW78619   8.578   9.948   2.221  0.0700 -0.0246  0.5521
22322SOL    HW178620   8.669   9.946   2.263 -0.1177 -1.6281  0.8902
22322SOL    HW278621   8.568  10.033   2.169  1.8382  0.0652  0.3281
22323SOL     OW78622   2.478   7.619   7.646  0.5526 -0.3090 -0.1021
22323SOL    HW178623   2.554   7.605   7.709  0.7983 -0.6835 -0.4807
22323SOL    HW278624   2.512   7.662   7.563  0.3535 -0.4898 -0.2767
22324SOL     OW78625   7.525   6.553   6.478 -0.1560 -0.4790  0.2788
22324SOL    HW178626   7.606   6.611   6.468 -0.1159 -0.2959  1.5429
22324SOL    HW278627   7.446   6.610   6.502 -0.2667 -0.8495  0.8085
22325SOL     OW78628   3.579   4.218   1.463 -0.2378 -0.4282  0.0098
22325SOL    HW178629   3.598   4.120   1.453  0.6394 -0.4906  1.9781
22325SOL    HW278630   3.493   4.230   1.513  0.4586 -0.2214  1.1765
22326SOL     OW78631   6.955   5.730   6.850  0.0960  0.1120 -0.5036
22326SOL    HW178632   7.029   5.681   6.804 -0.3875 -1.5836  0.4809
22326SOL    HW278633   6.960   5.712   6.948 -0.8426  1.0648 -0.2757
22327SOL     OW78634   1.431   2.902   0.563  0.1826 -0.1148  0.6964
22327SOL    HW178635   1.527   2.915   0.539 -0.0521 -1.4962 -1.1078
22327SOL    HW278636   1.374   2.928   0.485 -0.6705 -3.6889  0.0444
22328SOL     OW78637   6.534   2.062   2.497 -0.4582  0.1980 -0.1806
22328SOL    HW178638   6.571   2.111   2.419 -2.8553 -0.5334 -1.8272
22328SOL    HW278639   6.582   1.974   2.507  0.4357  0.6709 -0.2931
22329SOL     OW78640   3.321   9.186   2.908  0.5772  0.2936  0.0893
22329SOL    HW178641   3.343   9.173   2.811  3.1262  1.8324  0.4223
22329SOL    HW278642   3.351   9.276   2.937 -2.3826  0.7907  1.7528
22330SOL     OW78643   4.859   9.082   4.090 -0.2713 -0.0895 -0.2833
22330SOL    HW178644   4.804   9.069   4.172 -0.3180 -1.3341 -0.4932
22330SOL    HW278645   4.829   9.163   4.041 -0.9984  0.0110  0.3328
22331SOL     OW78646   7.533   0.243   2.418 -0.0932 -0.2688 -0.0046
22331SOL    HW178647   7.629   0.224   2.441 -0.0808 -0.0008  0.1665
22331SOL    HW278648   7.488   0.157   2.392  0.2156 -0.3809 -0.1745
22332SOL     OW78649   9.885   3.543   7.182  0.1660 -0.4489  0.2029
22332SOL    HW178650   9.876   3.443   7.187  0.3640 -0.4075  1.6038
22332SOL    HW278651   9.949   3.567   7.109  0.0092 -1.3412 -0.2350
22333SOL     OW78652   6.665   7.777   5.236  0.5879  0.2041  0.5320
22333SOL    HW178653   6.652   7.817   5.145 -1.4776 -1.5351  0.0067
22333SOL    HW278654   6.711   7.689   5.227  1.2769  0.4845  1.2819
22334SOL     OW78655   4.973   0.292   5.712 -0.3213 -0.7000 -0.2630
22334SOL    HW178656   5.043   0.324   5.649 -1.4296 -0.8383 -1.5781
22334SOL    HW278657   4.950   0.365   5.776  1.7973 -1.0099  0.8911
22335SOL     OW78658   1.012   9.242   3.382 -0.3952  0.7155 -0.4747
22335SOL    HW178659   0.968   9.196   3.459 -1.1810  0.1938 -1.2193
22335SOL    HW278660   1.109   9.253   3.400 -0.3282 -0.6165  0.0220
22336SOL     OW78661   4.396   0.499   1.334  0.0740  0.2943  0.6627
22336SOL    HW178662   4.397   0.402   1.310  0.3619  0.1257  1.3344
22336SOL    HW278663   4.340   0.549   1.268  1.1531 -0.0880 -0.5783
22337SOL     OW78664   7.662   0.306   0.343 -0.1858 -0.2163  0.2735
22337SOL    HW178665   7.730   0.256   0.289 -1.4771 -0.1441 -1.4571
22337SOL    HW278666   7.598   0.241   0.383 -0.9375 -0.0619 -0.6767
22338SOL     OW78667   7.358   1.482   4.020 -0.2201 -0.2604 -0.2135
22338SOL    HW178668   7.320   1.552   4.081  1.5500  0.7208 -0.2071
22338SOL    HW278669   7.426   1.524   3.959 -0.3327 -1.6641 -1.3413
22339SOL     OW78670   0.567   0.053   6.099 -0.4040  0.8074  0.0708
22339SOL    HW178671   0.487   0.039   6.039 -0.5572  0.6727  0.3048
22339SOL    HW278672   0.594   0.149   6.096 -0.0039  0.6712 -0.7279
22340SOL     OW78673   0.103   8.385   1.129  0.2747 -0.5832  0.2085
22340SOL    HW178674   0.160   8.348   1.056  0.2045 -1.5930  0.6494
22340SOL    HW278675   0.015   8.415   1.091  0.8131  0.2998 -0.3531
22341SOL     OW78676   2.049   2.456   0.366 -0.0731 -0.0379  0.4586
22341SOL    HW178677   2.147   2.476   0.373 -0.4544  1.2497  2.7732
22341SOL    HW278678   2.000   2.539   0.337 -0.3897 -0.9509 -1.6874
22342SOL     OW78679   5.900   9.343   2.224  0.0428  0.4339 -0.1063
22342SOL    HW178680   5.872   9.432   2.259 -1.6243 -0.8431  1.9218
22342SOL    HW278681   5.942   9.289   2.297  1.0313 -0.4610 -1.3017
22343SOL     OW78682   9.392   7.109   1.792 -0.6364 -0.1586  0.4140
22343SOL    HW178683   9.456   7.088   1.719  0.4749 -0.4034  1.4371
22343SOL    HW278684   9.299   7.087   1.763  0.0709 -2.7972  0.0154
22344SOL     OW78685   9.411   5.615   3.768 -0.1781 -0.1371 -0.1647
22344SOL    HW178686   9.410   5.549   3.844  1.4692  0.6016  0.5241
22344SOL    HW278687   9.334   5.678   3.778  0.3174  0.2617  1.1767
22345SOL     OW78688   1.241   9.285   6.999 -0.7246 -0.2539 -0.1643
22345SOL    HW178689   1.149   9.249   7.011  0.4944 -2.4655  3.1806
22345SOL    HW278690   1.293   9.224   6.940  0.2833 -2.2561  2.6783
22346SOL     OW78691   2.715   6.724   5.645  0.4408  0.1559  0.4313
22346SOL    HW178692   2.776   6.729   5.724  1.5795  1.9170 -0.5135
22346SOL    HW278693   2.656   6.805   5.643  0.7607  0.3681 -0.7893
22347SOL     OW78694   7.161   7.218   6.016  0.5162 -0.3323  0.5311
22347SOL    HW178695   7.108   7.250   6.095 -0.3696  0.5150 -0.3847
22347SOL    HW278696   7.111   7.145   5.970  0.6279 -0.2343  0.2548
22348SOL     OW78697   7.753   3.758   8.132 -0.0178  0.1973 -0.1744
22348SOL    HW178698   7.714   3.687   8.191  1.7217  0.0494  0.8437
22348SOL    HW278699   7.692   3.837   8.130 -0.7661 -0.3451  0.7041
22349SOL     OW78700   2.996   1.983   5.146 -0.9010 -0.3455 -0.0816
22349SOL    HW178701   3.046   2.064   5.176 -2.2439  0.6145 -0.3807
22349SOL    HW278702   2.906   1.981   5.189 -0.2476 -2.6242  1.2923
22350SOL     OW78703   3.473   8.628   1.973 -0.0910  0.4562  0.4217
22350SOL    HW178704   3.568   8.609   1.950 -0.3830 -1.0674  0.3574
22350SOL    HW278705   3.466   8.649   2.071  0.0638 -1.5134  0.8872
22351SOL     OW78706   4.236   8.139   7.002 -0.4876  0.6987  0.3942
22351SOL    HW178707   4.192   8.166   6.917 -1.0239  0.5796  0.6258
22351SOL    HW278708   4.209   8.045   7.025  0.4892  0.3542  0.1556
22352SOL     OW78709   4.794   2.726   7.854 -0.2560  0.3951  0.4010
22352SOL    HW178710   4.755   2.779   7.779 -0.8550 -0.5922  0.0093
22352SOL    HW278711   4.783   2.777   7.940 -0.1951  1.2107 -0.0713
22353SOL     OW78712   7.902   2.652   0.138 -0.0771 -0.6155 -0.1698
22353SOL    HW178713   7.887   2.568   0.085  0.4672 -1.0753  0.4021
22353SOL    HW278714   7.961   2.714   0.085 -0.6103 -0.5265 -0.6611
22354SOL     OW78715   0.824   4.515   2.764  0.0318  0.2438  0.6078
22354SOL    HW178716   0.883   4.500   2.685  1.4745 -0.5915  1.8072
22354SOL    HW278717   0.806   4.612   2.775  1.0083  0.4844  0.1047
22355SOL     OW78718   6.839   1.283   3.101 -0.0020  0.1108  0.2663
22355SOL    HW178719   6.933   1.313   3.117  0.4138 -0.8708 -0.2764
22355SOL    HW278720   6.825   1.194   3.145  0.0164 -0.8126 -1.5435
22356SOL     OW78721   9.737   5.077   5.843  0.6947 -0.2499 -0.3516
22356SOL    HW178722   9.702   5.042   5.930 -2.7581  2.4906 -0.5572
22356SOL    HW278723   9.793   5.158   5.859 -0.9943  1.0046 -0.7765
22357SOL     OW78724   3.285   0.113   7.067 -0.2945 -0.0548 -0.6857
22357SOL    HW178725   3.233   0.029   7.081  0.5270 -0.5784 -0.6992
22357SOL    HW278726   3.250   0.185   7.126  1.0563 -1.3087  1.7077
22358SOL     OW78727   5.494   5.558   0.961 -0.1544 -0.1470  0.0864
22358SOL    HW178728   5.536   5.610   1.035  2.1238  0.1689 -1.3630
22358SOL    HW278729   5.399   5.587   0.949  0.2109  1.5975  1.2221
22359SOL     OW78730   5.197   4.015   1.218 -0.1364  0.0134  0.0215
22359SOL    HW178731   5.192   3.992   1.315  0.2546 -1.4614 -0.2976
22359SOL    HW278732   5.178   4.113   1.206  1.0313  0.4646  1.6879
22360SOL     OW78733   0.994   0.155   2.410 -0.2681 -0.1828 -0.3865
22360SOL    HW178734   0.932   0.077   2.420 -1.5194  1.1371  2.5850
22360SOL    HW278735   1.088   0.125   2.425 -0.5304 -1.4713 -1.2043
22361SOL     OW78736   9.829   0.641   4.047  0.7600 -0.3865 -0.4330
22361SOL    HW178737   9.773   0.657   3.965  0.5345  2.6371  0.2735
22361SOL    HW278738   9.810   0.549   4.082  0.6941 -1.6568 -3.6270
22362SOL     OW78739   1.226   6.966   0.313 -0.0872 -0.0997 -0.2538
22362SOL    HW178740   1.326   6.964   0.306 -0.0829  0.2386 -0.2846
22362SOL    HW278741   1.186   6.945   0.224 -0.0350  2.8204 -0.9860
22363SOL     OW78742   4.460   8.829   0.813  0.7531  0.2011 -0.1892
22363SOL    HW178743   4.554   8.864   0.821  1.3504 -1.1807 -0.9489
22363SOL    HW278744   4.418   8.868   0.731  1.9051 -1.9084 -1.8177
22364SOL     OW78745   0.580   9.907   0.582 -0.1704 -0.4020  0.0072
22364SOL    HW178746   0.570   9.829   0.643  0.3157 -0.9473 -0.6074
22364SOL    HW278747   0.535   9.887   0.495 -2.8229  1.2222  0.9241
22365SOL     OW78748   8.686   3.028   5.487  0.7512 -0.1137  0.3524
22365SOL    HW178749   8.603   3.052   5.436  1.8857 -1.4485 -2.2091
22365SOL    HW278750   8.673   3.050   5.584 -2.1780  0.6894 -0.1716
22366SOL     OW78751   5.091   6.333   0.807 -0.0550  0.2623  0.4965
22366SOL    HW178752   4.995   6.354   0.822  0.0941 -0.1183  1.9732
22366SOL    HW278753   5.099   6.248   0.755 -0.5159  0.4461  0.1226
22367SOL     OW78754   2.886   1.405   1.127 -0.4688  0.3346 -0.0717
22367SOL    HW178755   2.835   1.371   1.048  1.3384 -1.4197 -0.5119
22367SOL    HW278756   2.980   1.371   1.124 -0.4479 -0.0805  3.0054
22368SOL     OW78757   1.773   1.851   6.466 -0.3065 -0.4522  0.0671
22368SOL    HW178758   1.821   1.791   6.531 -1.5536  0.9252  2.3019
22368SOL    HW278759   1.819   1.940   6.462 -1.4811  0.1944  0.7066
22369SOL     OW78760   3.920   4.799   1.061  0.2147  0.1700 -0.4370
22369SOL    HW178761   3.969   4.795   1.148  0.1187  2.7310 -0.2033
22369SOL    HW278762   3.980   4.768   0.987  1.5643  1.4045  0.1050
22370SOL     OW78763   0.958   2.815   5.544  0.1384 -0.3269 -0.0603
22370SOL    HW178764   1.044   2.856   5.573  0.1845 -0.4476 -0.0266
22370SOL    HW278765   0.884   2.882   5.554  0.0556 -0.5661  0.9156
22371SOL     OW78766   2.967   1.666   7.086  0.1300 -0.2234 -0.1987
22371SOL    HW178767   2.894   1.622   7.138 -0.9039  1.4686 -0.1795
22371SOL    HW278768   2.997   1.606   7.012 -0.4651 -1.4039  0.5076
22372SOL     OW78769   2.597   9.761   2.261 -0.3060 -0.1717 -0.2626
22372SOL    HW178770   2.536   9.838   2.240 -1.2788 -0.5816  0.9532
22372SOL    HW278771   2.652   9.739   2.181 -1.8421  0.1339 -1.4404
22373SOL     OW78772   9.505   8.300   6.320 -0.0155  0.1331 -0.7372
22373SOL    HW178773   9.513   8.241   6.240 -0.1362  0.0853 -0.7137
22373SOL    HW278774   9.595   8.310   6.363 -0.3174 -1.4604  0.2740
22374SOL     OW78775   0.744   8.477   2.939 -0.2201  0.4061 -0.2441
22374SOL    HW178776   0.699   8.563   2.963 -1.3355 -0.1131 -0.4262
22374SOL    HW278777   0.741   8.465   2.840 -1.3728 -0.5242 -0.1113
22375SOL     OW78778   3.384   3.294   7.078  0.2256  0.7267  0.1371
22375SOL    HW178779   3.369   3.302   6.979 -1.3043  0.1236  0.3114
22375SOL    HW278780   3.391   3.385   7.118  0.7441  0.9767 -0.5022
22376SOL     OW78781   8.986   4.837   0.450 -0.1972  0.4613 -0.2070
22376SOL    HW178782   9.009   4.934   0.459 -0.9902  0.7977 -1.6922
22376SOL    HW278783   8.954   4.802   0.538  0.7768  1.3576  0.5164
22377SOL     OW78784   9.193   6.390   3.199  0.2234 -0.0022 -0.0318
22377SOL    HW178785   9.146   6.436   3.123 -0.2536  1.5295  1.1737
22377SOL    HW278786   9.200   6.452   3.276 -1.7010 -2.3909  2.1686
22378SOL     OW78787   2.575   9.301   4.420 -0.3937 -0.4707  0.4323
22378SOL    HW178788   2.656   9.311   4.478 -1.3703  1.5334  1.5102
22378SOL    HW278789   2.596   9.335   4.328  0.6971 -2.2123  0.0225
22379SOL     OW78790   1.906   1.027   0.374  0.0529 -0.0821  0.2759
22379SOL    HW178791   1.819   1.033   0.325 -0.2080  0.1757  0.7683
22379SOL    HW278792   1.895   0.970   0.456  0.2997  0.1100  0.4439
22380SOL     OW78793   8.121   5.335   5.387 -0.0365 -0.0126 -0.1548
22380SOL    HW178794   8.026   5.366   5.380  0.0529  0.1851 -0.5400
22380SOL    HW278795   8.130   5.271   5.463 -0.5440 -0.2699 -0.3077
22381SOL     OW78796   4.587   0.408   4.118 -0.4155  0.3370  0.0684
22381SOL    HW178797   4.631   0.422   4.029 -0.2366 -2.2537 -0.2700
22381SOL    HW278798   4.495   0.448   4.117 -0.2154  0.7710 -1.0970
22382SOL     OW78799   3.086   2.070   4.204  0.2512  0.1088  0.2740
22382SOL    HW178800   3.106   2.083   4.107  0.3490  0.8203  0.3922
22382SOL    HW278801   3.115   1.978   4.231  1.1091  0.2497 -0.1448
22383SOL     OW78802   6.418   8.439   6.775  0.0649 -0.3934 -0.4238
22383SOL    HW178803   6.457   8.352   6.807 -0.1394 -0.1987  0.3783
22383SOL    HW278804   6.363   8.423   6.693 -1.6432 -1.3589  0.8749
22384SOL     OW78805   3.010   5.575   0.145 -0.1389  0.1835 -0.8125
22384SOL    HW178806   3.073   5.619   0.081  2.3420 -1.7085  0.2420
22384SOL    HW278807   3.046   5.583   0.238 -0.8573 -1.8958 -0.3182
22385SOL     OW78808   1.051   7.575   2.478 -0.2484 -0.0437  0.3917
22385SOL    HW178809   0.967   7.523   2.489 -1.1940  1.5272  0.7297
22385SOL    HW278810   1.037   7.669   2.510  1.0632  0.7654 -1.2973
22386SOL     OW78811   1.172   9.694   6.418  0.5343 -0.0028  0.4520
22386SOL    HW178812   1.156   9.770   6.481 -0.2595  0.6982 -0.5808
22386SOL    HW278813   1.177   9.608   6.470 -0.3652  0.5305  1.4362
22387SOL     OW78814   4.031   9.469   2.469  0.2514  0.4443  0.3513
22387SOL    HW178815   3.960   9.437   2.532  0.1790 -0.1915 -0.0472
22387SOL    HW278816   3.989   9.497   2.383  0.2332  2.3162  0.9440
22388SOL     OW78817   8.762   0.378   6.324 -0.4067 -0.1603  0.2918
22388SOL    HW178818   8.710   0.415   6.401 -0.1129 -1.2525  1.0087
22388SOL    HW278819   8.723   0.291   6.296  1.7224 -1.5643  1.5763
22389SOL     OW78820   9.998   1.088   1.300 -0.2092 -0.3260  0.2270
22389SOL    HW178821   9.938   1.105   1.222 -1.3294  0.5115  1.2605
22389SOL    HW278822   9.946   1.045   1.374  0.6774 -0.4637  0.7828
22390SOL     OW78823   9.179   4.218   3.995 -0.1162  0.4615  1.0781
22390SOL    HW178824   9.188   4.123   3.964  1.4086  0.6236  1.0119
22390SOL    HW278825   9.092   4.228   4.045 -0.3479 -0.9373  0.9861
22391SOL     OW78826   7.440   7.070   7.788  0.2443 -0.3774 -0.0291
22391SOL    HW178827   7.358   7.122   7.812  0.2769 -0.8803  1.1919
22391SOL    HW278828   7.521   7.123   7.811  0.2610 -0.0662 -0.8148
22392SOL     OW78829   7.468   7.525   6.097  0.3367  0.0277  0.2354
22392SOL    HW178830   7.564   7.546   6.113  0.6674 -0.7709 -0.6723
22392SOL    HW278831   7.447   7.435   6.136  0.0799 -0.0151 -0.0002
22393SOL     OW78832   2.982   8.295   4.984  0.7691 -0.1006  0.3546
22393SOL    HW178833   2.914   8.222   4.990  0.5786  0.1373  1.1862
22393SOL    HW278834   2.936   8.383   4.988  1.0791  0.0660  0.2725
22394SOL     OW78835   4.582   3.007   1.929  0.0417  0.4524 -0.3825
22394SOL    HW178836   4.591   3.007   2.029  2.0320  0.5239 -0.5441
22394SOL    HW278837   4.495   2.964   1.904 -0.1876 -0.1608  1.3479
22395SOL     OW78838   2.450   4.280   6.776 -0.4508 -0.1166 -0.9012
22395SOL    HW178839   2.530   4.313   6.727 -0.7623  1.2286 -0.5180
22395SOL    HW278840   2.470   4.190   6.815 -0.2800 -1.3224 -3.6635
22396SOL     OW78841   3.440   9.393   5.297  0.0975 -0.5674  0.2210
22396SOL    HW178842   3.397   9.361   5.381 -0.3984 -0.0699  0.1570
22396SOL    HW278843   3.445   9.317   5.232 -1.5450 -0.4092 -0.1187
  10.00000  10.00000   8.18850
