chitosan Film  in water:acetic acid 2%
17154
    1CHTO  H203    1   5.892   7.037   2.207
    1CHTO   O82    2   5.885   6.952   2.247
    1CHTO  C123    3   5.993   6.932   2.339
    1CHTO  H227    4   5.988   7.009   2.417
    1CHTO   O77    5   5.964   6.801   2.395
    1CHTO  C118    6   6.054   6.760   2.499
    1CHTO  H222    7   6.059   6.836   2.578
    1CHTO  C125    8   5.993   6.628   2.560
    1CHTO   O84    9   6.053   6.593   2.685
    1CHTO  H205   10   6.142   6.567   2.671
    1CHTO  C114   11   6.193   6.739   2.437
    1CHTO  H218   12   6.185   6.663   2.359
    1CHTO  C116   13   6.243   6.870   2.368
    1CHTO  H220   14   6.266   6.945   2.447
    1CHTO   O79   15   6.366   6.843   2.299
    1CHTO  H201   16   6.434   6.824   2.361
    1CHTO  C120   17   6.134   6.929   2.268
    1CHTO  H224   18   6.131   6.860   2.181
    1CHTO   N21   19   6.173   7.063   2.216
    1CHTO  H211   20   6.130   7.078   2.118
    1CHTO  H212   21   6.280   7.073   2.212
    1CHTO   O75   22   6.280   6.695   2.543
    1CHTO  C112   23   6.360   6.554   2.508
    1CHTO  H216   24   6.358   6.537   2.400
    1CHTO   O73   25   6.295   6.448   2.580
    1CHTO  C113   26   6.343   6.318   2.546
    1CHTO  H217   27   6.331   6.303   2.436
    1CHTO  C124   28   6.256   6.213   2.616
    1CHTO   O83   29   6.119   6.220   2.575
    1CHTO  H204   30   6.068   6.156   2.621
    1CHTO  C109   31   6.493   6.301   2.585
    1CHTO  H213   32   6.497   6.301   2.695
    1CHTO  C110   33   6.578   6.420   2.529
    1CHTO  H214   34   6.592   6.405   2.421
    1CHTO   O78   35   6.708   6.416   2.590
    1CHTO  H200   36   6.765   6.478   2.550
    1CHTO  C111   37   6.511   6.559   2.554
    1CHTO  H215   38   6.513   6.580   2.662
    1CHTO   N19   39   6.582   6.671   2.487
    1CHTO  H207   40   6.534   6.765   2.510
    1CHTO  H208   41   6.584   6.656   2.380
    1CHTO   O74   42   6.543   6.172   2.535
    1CHTO  C115   43   6.642   6.094   2.636
    1CHTO  H219   44   6.638   6.135   2.737
    1CHTO   O76   45   6.601   5.940   2.653
    1CHTO  C122   46   6.602   5.863   2.531
    1CHTO  H226   47   6.505   5.876   2.483
    1CHTO  C126   48   6.613   5.711   2.568
    1CHTO   O85   49   6.505   5.665   2.650
    1CHTO  H206   50   6.514   5.573   2.666
    1CHTO  C121   51   6.719   5.902   2.431
    1CHTO  H225   52   6.759   5.809   2.385
    1CHTO   O81   53   6.667   5.980   2.323
    1CHTO  H202   54   6.733   5.993   2.257
    1CHTO  C119   55   6.835   5.975   2.506
    1CHTO  H223   56   6.866   5.903   2.583
    1CHTO  C117   57   6.789   6.107   2.578
    1CHTO  H221   58   6.785   6.193   2.512
    1CHTO   N20   59   6.887   6.146   2.685
    1CHTO  H209   60   6.891   6.070   2.761
    1CHTO  H210   61   6.985   6.160   2.641
    1CHTO   O80   62   6.965   5.989   2.421
    1CHTO  C103   63   7.092   5.916   2.465
    1CHTO  H190   64   7.103   5.922   2.574
    1CHTO  C101   65   7.101   5.765   2.421
    1CHTO  H188   66   7.082   5.759   2.314
    1CHTO   O68   67   6.991   5.684   2.494
    1CHTO  H168   68   6.991   5.595   2.463
    1CHTO   C99   69   7.248   5.708   2.448
    1CHTO  H186   70   7.269   5.711   2.557
    1CHTO   N17   71   7.267   5.566   2.402
    1CHTO  H174   72   7.350   5.557   2.333
    1CHTO  H175   73   7.281   5.501   2.488
    1CHTO   C97   74   7.351   5.805   2.382
    1CHTO  H184   75   7.336   5.801   2.273
    1CHTO   O64   76   7.336   5.938   2.435
    1CHTO  C104   77   7.210   5.999   2.402
    1CHTO  H191   78   7.197   6.004   2.294
    1CHTO  C108   79   7.211   6.144   2.452
    1CHTO   O71   80   7.311   6.223   2.386
    1CHTO  H171   81   7.397   6.195   2.413
    1CHTO   O62   82   7.488   5.773   2.416
    1CHTO   C91   83   7.582   5.794   2.309
    1CHTO  H178   84   7.536   5.858   2.234
    1CHTO   C92   85   7.608   5.655   2.240
    1CHTO  H179   86   7.516   5.595   2.238
    1CHTO   O66   87   7.639   5.681   2.102
    1CHTO  H166   88   7.643   5.601   2.054
    1CHTO   C93   89   7.730   5.575   2.300
    1CHTO  H180   90   7.754   5.496   2.228
    1CHTO   N16   91   7.695   5.502   2.424
    1CHTO  H172   92   7.664   5.572   2.501
    1CHTO  H173   93   7.780   5.444   2.458
    1CHTO   C94   94   7.857   5.669   2.316
    1CHTO  H181   95   7.896   5.668   2.418
    1CHTO   O61   96   7.831   5.807   2.285
    1CHTO   C95   97   7.717   5.863   2.353
    1CHTO  H182   98   7.731   5.851   2.461
    1CHTO  C106   99   7.716   6.018   2.325
    1CHTO   O69  100   7.612   6.084   2.397
    1CHTO  H169  101   7.631   6.083   2.489
    1CHTO   O63  102   7.965   5.622   2.217
    1CHTO   C96  103   8.079   5.539   2.280
    1CHTO  H183  104   8.061   5.532   2.387
    1CHTO   C98  105   8.219   5.605   2.260
    1CHTO  H185  106   8.214   5.712   2.282
    1CHTO   O67  107   8.311   5.551   2.357
    1CHTO  H167  108   8.285   5.576   2.444
    1CHTO  C102  109   8.279   5.581   2.114
    1CHTO  H189  110   8.385   5.611   2.120
    1CHTO   N18  111   8.221   5.665   2.006
    1CHTO  H176  112   8.116   5.645   1.996
    1CHTO  H177  113   8.271   5.645   1.912
    1CHTO  C105  114   8.275   5.430   2.078
    1CHTO  H192  115   8.298   5.417   1.972
    1CHTO   O65  116   8.149   5.365   2.102
    1CHTO  C100  117   8.068   5.393   2.218
    1CHTO  H187  118   7.964   5.381   2.185
    1CHTO  C107  119   8.088   5.282   2.326
    1CHTO   O70  120   8.222   5.276   2.375
    1CHTO  H170  121   8.228   5.207   2.439
    1CHTO   O57  122   8.394   5.369   2.162
    1CHTO   C85  123   8.484   5.274   2.103
    1CHTO  H157  124   8.439   5.242   2.007
    1CHTO   C83  125   8.487   5.145   2.191
    1CHTO  H155  126   8.388   5.097   2.184
    1CHTO   O56  127   8.505   5.180   2.329
    1CHTO  H135  128   8.498   5.103   2.383
    1CHTO   C81  129   8.594   5.048   2.134
    1CHTO  H153  130   8.572   5.033   2.029
    1CHTO   N14  131   8.586   4.912   2.193
    1CHTO  H141  132   8.655   4.846   2.143
    1CHTO  H142  133   8.612   4.915   2.297
    1CHTO   C79  134   8.736   5.114   2.146
    1CHTO  H151  135   8.808   5.044   2.104
    1CHTO   O52  136   8.740   5.234   2.063
    1CHTO   C86  137   8.631   5.331   2.083
    1CHTO  H158  138   8.663   5.388   2.172
    1CHTO   C90  139   8.631   5.432   1.965
    1CHTO   O60  140   8.607   5.367   1.839
    1CHTO  H138  141   8.681   5.313   1.817
    1CHTO   O50  142   8.776   5.144   2.281
    1CHTO   C73  143   8.878   5.163   2.380
    1CHTO  H145  144   8.964   5.214   2.335
    1CHTO   C74  145   8.926   5.027   2.438
    1CHTO  H146  146   8.961   4.965   2.354
    1CHTO   O54  147   9.041   5.052   2.521
    1CHTO  H133  148   9.075   4.972   2.555
    1CHTO   C75  149   8.807   4.957   2.516
    1CHTO  H147  150   8.727   4.935   2.444
    1CHTO   N13  151   8.842   4.825   2.575
    1CHTO  H139  152   8.920   4.837   2.648
    1CHTO  H140  153   8.755   4.783   2.624
    1CHTO   C76  154   8.746   5.058   2.624
    1CHTO  H148  155   8.821   5.074   2.701
    1CHTO   O49  156   8.712   5.185   2.561
    1CHTO   C77  157   8.821   5.251   2.495
    1CHTO  H149  158   8.901   5.271   2.567
    1CHTO   C88  159   8.772   5.389   2.448
    1CHTO   O58  160   8.880   5.466   2.384
    1CHTO  H136  161   8.847   5.549   2.357
    1CHTO   O51  162   8.604   4.996   2.687
    1CHTO   C78  163   8.513   5.106   2.761
    1CHTO  H150  164   8.530   5.208   2.719
    1CHTO   C80  165   8.540   5.110   0.080
    1CHTO  H152  166   8.512   5.012   0.124
    1CHTO   O55  167   8.682   5.130   0.098
    1CHTO  H134  168   8.704   5.124   0.189
    1CHTO   C84  169   8.456   5.226   0.148
    1CHTO  H156  170   8.494   5.320   0.108
    1CHTO   N15  171   8.474   5.232   0.297
    1CHTO  H143  172   8.443   5.139   0.341
    1CHTO  H144  173   8.576   5.250   0.321
    1CHTO   C87  174   8.306   5.216   0.110
    1CHTO  H159  175   8.257   5.137   0.168
    1CHTO   O53  176   8.286   5.184   2.786
    1CHTO   C82  177   8.365   5.073   2.739
    1CHTO  H154  178   8.338   4.983   2.794
    1CHTO   C89  179   8.335   5.047   2.590
    1CHTO   O59  180   8.199   5.005   2.571
    1CHTO  H137  181   8.183   4.991   2.480
    1CHTO   O45  182   8.228   5.359   0.146
    1CHTO   C67  183   8.245   5.465   0.050
    1CHTO  H124  184   8.337   5.448   2.826
    1CHTO   C65  185   8.124   5.472   2.782
    1CHTO  H122  186   8.057   5.390   2.809
    1CHTO   O44  187   8.175   5.448   2.650
    1CHTO  H102  188   8.104   5.439   2.589
    1CHTO   C63  189   8.039   5.603   2.801
    1CHTO  H120  190   8.001   5.605   0.071
    1CHTO   N11  191   7.912   5.611   2.721
    1CHTO  H108  192   7.827   5.606   2.786
    1CHTO  H109  193   7.908   5.701   2.664
    1CHTO   C61  194   8.135   5.727   2.786
    1CHTO  H118  195   8.078   5.815   2.822
    1CHTO   O40  196   8.255   5.718   0.036
    1CHTO   C68  197   8.266   5.603   0.126
    1CHTO  H125  198   8.189   5.614   0.205
    1CHTO   C72  199   8.404   5.611   0.197
    1CHTO   O48  200   8.515   5.607   0.107
    1CHTO  H105  201   8.517   5.685   0.055
    1CHTO   O38  202   8.180   5.748   2.650
    1CHTO   C55  203   8.196   5.885   2.609
    1CHTO  H112  204   8.197   5.950   2.697
    1CHTO   C56  205   8.081   5.924   2.507
    1CHTO  H113  206   8.058   5.834   2.447
    1CHTO   O42  207   7.961   5.951   2.582
    1CHTO  H100  208   7.889   5.965   2.524
    1CHTO   C57  209   8.115   6.049   2.414
    1CHTO  H114  210   8.027   6.114   2.412
    1CHTO   N10  211   8.140   6.013   2.272
    1CHTO  H106  212   8.113   6.095   2.208
    1CHTO  H107  213   8.082   5.926   2.245
    1CHTO   C58  214   8.234   6.128   2.474
    1CHTO  H115  215   8.263   6.210   2.404
    1CHTO   O37  216   8.351   6.048   2.502
    1CHTO   C59  217   8.334   5.910   2.541
    1CHTO  H116  218   8.344   5.847   2.452
    1CHTO   C70  219   8.451   5.872   2.634
    1CHTO   O46  220   8.456   5.950   2.754
    1CHTO  H103  221   8.382   5.930   2.808
    1CHTO   O39  222   8.184   6.196   2.615
    1CHTO   C60  223   8.119   6.324   2.599
    1CHTO  H117  224   8.130   6.358   2.496
    1CHTO   C62  225   7.967   6.313   2.628
    1CHTO  H119  226   7.926   6.236   2.559
    1CHTO   O43  227   7.946   6.268   2.763
    1CHTO  H101  228   7.855   6.256   2.780
    1CHTO   C66  229   7.897   6.455   2.596
    1CHTO  H123  230   7.919   6.481   2.493
    1CHTO   N12  231   7.749   6.449   2.605
    1CHTO  H110  232   7.720   6.419   2.705
    1CHTO  H111  233   7.710   6.381   2.531
    1CHTO   C69  234   7.958   6.566   2.685
    1CHTO  H126  235   7.934   6.547   2.792
    1CHTO   O41  236   8.116   6.567   2.665
    1CHTO   C64  237   8.185   6.432   2.690
    1CHTO  H121  238   8.173   6.403   2.796
    1CHTO   C71  239   8.335   6.451   2.660
    1CHTO   O47  240   8.413   6.339   2.702
    1CHTO  H104  241   8.504   6.355   2.685
    1CHTO   O34  242   7.900   6.712   2.644
    1CHTO   C49  243   7.960   6.843   2.702
    1CHTO   H91  244   8.054   6.817   2.750
    1CHTO   C47  245   7.863   6.902   2.806
    1CHTO   H89  246   7.916   6.987   0.022
    1CHTO   O33  247   7.837   6.802   0.074
    1CHTO   H70  248   7.787   6.731   0.038
    1CHTO   C45  249   7.731   6.956   2.731
    1CHTO   H87  250   7.688   6.873   2.674
    1CHTO    N8  251   7.628   7.004   2.827
    1CHTO   H75  252   7.603   6.926   0.065
    1CHTO   H76  253   7.539   7.035   2.773
    1CHTO   C43  254   7.772   7.067   2.621
    1CHTO   H85  255   7.680   7.089   2.567
    1CHTO   O29  256   7.874   7.015   2.533
    1CHTO   C50  257   7.988   6.947   2.590
    1CHTO   H92  258   8.035   6.891   2.507
    1CHTO   C54  259   8.099   7.047   2.632
    1CHTO   O36  260   8.150   7.119   2.519
    1CHTO   H72  261   8.203   7.062   2.466
    1CHTO   O27  262   7.814   7.193   2.678
    1CHTO   C37  263   7.771   7.329   2.655
    1CHTO   H79  264   7.762   7.347   2.547
    1CHTO   C38  265   7.630   7.356   2.717
    1CHTO   H80  266   7.630   7.315   2.820
    1CHTO   O31  267   7.534   7.283   2.639
    1CHTO   H68  268   7.449   7.288   2.679
    1CHTO   C39  269   7.592   7.509   2.723
    1CHTO   H81  270   7.568   7.540   2.621
    1CHTO    N7  271   7.469   7.533   2.807
    1CHTO   H73  272   7.486   7.503   0.077
    1CHTO   H74  273   7.441   7.637   2.803
    1CHTO   C40  274   7.713   7.599   2.772
    1CHTO   H82  275   7.728   7.582   0.047
    1CHTO   O26  276   7.830   7.566   2.696
    1CHTO   C41  277   7.875   7.428   2.714
    1CHTO   H83  278   7.889   7.408   2.821
    1CHTO   C52  279   8.014   7.416   2.646
    1CHTO   O35  280   8.010   7.443   2.498
    1CHTO   H71  281   7.988   7.533   2.483
    1CHTO   O28  282   7.687   7.741   2.759
    1CHTO   C42  283   7.704   7.819   2.636
    1CHTO   H84  284   7.708   7.747   2.555
    1CHTO   C44  285   7.837   7.903   2.626
    1CHTO   H86  286   7.838   7.976   2.708
    1CHTO   O32  287   7.948   7.814   2.645
    1CHTO   H69  288   7.953   7.751   2.576
    1CHTO   C48  289   7.849   7.983   2.489
    1CHTO   H90  290   7.862   7.909   2.410
    1CHTO    N9  291   7.970   8.072   2.482
    1CHTO   H77  292   7.943   8.176   2.473
    1CHTO   H78  293   8.034   8.057   2.568
    1CHTO   C51  294   7.715   8.062   2.459
    1CHTO   H93  295   7.708   8.146   2.527
    1CHTO   O30  296   7.603   7.973   2.470
    1CHTO   C46  297   7.585   7.915   2.606
    1CHTO   H88  298   7.583   7.995   2.680
    1CHTO   C53  299   7.448   7.842   2.605
    1CHTO   O72  300   7.340   7.934   2.587
    1CHTO  H199  301   7.344   7.971   2.501
    1CHTO   O22  302   7.713   8.107   2.322
    1CHTO   C31  303   7.604   8.190   2.268
    1CHTO   H59  304   7.524   8.192   2.346
    1CHTO   C29  305   7.645   8.338   2.242
    1CHTO   H57  306   7.735   8.335   2.178
    1CHTO   O21  307   7.684   8.397   2.367
    1CHTO   H37  308   7.762   8.355   2.400
    1CHTO   C27  309   7.532   8.421   2.168
    1CHTO   H55  310   7.446   8.431   2.236
    1CHTO    N5  311   7.576   8.557   2.126
    1CHTO   H43  312   7.680   8.573   2.150
    1CHTO   H44  313   7.515   8.632   2.175
    1CHTO   C25  314   7.484   8.339   2.044
    1CHTO   H53  315   7.569   8.324   1.976
    1CHTO   O17  316   7.436   8.210   2.090
    1CHTO   C32  317   7.540   8.126   2.141
    1CHTO   H60  318   7.617   8.112   2.066
    1CHTO   C36  319   7.475   7.989   2.172
    1CHTO   O25  320   7.427   7.927   2.052
    1CHTO   H40  321   7.389   7.844   2.074
    1CHTO   O15  322   7.362   8.409   1.961
    1CHTO   C19  323   7.310   8.347   1.839
    1CHTO   H47  324   7.236   8.420   1.803
    1CHTO   C20  325   7.417   8.327   1.728
    1CHTO   H48  326   7.503   8.269   1.764
    1CHTO   O19  327   7.464   8.459   1.694
    1CHTO   H35  328   7.535   8.454   1.633
    1CHTO   C21  329   7.359   8.252   1.601
    1CHTO   H49  330   7.283   8.316   1.555
    1CHTO    N4  331   7.462   8.226   1.497
    1CHTO   H41  332   7.559   8.264   1.527
    1CHTO   H42  333   7.434   8.273   1.404
    1CHTO   C22  334   7.288   8.123   1.649
    1CHTO   H50  335   7.362   8.059   1.699
    1CHTO   O14  336   7.184   8.159   1.741
    1CHTO   C23  337   7.230   8.215   1.865
    1CHTO   H51  338   7.293   8.138   1.913
    1CHTO   C34  339   7.107   8.239   1.953
    1CHTO   O23  340   7.141   8.281   2.085
    1CHTO   H38  341   7.178   8.367   2.082
    1CHTO   O16  342   7.215   8.049   1.548
    1CHTO   C24  343   7.292   7.920   1.482
    1CHTO   H52  344   7.400   7.925   1.497
    1CHTO   C26  345   7.260   7.918   1.331
    1CHTO   H54  346   7.149   7.918   1.319
    1CHTO   O20  347   7.311   8.039   1.272
    1CHTO   H36  348   7.284   8.045   1.182
    1CHTO   C30  349   7.317   7.791   1.261
    1CHTO   H58  350   7.427   7.796   1.258
    1CHTO    N6  351   7.273   7.782   1.119
    1CHTO   H45  352   7.166   7.774   1.113
    1CHTO   H46  353   7.318   7.696   1.072
    1CHTO   C33  354   7.282   7.662   1.341
    1CHTO   H61  355   7.174   7.640   1.332
    1CHTO   O18  356   7.312   7.679   1.481
    1CHTO   C28  357   7.244   7.787   1.546
    1CHTO   H56  358   7.136   7.778   1.532
    1CHTO   C35  359   7.275   7.784   1.698
    1CHTO   O24  360   7.226   7.666   1.763
    1CHTO   H39  361   7.132   7.667   1.764
    1CHTO    O9  362   7.350   7.547   1.286
    1CHTO   C13  363   7.309   7.405   1.346
    1CHTO   H26  364   7.235   7.422   1.427
    1CHTO   C11  365   7.440   7.336   1.401
    1CHTO   H24  366   7.470   7.390   1.493
    1CHTO    O8  367   7.548   7.350   1.306
    1CHTO    H3  368   7.569   7.441   1.294
    1CHTO    C9  369   7.409   7.189   1.439
    1CHTO   H22  370   7.325   7.194   1.510
    1CHTO    N2  371   7.516   7.119   1.514
    1CHTO   H10  372   7.542   7.025   1.467
    1CHTO   H11  373   7.604   7.182   1.523
    1CHTO    C7  374   7.359   7.113   1.310
    1CHTO   H20  375   7.337   7.010   1.344
    1CHTO    O4  376   7.238   7.173   1.261
    1CHTO   C14  377   7.232   7.316   1.237
    1CHTO   H27  378   7.124   7.342   1.244
    1CHTO   C18  379   7.276   7.347   1.092
    1CHTO   O13  380   7.191   7.285   0.996
    1CHTO    H7  381   7.106   7.323   0.999
    1CHTO    O2  382   7.472   7.113   1.188
    1CHTO    C1  383   7.504   6.990   1.119
    1CHTO   H14  384   7.549   7.018   1.022
    1CHTO    C2  385   7.384   6.891   1.091
    1CHTO   H15  386   7.338   6.866   1.189
    1CHTO    O6  387   7.288   6.960   1.009
    1CHTO    H1  388   7.211   6.908   0.998
    1CHTO    C3  389   7.437   6.757   1.021
    1CHTO   H16  390   7.474   6.783   0.920
    1CHTO    N1  391   7.328   6.655   1.003
    1CHTO    H8  392   7.318   6.629   0.898
    1CHTO    H9  393   7.347   6.566   1.061
    1CHTO    C4  394   7.562   6.700   1.099
    1CHTO   H17  395   7.528   6.660   1.195
    1CHTO    O1  396   7.661   6.802   1.120
    1CHTO    C5  397   7.617   6.916   1.196
    1CHTO   H18  398   7.579   6.884   1.293
    1CHTO   C16  399   7.739   7.009   1.218
    1CHTO   O11  400   7.846   6.942   1.286
    1CHTO    H5  401   7.884   6.877   1.229
    1CHTO    O3  402   7.629   6.598   1.022
    1CHTO    C6  403   7.709   6.503   1.100
    1CHTO   H19  404   7.729   6.537   1.202
    1CHTO    C8  405   7.635   6.365   1.108
    1CHTO   H21  406   7.610   6.334   1.007
    1CHTO    O7  407   7.514   6.387   1.183
    1CHTO    H2  408   7.462   6.309   1.185
    1CHTO   C12  409   7.728   6.256   1.176
    1CHTO   H25  410   7.739   6.288   1.281
    1CHTO    N3  411   7.661   6.122   1.177
    1CHTO   H12  412   7.653   6.085   1.278
    1CHTO   H13  413   7.715   6.051   1.115
    1CHTO   C15  414   7.869   6.255   1.108
    1CHTO   H28  415   7.866   6.214   1.007
    1CHTO   O10  416   7.974   6.176   1.193
    1CHTO    H4  417   8.054   6.167   1.144
    1CHTO    O5  418   7.926   6.387   1.105
    1CHTO   C10  419   7.847   6.482   1.032
    1CHTO   H23  420   7.833   6.446   0.930
    1CHTO   C17  421   7.927   6.613   1.023
    1CHTO   O12  422   8.045   6.597   0.943
    1CHTO    H6  423   8.021   6.585   0.853
    2CHTO  H203  424   7.170   4.633   2.512
    2CHTO   O82  425   7.177   4.726   2.529
    2CHTO  C123  426   7.056   4.776   2.589
    2CHTO  H227  427   7.071   4.883   2.613
    2CHTO   O77  428   6.956   4.762   2.483
    2CHTO  C118  429   6.828   4.819   2.516
    2CHTO  H222  430   6.840   4.926   2.540
    2CHTO  C125  431   6.736   4.806   2.389
    2CHTO   O84  432   6.786   4.885   2.281
    2CHTO  H205  433   6.730   4.876   2.207
    2CHTO  C114  434   6.767   4.745   2.636
    2CHTO  H218  435   6.748   4.641   2.607
    2CHTO  C116  436   6.865   4.742   2.758
    2CHTO  H220  437   6.870   4.845   2.802
    2CHTO   O79  438   6.809   4.657   0.028
    2CHTO  H201  439   6.732   4.695   0.064
    2CHTO  C120  440   7.010   4.695   2.716
    2CHTO  H224  441   7.002   4.587   2.690
    2CHTO   N21  442   7.108   4.707   2.827
    2CHTO  H211  443   7.109   4.617   0.054
    2CHTO  H212  444   7.085   4.793   0.057
    2CHTO   O75  445   6.644   4.814   2.665
    2CHTO  C112  446   6.518   4.715   2.702
    2CHTO  H216  447   6.557   4.619   2.740
    2CHTO   O73  448   6.441   4.697   2.582
    2CHTO  C113  449   6.327   4.611   2.596
    2CHTO  H217  450   6.361   4.513   2.635
    2CHTO  C124  451   6.270   4.587   2.456
    2CHTO   O83  452   6.177   4.479   2.451
    2CHTO  H204  453   6.100   4.500   2.499
    2CHTO  C109  454   6.226   4.676   2.695
    2CHTO  H213  455   6.197   4.773   2.651
    2CHTO  C110  456   6.297   4.699   0.000
    2CHTO  H214  457   6.320   4.602   0.044
    2CHTO   O78  458   6.205   4.764   0.090
    2CHTO  H200  459   6.182   4.849   0.058
    2CHTO  C111  460   6.428   4.782   2.813
    2CHTO  H215  461   6.401   4.882   2.778
    2CHTO   N19  462   6.506   4.799   0.107
    2CHTO  H207  463   6.533   4.703   0.148
    2CHTO  H208  464   6.447   4.854   0.179
    2CHTO   O74  465   6.107   4.593   2.712
    2CHTO  C115  466   5.969   4.666   2.665
    2CHTO  H219  467   5.985   4.771   2.641
    2CHTO   O76  468   5.912   4.601   2.528
    2CHTO  C122  469   5.837   4.480   2.549
    2CHTO  H226  470   5.905   4.407   2.593
    2CHTO  C126  471   5.797   4.423   2.408
    2CHTO   O85  472   5.729   4.298   2.417
    2CHTO  H206  473   5.706   4.268   2.331
    2CHTO  C121  474   5.711   4.503   2.643
    2CHTO  H225  475   5.620   4.505   2.580
    2CHTO   O81  476   5.698   4.392   2.733
    2CHTO  H202  477   5.772   4.388   2.791
    2CHTO  C119  478   5.721   4.638   2.721
    2CHTO  H223  479   5.710   4.716   2.646
    2CHTO  C117  480   5.864   4.655   2.783
    2CHTO  H221  481   5.898   4.573   0.014
    2CHTO   N20  482   5.872   4.776   0.040
    2CHTO  H209  483   5.852   4.866   2.814
    2CHTO  H210  484   5.970   4.782   0.086
    2CHTO   O80  485   5.593   4.666   2.814
    2CHTO  C103  486   5.457   4.694   2.747
    2CHTO  H190  487   5.464   4.681   2.639
    2CHTO  C101  488   5.338   4.606   2.800
    2CHTO  H188  489   5.333   4.615   0.077
    2CHTO   O68  490   5.367   4.457   2.764
    2CHTO  H168  491   5.300   4.402   2.799
    2CHTO   C99  492   5.199   4.658   2.739
    2CHTO  H186  493   5.202   4.647   2.628
    2CHTO   N17  494   5.079   4.581   2.786
    2CHTO  H174  495   5.093   4.476   2.767
    2CHTO  H175  496   4.990   4.618   2.738
    2CHTO   C97  497   5.184   4.810   2.765
    2CHTO  H184  498   5.172   4.826   0.042
    2CHTO   O64  499   5.299   4.881   2.713
    2CHTO  C104  500   5.425   4.846   2.773
    2CHTO  H191  501   5.425   4.865   0.049
    2CHTO  C108  502   5.534   4.936   2.714
    2CHTO   O71  503   5.517   5.074   2.751
    2CHTO  H171  504   5.440   5.109   2.710
    2CHTO   O62  505   5.072   4.866   2.694
    2CHTO   C91  506   5.027   4.997   2.735
    2CHTO  H178  507   5.041   5.004   0.011
    2CHTO   C92  508   4.872   5.006   2.711
    2CHTO  H179  509   4.822   4.918   2.757
    2CHTO   O66  510   4.823   5.120   2.784
    2CHTO  H166  511   4.729   5.122   2.782
    2CHTO   C93  512   4.833   5.023   2.559
    2CHTO  H180  513   4.731   5.064   2.557
    2CHTO   N16  514   4.824   4.895   2.485
    2CHTO  H172  515   4.795   4.913   2.383
    2CHTO  H173  516   4.753   4.829   2.534
    2CHTO   C94  517   4.931   5.125   2.487
    2CHTO  H181  518   5.002   5.074   2.422
    2CHTO   O61  519   5.012   5.199   2.581
    2CHTO   C95  520   5.100   5.118   2.661
    2CHTO  H182  521   5.179   5.079   2.597
    2CHTO  C106  522   5.170   5.215   2.763
    2CHTO   O69  523   5.258   5.147   0.021
    2CHTO  H169  524   5.300   5.209   0.076
    2CHTO   O63  525   4.842   5.227   2.397
    2CHTO   C96  526   4.791   5.363   2.469
    2CHTO  H183  527   4.829   5.365   2.571
    2CHTO   C98  528   4.635   5.373   2.476
    2CHTO  H185  529   4.593   5.349   2.378
    2CHTO   O67  530   4.588   5.271   2.565
    2CHTO  H167  531   4.619   5.286   2.653
    2CHTO  C102  532   4.584   5.519   2.523
    2CHTO  H189  533   4.616   5.530   2.628
    2CHTO   N18  534   4.436   5.537   2.525
    2CHTO  H176  535   4.405   5.615   2.457
    2CHTO  H177  536   4.386   5.445   2.499
    2CHTO  C105  537   4.658   5.626   2.438
    2CHTO  H192  538   4.628   5.615   2.334
    2CHTO   O65  539   4.800   5.610   2.447
    2CHTO  C100  540   4.850   5.487   2.392
    2CHTO  H187  541   4.820   5.481   2.286
    2CHTO  C107  542   5.005   5.495   2.397
    2CHTO   O70  543   5.068   5.389   2.325
    2CHTO  H170  544   5.051   5.397   2.233
    2CHTO   O57  545   4.618   5.777   2.495
    2CHTO   C85  546   4.561   5.871   2.402
    2CHTO  H157  547   4.479   5.816   2.351
    2CHTO   C83  548   4.663   5.908   2.290
    2CHTO  H155  549   4.690   5.817   2.236
    2CHTO   O56  550   4.786   5.956   2.350
    2CHTO  H135  551   4.826   5.888   2.400
    2CHTO   C81  552   4.597   6.008   2.191
    2CHTO  H153  553   4.507   5.962   2.152
    2CHTO   N14  554   4.679   6.033   2.069
    2CHTO  H141  555   4.694   6.138   2.053
    2CHTO  H142  556   4.774   5.985   2.075
    2CHTO   C79  557   4.555   6.140   2.268
    2CHTO  H151  558   4.500   6.202   2.197
    2CHTO   O52  559   4.463   6.107   2.376
    2CHTO   C86  560   4.509   6.004   2.470
    2CHTO  H158  561   4.590   6.053   2.528
    2CHTO   C90  562   4.397   5.972   2.572
    2CHTO   O60  563   4.367   6.086   2.653
    2CHTO  H138  564   4.300   6.063   2.714
    2CHTO   O50  565   4.667   6.216   2.318
    2CHTO   C73  566   4.708   6.344   2.367
    2CHTO  H145  567   4.631   6.385   2.434
    2CHTO   C74  568   4.732   6.445   2.250
    2CHTO  H146  569   4.637   6.452   2.194
    2CHTO   O54  570   4.755   6.575   2.308
    2CHTO  H133  571   4.765   6.639   2.240
    2CHTO   C75  572   4.850   6.393   2.159
    2CHTO  H147  573   4.820   6.298   2.113
    2CHTO   N13  574   4.882   6.481   2.044
    2CHTO  H139  575   4.815   6.566   2.041
    2CHTO  H140  576   4.983   6.518   2.050
    2CHTO   C76  577   4.979   6.361   2.250
    2CHTO  H148  578   5.019   6.456   2.287
    2CHTO   O49  579   4.944   6.275   2.363
    2CHTO   C77  580   4.840   6.328   2.448
    2CHTO  H149  581   4.870   6.425   2.488
    2CHTO   C88  582   4.823   6.235   2.569
    2CHTO   O58  583   4.722   6.287   2.665
    2CHTO  H136  584   4.636   6.282   2.626
    2CHTO   O51  585   5.089   6.278   2.158
    2CHTO   C78  586   5.203   6.206   2.241
    2CHTO  H150  587   5.172   6.189   2.346
    2CHTO   C80  588   5.334   6.288   2.239
    2CHTO  H152  589   5.372   6.293   2.135
    2CHTO   O55  590   5.302   6.422   2.283
    2CHTO  H134  591   5.251   6.466   2.218
    2CHTO   C84  592   5.441   6.218   2.332
    2CHTO  H156  593   5.400   6.216   2.433
    2CHTO   N15  594   5.571   6.293   2.339
    2CHTO  H143  595   5.594   6.319   2.440
    2CHTO  H144  596   5.652   6.236   2.298
    2CHTO   C87  597   5.462   6.070   2.287
    2CHTO  H159  598   5.521   6.068   2.196
    2CHTO   O53  599   5.322   5.997   2.262
    2CHTO   C82  600   5.230   6.068   2.179
    2CHTO  H154  601   5.270   6.078   2.078
    2CHTO   C89  602   5.099   5.986   2.167
    2CHTO   O59  603   5.121   5.860   2.102
    2CHTO  H137  604   5.141   5.874   2.012
    2CHTO   O45  605   5.549   5.985   2.407
    2CHTO   C67  606   5.468   5.906   2.496
    2CHTO  H124  607   5.364   5.938   2.488
    2CHTO   C65  608   5.476   5.753   2.460
    2CHTO  H122  609   5.574   5.739   2.414
    2CHTO   O44  610   5.374   5.729   2.362
    2CHTO  H102  611   5.383   5.643   2.326
    2CHTO   C63  612   5.477   5.659   2.587
    2CHTO  H120  613   5.576   5.665   2.633
    2CHTO   N11  614   5.466   5.512   2.562
    2CHTO  H108  615   5.539   5.482   2.490
    2CHTO  H109  616   5.368   5.489   2.525
    2CHTO   C61  617   5.377   5.717   2.694
    2CHTO  H118  618   5.389   5.656   2.785
    2CHTO   O40  619   5.409   5.855   2.732
    2CHTO   C68  620   5.505   5.928   2.648
    2CHTO  H125  621   5.607   5.889   2.668
    2CHTO   C72  622   5.505   6.077   2.688
    2CHTO   O48  623   5.551   6.098   2.822
    2CHTO  H105  624   5.488   6.063   0.051
    2CHTO   O38  625   5.241   5.710   2.647
    2CHTO   C55  626   5.136   5.724   2.745
    2CHTO  H112  627   5.170   5.790   2.826
    2CHTO   C56  628   5.092   5.582   2.799
    2CHTO  H113  629   5.072   5.518   2.711
    2CHTO   O42  630   5.202   5.522   0.038
    2CHTO  H100  631   5.181   5.434   0.062
    2CHTO   C57  632   4.964   5.590   0.060
    2CHTO  H114  633   4.997   5.633   0.155
    2CHTO   N10  634   4.905   5.458   0.094
    2CHTO  H106  635   4.833   5.427   0.020
    2CHTO  H107  636   4.982   5.383   0.102
    2CHTO   C58  637   4.856   5.684   2.831
    2CHTO  H115  638   4.804   5.632   2.747
    2CHTO   O37  639   4.913   5.808   2.785
    2CHTO   C59  640   5.012   5.795   2.683
    2CHTO  H116  641   4.972   5.737   2.599
    2CHTO   C70  642   5.045   5.936   2.634
    2CHTO   O46  643   5.118   5.938   2.511
    2CHTO  H103  644   5.063   5.907   2.441
    2CHTO   O39  645   4.751   5.726   0.115
    2CHTO   C60  646   4.620   5.765   0.070
    2CHTO  H117  647   4.618   5.773   2.793
    2CHTO   C62  648   4.512   5.661   0.114
    2CHTO  H119  649   4.536   5.567   0.059
    2CHTO   O43  650   4.524   5.637   0.256
    2CHTO  H101  651   4.605   5.592   0.275
    2CHTO   C66  652   4.366   5.713   0.071
    2CHTO  H123  653   4.365   5.728   2.795
    2CHTO   N12  654   4.260   5.613   0.099
    2CHTO  H110  655   4.164   5.652   0.068
    2CHTO  H111  656   4.282   5.520   0.048
    2CHTO   C69  657   4.339   5.850   0.139
    2CHTO  H126  658   4.344   5.840   0.250
    2CHTO   O41  659   4.446   5.947   0.091
    2CHTO   C64  660   4.587   5.907   0.126
    2CHTO  H121  661   4.599   5.905   0.237
    2CHTO   C71  662   4.683   6.013   0.068
    2CHTO   O47  663   4.654   6.142   0.121
    2CHTO  H104  664   4.678   6.146   0.212
    2CHTO   O34  665   4.200   5.910   0.101
    2CHTO   C49  666   4.121   6.025   0.174
    2CHTO   H91  667   4.103   5.991   0.276
    2CHTO   C47  668   3.988   6.044   0.100
    2CHTO   H89  669   3.928   6.116   0.159
    2CHTO   O33  670   3.919   5.917   0.099
    2CHTO   H70  671   3.833   5.927   0.061
    2CHTO   C45  672   4.018   6.103   2.785
    2CHTO   H87  673   4.091   6.038   2.736
    2CHTO    N8  674   3.896   6.109   2.700
    2CHTO   H75  675   3.824   6.177   2.743
    2CHTO   H76  676   3.853   6.011   2.690
    2CHTO   C43  677   4.092   6.246   2.800
    2CHTO   H85  678   4.119   6.276   2.698
    2CHTO   O29  679   4.207   6.235   0.053
    2CHTO   C50  680   4.201   6.159   0.176
    2CHTO   H92  681   4.305   6.133   0.199
    2CHTO   C54  682   4.164   6.248   0.299
    2CHTO   O36  683   4.032   6.303   0.292
    2CHTO   H72  684   4.016   6.354   0.369
    2CHTO   O27  685   4.005   6.350   0.016
    2CHTO   C37  686   3.976   6.486   2.809
    2CHTO   H79  687   4.021   6.506   2.710
    2CHTO   C38  688   3.822   6.507   2.795
    2CHTO   H80  689   3.774   6.469   0.054
    2CHTO   O31  690   3.779   6.428   2.682
    2CHTO   H68  691   3.686   6.430   2.676
    2CHTO   C39  692   3.784   6.659   2.776
    2CHTO   H81  693   3.825   6.691   2.680
    2CHTO    N7  694   3.636   6.684   2.770
    2CHTO   H73  695   3.603   6.748   0.019
    2CHTO   H74  696   3.581   6.591   2.771
    2CHTO   C40  697   3.855   6.746   0.055
    2CHTO   H82  698   3.814   6.718   0.153
    2CHTO   O26  699   3.997   6.723   0.049
    2CHTO   C41  700   4.035   6.585   0.080
    2CHTO   H83  701   3.999   6.559   0.181
    2CHTO   C52  702   4.190   6.581   0.083
    2CHTO   O35  703   4.244   6.666   0.185
    2CHTO   H71  704   4.338   6.660   0.184
    2CHTO   O28  705   3.836   6.888   0.036
    2CHTO   C42  706   3.869   6.988   0.138
    2CHTO   H84  707   3.831   7.081   0.095
    2CHTO   C44  708   4.021   7.013   0.164
    2CHTO   H86  709   4.066   6.919   0.200
    2CHTO   O32  710   4.079   7.046   0.037
    2CHTO   H69  711   4.172   7.053   0.044
    2CHTO   C48  712   4.046   7.124   0.274
    2CHTO   H90  713   4.006   7.219   0.237
    2CHTO    N9  714   4.192   7.148   0.299
    2CHTO   H77  715   4.240   7.182   0.208
    2CHTO   H78  716   4.239   7.058   0.335
    2CHTO   C51  717   3.968   7.084   0.405
    2CHTO   H93  718   4.005   6.987   0.437
    2CHTO   O30  719   3.829   7.080   0.371
    2CHTO   C46  720   3.794   6.967   0.274
    2CHTO   H88  721   3.825   6.873   0.318
    2CHTO   C53  722   3.641   6.968   0.254
    2CHTO   O72  723   3.573   6.941   0.377
    2CHTO  H199  724   3.480   6.945   0.363
    2CHTO   O22  725   3.981   7.181   0.512
    2CHTO   C31  726   3.927   7.160   0.649
    2CHTO   H59  727   3.978   7.235   0.713
    2CHTO   C29  728   3.775   7.189   0.660
    2CHTO   H57  729   3.724   7.130   0.582
    2CHTO   O21  730   3.756   7.328   0.627
    2CHTO   H37  731   3.664   7.347   0.619
    2CHTO   C27  732   3.713   7.151   0.800
    2CHTO   H55  733   3.755   7.219   0.876
    2CHTO    N5  734   3.565   7.163   0.803
    2CHTO   H43  735   3.521   7.097   0.729
    2CHTO   H44  736   3.536   7.265   0.783
    2CHTO   C25  737   3.759   7.007   0.837
    2CHTO   H53  738   3.721   6.936   0.761
    2CHTO   O17  739   3.904   7.002   0.839
    2CHTO   C32  740   3.963   7.020   0.710
    2CHTO   H60  741   3.928   6.941   0.643
    2CHTO   C36  742   4.116   7.006   0.728
    2CHTO   O25  743   4.153   6.878   0.779
    2CHTO   H40  744   4.135   6.812   0.715
    2CHTO   O15  745   3.711   6.962   0.973
    2CHTO   C19  746   3.694   6.838   1.045
    2CHTO   H47  747   3.591   6.807   1.020
    2CHTO   C20  748   3.792   6.723   1.002
    2CHTO   H48  749   3.898   6.755   1.009
    2CHTO   O19  750   3.765   6.694   0.864
    2CHTO   H35  751   3.827   6.632   0.831
    2CHTO   C21  752   3.774   6.593   1.090
    2CHTO   H49  753   3.677   6.549   1.069
    2CHTO    N4  754   3.876   6.488   1.061
    2CHTO   H41  755   3.869   6.458   0.957
    2CHTO   H42  756   3.858   6.401   1.123
    2CHTO   C22  757   3.774   6.634   1.240
    2CHTO   H50  758   3.873   6.673   1.265
    2CHTO   O14  759   3.674   6.734   1.264
    2CHTO   C23  760   3.698   6.859   1.199
    2CHTO   H51  761   3.795   6.897   1.233
    2CHTO   C34  762   3.588   6.955   1.249
    2CHTO   O23  763   3.611   7.090   1.207
    2CHTO   H38  764   3.541   7.144   1.238
    2CHTO   O16  765   3.738   6.525   1.328
    2CHTO   C24  766   3.776   6.558   1.477
    2CHTO   H52  767   3.809   6.661   1.489
    2CHTO   C26  768   3.888   6.465   1.525
    2CHTO   H54  769   3.852   6.359   1.519
    2CHTO   O20  770   4.000   6.479   1.436
    2CHTO   H36  771   4.067   6.417   1.457
    2CHTO   C30  772   3.926   6.497   1.673
    2CHTO   H58  773   3.978   6.594   1.676
    2CHTO    N6  774   4.024   6.398   1.727
    2CHTO   H45  775   3.980   6.299   1.728
    2CHTO   H46  776   4.052   6.425   1.828
    2CHTO   C33  777   3.801   6.511   1.765
    2CHTO   H61  778   3.760   6.412   1.789
    2CHTO   O18  779   3.697   6.587   1.700
    2CHTO   C28  780   3.654   6.540   1.572
    2CHTO   H56  781   3.627   6.434   1.576
    2CHTO   C35  782   3.530   6.623   1.532
    2CHTO   O24  783   3.463   6.573   1.415
    2CHTO   H39  784   3.517   6.585   1.340
    2CHTO    O9  785   3.838   6.570   1.891
    2CHTO   C13  786   3.714   6.608   1.992
    2CHTO   H26  787   3.635   6.531   1.980
    2CHTO   C11  788   3.660   6.754   1.959
    2CHTO   H24  789   3.608   6.750   1.862
    2CHTO    O8  790   3.771   6.845   1.944
    2CHTO    H3  791   3.741   6.929   1.915
    2CHTO    C9  792   3.557   6.796   2.067
    2CHTO   H22  793   3.480   6.717   2.066
    2CHTO    N2  794   3.484   6.922   2.036
    2CHTO   H10  795   3.380   6.901   2.017
    2CHTO   H11  796   3.528   6.973   1.952
    2CHTO    C7  797   3.627   6.797   2.207
    2CHTO   H20  798   3.546   6.818   2.279
    2CHTO    O4  799   3.680   6.667   2.239
    2CHTO   C14  800   3.763   6.597   2.143
    2CHTO   H27  801   3.758   6.489   2.171
    2CHTO   C18  802   3.911   6.640   2.161
    2CHTO   O13  803   3.955   6.612   2.294
    2CHTO    H7  804   4.044   6.640   2.304
    2CHTO    O2  805   3.747   6.910   2.217
    2CHTO    C1  806   3.757   6.987   2.339
    2CHTO   H14  807   3.756   6.918   2.426
    2CHTO    C2  808   3.641   7.095   2.358
    2CHTO   H15  809   3.630   7.145   2.261
    2CHTO    O6  810   3.518   7.028   2.392
    2CHTO    H1  811   3.489   6.976   2.320
    2CHTO    C3  812   3.678   7.203   2.472
    2CHTO   H16  813   3.679   7.154   2.570
    2CHTO    N1  814   3.577   7.315   2.479
    2CHTO    H8  815   3.480   7.274   2.501
    2CHTO    H9  816   3.606   7.385   2.556
    2CHTO    C4  817   3.824   7.256   2.448
    2CHTO   H17  818   3.828   7.311   2.354
    2CHTO    O1  819   3.916   7.146   2.446
    2CHTO    C5  820   3.897   7.056   2.336
    2CHTO   H18  821   3.903   7.112   2.243
    2CHTO   C16  822   4.014   6.954   2.339
    2CHTO   O11  823   4.020   6.879   2.461
    2CHTO    H5  824   4.045   6.936   2.532
    2CHTO    O3  825   3.871   7.341   2.556
    2CHTO    C6  826   3.967   7.444   2.516
    2CHTO   H19  827   4.010   7.426   2.417
    2CHTO    C8  828   3.896   7.584   2.513
    2CHTO   H21  829   3.843   7.597   2.607
    2CHTO    O7  830   3.802   7.582   2.404
    2CHTO    H2  831   3.730   7.524   2.424
    2CHTO   C12  832   4.001   7.702   2.496
    2CHTO   H25  833   4.041   7.694   2.392
    2CHTO    N3  834   3.934   7.836   2.506
    2CHTO   H12  835   3.887   7.847   2.603
    2CHTO   H13  836   3.861   7.848   2.428
    2CHTO   C15  837   4.119   7.683   2.597
    2CHTO   H28  838   4.087   7.701   2.700
    2CHTO   O10  839   4.240   7.774   2.566
    2CHTO    H4  840   4.215   7.864   2.575
    2CHTO    O5  841   4.177   7.552   2.585
    2CHTO   C10  842   4.085   7.447   2.617
    2CHTO   H23  843   4.046   7.463   2.718
    2CHTO   C17  844   4.161   7.314   2.617
    2CHTO   O12  845   4.261   7.310   2.720
    2CHTO    H6  846   4.220   7.308   2.805
    3CHTO  H203  847   8.419   1.473   1.579
    3CHTO   O82  848   8.339   1.511   1.612
    3CHTO  C123  849   8.267   1.412   1.687
    3CHTO  H227  850   8.330   1.379   1.772
    3CHTO   O77  851   8.152   1.488   1.737
    3CHTO  C118  852   8.068   1.412   1.826
    3CHTO  H222  853   8.129   1.373   1.909
    3CHTO  C125  854   7.959   1.510   1.886
    3CHTO   O84  855   7.872   1.563   1.785
    3CHTO  H205  856   7.810   1.621   1.825
    3CHTO  C114  857   8.005   1.295   1.749
    3CHTO  H218  858   7.944   1.335   1.668
    3CHTO  C116  859   8.114   1.204   1.684
    3CHTO  H220  860   8.168   1.149   1.765
    3CHTO   O79  861   8.049   1.105   1.603
    3CHTO  H201  862   8.000   1.045   1.656
    3CHTO  C120  863   8.217   1.290   1.601
    3CHTO  H224  864   8.161   1.328   1.512
    3CHTO   N21  865   8.329   1.207   1.549
    3CHTO  H211  866   8.367   1.249   1.457
    3CHTO  H212  867   8.408   1.200   1.623
    3CHTO   O75  868   7.922   1.227   1.845
    3CHTO  C112  869   7.782   1.176   1.782
    3CHTO  H216  870   7.802   1.131   1.683
    3CHTO   O73  871   7.695   1.290   1.773
    3CHTO  C113  872   7.572   1.261   1.707
    3CHTO  H217  873   7.593   1.216   1.607
    3CHTO  C124  874   7.501   1.395   1.682
    3CHTO   O83  875   7.391   1.385   1.592
    3CHTO  H204  876   7.352   1.469   1.580
    3CHTO  C109  877   7.489   1.163   1.794
    3CHTO  H213  878   7.468   1.214   1.889
    3CHTO  C110  879   7.573   1.033   1.820
    3CHTO  H214  880   7.582   0.979   1.726
    3CHTO   O78  881   7.502   0.948   1.912
    3CHTO  H200  882   7.424   0.915   1.872
    3CHTO  C111  883   7.715   1.067   1.875
    3CHTO  H215  884   7.704   1.111   1.975
    3CHTO   N19  885   7.805   0.949   1.889
    3CHTO  H207  886   7.755   0.858   1.858
    3CHTO  H208  887   7.838   0.939   1.991
    3CHTO   O74  888   7.362   1.131   1.728
    3CHTO  C115  889   7.242   1.102   1.829
    3CHTO  H219  890   7.274   1.040   1.913
    3CHTO   O76  891   7.189   1.234   1.895
    3CHTO  C122  892   7.107   1.314   1.808
    3CHTO  H226  893   7.169   1.347   1.725
    3CHTO  C126  894   7.065   1.444   1.884
    3CHTO   O85  895   7.177   1.524   1.924
    3CHTO  H206  896   7.220   1.559   1.848
    3CHTO  C121  897   6.980   1.235   1.755
    3CHTO  H225  898   6.890   1.275   1.805
    3CHTO   O81  899   6.969   1.258   1.614
    3CHTO  H202  900   6.887   1.224   1.582
    3CHTO  C119  901   6.989   1.081   1.785
    3CHTO  H223  902   6.977   1.071   1.893
    3CHTO  C117  903   7.131   1.026   1.746
    3CHTO  H221  904   7.158   1.039   1.641
    3CHTO   N20  905   7.141   0.878   1.770
    3CHTO  H209  906   7.238   0.842   1.740
    3CHTO  H210  907   7.064   0.826   1.714
    3CHTO   O80  908   6.861   0.998   1.731
    3CHTO  C103  909   6.716   1.036   1.779
    3CHTO  H190  910   6.720   1.099   1.868
    3CHTO  C101  911   6.627   1.106   1.668
    3CHTO  H188  912   6.644   1.055   1.573
    3CHTO   O68  913   6.675   1.254   1.652
    3CHTO  H168  914   6.660   1.301   1.731
    3CHTO   C99  915   6.471   1.098   1.702
    3CHTO  H186  916   6.451   1.156   1.795
    3CHTO   N17  917   6.384   1.156   1.594
    3CHTO  H174  918   6.311   1.084   1.559
    3CHTO  H175  919   6.335   1.246   1.629
    3CHTO   C97  920   6.435   0.951   1.735
    3CHTO  H184  921   6.456   0.891   1.646
    3CHTO   O64  922   6.512   0.908   1.848
    3CHTO  C104  923   6.653   0.897   1.824
    3CHTO  H191  924   6.674   0.821   1.748
    3CHTO  C108  925   6.714   0.844   1.955
    3CHTO   O71  926   6.852   0.811   1.945
    3CHTO  H171  927   6.903   0.889   1.933
    3CHTO   O62  928   6.298   0.934   1.777
    3CHTO   C91  929   6.234   0.813   1.733
    3CHTO  H178  930   6.262   0.796   1.629
    3CHTO   C92  931   6.080   0.837   1.730
    3CHTO  H179  932   6.045   0.869   1.829
    3CHTO   O66  933   6.055   0.948   1.641
    3CHTO  H166  934   5.964   0.970   1.641
    3CHTO   C93  935   6.004   0.706   1.683
    3CHTO  H180  936   6.038   0.686   1.580
    3CHTO   N16  937   5.857   0.720   1.672
    3CHTO  H172  938   5.826   0.821   1.695
    3CHTO  H173  939   5.805   0.649   1.735
    3CHTO   C94  940   6.045   0.582   1.774
    3CHTO  H181  941   5.963   0.552   1.840
    3CHTO   O61  942   6.154   0.610   1.865
    3CHTO   C95  943   6.268   0.684   1.819
    3CHTO  H182  944   6.324   0.718   1.906
    3CHTO  C106  945   6.368   0.591   1.740
    3CHTO   O69  946   6.424   0.491   1.825
    3CHTO  H169  947   6.483   0.437   1.776
    3CHTO   O63  948   6.084   0.460   1.677
    3CHTO   C96  949   6.002   0.324   1.701
    3CHTO  H183  950   6.033   0.255   1.622
    3CHTO   C98  951   5.847   0.334   1.695
    3CHTO  H185  952   5.812   0.412   1.764
    3CHTO   O67  953   5.813   0.380   1.563
    3CHTO  H167  954   5.721   0.395   1.557
    3CHTO  C102  955   5.776   0.194   1.727
    3CHTO  H189  956   5.798   0.128   1.642
    3CHTO   N18  957   5.628   0.200   1.736
    3CHTO  H176  958   5.598   0.269   1.813
    3CHTO  H177  959   5.587   0.231   1.641
    3CHTO  C105  960   5.838   0.129   1.854
    3CHTO  H192  961   5.806   0.185   1.942
    3CHTO   O65  962   5.982   0.129   1.851
    3CHTO  C100  963   6.043   0.258   1.838
    3CHTO  H187  964   6.009   0.322   1.920
    3CHTO  C107  965   6.197   0.241   1.852
    3CHTO   O70  966   6.253   0.157   1.750
    3CHTO  H170  967   6.246   0.199   1.667
    3CHTO   O57  968   5.783   9.970   1.860
    3CHTO   C85  969   5.766   9.899   1.984
    3CHTO  H157  970   5.760   9.792   1.953
    3CHTO   C83  971   5.626   9.931   2.046
    3CHTO  H155  972   5.550   9.893   1.978
    3CHTO   O56  973   5.605   0.074   2.054
    3CHTO  H135  974   5.666   0.113   2.113
    3CHTO   C81  975   5.612   9.858   2.182
    3CHTO  H153  976   5.629   9.751   2.166
    3CHTO   N14  977   5.475   9.865   2.240
    3CHTO  H141  978   5.404   9.826   2.170
    3CHTO  H142  979   5.450   9.966   2.263
    3CHTO   C79  980   5.724   9.910   2.281
    3CHTO  H151  981   5.712   9.856   2.375
    3CHTO   O52  982   5.855   9.874   2.227
    3CHTO   C86  983   5.881   9.923   2.091
    3CHTO  H158  984   5.899   0.031   2.106
    3CHTO   C90  985   6.016   9.864   2.042
    3CHTO   O60  986   6.015   9.721   2.040
    3CHTO  H138  987   6.011   9.688   2.128
    3CHTO   O50  988   5.719   0.051   2.307
    3CHTO   C73  989   5.741   0.145   2.413
    3CHTO  H145  990   5.818   0.106   2.482
    3CHTO   C74  991   5.609   0.168   2.493
    3CHTO  H146  992   5.576   0.069   2.530
    3CHTO   O54  993   5.639   0.247   2.609
    3CHTO  H133  994   5.692   0.198   2.669
    3CHTO   C75  995   5.502   0.234   2.397
    3CHTO  H147  996   5.482   0.165   2.314
    3CHTO   N13  997   5.370   0.259   2.461
    3CHTO  H139  998   5.369   0.226   2.564
    3CHTO  H140  999   5.292   0.207   2.407
    3CHTO   C76 1000   5.564   0.367   2.334
    3CHTO  H148 1001   5.579   0.439   2.414
    3CHTO   O49 1002   5.692   0.340   2.268
    3CHTO   C77 1003   5.791   0.281   2.354
    3CHTO  H149 1004   5.813   0.349   2.437
    3CHTO   C88 1005   5.923   0.263   2.278
    3CHTO   O58 1006   5.977   0.393   2.231
    3CHTO  H136 1007   6.003   0.445   2.305
    3CHTO   O51 1008   5.470   0.424   2.217
    3CHTO   C78 1009   5.487   0.579   2.197
    3CHTO  H150 1010   5.586   0.614   2.236
    3CHTO   C80 1011   5.375   0.656   2.270
    3CHTO  H152 1012   5.277   0.620   2.232
    3CHTO   O55 1013   5.384   0.624   2.410
    3CHTO  H134 1014   5.359   0.535   2.425
    3CHTO   C84 1015   5.387   0.812   2.245
    3CHTO  H156 1016   5.480   0.846   2.292
    3CHTO   N15 1017   5.275   0.889   2.309
    3CHTO  H143 1018   5.275   0.871   2.415
    3CHTO  H144 1019   5.287   0.993   2.291
    3CHTO   C87 1020   5.396   0.842   2.093
    3CHTO  H159 1021   5.299   0.825   2.046
    3CHTO   O53 1022   5.505   0.750   2.026
    3CHTO   C82 1023   5.483   0.610   2.047
    3CHTO  H154 1024   5.387   0.580   2.004
    3CHTO   C89 1025   5.593   0.531   1.972
    3CHTO   O59 1026   5.583   0.549   1.830
    3CHTO  H137 1027   5.506   0.507   1.797
    3CHTO   O45 1028   5.437   1.006   2.067
    3CHTO   C67 1029   5.577   1.034   2.058
    3CHTO  H124 1030   5.633   0.950   2.097
    3CHTO   C65 1031   5.620   1.058   1.908
    3CHTO  H122 1032   5.531   1.095   1.856
    3CHTO   O44 1033   5.654   0.928   1.856
    3CHTO  H102 1034   5.667   0.933   1.763
    3CHTO   C63 1035   5.727   1.173   1.890
    3CHTO  H120 1036   5.676   1.269   1.901
    3CHTO   N11 1037   5.787   1.187   1.754
    3CHTO  H108 1038   5.849   1.102   1.732
    3CHTO  H109 1039   5.710   1.195   1.680
    3CHTO   C61 1040   5.831   1.164   2.008
    3CHTO  H118 1041   5.899   1.250   1.997
    3CHTO   O40 1042   5.766   1.178   2.138
    3CHTO   C68 1043   5.621   1.158   2.147
    3CHTO  H125 1044   5.570   1.249   2.111
    3CHTO   C72 1045   5.583   1.139   2.295
    3CHTO   O48 1046   5.612   1.254   2.375
    3CHTO  H105 1047   5.556   1.325   2.350
    3CHTO   O38 1048   5.906   1.041   2.001
    3CHTO   C55 1049   6.002   1.014   2.104
    3CHTO  H112 1050   5.971   1.059   2.200
    3CHTO   C56 1051   6.147   1.061   2.061
    3CHTO  H113 1052   6.167   1.015   1.963
    3CHTO   O42 1053   6.148   1.203   2.037
    3CHTO  H100 1054   6.128   1.249   2.116
    3CHTO   C57 1055   6.255   1.015   2.167
    3CHTO  H114 1056   6.232   1.068   2.260
    3CHTO   N10 1057   6.395   1.047   2.130
    3CHTO  H106 1058   6.407   1.044   2.023
    3CHTO  H107 1059   6.421   1.145   2.166
    3CHTO   C58 1060   6.238   0.863   2.191
    3CHTO  H115 1061   6.260   0.808   2.096
    3CHTO   O37 1062   6.103   0.833   2.232
    3CHTO   C59 1063   6.006   0.860   2.130
    3CHTO  H116 1064   6.031   0.806   2.039
    3CHTO   C70 1065   5.869   0.810   2.177
    3CHTO   O46 1066   5.864   0.668   2.194
    3CHTO  H103 1067   5.918   0.642   2.266
    3CHTO   O39 1068   6.333   0.806   2.310
    3CHTO   C60 1069   6.354   0.664   2.295
    3CHTO  H117 1070   6.272   0.620   2.238
    3CHTO   C62 1071   6.486   0.635   2.218
    3CHTO  H119 1072   6.477   0.689   2.120
    3CHTO   O43 1073   6.598   0.690   2.289
    3CHTO  H101 1074   6.593   0.784   2.291
    3CHTO   C66 1075   6.497   0.477   2.190
    3CHTO  H123 1076   6.410   0.446   2.133
    3CHTO   N12 1077   6.615   0.443   2.106
    3CHTO  H110 1078   6.618   0.336   2.088
    3CHTO  H111 1079   6.611   0.497   2.012
    3CHTO   C69 1080   6.495   0.398   2.324
    3CHTO  H126 1081   6.590   0.416   2.381
    3CHTO   O41 1082   6.370   0.443   2.413
    3CHTO   C64 1083   6.356   0.593   2.433
    3CHTO  H121 1084   6.442   0.630   2.492
    3CHTO   C71 1085   6.228   0.621   2.515
    3CHTO   O47 1086   6.109   0.574   2.450
    3CHTO  H104 1087   6.093   0.625   2.373
    3CHTO   O34 1088   6.481   0.244   2.298
    3CHTO   C49 1089   6.529   0.116   2.229
    3CHTO   H91 1090   6.622   0.143   2.178
    3CHTO   C47 1091   6.426   0.068   2.124
    3CHTO   H89 1092   6.445   0.131   2.034
    3CHTO   O33 1093   6.291   0.092   2.169
    3CHTO   H70 1094   6.231   0.077   2.099
    3CHTO   C45 1095   6.442   9.910   2.090
    3CHTO   H87 1096   6.376   9.855   2.159
    3CHTO    N8 1097   6.399   9.879   1.951
    3CHTO   H75 1098   6.380   9.969   1.895
    3CHTO   H76 1099   6.309   9.818   1.953
    3CHTO   C43 1100   6.589   9.858   2.126
    3CHTO   H85 1101   6.593   9.752   2.101
    3CHTO   O29 1102   6.616   9.881   2.266
    3CHTO   C50 1103   6.562  10.000   2.327
    3CHTO   H92 1104   6.469   9.974   2.381
    3CHTO   C54 1105   6.657   0.048   2.439
    3CHTO   O36 1106   6.666   9.952   2.546
    3CHTO   H72 1107   6.584   9.949   2.592
    3CHTO   O27 1108   6.688   9.924   2.046
    3CHTO   C37 1109   6.812   9.982   2.004
    3CHTO   H79 1110   6.818   0.087   2.035
    3CHTO   C38 1111   6.934   9.908   2.068
    3CHTO   H80 1112   6.925   9.801   2.046
    3CHTO   O31 1113   6.924   9.928   2.210
    3CHTO   H68 1114   6.990   9.879   2.254
    3CHTO   C39 1115   7.070   9.964   2.011
    3CHTO   H81 1116   7.078   0.067   2.044
    3CHTO    N7 1117   7.191   9.892   2.064
    3CHTO   H73 1118   7.185   9.787   2.040
    3CHTO   H74 1119   7.197   9.905   2.171
    3CHTO   C40 1120   7.069   9.965   1.852
    3CHTO   H82 1121   7.080   9.862   1.816
    3CHTO   O26 1122   6.949   0.026   1.801
    3CHTO   C41 1123   6.822   9.975   1.849
    3CHTO   H83 1124   6.811   9.870   1.817
    3CHTO   C52 1125   6.710   0.057   1.781
    3CHTO   O35 1126   6.720   0.204   1.809
    3CHTO   H71 1127   6.651   0.249   1.764
    3CHTO   O28 1128   7.181   0.039   1.798
    3CHTO   C42 1129   7.181   0.181   1.759
    3CHTO   H84 1130   7.287   0.205   1.755
    3CHTO   C44 1131   7.118   0.282   1.861
    3CHTO   H86 1132   7.017   0.247   1.887
    3CHTO   O32 1133   7.199   0.277   1.979
    3CHTO   H69 1134   7.159   0.328   2.048
    3CHTO   C48 1135   7.105   0.430   1.806
    3CHTO   H90 1136   7.206   0.472   1.802
    3CHTO    N9 1137   7.027   0.518   1.899
    3CHTO   H77 1138   7.088   0.600   1.934
    3CHTO   H78 1139   6.988   0.463   1.983
    3CHTO   C51 1140   7.046   0.429   1.661
    3CHTO   H93 1141   6.943   0.391   1.666
    3CHTO   O30 1142   7.129   0.349   1.577
    3CHTO   C46 1143   7.124   0.201   1.614
    3CHTO   H88 1144   7.021   0.168   1.610
    3CHTO   C53 1145   7.210   0.122   1.512
    3CHTO   O72 1146   7.158   0.134   1.379
    3CHTO  H199 1147   7.077   0.087   1.373
    3CHTO   O22 1148   7.049   0.561   1.601
    3CHTO   C31 1149   6.956   0.596   1.492
    3CHTO   H59 1150   6.932   0.500   1.440
    3CHTO   C29 1151   6.822   0.658   1.538
    3CHTO   H57 1152   6.845   0.752   1.591
    3CHTO   O21 1153   6.761   0.569   1.634
    3CHTO   H37 1154   6.685   0.610   1.672
    3CHTO   C27 1155   6.729   0.689   1.414
    3CHTO   H55 1156   6.708   0.595   1.362
    3CHTO    N5 1157   6.599   0.752   1.452
    3CHTO   H43 1158   6.585   0.847   1.402
    3CHTO   H44 1159   6.591   0.764   1.559
    3CHTO   C25 1160   6.809   0.777   1.312
    3CHTO   H53 1161   6.831   0.875   1.358
    3CHTO   O17 1162   6.935   0.713   1.275
    3CHTO   C32 1163   7.023   0.688   1.386
    3CHTO   H60 1164   7.049   0.783   1.433
    3CHTO   C36 1165   7.154   0.626   1.330
    3CHTO   O25 1166   7.131   0.501   1.263
    3CHTO   H40 1167   7.212   0.468   1.229
    3CHTO   O15 1168   6.728   0.799   1.182
    3CHTO   C19 1169   6.710   0.902   1.081
    3CHTO   H47 1170   6.635   0.860   1.013
    3CHTO   C20 1171   6.657   1.038   1.135
    3CHTO   H48 1172   6.727   1.084   1.206
    3CHTO   O19 1173   6.535   1.010   1.205
    3CHTO   H35 1174   6.502   1.088   1.246
    3CHTO   C21 1175   6.632   1.141   1.016
    3CHTO   H49 1176   6.549   1.104   0.955
    3CHTO    N4 1177   6.594   1.276   1.062
    3CHTO   H41 1178   6.672   1.319   1.123
    3CHTO   H42 1179   6.575   1.341   0.978
    3CHTO   C22 1180   6.756   1.145   0.922
    3CHTO   H50 1181   6.837   1.200   0.971
    3CHTO   O14 1182   6.801   1.013   0.886
    3CHTO   C23 1183   6.837   0.929   0.996
    3CHTO   H51 1184   6.916   0.980   1.053
    3CHTO   C34 1185   6.900   0.800   0.939
    3CHTO   O23 1186   6.811   0.730   0.851
    3CHTO   H38 1187   6.854   0.654   0.818
    3CHTO   O16 1188   6.724   1.200   0.793
    3CHTO   C24 1189   6.815   1.324   0.746
    3CHTO   H52 1190   6.860   1.376   0.830
    3CHTO   C26 1191   6.725   1.421   0.667
    3CHTO   H54 1192   6.677   1.365   0.583
    3CHTO   O20 1193   6.622   1.467   0.756
    3CHTO   H36 1194   6.560   1.520   0.709
    3CHTO   C30 1195   6.808   1.539   0.607
    3CHTO   H58 1196   6.842   1.604   0.689
    3CHTO    N6 1197   6.723   1.626   0.520
    3CHTO   H45 1198   6.724   1.728   0.555
    3CHTO   H46 1199   6.757   1.624   0.417
    3CHTO   C33 1200   6.937   1.490   0.535
    3CHTO   H61 1201   6.910   1.445   0.438
    3CHTO   O18 1202   7.005   1.390   0.612
    3CHTO   C28 1203   6.932   1.275   0.655
    3CHTO   H56 1204   6.891   1.221   0.570
    3CHTO   C35 1205   7.031   1.184   0.731
    3CHTO   O24 1206   7.141   1.140   0.651
    3CHTO   H39 1207   7.197   1.213   0.631
    3CHTO    O9 1208   7.025   1.600   0.502
    3CHTO   C13 1209   7.111   1.659   0.634
    3CHTO   H26 1210   7.050   1.643   0.725
    3CHTO   C11 1211   7.144   1.812   0.612
    3CHTO   H24 1212   7.049   1.867   0.608
    3CHTO    O8 1213   7.211   1.833   0.486
    3CHTO    H3 1214   7.155   1.809   0.415
    3CHTO    C9 1215   7.224   1.861   0.736
    3CHTO   H22 1216   7.161   1.838   0.823
    3CHTO    N2 1217   7.244   2.008   0.742
    3CHTO   H10 1218   7.185   2.051   0.822
    3CHTO   H11 1219   7.218   2.055   0.647
    3CHTO    C7 1220   7.358   1.780   0.749
    3CHTO   H20 1221   7.396   1.808   0.850
    3CHTO    O4 1222   7.339   1.637   0.745
    3CHTO   C14 1223   7.244   1.575   0.656
    3CHTO   H27 1224   7.215   1.481   0.708
    3CHTO   C18 1225   7.312   1.533   0.524
    3CHTO   O13 1226   7.411   1.431   0.546
    3CHTO    H7 1227   7.483   1.466   0.593
    3CHTO    O2 1228   7.470   1.823   0.638
    3CHTO    C1 1229   7.591   1.745   0.628
    3CHTO   H14 1230   7.565   1.643   0.594
    3CHTO    C2 1231   7.678   1.733   0.761
    3CHTO   H15 1232   7.696   1.836   0.795
    3CHTO    O6 1233   7.605   1.661   0.862
    3CHTO    H1 1234   7.586   1.574   0.833
    3CHTO    C3 1235   7.818   1.660   0.729
    3CHTO   H16 1236   7.798   1.557   0.697
    3CHTO    N1 1237   7.909   1.652   0.849
    3CHTO    H8 1238   7.930   1.751   0.886
    3CHTO    H9 1239   7.862   1.593   0.926
    3CHTO    C4 1240   7.887   1.732   0.607
    3CHTO   H17 1241   7.911   1.834   0.635
    3CHTO    O1 1242   7.797   1.731   0.495
    3CHTO    C5 1243   7.677   1.807   0.513
    3CHTO   H18 1244   7.703   1.910   0.541
    3CHTO   C16 1245   7.606   1.808   0.376
    3CHTO   O11 1246   7.498   1.903   0.370
    3CHTO    H5 1247   7.429   1.875   0.426
    3CHTO    O3 1248   8.005   1.662   0.562
    3CHTO    C6 1249   8.090   1.740   0.472
    3CHTO   H19 1250   8.038   1.824   0.426
    3CHTO    C8 1251   8.214   1.797   0.549
    3CHTO   H21 1252   8.265   1.714   0.599
    3CHTO    O7 1253   8.165   1.890   0.648
    3CHTO    H2 1254   8.118   1.844   0.715
    3CHTO   C12 1255   8.315   1.866   0.448
    3CHTO   H25 1256   8.262   1.955   0.408
    3CHTO    N3 1257   8.438   1.915   0.518
    3CHTO   H12 1258   8.505   1.960   0.447
    3CHTO   H13 1259   8.411   1.986   0.595
    3CHTO   C15 1260   8.346   1.768   0.329
    3CHTO   H28 1261   8.406   1.683   0.361
    3CHTO   O10 1262   8.417   1.839   0.210
    3CHTO    H4 1263   8.367   1.913   0.181
    3CHTO    O5 1264   8.225   1.721   0.267
    3CHTO   C10 1265   8.139   1.648   0.357
    3CHTO   H23 1266   8.194   1.563   0.398
    3CHTO   C17 1267   8.021   1.591   0.275
    3CHTO   O12 1268   8.065   1.493   0.181
    3CHTO    H6 1269   8.117   1.534   0.114
    4CHTO  H203 1270   6.693   7.396   2.167
    4CHTO   O82 1271   6.654   7.384   2.252
    4CHTO  C123 1272   6.625   7.511   2.313
    4CHTO  H227 1273   6.576   7.492   2.410
    4CHTO   O77 1274   6.756   7.572   2.335
    4CHTO  C118 1275   6.751   7.694   2.410
    4CHTO  H222 1276   6.700   7.678   2.506
    4CHTO  C125 1277   6.899   7.740   2.438
    4CHTO   O84 1278   6.974   7.640   2.508
    4CHTO  H205 1279   6.987   7.566   2.452
    4CHTO  C114 1280   6.675   7.801   2.328
    4CHTO  H218 1281   6.730   7.819   2.236
    4CHTO  C116 1282   6.533   7.750   2.287
    4CHTO  H220 1283   6.468   7.749   2.378
    4CHTO   O79 1284   6.474   7.846   2.198
    4CHTO  H201 1285   6.523   7.852   2.118
    4CHTO  C120 1286   6.537   7.605   2.223
    4CHTO  H224 1287   6.585   7.617   2.123
    4CHTO   N21 1288   6.401   7.550   2.200
    4CHTO  H211 1289   6.365   7.497   2.287
    4CHTO  H212 1290   6.332   7.628   2.172
    4CHTO   O75 1291   6.671   7.919   2.410
    4CHTO  C112 1292   6.734   8.056   2.339
    4CHTO  H216 1293   6.740   8.041   2.230
    4CHTO   O73 1294   6.863   8.079   2.397
    4CHTO  C113 1295   6.934   8.190   2.342
    4CHTO  H217 1296   6.946   8.175   2.232
    4CHTO  C124 1297   7.075   8.194   2.404
    4CHTO   O83 1298   7.155   8.081   2.366
    4CHTO  H204 1299   7.121   8.003   2.406
    4CHTO  C109 1300   6.858   8.323   2.367
    4CHTO  H213 1301   6.857   8.340   2.476
    4CHTO  C110 1302   6.711   8.311   2.314
    4CHTO  H214 1303   6.714   8.308   2.205
    4CHTO   O78 1304   6.638   8.429   2.352
    4CHTO  H200 1305   6.553   8.428   2.314
    4CHTO  C111 1306   6.642   8.182   2.368
    4CHTO  H215 1307   6.631   8.191   2.477
    4CHTO   N19 1308   6.506   8.160   2.313
    4CHTO  H207 1309   6.443   8.245   2.338
    4CHTO  H208 1310   6.463   8.070   2.355
    4CHTO   O74 1311   6.929   8.434   2.303
    4CHTO  C115 1312   6.908   8.578   2.373
    4CHTO  H219 1313   6.824   8.577   2.443
    4CHTO   O76 1314   7.031   8.619   2.459
    4CHTO  C122 1315   7.154   8.618   2.385
    4CHTO  H226 1316   7.185   8.514   2.373
    4CHTO  C126 1317   7.265   8.687   2.472
    4CHTO   O85 1318   7.288   8.616   2.595
    4CHTO  H206 1319   7.350   8.663   2.647
    4CHTO  C121 1320   7.143   8.688   2.242
    4CHTO  H225 1321   7.229   8.758   2.229
    4CHTO   O81 1322   7.153   8.589   2.139
    4CHTO  H202 1323   7.237   8.548   2.142
    4CHTO  C119 1324   7.011   8.770   2.228
    4CHTO  H223 1325   7.018   8.848   2.304
    4CHTO  C117 1326   6.882   8.683   2.257
    4CHTO  H221 1327   6.848   8.623   2.173
    4CHTO   N20 1328   6.765   8.772   2.289
    4CHTO  H209 1329   6.749   8.842   2.208
    4CHTO  H210 1330   6.676   8.712   2.303
    4CHTO   O80 1331   7.003   8.857   2.094
    4CHTO  C103 1332   7.004   9.015   2.102
    4CHTO  H190 1333   6.945   9.050   2.187
    4CHTO  C101 1334   7.146   9.083   2.107
    4CHTO  H188 1335   7.209   9.039   2.029
    4CHTO   O68 1336   7.212   9.052   2.245
    4CHTO  H168 1337   7.164   9.094   2.314
    4CHTO   C99 1338   7.136   9.241   2.079
    4CHTO  H186 1339   7.079   9.289   2.162
    4CHTO   N17 1340   7.269   9.311   2.072
    4CHTO  H174 1341   7.255   9.417   2.062
    4CHTO  H175 1342   7.327   9.288   2.160
    4CHTO   C97 1343   7.052   9.267   1.950
    4CHTO  H184 1344   7.109   9.228   1.864
    4CHTO   O64 1345   6.924   9.204   1.963
    4CHTO  C104 1346   6.929   9.061   1.972
    4CHTO  H191 1347   6.982   9.021   1.885
    4CHTO  C108 1348   6.787   9.004   1.963
    4CHTO   O71 1349   6.700   9.055   2.065
    4CHTO  H171 1350   6.686   9.147   2.052
    4CHTO   O62 1351   7.020   9.407   1.930
    4CHTO   C91 1352   6.989   9.447   1.795
    4CHTO  H178 1353   6.987   9.359   1.731
    4CHTO   C92 1354   7.103   9.539   1.740
    4CHTO  H179 1355   7.120   9.621   1.812
    4CHTO   O66 1356   7.225   9.462   1.739
    4CHTO  H166 1357   7.253   9.443   1.827
    4CHTO   C93 1358   7.073   9.597   1.596
    4CHTO  H180 1359   7.080   9.512   1.526
    4CHTO   N16 1360   7.173   9.697   1.549
    4CHTO  H172 1361   7.251   9.711   1.622
    4CHTO  H173 1362   7.127   9.791   1.525
    4CHTO   C94 1363   6.926   9.655   1.590
    4CHTO  H181 1364   6.914   9.741   1.657
    4CHTO   O61 1365   6.834   9.555   1.636
    4CHTO   C95 1366   6.851   9.521   1.775
    4CHTO  H182 1367   6.848   9.612   1.835
    4CHTO  C106 1368   6.729   9.433   1.817
    4CHTO   O69 1369   6.722   9.417   1.959
    4CHTO  H169 1370   6.649   9.362   1.981
    4CHTO   O63 1371   6.876   9.702   1.436
    4CHTO   C96 1372   6.915   9.613   1.307
    4CHTO  H183 1373   6.992   9.542   1.334
    4CHTO   C98 1374   6.967   9.700   1.189
    4CHTO  H185 1375   6.890   9.773   1.160
    4CHTO   O67 1376   7.079   9.778   1.234
    4CHTO  H167 1377   7.052   9.841   1.298
    4CHTO  C102 1378   7.009   9.611   1.063
    4CHTO  H189 1379   7.108   9.568   1.089
    4CHTO   N18 1380   7.031   9.686   0.937
    4CHTO  H176 1381   6.941   9.739   0.909
    4CHTO  H177 1382   7.112   9.757   0.950
    4CHTO  C105 1383   6.910   9.492   1.045
    4CHTO  H192 1384   6.884   9.480   0.939
    4CHTO   O65 1385   6.784   9.508   1.114
    4CHTO  C100 1386   6.787   9.533   1.256
    4CHTO  H187 1387   6.699   9.595   1.278
    4CHTO  C107 1388   6.770   9.400   1.333
    4CHTO   O70 1389   6.647   9.336   1.301
    4CHTO  H170 1390   6.639   9.256   1.349
    4CHTO   O57 1391   6.995   9.360   1.092
    4CHTO   C85 1392   6.984   9.241   1.012
    4CHTO  H157 1393   6.895   9.254   0.947
    4CHTO   C83 1394   6.952   9.118   1.102
    4CHTO  H155 1395   6.860   9.139   1.158
    4CHTO   O56 1396   7.056   9.100   1.200
    4CHTO  H135 1397   7.060   9.174   1.258
    4CHTO   C81 1398   6.929   8.994   1.011
    4CHTO  H153 1399   6.849   9.018   0.942
    4CHTO   N14 1400   6.878   8.876   1.086
    4CHTO  H141 1401   6.854   8.797   1.017
    4CHTO  H142 1402   6.790   8.903   1.140
    4CHTO   C79 1403   7.058   8.962   0.926
    4CHTO  H151 1404   7.029   8.889   0.851
    4CHTO   O52 1405   7.102   9.081   0.852
    4CHTO   C86 1406   7.113   9.205   0.928
    4CHTO  H158 1407   7.200   9.190   0.995
    4CHTO   C90 1408   7.152   9.320   0.832
    4CHTO   O60 1409   7.279   9.296   0.770
    4CHTO  H138 1410   7.271   9.225   0.709
    4CHTO   O50 1411   7.168   8.905   0.999
    4CHTO   C73 1412   7.296   8.903   1.064
    4CHTO  H145 1413   7.290   8.956   1.160
    4CHTO   C74 1414   7.404   8.970   0.975
    4CHTO  H146 1415   7.373   9.074   0.957
    4CHTO   O54 1416   7.527   8.978   1.050
    4CHTO  H133 1417   7.592   9.023   1.000
    4CHTO   C75 1418   7.417   8.889   0.840
    4CHTO  H147 1419   7.319   8.890   0.789
    4CHTO   N13 1420   7.512   8.949   0.744
    4CHTO  H139 1421   7.611   8.951   0.786
    4CHTO  H140 1422   7.515   8.890   0.653
    4CHTO   C76 1423   7.451   8.736   0.874
    4CHTO  H148 1424   7.552   8.731   0.915
    4CHTO   O49 1425   7.355   8.680   0.971
    4CHTO   C77 1426   7.338   8.755   1.093
    4CHTO  H149 1427   7.432   8.755   1.148
    4CHTO   C88 1428   7.236   8.684   1.182
    4CHTO   O58 1429   7.283   8.548   1.220
    4CHTO  H136 1430   7.220   8.508   1.276
    4CHTO   O51 1431   7.430   8.641   0.746
    4CHTO   C78 1432   7.563   8.592   0.675
    4CHTO  H150 1433   7.650   8.656   0.703
    4CHTO   C80 1434   7.543   8.596   0.522
    4CHTO  H152 1435   7.451   8.539   0.497
    4CHTO   O55 1436   7.522   8.734   0.485
    4CHTO  H134 1437   7.439   8.764   0.516
    4CHTO   C84 1438   7.666   8.534   0.445
    4CHTO  H156 1439   7.753   8.597   0.463
    4CHTO   N15 1440   7.645   8.529   0.296
    4CHTO  H143 1441   7.731   8.487   0.248
    4CHTO  H144 1442   7.629   8.628   0.258
    4CHTO   C87 1443   7.697   8.393   0.501
    4CHTO  H159 1444   7.614   8.325   0.477
    4CHTO   O53 1445   7.715   8.402   0.653
    4CHTO   C82 1446   7.596   8.447   0.720
    4CHTO  H154 1447   7.513   8.381   0.696
    4CHTO   C89 1448   7.619   8.436   0.873
    4CHTO   O59 1449   7.731   8.514   0.917
    4CHTO  H137 1450   7.741   8.505   1.010
    4CHTO   O45 1451   7.839   8.331   0.434
    4CHTO   C67 1452   7.892   8.208   0.488
    4CHTO  H124 1453   7.958   8.167   0.411
    4CHTO   C65 1454   7.978   8.235   0.617
    4CHTO  H122 1455   7.953   8.336   0.651
    4CHTO   O44 1456   8.116   8.234   0.577
    4CHTO  H102 1457   8.134   8.306   0.520
    4CHTO   C63 1458   7.938   8.141   0.737
    4CHTO  H120 1459   7.838   8.169   0.771
    4CHTO   N11 1460   8.018   8.159   0.863
    4CHTO  H108 1461   8.018   8.262   0.892
    4CHTO  H109 1462   7.977   8.099   0.941
    4CHTO   C61 1463   7.929   7.993   0.685
    4CHTO  H118 1464   7.889   7.933   0.768
    4CHTO   O40 1465   7.836   7.977   0.573
    4CHTO   C68 1466   7.781   8.098   0.511
    4CHTO  H125 1467   7.700   8.136   0.577
    4CHTO   C72 1468   7.715   8.058   0.376
    4CHTO   O48 1469   7.605   7.968   0.391
    4CHTO  H105 1470   7.636   7.884   0.420
    4CHTO   O38 1471   8.057   7.942   0.644
    4CHTO   C55 1472   8.064   7.799   0.626
    4CHTO  H112 1473   7.963   7.757   0.609
    4CHTO   C56 1474   8.136   7.730   0.749
    4CHTO  H113 1475   8.234   7.780   0.761
    4CHTO   O42 1476   8.061   7.757   0.869
    4CHTO  H100 1477   8.107   7.724   0.944
    4CHTO   C57 1478   8.153   7.576   0.723
    4CHTO  H114 1479   8.053   7.533   0.722
    4CHTO   N10 1480   8.232   7.506   0.828
    4CHTO  H106 1481   8.305   7.572   0.871
    4CHTO  H107 1482   8.165   7.471   0.906
    4CHTO   C58 1483   8.218   7.552   0.583
    4CHTO  H115 1484   8.324   7.586   0.586
    4CHTO   O37 1485   8.150   7.624   0.479
    4CHTO   C59 1486   8.144   7.766   0.497
    4CHTO  H116 1487   8.246   7.806   0.503
    4CHTO   C70 1488   8.079   7.827   0.371
    4CHTO   O46 1489   7.948   7.778   0.344
    4CHTO  H103 1490   7.889   7.806   0.411
    4CHTO   O39 1491   8.214   7.389   0.536
    4CHTO   C60 1492   8.089   7.318   0.549
    4CHTO  H117 1493   8.054   7.327   0.652
    4CHTO   C62 1494   7.977   7.369   0.455
    4CHTO  H119 1495   7.962   7.476   0.479
    4CHTO   O43 1496   8.020   7.357   0.318
    4CHTO  H101 1497   7.955   7.394   0.261
    4CHTO   C66 1498   7.840   7.291   0.488
    4CHTO  H123 1499   7.816   7.308   0.593
    4CHTO   N12 1500   7.724   7.341   0.410
    4CHTO  H110 1501   7.753   7.423   0.345
    4CHTO  H111 1502   7.645   7.371   0.476
    4CHTO   C69 1503   7.858   7.138   0.471
    4CHTO  H126 1504   7.863   7.110   0.363
    4CHTO   O41 1505   7.989   7.087   0.544
    4CHTO   C64 1506   8.115   7.166   0.525
    4CHTO  H121 1507   8.152   7.152   0.421
    4CHTO   C71 1508   8.222   7.112   0.622
    4CHTO   O47 1509   8.253   6.976   0.594
    4CHTO  H104 1510   8.317   6.945   0.655
    4CHTO   O34 1511   7.729   7.061   0.537
    4CHTO   C49 1512   7.718   6.911   0.580
    4CHTO   H91 1513   7.798   6.861   0.527
    4CHTO   C47 1514   7.583   6.852   0.533
    4CHTO   H89 1515   7.595   6.839   0.422
    4CHTO   O33 1516   7.475   6.944   0.556
    4CHTO   H70 1517   7.397   6.914   0.513
    4CHTO   C45 1518   7.548   6.712   0.607
    4CHTO   H87 1519   7.481   6.735   0.691
    4CHTO    N8 1520   7.475   6.620   0.516
    4CHTO   H75 1521   7.476   6.656   0.414
    4CHTO   H76 1522   7.518   6.521   0.519
    4CHTO   C43 1523   7.677   6.649   0.678
    4CHTO   H85 1524   7.645   6.557   0.727
    4CHTO   O29 1525   7.730   6.744   0.772
    4CHTO   C50 1526   7.734   6.883   0.733
    4CHTO   H92 1527   7.655   6.937   0.787
    4CHTO   C54 1528   7.866   6.943   0.788
    4CHTO   O36 1529   7.872   6.939   0.931
    4CHTO   H72 1530   7.881   6.851   0.960
    4CHTO   O27 1531   7.779   6.610   0.583
    4CHTO   C37 1532   7.895   6.558   0.517
    4CHTO   H79 1533   7.885   6.572   0.408
    4CHTO   C38 1534   8.026   6.631   0.561
    4CHTO   H80 1535   8.031   6.630   0.671
    4CHTO   O31 1536   8.017   6.768   0.516
    4CHTO   H68 1537   8.090   6.817   0.548
    4CHTO   C39 1538   8.155   6.562   0.501
    4CHTO   H81 1539   8.153   6.580   0.393
    4CHTO    N7 1540   8.283   6.620   0.553
    4CHTO   H73 1541   8.290   6.724   0.526
    4CHTO   H74 1542   8.288   6.609   0.660
    4CHTO   C40 1543   8.151   6.405   0.521
    4CHTO   H82 1544   8.171   6.380   0.626
    4CHTO   O26 1545   8.025   6.353   0.477
    4CHTO   C41 1546   7.909   6.406   0.547
    4CHTO   H83 1547   7.922   6.392   0.656
    4CHTO   C52 1548   7.784   6.325   0.504
    4CHTO   O35 1549   7.756   6.332   0.357
    4CHTO   H71 1550   7.825   6.290   0.310
    4CHTO   O28 1551   8.248   6.340   0.437
    4CHTO   C42 1552   8.298   6.205   0.466
    4CHTO   H84 1553   8.356   6.180   0.376
    4CHTO   C44 1554   8.191   6.092   0.480
    4CHTO   H86 1555   8.124   6.118   0.562
    4CHTO   O32 1556   8.115   6.093   0.357
    4CHTO   H69 1557   8.043   6.034   0.363
    4CHTO   C48 1558   8.255   5.951   0.510
    4CHTO   H90 1559   8.317   5.922   0.425
    4CHTO    N9 1560   8.151   5.844   0.525
    4CHTO   H77 1561   8.198   5.750   0.547
    4CHTO   H78 1562   8.092   5.837   0.435
    4CHTO   C51 1563   8.347   5.964   0.637
    4CHTO   H93 1564   8.285   5.996   0.721
    4CHTO   O30 1565   8.452   6.058   0.609
    4CHTO   C46 1566   8.398   6.201   0.586
    4CHTO   H88 1567   8.346   6.233   0.677
    4CHTO   C53 1568   8.520   6.294   0.562
    4CHTO   O72 1569   8.597   6.253   0.449
    4CHTO  H199 1570   8.667   6.314   0.435
    4CHTO   O22 1571   8.416   5.841   0.669
    4CHTO   C31 1572   8.444   5.804   0.809
    4CHTO   H59 1573   8.458   5.900   0.865
    4CHTO   C29 1574   8.329   5.728   0.879
    4CHTO   H57 1575   8.312   5.635   0.823
    4CHTO   O21 1576   8.208   5.805   0.871
    4CHTO   H37 1577   8.182   5.818   0.781
    4CHTO   C27 1578   8.363   5.692   1.029
    4CHTO   H55 1579   8.365   5.786   1.087
    4CHTO    N5 1580   8.264   5.600   1.091
    4CHTO   H43 1581   8.192   5.566   1.018
    4CHTO   H44 1582   8.214   5.649   1.173
    4CHTO   C25 1583   8.508   5.631   1.041
    4CHTO   H53 1584   8.508   5.529   1.001
    4CHTO   O17 1585   8.606   5.707   0.965
    4CHTO   C32 1586   8.576   5.724   0.826
    4CHTO   H60 1587   8.564   5.627   0.779
    4CHTO   C36 1588   8.695   5.797   0.759
    4CHTO   O25 1589   8.814   5.717   0.763
    4CHTO   H40 1590   8.844   5.709   0.851
    4CHTO   O15 1591   8.558   5.628   1.200
    4CHTO   C19 1592   8.572   5.741   1.293
    4CHTO   H47 1593   8.645   5.704   1.366
    4CHTO   C20 1594   8.632   5.869   1.225
    4CHTO   H48 1595   8.579   5.895   1.132
    4CHTO   O19 1596   8.767   5.836   1.190
    4CHTO   H35 1597   8.807   5.907   1.143
    4CHTO   C21 1598   8.624   5.997   1.319
    4CHTO   H49 1599   8.685   5.979   1.408
    4CHTO    N4 1600   8.677   6.119   1.253
    4CHTO   H41 1601   8.672   6.203   1.322
    4CHTO   H42 1602   8.619   6.142   1.165
    4CHTO   C22 1603   8.476   6.008   1.363
    4CHTO   H50 1604   8.414   6.006   1.273
    4CHTO   O14 1605   8.446   5.894   1.446
    4CHTO   C23 1606   8.440   5.770   1.373
    4CHTO   H51 1607   8.352   5.777   1.307
    4CHTO   C34 1608   8.412   5.661   1.478
    4CHTO   O23 1609   8.388   5.533   1.418
    4CHTO   H38 1610   8.306   5.534   1.372
    4CHTO   O16 1611   8.444   6.124   1.443
    4CHTO   C24 1612   8.305   6.198   1.394
    4CHTO   H52 1613   8.255   6.142   1.316
    4CHTO   C26 1614   8.339   6.338   1.341
    4CHTO   H54 1615   8.402   6.391   1.416
    4CHTO   O20 1616   8.416   6.323   1.220
    4CHTO   H36 1617   8.501   6.289   1.240
    4CHTO   C30 1618   8.210   6.423   1.316
    4CHTO   H58 1619   8.152   6.380   1.233
    4CHTO    N6 1620   8.243   6.562   1.276
    4CHTO   H45 1621   8.152   6.618   1.257
    4CHTO   H46 1622   8.298   6.612   1.355
    4CHTO   C33 1623   8.118   6.417   1.442
    4CHTO   H61 1624   8.172   6.463   1.527
    4CHTO   O18 1625   8.091   6.279   1.475
    4CHTO   C28 1626   8.207   6.205   1.514
    4CHTO   H56 1627   8.257   6.254   1.598
    4CHTO   C35 1628   8.165   6.063   1.559
    4CHTO   O24 1629   8.102   5.987   1.456
    4CHTO   H39 1630   8.019   6.025   1.433
    4CHTO    O9 1631   7.996   6.493   1.427
    4CHTO   C13 1632   7.917   6.523   1.568
    4CHTO   H26 1633   7.906   6.426   1.621
    4CHTO   C11 1634   7.777   6.590   1.537
    4CHTO   H24 1635   7.717   6.516   1.481
    4CHTO    O8 1636   7.793   6.704   1.452
    4CHTO    H3 1637   7.709   6.738   1.427
    4CHTO    C9 1638   7.705   6.619   1.672
    4CHTO   H22 1639   7.695   6.521   1.722
    4CHTO    N2 1640   7.566   6.667   1.657
    4CHTO   H10 1641   7.518   6.673   1.754
    4CHTO   H11 1642   7.510   6.600   1.592
    4CHTO    C7 1643   7.794   6.712   1.764
    4CHTO   H20 1644   7.743   6.705   1.863
    4CHTO    O4 1645   7.929   6.663   1.778
    4CHTO   C14 1646   8.003   6.615   1.664
    4CHTO   H27 1647   8.084   6.552   1.706
    4CHTO   C18 1648   8.073   6.734   1.591
    4CHTO   O13 1649   8.174   6.793   1.673
    4CHTO    H7 1650   8.135   6.837   1.746
    4CHTO    O2 1651   7.796   6.874   1.716
    4CHTO    C1 1652   7.879   6.963   1.793
    4CHTO   H14 1653   7.984   6.931   1.783
    4CHTO    C2 1654   7.846   6.975   1.948
    4CHTO   H15 1655   7.738   6.998   1.955
    4CHTO    O6 1656   7.874   6.850   2.012
    4CHTO    H1 1657   7.814   6.784   1.982
    4CHTO    C3 1658   7.933   7.091   2.018
    4CHTO   H16 1659   8.037   7.057   2.021
    4CHTO    N1 1660   7.892   7.117   2.161
    4CHTO    H8 1661   7.810   7.053   2.190
    4CHTO    H9 1662   7.975   7.102   2.227
    4CHTO    C4 1663   7.933   7.223   1.932
    4CHTO   H17 1664   7.837   7.273   1.943
    4CHTO    O1 1665   7.961   7.195   1.794
    4CHTO    C5 1666   7.871   7.105   1.729
    4CHTO   H18 1667   7.769   7.141   1.739
    4CHTO   C16 1668   7.909   7.103   1.579
    4CHTO   O11 1669   7.888   7.230   1.517
    4CHTO    H5 1670   7.951   7.292   1.548
    4CHTO    O3 1671   8.042   7.309   1.972
    4CHTO    C6 1672   8.016   7.453   1.973
    4CHTO   H19 1673   7.916   7.479   1.938
    4CHTO    C8 1674   8.033   7.507   2.119
    4CHTO   H21 1675   8.128   7.471   2.158
    4CHTO    O7 1676   7.925   7.450   2.196
    4CHTO    H2 1677   7.935   7.473   2.287
    4CHTO   C12 1678   8.030   7.665   2.124
    4CHTO   H25 1679   7.927   7.695   2.097
    4CHTO    N3 1680   8.057   7.716   2.263
    4CHTO   H12 1681   7.974   7.777   2.296
    4CHTO   H13 1682   8.149   7.771   2.267
    4CHTO   C15 1683   8.128   7.723   2.016
    4CHTO   H28 1684   8.233   7.703   2.041
    4CHTO   O10 1685   8.109   7.875   1.993
    4CHTO    H4 1686   8.177   7.908   1.937
    4CHTO    O5 1687   8.098   7.668   1.886
    4CHTO   C10 1688   8.117   7.526   1.879
    4CHTO   H23 1689   8.219   7.502   1.909
    4CHTO   C17 1690   8.100   7.484   1.732
    4CHTO   O12 1691   8.203   7.540   1.649
    4CHTO    H6 1692   8.286   7.500   1.670
    5CHTO  H203 1693   8.996   3.855   1.203
    5CHTO   O82 1694   8.926   3.793   1.198
    5CHTO  C123 1695   8.933   3.700   1.308
    5CHTO  H227 1696   9.037   3.664   1.317
    5CHTO   O77 1697   8.899   3.783   1.424
    5CHTO  C118 1698   8.902   3.713   1.550
    5CHTO  H222 1699   9.000   3.667   1.565
    5CHTO  C125 1700   8.876   3.818   1.664
    5CHTO   O84 1701   8.983   3.913   1.671
    5CHTO  H205 1702   8.966   3.974   1.740
    5CHTO  C114 1703   8.794   3.603   1.548
    5CHTO  H218 1704   8.697   3.650   1.530
    5CHTO  C116 1705   8.820   3.504   1.431
    5CHTO  H220 1706   8.915   3.448   1.452
    5CHTO   O79 1707   8.714   3.406   1.430
    5CHTO  H201 1708   8.733   3.339   1.367
    5CHTO  C120 1709   8.831   3.581   1.294
    5CHTO  H224 1710   8.730   3.621   1.272
    5CHTO   N21 1711   8.867   3.490   1.181
    5CHTO  H211 1712   8.825   3.392   1.197
    5CHTO  H212 1713   8.974   3.484   1.170
    5CHTO   O75 1714   8.797   3.543   1.679
    5CHTO  C112 1715   8.648   3.502   1.733
    5CHTO  H216 1716   8.593   3.454   1.651
    5CHTO   O73 1717   8.583   3.624   1.775
    5CHTO  C113 1718   8.447   3.604   1.814
    5CHTO  H217 1719   8.392   3.557   1.730
    5CHTO  C124 1720   8.383   3.742   1.838
    5CHTO   O83 1721   8.378   3.823   1.720
    5CHTO  H204 1722   8.317   3.786   1.659
    5CHTO  C109 1723   8.439   3.513   1.939
    5CHTO  H213 1724   8.489   3.567   2.021
    5CHTO  C110 1725   8.512   3.378   1.911
    5CHTO  H214 1726   8.453   3.321   1.839
    5CHTO   O78 1727   8.515   3.302   2.033
    5CHTO  H200 1728   8.551   3.217   2.018
    5CHTO  C111 1729   8.655   3.403   1.855
    5CHTO  H215 1730   8.716   3.450   1.933
    5CHTO   N19 1731   8.726   3.278   1.815
    5CHTO  H207 1732   8.739   3.214   1.902
    5CHTO  H208 1733   8.669   3.225   1.740
    5CHTO   O74 1734   8.299   3.488   1.976
    5CHTO  C115 1735   8.275   3.498   2.134
    5CHTO  H219 1736   8.365   3.472   2.190
    5CHTO   O76 1737   8.241   3.644   2.178
    5CHTO  C122 1738   8.124   3.697   2.113
    5CHTO  H226 1739   8.152   3.723   2.011
    5CHTO  C126 1740   8.084   3.831   2.183
    5CHTO   O85 1741   8.188   3.929   2.175
    5CHTO  H206 1742   8.161   4.007   2.219
    5CHTO  C121 1743   8.002   3.594   2.111
    5CHTO  H225 1744   7.910   3.648   2.141
    5CHTO   O81 1745   7.983   3.547   1.977
    5CHTO  H202 1746   7.904   3.495   1.972
    5CHTO  C119 1747   8.028   3.478   2.212
    5CHTO  H223 1748   8.050   3.528   2.307
    5CHTO  C117 1749   8.158   3.397   2.171
    5CHTO  H221 1750   8.146   3.334   2.083
    5CHTO   N20 1751   8.198   3.303   2.281
    5CHTO  H209 1752   8.118   3.234   2.302
    5CHTO  H210 1753   8.224   3.358   2.370
    5CHTO   O80 1754   7.896   3.390   2.253
    5CHTO  C103 1755   7.793   3.348   2.143
    5CHTO  H190 1756   7.791   3.419   2.061
    5CHTO  C101 1757   7.811   3.203   2.084
    5CHTO  H188 1758   7.818   3.132   2.167
    5CHTO   O68 1759   7.941   3.198   2.005
    5CHTO  H168 1760   7.936   3.256   1.931
    5CHTO   C99 1761   7.684   3.162   1.994
    5CHTO  H186 1762   7.681   3.229   1.905
    5CHTO   N17 1763   7.688   3.020   1.942
    5CHTO  H174 1764   7.772   2.967   1.984
    5CHTO  H175 1765   7.692   3.020   1.834
    5CHTO   C97 1766   7.552   3.189   2.072
    5CHTO  H184 1767   7.544   3.116   2.154
    5CHTO   O64 1768   7.549   3.324   2.121
    5CHTO  C104 1769   7.653   3.357   2.214
    5CHTO  H191 1770   7.651   3.289   2.300
    5CHTO  C108 1771   7.627   3.497   2.270
    5CHTO   O71 1772   7.503   3.502   2.343
    5CHTO  H171 1773   7.489   3.588   2.376
    5CHTO   O62 1774   7.436   3.182   1.986
    5CHTO   C91 1775   7.309   3.161   2.050
    5CHTO  H178 1776   7.320   3.180   2.157
    5CHTO   C92 1777   7.269   3.010   2.035
    5CHTO  H179 1778   7.276   2.982   1.929
    5CHTO   O66 1779   7.367   2.929   2.104
    5CHTO  H166 1780   7.450   2.935   2.060
    5CHTO   C93 1781   7.124   2.981   2.091
    5CHTO  H180 1782   7.128   2.990   2.200
    5CHTO   N16 1783   7.078   2.842   2.064
    5CHTO  H172 1784   7.074   2.824   1.957
    5CHTO  H173 1785   6.981   2.825   2.108
    5CHTO   C94 1786   7.022   3.087   2.035
    5CHTO  H181 1787   7.011   3.080   1.927
    5CHTO   O61 1788   7.069   3.219   2.063
    5CHTO   C95 1789   7.192   3.252   1.996
    5CHTO  H182 1790   7.179   3.236   1.889
    5CHTO  C106 1791   7.218   3.405   2.018
    5CHTO   O69 1792   7.326   3.453   1.937
    5CHTO  H169 1793   7.407   3.414   1.965
    5CHTO   O63 1794   6.877   3.073   2.106
    5CHTO   C96 1795   6.761   3.063   1.998
    5CHTO  H183 1796   6.799   3.009   1.911
    5CHTO   C98 1797   6.704   3.199   1.947
    5CHTO  H185 1798   6.670   3.259   2.033
    5CHTO   O67 1799   6.813   3.273   1.888
    5CHTO  H167 1800   6.784   3.359   1.864
    5CHTO  C102 1801   6.586   3.179   1.840
    5CHTO  H189 1802   6.635   3.149   1.747
    5CHTO   N18 1803   6.511   3.304   1.806
    5CHTO  H176 1804   6.407   3.297   1.835
    5CHTO  H177 1805   6.557   3.390   1.853
    5CHTO  C105 1806   6.489   3.063   1.880
    5CHTO  H192 1807   6.411   3.101   1.945
    5CHTO   O65 1808   6.551   2.950   1.945
    5CHTO  C100 1809   6.639   2.982   2.054
    5CHTO  H187 1810   6.585   3.043   2.128
    5CHTO  C107 1811   6.683   2.850   2.124
    5CHTO   O70 1812   6.571   2.782   2.182
    5CHTO  H170 1813   6.516   2.748   2.114
    5CHTO   O57 1814   6.428   3.014   1.737
    5CHTO   C85 1815   6.301   2.946   1.726
    5CHTO  H157 1816   6.227   3.012   1.776
    5CHTO   C83 1817   6.303   2.813   1.808
    5CHTO  H155 1818   6.309   2.838   1.914
    5CHTO   O56 1819   6.422   2.737   1.777
    5CHTO  H135 1820   6.421   2.710   1.687
    5CHTO   C81 1821   6.170   2.735   1.783
    5CHTO  H153 1822   6.087   2.801   1.808
    5CHTO   N14 1823   6.152   2.618   1.872
    5CHTO  H141 1824   6.160   2.648   1.974
    5CHTO  H142 1825   6.056   2.574   1.855
    5CHTO   C79 1826   6.159   2.700   1.630
    5CHTO  H151 1827   6.064   2.648   1.616
    5CHTO   O52 1828   6.151   2.824   1.553
    5CHTO   C86 1829   6.262   2.917   1.575
    5CHTO  H158 1830   6.347   2.871   1.522
    5CHTO   C90 1831   6.232   3.050   1.502
    5CHTO   O60 1832   6.222   3.030   1.360
    5CHTO  H138 1833   6.206   3.112   1.318
    5CHTO   O50 1834   6.265   2.616   1.581
    5CHTO   C73 1835   6.283   2.525   1.472
    5CHTO  H145 1836   6.210   2.547   1.393
    5CHTO   C74 1837   6.262   2.377   1.518
    5CHTO  H146 1838   6.162   2.371   1.564
    5CHTO   O54 1839   6.256   2.297   1.399
    5CHTO  H133 1840   6.238   2.208   1.421
    5CHTO   C75 1841   6.376   2.335   1.619
    5CHTO  H147 1842   6.362   2.391   1.712
    5CHTO   N13 1843   6.373   2.192   1.658
    5CHTO  H139 1844   6.278   2.169   1.705
    5CHTO  H140 1845   6.452   2.171   1.729
    5CHTO   C76 1846   6.521   2.374   1.562
    5CHTO  H148 1847   6.546   2.306   1.481
    5CHTO   O49 1848   6.525   2.512   1.513
    5CHTO   C77 1849   6.426   2.539   1.412
    5CHTO  H149 1850   6.437   2.468   1.330
    5CHTO   C88 1851   6.454   2.677   1.352
    5CHTO   O58 1852   6.360   2.707   1.244
    5CHTO  H136 1853   6.379   2.792   1.209
    5CHTO   O51 1854   6.626   2.370   1.683
    5CHTO   C78 1855   6.772   2.384   1.637
    5CHTO  H150 1856   6.779   2.434   1.538
    5CHTO   C80 1857   6.839   2.245   1.628
    5CHTO  H152 1858   6.825   2.192   1.724
    5CHTO   O55 1859   6.769   2.171   1.526
    5CHTO  H134 1860   6.801   2.083   1.523
    5CHTO   C84 1861   6.994   2.259   1.597
    5CHTO  H156 1862   7.004   2.304   1.498
    5CHTO   N15 1863   7.064   2.127   1.591
    5CHTO  H143 1864   7.056   2.077   1.686
    5CHTO  H144 1865   7.167   2.141   1.567
    5CHTO   C87 1866   7.059   2.354   1.701
    5CHTO  H159 1867   7.055   2.308   1.800
    5CHTO   O53 1868   6.983   2.489   1.701
    5CHTO   C82 1869   6.845   2.474   1.738
    5CHTO  H154 1870   6.838   2.434   1.839
    5CHTO   C89 1871   6.779   2.614   1.741
    5CHTO   O59 1872   6.836   2.697   1.844
    5CHTO  H137 1873   6.796   2.781   1.841
    5CHTO   O45 1874   7.212   2.388   1.661
    5CHTO   C67 1875   7.297   2.412   1.774
    5CHTO  H124 1876   7.236   2.435   1.862
    5CHTO   C65 1877   7.383   2.285   1.806
    5CHTO  H122 1878   7.382   2.224   1.715
    5CHTO   O44 1879   7.314   2.214   1.909
    5CHTO  H102 1880   7.354   2.130   1.923
    5CHTO   C63 1881   7.536   2.317   1.830
    5CHTO  H120 1882   7.581   2.344   1.735
    5CHTO   N11 1883   7.622   2.202   1.873
    5CHTO  H108 1884   7.595   2.170   1.971
    5CHTO  H109 1885   7.611   2.121   1.804
    5CHTO   C61 1886   7.548   2.444   1.922
    5CHTO  H118 1887   7.654   2.471   1.924
    5CHTO   O40 1888   7.477   2.559   1.867
    5CHTO   C68 1889   7.388   2.540   1.753
    5CHTO  H125 1890   7.450   2.529   1.661
    5CHTO   C72 1891   7.307   2.670   1.738
    5CHTO   O48 1892   7.221   2.668   1.624
    5CHTO  H105 1893   7.174   2.749   1.619
    5CHTO   O38 1894   7.503   2.414   2.056
    5CHTO   C55 1895   7.482   2.521   2.150
    5CHTO  H112 1896   7.427   2.603   2.102
    5CHTO   C56 1897   7.617   2.571   2.216
    5CHTO  H113 1898   7.668   2.482   2.257
    5CHTO   O42 1899   7.704   2.624   2.114
    5CHTO  H100 1900   7.788   2.646   2.150
    5CHTO   C57 1901   7.588   2.677   2.328
    5CHTO  H114 1902   7.550   2.766   2.277
    5CHTO   N10 1903   7.710   2.718   2.403
    5CHTO  H106 1904   7.699   2.819   2.440
    5CHTO  H107 1905   7.728   2.652   2.487
    5CHTO   C58 1906   7.478   2.626   2.425
    5CHTO  H115 1907   7.520   2.544   2.488
    5CHTO   O37 1908   7.362   2.575   2.356
    5CHTO   C59 1909   7.388   2.469   2.263
    5CHTO  H116 1910   7.433   2.385   2.315
    5CHTO   C70 1911   7.254   2.418   2.207
    5CHTO   O46 1912   7.178   2.517   2.136
    5CHTO  H103 1913   7.149   2.584   2.195
    5CHTO   O39 1914   7.426   2.752   2.525
    5CHTO   C60 1915   7.317   2.830   2.472
    5CHTO  H117 1916   7.314   2.819   2.363
    5CHTO   C62 1917   7.181   2.782   2.530
    5CHTO  H119 1918   7.170   2.675   2.500
    5CHTO   O43 1919   7.183   2.789   2.674
    5CHTO  H101 1920   7.245   2.728   2.708
    5CHTO   C66 1921   7.061   2.867   2.464
    5CHTO  H123 1922   7.065   2.853   2.356
    5CHTO   N12 1923   6.926   2.820   2.505
    5CHTO  H110 1924   6.932   2.736   2.572
    5CHTO  H111 1925   6.866   2.796   2.418
    5CHTO   C69 1926   7.083   3.018   2.492
    5CHTO  H126 1927   7.079   3.037   2.601
    5CHTO   O41 1928   7.224   3.059   2.437
    5CHTO   C64 1929   7.337   2.982   2.500
    5CHTO  H121 1930   7.338   2.998   2.610
    5CHTO   C71 1931   7.470   3.034   2.442
    5CHTO   O47 1932   7.490   3.172   2.475
    5CHTO  H104 1933   7.430   3.225   2.427
    5CHTO   O34 1934   6.974   3.109   2.421
    5CHTO   C49 1935   6.952   3.262   2.393
    5CHTO   H91 1936   7.007   3.286   2.302
    5CHTO   C47 1937   7.008   3.345   2.511
    5CHTO   H89 1938   6.994   3.453   2.484
    5CHTO   O33 1939   7.149   3.319   2.524
    5CHTO   H70 1940   7.195   3.353   2.450
    5CHTO   C45 1941   6.922   3.310   2.642
    5CHTO   H87 1942   6.921   3.201   2.655
    5CHTO    N8 1943   6.978   3.371   2.765
    5CHTO   H75 1944   6.921   3.338   0.019
    5CHTO   H76 1945   6.974   3.479   2.759
    5CHTO   C43 1946   6.768   3.351   2.615
    5CHTO   H85 1947   6.712   3.317   2.703
    5CHTO   O29 1948   6.720   3.289   2.494
    5CHTO   C50 1949   6.801   3.295   2.374
    5CHTO   H92 1950   6.760   3.221   2.305
    5CHTO   C54 1951   6.777   3.430   2.298
    5CHTO   O36 1952   6.844   3.434   2.172
    5CHTO   H72 1953   6.937   3.438   2.185
    5CHTO   O27 1954   6.749   3.494   2.609
    5CHTO   C37 1955   6.655   3.600   2.630
    5CHTO   H79 1956   6.671   3.678   2.555
    5CHTO   C38 1957   6.507   3.550   2.613
    5CHTO   H80 1958   6.494   3.460   2.675
    5CHTO   O31 1959   6.491   3.515   2.475
    5CHTO   H68 1960   6.407   3.476   2.461
    5CHTO   C39 1961   6.402   3.659   2.657
    5CHTO   H81 1962   6.406   3.740   2.584
    5CHTO    N7 1963   6.260   3.607   2.658
    5CHTO   H73 1964   6.198   3.667   2.593
    5CHTO   H74 1965   6.219   3.605   2.758
    5CHTO   C40 1966   6.440   3.722   2.797
    5CHTO   H82 1967   6.424   3.648   0.042
    5CHTO   O26 1968   6.576   3.769   2.794
    5CHTO   C41 1969   6.674   3.662   2.772
    5CHTO   H83 1970   6.662   3.584   0.016
    5CHTO   C52 1971   6.815   3.723   2.788
    5CHTO   O35 1972   6.839   3.775   0.093
    5CHTO   H71 1973   6.784   3.850   0.109
    5CHTO   O28 1974   6.362   3.840   2.825
    5CHTO   C42 1975   6.326   3.887   0.127
    5CHTO   H84 1976   6.258   3.969   0.104
    5CHTO   C44 1977   6.443   3.949   0.212
    5CHTO   H86 1978   6.529   3.963   0.146
    5CHTO   O32 1979   6.405   4.081   0.256
    5CHTO   H69 1980   6.396   4.139   0.183
    5CHTO   C48 1981   6.490   3.863   0.336
    5CHTO   H90 1982   6.425   3.887   0.421
    5CHTO    N9 1983   6.628   3.899   0.382
    5CHTO   H77 1984   6.631   4.004   0.410
    5CHTO   H78 1985   6.657   3.838   0.466
    5CHTO   C51 1986   6.472   3.709   0.305
    5CHTO   H93 1987   6.538   3.686   0.222
    5CHTO   O30 1988   6.335   3.678   0.275
    5CHTO   C46 1989   6.244   3.782   0.208
    5CHTO   H88 1990   6.181   3.728   0.137
    5CHTO   C53 1991   6.153   3.848   0.315
    5CHTO   O72 1992   6.073   3.750   0.382
    5CHTO  H199 1993   6.010   3.714   0.323
    5CHTO   O22 1994   6.503   3.626   0.419
    5CHTO   C31 1995   6.518   3.479   0.407
    5CHTO   H59 1996   6.558   3.445   0.505
    5CHTO   C29 1997   6.385   3.402   0.384
    5CHTO   H57 1998   6.340   3.439   0.291
    5CHTO   O21 1999   6.296   3.438   0.492
    5CHTO   H37 2000   6.210   3.404   0.475
    5CHTO   C27 2001   6.407   3.246   0.371
    5CHTO   H55 2002   6.449   3.208   0.465
    5CHTO    N5 2003   6.281   3.171   0.342
    5CHTO   H43 2004   6.198   3.239   0.331
    5CHTO   H44 2005   6.291   3.109   0.255
    5CHTO   C25 2006   6.516   3.223   0.260
    5CHTO   H53 2007   6.478   3.262   0.164
    5CHTO   O17 2008   6.639   3.294   0.294
    5CHTO   C32 2009   6.625   3.437   0.301
    5CHTO   H60 2010   6.594   3.474   0.203
    5CHTO   C36 2011   6.763   3.497   0.337
    5CHTO   O25 2012   6.860   3.473   0.234
    5CHTO   H40 2013   6.838   3.522   0.157
    5CHTO   O15 2014   6.552   3.072   0.242
    5CHTO   C19 2015   6.657   2.991   0.301
    5CHTO   H47 2016   6.719   3.063   0.358
    5CHTO   C20 2017   6.606   2.882   0.400
    5CHTO   H48 2018   6.535   2.814   0.352
    5CHTO   O19 2019   6.537   2.950   0.507
    5CHTO   H35 2020   6.457   2.988   0.475
    5CHTO   C21 2021   6.725   2.794   0.458
    5CHTO   H49 2022   6.786   2.857   0.523
    5CHTO    N4 2023   6.678   2.680   0.542
    5CHTO   H41 2024   6.570   2.680   0.550
    5CHTO   H42 2025   6.711   2.586   0.502
    5CHTO   C22 2026   6.817   2.749   0.341
    5CHTO   H50 2027   6.763   2.676   0.280
    5CHTO   O14 2028   6.858   2.860   0.260
    5CHTO   C23 2029   6.751   2.929   0.195
    5CHTO   H51 2030   6.698   2.856   0.131
    5CHTO   C34 2031   6.811   3.036   0.103
    5CHTO   O23 2032   6.888   2.978   2.829
    5CHTO   H38 2033   6.921   3.045   2.774
    5CHTO   O16 2034   6.941   2.694   0.391
    5CHTO   C24 2035   7.008   2.591   0.290
    5CHTO   H52 2036   6.964   2.596   0.190
    5CHTO   C26 2037   6.991   2.449   0.346
    5CHTO   H54 2038   7.025   2.449   0.453
    5CHTO   O20 2039   6.851   2.416   0.347
    5CHTO   H36 2040   6.817   2.414   0.259
    5CHTO   C30 2041   7.076   2.344   0.268
    5CHTO   H58 2042   7.034   2.331   0.167
    5CHTO    N6 2043   7.072   2.210   0.332
    5CHTO   H45 2044   7.131   2.139   0.275
    5CHTO   H46 2045   6.970   2.174   0.336
    5CHTO   C33 2046   7.222   2.396   0.250
    5CHTO   H61 2047   7.270   2.403   0.349
    5CHTO   O18 2048   7.219   2.527   0.191
    5CHTO   C28 2049   7.158   2.627   0.274
    5CHTO   H56 2050   7.205   2.629   0.373
    5CHTO   C35 2051   7.176   2.765   0.207
    5CHTO   O24 2052   7.314   2.799   0.190
    5CHTO   H39 2053   7.321   2.883   0.150
    5CHTO    O9 2054   7.307   2.306   0.174
    5CHTO   C13 2055   7.277   2.294   0.014
    5CHTO   H26 2056   7.169   2.312   2.829
    5CHTO   C11 2057   7.320   2.148   2.801
    5CHTO   H24 2058   7.251   2.077   0.018
    5CHTO    O8 2059   7.453   2.118   0.016
    5CHTO    H3 2060   7.516   2.175   2.808
    5CHTO    C9 2061   7.302   2.137   2.648
    5CHTO   H22 2062   7.197   2.164   2.628
    5CHTO    N2 2063   7.317   2.000   2.594
    5CHTO   H10 2064   7.350   1.931   2.671
    5CHTO   H11 2065   7.223   1.965   2.552
    5CHTO    C7 2066   7.394   2.243   2.577
    5CHTO   H20 2067   7.365   2.237   2.470
    5CHTO    O4 2068   7.368   2.377   2.623
    5CHTO   C14 2069   7.354   2.406   2.763
    5CHTO   H27 2070   7.292   2.498   2.768
    5CHTO   C18 2071   7.492   2.443   2.825
    5CHTO   O13 2072   7.542   2.565   2.770
    5CHTO    H7 2073   7.567   2.552   2.680
    5CHTO    O2 2074   7.557   2.209   2.594
    5CHTO    C1 2075   7.636   2.229   2.476
    5CHTO   H14 2076   7.602   2.322   2.424
    5CHTO    C2 2077   7.630   2.109   2.373
    5CHTO   H15 2078   7.652   2.018   2.432
    5CHTO    O6 2079   7.498   2.100   2.318
    5CHTO    H1 2080   7.490   2.022   2.265
    5CHTO    C3 2081   7.738   2.124   2.254
    5CHTO   H16 2082   7.705   2.204   2.187
    5CHTO    N1 2083   7.749   1.998   2.172
    5CHTO    H8 2084   7.782   1.916   2.234
    5CHTO    H9 2085   7.819   2.013   2.091
    5CHTO    C4 2086   7.878   2.169   2.311
    5CHTO   H17 2087   7.924   2.085   2.362
    5CHTO    O1 2088   7.863   2.280   2.401
    5CHTO    C5 2089   7.784   2.254   2.517
    5CHTO   H18 2090   7.820   2.165   2.569
    5CHTO   C16 2091   7.798   2.376   2.611
    5CHTO   O11 2092   7.934   2.396   2.652
    5CHTO    H5 2093   7.985   2.425   2.579
    5CHTO    O3 2094   7.964   2.220   2.206
    5CHTO    C6 2095   8.107   2.197   2.229
    5CHTO   H19 2096   8.127   2.151   2.325
    5CHTO    C8 2097   8.164   2.103   2.118
    5CHTO   H21 2098   8.147   2.150   2.021
    5CHTO    O7 2099   8.093   1.978   2.124
    5CHTO    H2 2100   8.004   1.990   2.097
    5CHTO   C12 2101   8.320   2.083   2.139
    5CHTO   H25 2102   8.331   2.025   2.233
    5CHTO    N3 2103   8.381   1.999   2.030
    5CHTO   H12 2104   8.366   2.046   1.934
    5CHTO   H13 2105   8.338   1.900   2.031
    5CHTO   C15 2106   8.391   2.222   2.157
    5CHTO   H28 2107   8.396   2.277   2.063
    5CHTO   O10 2108   8.534   2.209   2.216
    5CHTO    H4 2109   8.532   2.160   2.297
    5CHTO    O5 2110   8.324   2.302   2.256
    5CHTO   C10 2111   8.187   2.331   2.225
    5CHTO   H23 2112   8.183   2.375   2.125
    5CHTO   C17 2113   8.140   2.437   2.324
    5CHTO   O12 2114   8.017   2.497   2.282
    5CHTO    H6 2115   7.991   2.562   2.344
    6CHTO  H203 2116   7.782   4.797   0.570
    6CHTO   O82 2117   7.698   4.772   0.537
    6CHTO  C123 2118   7.621   4.889   0.505
    6CHTO  H227 2119   7.675   4.947   0.429
    6CHTO   O77 2120   7.500   4.832   0.447
    6CHTO  C118 2121   7.405   4.929   0.399
    6CHTO  H222 2122   7.455   4.996   0.327
    6CHTO  C125 2123   7.289   4.852   0.325
    6CHTO   O84 2124   7.218   4.763   0.412
    6CHTO  H205 2125   7.171   4.812   0.476
    6CHTO  C114 2126   7.354   5.013   0.518
    6CHTO  H218 2127   7.305   4.946   0.589
    6CHTO  C116 2128   7.472   5.082   0.592
    6CHTO  H220 2129   7.515   5.160   0.526
    6CHTO   O79 2130   7.419   5.150   0.707
    6CHTO  H201 2131   7.487   5.199   0.749
    6CHTO  C120 2132   7.584   4.977   0.631
    6CHTO  H224 2133   7.541   4.912   0.710
    6CHTO   N21 2134   7.705   5.041   0.689
    6CHTO  H211 2135   7.719   5.140   0.647
    6CHTO  H212 2136   7.695   5.048   0.796
    6CHTO   O75 2137   7.259   5.106   0.462
    6CHTO  C112 2138   7.113   5.108   0.541
    6CHTO  H216 2139   7.128   5.080   0.647
    6CHTO   O73 2140   7.026   5.016   0.473
    6CHTO  C113 2141   6.896   4.998   0.531
    6CHTO  H217 2142   6.908   4.952   0.631
    6CHTO  C124 2143   6.825   4.896   0.441
    6CHTO   O83 2144   6.697   4.854   0.489
    6CHTO  H204 2145   6.660   4.793   0.428
    6CHTO  C109 2146   6.819   5.134   0.540
    6CHTO  H213 2147   6.798   5.165   0.437
    6CHTO  C110 2148   6.908   5.244   0.607
    6CHTO  H214 2149   6.921   5.220   0.712
    6CHTO   O78 2150   6.837   5.369   0.599
    6CHTO  H200 2151   6.761   5.368   0.654
    6CHTO  C111 2152   7.047   5.252   0.536
    6CHTO  H215 2153   7.032   5.278   0.431
    6CHTO   N19 2154   7.138   5.355   0.594
    6CHTO  H207 2155   7.167   5.426   0.517
    6CHTO  H208 2156   7.225   5.311   0.638
    6CHTO   O74 2157   6.691   5.120   0.610
    6CHTO  C115 2158   6.695   5.072   0.768
    6CHTO  H219 2159   6.793   5.032   0.796
    6CHTO   O76 2160   6.672   5.192   0.866
    6CHTO  C122 2161   6.548   5.260   0.842
    6CHTO  H226 2162   6.559   5.315   0.749
    6CHTO  C126 2163   6.525   5.368   0.954
    6CHTO   O85 2164   6.624   5.471   0.950
    6CHTO  H206 2165   6.708   5.436   0.976
    6CHTO  C121 2166   6.423   5.162   0.833
    6CHTO  H225 2167   6.346   5.197   0.905
    6CHTO   O81 2168   6.366   5.171   0.702
    6CHTO  H202 2169   6.284   5.126   0.699
    6CHTO  C119 2170   6.461   5.015   0.869
    6CHTO  H223 2171   6.490   5.019   0.974
    6CHTO  C117 2172   6.584   4.961   0.786
    6CHTO  H221 2173   6.559   4.931   0.684
    6CHTO   N20 2174   6.640   4.836   0.848
    6CHTO  H209 2175   6.563   4.761   0.857
    6CHTO  H210 2176   6.721   4.798   0.788
    6CHTO   O80 2177   6.333   4.917   0.875
    6CHTO  C103 2178   6.288   4.855   1.014
    6CHTO  H190 2179   6.375   4.822   1.071
    6CHTO  C101 2180   6.200   4.948   1.107
    6CHTO  H188 2181   6.114   4.984   1.049
    6CHTO   O68 2182   6.283   5.070   1.152
    6CHTO  H168 2183   6.307   5.121   1.077
    6CHTO   C99 2184   6.144   4.863   1.231
    6CHTO  H186 2185   6.229   4.822   1.290
    6CHTO   N17 2186   6.057   4.940   1.326
    6CHTO  H174 2187   6.041   5.041   1.290
    6CHTO  H175 2188   6.102   4.942   1.425
    6CHTO   C97 2189   6.068   4.738   1.176
    6CHTO  H184 2190   5.983   4.775   1.118
    6CHTO   O64 2191   6.158   4.660   1.095
    6CHTO  C104 2192   6.204   4.727   0.977
    6CHTO  H191 2193   6.121   4.756   0.913
    6CHTO  C108 2194   6.289   4.629   0.894
    6CHTO   O71 2195   6.209   4.520   0.844
    6CHTO  H171 2196   6.184   4.464   0.915
    6CHTO   O62 2197   6.023   4.647   1.279
    6CHTO   C91 2198   5.893   4.588   1.256
    6CHTO  H178 2199   5.828   4.666   1.215
    6CHTO   C92 2200   5.829   4.549   1.394
    6CHTO  H179 2201   5.841   4.631   1.466
    6CHTO   O66 2202   5.687   4.536   1.374
    6CHTO  H166 2203   5.649   4.620   1.356
    6CHTO   C93 2204   5.880   4.411   1.452
    6CHTO  H180 2205   5.803   4.374   1.522
    6CHTO   N16 2206   6.003   4.425   1.534
    6CHTO  H172 2207   6.032   4.329   1.574
    6CHTO  H173 2208   6.083   4.467   1.475
    6CHTO   C94 2209   5.899   4.304   1.337
    6CHTO  H181 2210   6.004   4.289   1.312
    6CHTO   O61 2211   5.835   4.346   1.215
    6CHTO   C95 2212   5.893   4.463   1.156
    6CHTO  H182 2213   5.996   4.440   1.127
    6CHTO  C106 2214   5.814   4.490   1.024
    6CHTO   O69 2215   5.879   4.590   0.945
    6CHTO  H169 2216   5.829   4.607   0.867
    6CHTO   O63 2217   5.834   4.165   1.380
    6CHTO   C96 2218   5.880   4.051   1.279
    6CHTO  H183 2219   5.960   4.092   1.217
    6CHTO   C98 2220   5.771   3.994   1.184
    6CHTO  H185 2221   5.691   3.948   1.244
    6CHTO   O67 2222   5.708   4.101   1.111
    6CHTO  H167 2223   5.662   4.157   1.170
    6CHTO  C102 2224   5.833   3.888   1.079
    6CHTO  H189 2225   5.860   3.947   0.990
    6CHTO   N18 2226   5.738   3.785   1.031
    6CHTO  H176 2227   5.654   3.833   0.983
    6CHTO  H177 2228   5.787   3.721   0.960
    6CHTO  C105 2229   5.966   3.828   1.134
    6CHTO  H192 2230   5.984   3.730   1.089
    6CHTO   O65 2231   5.970   3.813   1.277
    6CHTO  C100 2232   5.940   3.929   1.359
    6CHTO  H187 2233   5.864   3.897   1.432
    6CHTO  C107 2234   6.065   3.971   1.439
    6CHTO   O70 2235   6.107   3.868   1.529
    6CHTO  H170 2236   6.141   3.795   1.481
    6CHTO   O57 2237   6.077   3.931   1.082
    6CHTO   C85 2238   6.196   3.892   1.013
    6CHTO  H157 2239   6.164   3.827   0.929
    6CHTO   C83 2240   6.288   3.803   1.104
    6CHTO  H155 2241   6.239   3.706   1.116
    6CHTO   O56 2242   6.296   3.860   1.236
    6CHTO  H135 2243   6.341   3.942   1.233
    6CHTO   C81 2244   6.426   3.781   1.036
    6CHTO  H153 2245   6.409   3.732   0.939
    6CHTO   N14 2246   6.513   3.685   1.110
    6CHTO  H141 2247   6.528   3.596   1.052
    6CHTO  H142 2248   6.608   3.728   1.133
    6CHTO   C79 2249   6.495   3.920   1.008
    6CHTO  H151 2250   6.589   3.899   0.956
    6CHTO   O52 2251   6.412   3.995   0.914
    6CHTO   C86 2252   6.276   4.019   0.962
    6CHTO  H158 2253   6.288   4.094   1.043
    6CHTO   C90 2254   6.194   4.091   0.851
    6CHTO   O60 2255   6.251   4.218   0.818
    6CHTO  H138 2256   6.201   4.258   0.750
    6CHTO   O50 2257   6.523   4.000   1.124
    6CHTO   C73 2258   6.577   4.027   1.254
    6CHTO  H145 2259   6.590   3.933   1.310
    6CHTO   C74 2260   6.478   4.118   1.335
    6CHTO  H146 2261   6.380   4.068   1.336
    6CHTO   O54 2262   6.522   4.123   1.472
    6CHTO  H133 2263   6.461   4.172   1.524
    6CHTO   C75 2264   6.470   4.260   1.267
    6CHTO  H147 2265   6.436   4.247   1.163
    6CHTO   N13 2266   6.371   4.351   1.330
    6CHTO  H139 2267   6.273   4.307   1.324
    6CHTO  H140 2268   6.370   4.446   1.278
    6CHTO   C76 2269   6.617   4.323   1.262
    6CHTO  H148 2270   6.652   4.334   1.365
    6CHTO   O49 2271   6.707   4.232   1.190
    6CHTO   C77 2272   6.715   4.100   1.246
    6CHTO  H149 2273   6.756   4.109   1.346
    6CHTO   C88 2274   6.821   4.021   1.168
    6CHTO   O58 2275   6.802   4.024   1.021
    6CHTO  H136 2276   6.870   3.974   0.980
    6CHTO   O51 2277   6.624   4.458   1.179
    6CHTO   C78 2278   6.687   4.580   1.258
    6CHTO  H150 2279   6.690   4.560   1.368
    6CHTO   C80 2280   6.601   4.705   1.232
    6CHTO  H152 2281   6.586   4.716   1.123
    6CHTO   O55 2282   6.471   4.683   1.290
    6CHTO  H134 2283   6.477   4.675   1.384
    6CHTO   C84 2284   6.667   4.838   1.289
    6CHTO  H156 2285   6.662   4.834   1.398
    6CHTO   N15 2286   6.592   4.961   1.246
    6CHTO  H143 2287   6.638   5.048   1.289
    6CHTO  H144 2288   6.593   4.970   1.140
    6CHTO   C87 2289   6.815   4.846   1.246
    6CHTO  H159 2290   6.822   4.861   1.138
    6CHTO   O53 2291   6.884   4.718   1.285
    6CHTO   C82 2292   6.832   4.606   1.212
    6CHTO  H154 2293   6.836   4.624   1.105
    6CHTO   C89 2294   6.924   4.484   1.240
    6CHTO   O59 2295   7.059   4.510   1.200
    6CHTO  H137 2296   7.064   4.515   1.106
    6CHTO   O45 2297   6.893   4.968   1.323
    6CHTO   C67 2298   7.027   4.988   1.276
    6CHTO  H124 2299   7.081   4.893   1.284
    6CHTO   C65 2300   7.031   5.036   1.126
    6CHTO  H122 2301   6.927   5.053   1.097
    6CHTO   O44 2302   7.083   4.926   1.048
    6CHTO  H102 2303   7.073   4.945   0.956
    6CHTO   C63 2304   7.101   5.175   1.108
    6CHTO  H120 2305   7.042   5.250   1.159
    6CHTO   N11 2306   7.104   5.229   0.968
    6CHTO  H108 2307   7.005   5.229   0.927
    6CHTO  H109 2308   7.142   5.330   0.969
    6CHTO   C61 2309   7.241   5.172   1.180
    6CHTO  H118 2310   7.273   5.277   1.187
    6CHTO   O40 2311   7.236   5.121   1.316
    6CHTO   C68 2312   7.105   5.088   1.371
    6CHTO  H125 2313   7.048   5.183   1.379
    6CHTO   C72 2314   7.123   5.034   1.514
    6CHTO   O48 2315   7.204   4.916   1.520
    6CHTO  H105 2316   7.212   4.888   1.609
    6CHTO   O38 2317   7.341   5.094   1.111
    6CHTO   C55 2318   7.477   5.129   1.145
    6CHTO  H112 2319   7.480   5.176   1.245
    6CHTO   C56 2320   7.538   5.223   1.034
    6CHTO  H113 2321   7.535   5.169   0.939
    6CHTO   O42 2322   7.456   5.340   1.019
    6CHTO  H100 2323   7.487   5.392   0.947
    6CHTO   C57 2324   7.686   5.262   1.073
    6CHTO  H114 2325   7.680   5.323   1.163
    6CHTO   N10 2326   7.756   5.343   0.970
    6CHTO  H106 2327   7.738   5.448   0.987
    6CHTO  H107 2328   7.721   5.317   0.871
    6CHTO   C58 2329   7.768   5.134   1.106
    6CHTO  H115 2330   7.792   5.079   1.012
    6CHTO   O37 2331   7.699   5.046   1.197
    6CHTO   C59 2332   7.567   5.003   1.158
    6CHTO  H116 2333   7.571   4.949   1.064
    6CHTO   C70 2334   7.517   4.908   1.268
    6CHTO   O46 2335   7.395   4.841   1.234
    6CHTO  H103 2336   7.369   4.785   1.305
    6CHTO   O39 2337   7.900   5.177   1.184
    6CHTO   C60 2338   8.021   5.105   1.153
    6CHTO  H117 2339   7.998   5.000   1.136
    6CHTO   C62 2340   8.093   5.161   1.026
    6CHTO  H119 2341   8.026   5.136   0.940
    6CHTO   O43 2342   8.103   5.304   1.036
    6CHTO  H101 2343   8.018   5.344   1.031
    6CHTO   C66 2344   8.235   5.089   1.007
    6CHTO  H123 2345   8.220   4.981   1.004
    6CHTO   N12 2346   8.299   5.124   0.878
    6CHTO  H110 2347   8.394   5.073   0.868
    6CHTO  H111 2348   8.234   5.099   0.796
    6CHTO   C69 2349   8.324   5.121   1.130
    6CHTO  H126 2350   8.332   5.232   1.143
    6CHTO   O41 2351   8.254   5.058   1.255
    6CHTO   C64 2352   8.112   5.111   1.280
    6CHTO  H121 2353   8.118   5.217   1.313
    6CHTO   C71 2354   8.047   5.031   1.395
    6CHTO   O47 2355   8.046   4.890   1.368
    6CHTO  H104 2356   8.006   4.845   1.440
    6CHTO   O34 2357   8.475   5.061   1.119
    6CHTO   C49 2358   8.616   5.112   1.061
    6CHTO   H91 2359   8.616   5.091   0.954
    6CHTO   C47 2360   8.728   5.032   1.131
    6CHTO   H89 2361   8.823   5.061   1.082
    6CHTO   O33 2362   8.705   4.892   1.106
    6CHTO   H70 2363   8.627   4.863   1.148
    6CHTO   C45 2364   8.731   5.071   1.287
    6CHTO   H87 2365   8.631   5.048   1.328
    6CHTO    N8 2366   8.831   4.991   1.362
    6CHTO   H75 2367   8.813   4.886   1.346
    6CHTO   H76 2368   8.931   5.017   1.329
    6CHTO   C43 2369   8.748   5.231   1.308
    6CHTO   H85 2370   8.722   5.247   1.413
    6CHTO   O29 2371   8.662   5.307   1.220
    6CHTO   C50 2372   8.637   5.264   1.085
    6CHTO   H92 2373   8.542   5.312   1.056
    6CHTO   C54 2374   8.737   5.328   0.983
    6CHTO   O36 2375   8.872   5.286   1.001
    6CHTO   H72 2376   8.881   5.196   0.980
    6CHTO   O27 2377   8.884   5.278   1.296
    6CHTO   C37 2378   8.975   5.372   1.355
    6CHTO   H79 2379   9.076   5.328   1.356
    6CHTO   C38 2380   8.985   5.503   1.270
    6CHTO   H80 2381   8.883   5.540   1.251
    6CHTO   O31 2382   9.045   5.468   1.144
    6CHTO   H68 2383   9.134   5.438   1.157
    6CHTO   C39 2384   9.069   5.615   1.344
    6CHTO   H81 2385   9.171   5.578   1.354
    6CHTO    N7 2386   9.076   5.745   1.268
    6CHTO   H73 2387   9.179   5.770   1.246
    6CHTO   H74 2388   9.019   5.740   1.177
    6CHTO   C40 2389   9.013   5.636   1.489
    6CHTO   H82 2390   8.912   5.676   1.486
    6CHTO   O26 2391   9.018   5.510   1.559
    6CHTO   C41 2392   8.934   5.406   1.502
    6CHTO   H83 2393   8.829   5.438   1.504
    6CHTO   C52 2394   8.949   5.283   1.595
    6CHTO   O35 2395   8.901   5.309   1.734
    6CHTO   H71 2396   8.955   5.374   1.775
    6CHTO   O28 2397   9.096   5.723   1.569
    6CHTO   C42 2398   9.045   5.795   1.687
    6CHTO   H84 2399   9.135   5.841   1.729
    6CHTO   C44 2400   8.983   5.708   1.802
    6CHTO   H86 2401   8.895   5.656   1.762
    6CHTO   O32 2402   9.081   5.610   1.839
    6CHTO   H69 2403   9.156   5.651   1.877
    6CHTO   C48 2404   8.936   5.797   1.925
    6CHTO   H90 2405   9.025   5.842   1.969
    6CHTO    N9 2406   8.873   5.716   2.034
    6CHTO   H77 2407   8.844   5.781   2.116
    6CHTO   H78 2408   8.942   5.641   2.069
    6CHTO   C51 2409   8.842   5.914   1.874
    6CHTO   H93 2410   8.751   5.870   1.834
    6CHTO   O30 2411   8.913   5.989   1.775
    6CHTO   C46 2412   8.948   5.911   1.650
    6CHTO   H88 2413   8.856   5.870   1.607
    6CHTO   C53 2414   9.014   6.010   1.551
    6CHTO   O72 2415   8.922   6.114   1.515
    6CHTO  H199 2416   8.965   6.175   1.458
    6CHTO   O22 2417   8.812   6.009   1.979
    6CHTO   C31 2418   8.696   6.101   1.974
    6CHTO   H59 2419   8.714   6.175   2.056
    6CHTO   C29 2420   8.682   6.183   1.844
    6CHTO   H57 2421   8.672   6.112   1.760
    6CHTO   O21 2422   8.805   6.256   1.823
    6CHTO   H37 2423   8.876   6.197   1.808
    6CHTO   C27 2424   8.557   6.279   1.846
    6CHTO   H55 2425   8.573   6.356   1.923
    6CHTO    N5 2426   8.534   6.347   1.716
    6CHTO   H43 2427   8.515   6.274   1.638
    6CHTO   H44 2428   8.620   6.407   1.690
    6CHTO   C25 2429   8.430   6.199   1.890
    6CHTO   H53 2430   8.405   6.124   1.812
    6CHTO   O17 2431   8.454   6.128   2.015
    6CHTO   C32 2432   8.561   6.031   2.009
    6CHTO   H60 2433   8.539   5.957   1.932
    6CHTO   C36 2434   8.570   5.960   2.146
    6CHTO   O25 2435   8.451   5.884   2.173
    6CHTO   H40 2436   8.460   5.842   2.256
    6CHTO   O15 2437   8.305   6.295   1.910
    6CHTO   C19 2438   8.208   6.330   2.013
    6CHTO   H47 2439   8.197   6.238   2.072
    6CHTO   C20 2440   8.253   6.445   2.109
    6CHTO   H48 2441   8.274   6.538   2.054
    6CHTO   O19 2442   8.375   6.402   2.172
    6CHTO   H35 2443   8.445   6.401   2.110
    6CHTO   C21 2444   8.141   6.476   2.218
    6CHTO   H49 2445   8.133   6.390   2.285
    6CHTO    N4 2446   8.175   6.594   2.303
    6CHTO   H41 2447   8.098   6.609   2.377
    6CHTO   H42 2448   8.184   6.682   2.242
    6CHTO   C22 2449   8.002   6.492   2.149
    6CHTO   H50 2450   8.002   6.584   2.090
    6CHTO   O14 2451   7.974   6.379   2.065
    6CHTO   C23 2452   8.067   6.363   1.956
    6CHTO   H51 2453   8.067   6.457   1.899
    6CHTO   C34 2454   8.015   6.253   1.863
    6CHTO   O23 2455   8.012   6.125   1.926
    6CHTO   H38 2456   7.980   6.061   1.866
    6CHTO   O16 2457   7.894   6.491   2.245
    6CHTO   C24 2458   7.767   6.579   2.197
    6CHTO   H52 2459   7.777   6.613   2.094
    6CHTO   C26 2460   7.750   6.701   2.290
    6CHTO   H54 2461   7.733   6.665   2.394
    6CHTO   O20 2462   7.873   6.777   2.289
    6CHTO   H36 2463   7.867   6.847   2.351
    6CHTO   C30 2464   7.626   6.785   2.246
    6CHTO   H58 2465   7.643   6.827   2.146
    6CHTO    N6 2466   7.602   6.901   2.335
    6CHTO   H45 2467   7.582   6.868   2.436
    6CHTO   H46 2468   7.518   6.959   2.300
    6CHTO   C33 2469   7.500   6.693   2.235
    6CHTO   H61 2470   7.468   6.662   2.335
    6CHTO   O18 2471   7.528   6.575   2.158
    6CHTO   C28 2472   7.638   6.494   2.204
    6CHTO   H56 2473   7.621   6.462   2.307
    6CHTO   C35 2474   7.648   6.368   2.114
    6CHTO   O24 2475   7.534   6.282   2.127
    6CHTO   H39 2476   7.458   6.324   2.090
    6CHTO    O9 2477   7.388   6.766   2.179
    6CHTO   C13 2478   7.250   6.770   2.266
    6CHTO   H26 2479   7.269   6.832   2.356
    6CHTO   C11 2480   7.203   6.623   2.305
    6CHTO   H24 2481   7.271   6.585   2.383
    6CHTO    O8 2482   7.213   6.534   2.192
    6CHTO    H3 2483   7.303   6.526   2.166
    6CHTO    C9 2484   7.060   6.632   2.366
    6CHTO   H22 2485   7.068   6.705   2.448
    6CHTO    N2 2486   7.014   6.507   2.432
    6CHTO   H10 2487   7.087   6.475   2.505
    6CHTO   H11 2488   6.918   6.523   2.478
    6CHTO    C7 2489   6.962   6.690   2.258
    6CHTO   H20 2490   6.863   6.694   2.309
    6CHTO    O4 2491   7.002   6.824   2.224
    6CHTO   C14 2492   7.138   6.850   2.184
    6CHTO   H27 2493   7.155   6.957   2.205
    6CHTO   C18 2494   7.152   6.831   2.030
    6CHTO   O13 2495   7.073   6.929   1.961
    6CHTO    H7 2496   7.082   6.916   1.868
    6CHTO    O2 2497   6.954   6.598   2.120
    6CHTO    C1 2498   6.824   6.573   2.063
    6CHTO   H14 2499   6.841   6.525   1.964
    6CHTO    C2 2500   6.731   6.700   2.042
    6CHTO   H15 2501   6.721   6.749   2.140
    6CHTO    O6 2502   6.796   6.789   1.949
    6CHTO    H1 2503   6.874   6.825   1.988
    6CHTO    C3 2504   6.586   6.655   1.988
    6CHTO   H16 2505   6.597   6.613   1.887
    6CHTO    N1 2506   6.491   6.771   1.976
    6CHTO    H8 2507   6.530   6.843   1.906
    6CHTO    H9 2508   6.477   6.817   2.072
    6CHTO    C4 2509   6.529   6.539   2.077
    6CHTO   H17 2510   6.505   6.579   2.176
    6CHTO    O1 2511   6.624   6.432   2.088
    6CHTO    C5 2512   6.749   6.467   2.149
    6CHTO   H18 2513   6.732   6.509   2.248
    6CHTO   C16 2514   6.832   6.337   2.163
    6CHTO   O11 2515   6.770   6.245   2.254
    6CHTO    H5 2516   6.775   6.279   2.342
    6CHTO    O3 2517   6.413   6.474   2.018
    6CHTO    C6 2518   6.305   6.438   2.112
    6CHTO   H19 2519   6.323   6.475   2.212
    6CHTO    C8 2520   6.170   6.501   2.065
    6CHTO   H21 2521   6.149   6.466   1.964
    6CHTO    O7 2522   6.188   6.643   2.066
    6CHTO    H2 2523   6.112   6.685   2.029
    6CHTO   C12 2524   6.053   6.455   2.161
    6CHTO   H25 2525   6.076   6.497   2.261
    6CHTO    N3 2526   5.920   6.512   2.120
    6CHTO   H12 2527   5.895   6.479   2.020
    6CHTO   H13 2528   5.923   6.620   2.125
    6CHTO   C15 2529   6.052   6.299   2.172
    6CHTO   H28 2530   6.024   6.252   2.078
    6CHTO   O10 2531   5.960   6.246   2.287
    6CHTO    H4 2532   5.981   6.288   2.368
    6CHTO    O5 2533   6.181   6.251   2.213
    6CHTO   C10 2534   6.289   6.283   2.123
    6CHTO   H23 2535   6.268   6.241   2.025
    6CHTO   C17 2536   6.415   6.214   2.178
    6CHTO   O12 2537   6.400   6.072   2.183
    6CHTO    H6 2538   6.478   6.033   2.217
    7CHTO  H203 2539   5.495   2.287   2.279
    7CHTO   O82 2540   5.550   2.258   2.349
    7CHTO  C123 2541   5.658   2.350   2.368
    7CHTO  H227 2542   5.617   2.450   2.391
    7CHTO   O77 2543   5.727   2.296   2.485
    7CHTO  C118 2544   5.836   2.378   2.531
    7CHTO  H222 2545   5.802   2.481   2.549
    7CHTO  C125 2546   5.889   2.317   2.667
    7CHTO   O84 2547   5.788   2.322   2.769
    7CHTO  H205 2548   5.771   2.411   2.793
    7CHTO  C114 2549   5.946   2.377   2.423
    7CHTO  H218 2550   5.981   2.275   2.409
    7CHTO  C116 2551   5.892   2.429   2.287
    7CHTO  H220 2552   5.874   2.539   2.294
    7CHTO   O79 2553   5.995   2.411   2.187
    7CHTO  H201 2554   5.968   2.448   2.106
    7CHTO  C120 2555   5.758   2.355   2.246
    7CHTO  H224 2556   5.786   2.252   2.217
    7CHTO   N21 2557   5.695   2.417   2.126
    7CHTO  H211 2558   5.629   2.498   2.154
    7CHTO  H212 2559   5.770   2.452   2.057
    7CHTO   O75 2560   6.052   2.460   2.476
    7CHTO  C112 2561   6.200   2.394   2.458
    7CHTO  H216 2562   6.199   2.331   2.368
    7CHTO   O73 2563   6.228   2.318   2.576
    7CHTO  C113 2564   6.351   2.245   2.571
    7CHTO  H217 2565   6.348   2.174   2.485
    7CHTO  C124 2566   6.363   2.162   2.699
    7CHTO   O83 2567   6.258   2.066   2.712
    7CHTO  H204 2568   6.267   2.021   2.794
    7CHTO  C109 2569   6.472   2.342   2.555
    7CHTO  H213 2570   6.477   2.401   2.648
    7CHTO  C110 2571   6.450   2.436   2.433
    7CHTO  H214 2572   6.457   2.376   2.342
    7CHTO   O78 2573   6.558   2.531   2.429
    7CHTO  H200 2574   6.552   2.583   2.351
    7CHTO  C111 2575   6.311   2.505   2.440
    7CHTO  H215 2576   6.308   2.569   2.530
    7CHTO   N19 2577   6.282   2.593   2.324
    7CHTO  H207 2578   6.263   2.694   2.357
    7CHTO  H208 2579   6.198   2.557   2.266
    7CHTO   O74 2580   6.595   2.264   2.542
    7CHTO  C115 2581   6.719   2.330   2.612
    7CHTO  H219 2582   6.720   2.438   2.598
    7CHTO   O76 2583   6.717   2.307   2.774
    7CHTO  C122 2584   6.738   2.170   2.813
    7CHTO  H226 2585   6.658   2.110   2.771
    7CHTO  C126 2586   6.724   2.161   0.137
    7CHTO   O85 2587   6.721   2.027   0.185
    7CHTO  H206 2588   6.710   2.027   0.278
    7CHTO  C121 2589   6.879   2.123   2.758
    7CHTO  H225 2590   6.957   2.193   2.792
    7CHTO   O81 2591   6.915   1.992   2.806
    7CHTO  H202 2592   6.850   1.929   2.780
    7CHTO  C119 2593   6.871   2.126   2.602
    7CHTO  H223 2594   6.968   2.089   2.566
    7CHTO  C117 2595   6.849   2.270   2.544
    7CHTO  H221 2596   6.826   2.273   2.437
    7CHTO   N20 2597   6.968   2.361   2.560
    7CHTO  H209 2598   6.942   2.450   2.615
    7CHTO  H210 2599   7.050   2.310   2.608
    7CHTO   O80 2600   6.773   2.017   2.546
    7CHTO  C103 2601   6.805   1.942   2.409
    7CHTO  H190 2602   6.790   2.008   2.324
    7CHTO  C101 2603   6.947   1.871   2.397
    7CHTO  H188 2604   6.971   1.826   2.494
    7CHTO   O68 2605   7.054   1.979   2.365
    7CHTO  H168 2606   7.140   1.941   2.369
    7CHTO   C99 2607   6.949   1.754   2.286
    7CHTO  H186 2608   6.942   1.800   2.185
    7CHTO   N17 2609   7.075   1.673   2.287
    7CHTO  H174 2610   7.160   1.738   2.274
    7CHTO  H175 2611   7.082   1.618   2.380
    7CHTO   C97 2612   6.823   1.665   2.299
    7CHTO  H184 2613   6.828   1.615   2.397
    7CHTO   O64 2614   6.707   1.750   2.288
    7CHTO  C104 2615   6.690   1.834   2.404
    7CHTO  H191 2616   6.692   1.775   2.496
    7CHTO  C108 2617   6.552   1.899   2.398
    7CHTO   O71 2618   6.448   1.801   2.403
    7CHTO  H171 2619   6.364   1.844   2.399
    7CHTO   O62 2620   6.812   1.565   2.195
    7CHTO   C91 2621   6.701   1.473   2.193
    7CHTO  H178 2622   6.741   1.378   2.156
    7CHTO   C92 2623   6.600   1.522   2.083
    7CHTO  H179 2624   6.581   1.630   2.098
    7CHTO   O66 2625   6.665   1.510   1.956
    7CHTO  H166 2626   6.737   1.571   1.949
    7CHTO   C93 2627   6.463   1.443   2.084
    7CHTO  H180 2628   6.485   1.339   2.054
    7CHTO   N16 2629   6.364   1.494   1.986
    7CHTO  H172 2630   6.274   1.435   1.990
    7CHTO  H173 2631   6.405   1.491   1.886
    7CHTO   C94 2632   6.407   1.443   2.230
    7CHTO  H181 2633   6.397   1.544   2.270
    7CHTO   O61 2634   6.502   1.373   2.313
    7CHTO   C95 2635   6.626   1.441   2.331
    7CHTO  H182 2636   6.608   1.534   2.385
    7CHTO  C106 2637   6.717   1.352   2.423
    7CHTO   O69 2638   6.661   1.341   2.555
    7CHTO  H169 2639   6.716   1.285   2.607
    7CHTO   O63 2640   6.267   1.363   2.244
    7CHTO   C96 2641   6.172   1.426   2.350
    7CHTO  H183 2642   6.167   1.533   2.329
    7CHTO   C98 2643   6.221   1.410   2.498
    7CHTO  H185 2644   6.324   1.447   2.509
    7CHTO   O67 2645   6.140   1.497   2.580
    7CHTO  H167 2646   6.173   1.499   2.667
    7CHTO  C102 2647   6.205   1.260   2.553
    7CHTO  H189 2648   6.198   1.269   2.662
    7CHTO   N18 2649   6.321   1.171   2.527
    7CHTO  H176 2650   6.399   1.223   2.475
    7CHTO  H177 2651   6.360   1.132   2.620
    7CHTO  C105 2652   6.071   1.198   2.502
    7CHTO  H192 2653   6.091   1.126   2.422
    7CHTO   O65 2654   5.978   1.295   2.449
    7CHTO  C100 2655   6.027   1.362   2.332
    7CHTO  H187 2656   6.031   1.288   2.251
    7CHTO  C107 2657   5.922   1.468   2.288
    7CHTO   O70 2658   5.899   1.567   2.389
    7CHTO  H170 2659   5.974   1.622   2.399
    7CHTO   O57 2660   6.009   1.123   2.630
    7CHTO   C85 2661   5.994   0.980   2.625
    7CHTO  H157 2662   6.057   0.944   2.540
    7CHTO   C83 2663   5.848   0.942   2.588
    7CHTO  H155 2664   5.823   0.991   2.493
    7CHTO   O56 2665   5.757   0.996   2.686
    7CHTO  H135 2666   5.771   0.956   2.770
    7CHTO   C81 2667   5.839   0.788   2.568
    7CHTO  H153 2668   5.906   0.761   2.486
    7CHTO   N14 2669   5.705   0.744   2.521
    7CHTO  H141 2670   5.677   0.799   2.433
    7CHTO  H142 2671   5.707   0.640   2.497
    7CHTO   C79 2672   5.888   0.710   2.697
    7CHTO  H151 2673   5.904   0.606   2.667
    7CHTO   O52 2674   6.018   0.758   2.745
    7CHTO   C86 2675   6.029   0.904   2.758
    7CHTO  H158 2676   5.958   0.930   0.007
    7CHTO   C90 2677   6.169   0.943   2.810
    7CHTO   O60 2678   6.190   0.897   0.112
    7CHTO  H138 2679   6.275   0.921   0.141
    7CHTO   O50 2680   5.795   0.710   2.808
    7CHTO   C73 2681   5.780   0.591   0.056
    7CHTO  H145 2682   5.870   0.528   0.048
    7CHTO   C74 2683   5.658   0.508   0.005
    7CHTO  H146 2684   5.675   0.488   2.730
    7CHTO   O54 2685   5.661   0.380   0.071
    7CHTO  H133 2686   5.593   0.325   0.037
    7CHTO   C75 2687   5.525   0.589   0.029
    7CHTO  H147 2688   5.531   0.683   2.805
    7CHTO   N13 2689   5.403   0.519   2.811
    7CHTO  H139 2690   5.353   0.579   2.737
    7CHTO  H140 2691   5.334   0.499   0.060
    7CHTO   C76 2692   5.516   0.627   0.185
    7CHTO  H148 2693   5.511   0.534   0.241
    7CHTO   O49 2694   5.636   0.701   0.225
    7CHTO   C77 2695   5.758   0.629   0.205
    7CHTO  H149 2696   5.757   0.538   0.265
    7CHTO   C88 2697   5.875   0.712   0.260
    7CHTO   O58 2698   5.861   0.735   0.408
    7CHTO  H136 2699   5.787   0.789   0.425
    7CHTO   O51 2700   5.396   0.723   0.215
    7CHTO   C78 2701   5.370   0.738   0.371
    7CHTO  H150 2702   5.459   0.705   0.430
    7CHTO   C80 2703   5.249   0.652   0.411
    7CHTO  H152 2704   5.163   0.681   0.346
    7CHTO   O55 2705   5.281   0.515   0.383
    7CHTO  H134 2706   5.352   0.486   0.437
    7CHTO   C84 2707   5.209   0.675   0.562
    7CHTO  H156 2708   5.293   0.641   0.624
    7CHTO   N15 2709   5.089   0.594   0.605
    7CHTO  H143 2710   5.005   0.619   0.544
    7CHTO  H144 2711   5.110   0.490   0.594
    7CHTO   C87 2712   5.188   0.826   0.588
    7CHTO  H159 2713   5.102   0.862   0.532
    7CHTO   O53 2714   5.318   0.902   0.543
    7CHTO   C82 2715   5.347   0.887   0.403
    7CHTO  H154 2716   5.267   0.929   0.343
    7CHTO   C89 2717   5.474   0.973   0.376
    7CHTO   O59 2718   5.505   0.983   0.236
    7CHTO  H137 2719   5.439   1.033   0.192
    7CHTO   O45 2720   5.157   0.854   0.754
    7CHTO   C67 2721   5.241   0.948   0.822
    7CHTO  H124 2722   5.337   0.956   0.770
    7CHTO   C65 2723   5.175   1.090   0.828
    7CHTO  H122 2724   5.067   1.074   0.822
    7CHTO   O44 2725   5.217   1.160   0.709
    7CHTO  H102 2726   5.307   1.185   0.716
    7CHTO   C63 2727   5.198   1.163   0.967
    7CHTO  H120 2728   5.133   1.116   1.041
    7CHTO   N11 2729   5.154   1.306   0.976
    7CHTO  H108 2730   5.052   1.315   0.944
    7CHTO  H109 2731   5.216   1.367   0.914
    7CHTO   C61 2732   5.345   1.136   1.013
    7CHTO  H118 2733   5.357   1.182   1.113
    7CHTO   O40 2734   5.372   0.992   1.031
    7CHTO   C68 2735   5.278   0.898   0.968
    7CHTO  H125 2736   5.186   0.894   1.030
    7CHTO   C72 2737   5.340   0.756   0.968
    7CHTO   O48 2738   5.460   0.747   0.892
    7CHTO  H105 2739   5.492   0.659   0.893
    7CHTO   O38 2740   5.440   1.193   0.921
    7CHTO   C55 2741   5.578   1.195   0.963
    7CHTO  H112 2742   5.596   1.119   1.041
    7CHTO   C56 2743   5.619   1.340   1.012
    7CHTO  H113 2744   5.593   1.410   0.932
    7CHTO   O42 2745   5.540   1.377   1.126
    7CHTO  H100 2746   5.450   1.384   1.102
    7CHTO   C57 2747   5.774   1.347   1.043
    7CHTO  H114 2748   5.792   1.286   1.132
    7CHTO   N10 2749   5.823   1.484   1.075
    7CHTO  H106 2750   5.745   1.542   1.123
    7CHTO  H107 2751   5.909   1.479   1.141
    7CHTO   C58 2752   5.855   1.287   0.925
    7CHTO  H115 2753   5.844   1.354   0.836
    7CHTO   O37 2754   5.806   1.156   0.892
    7CHTO   C59 2755   5.670   1.156   0.844
    7CHTO  H116 2756   5.659   1.226   0.762
    7CHTO   C70 2757   5.638   1.015   0.791
    7CHTO   O46 2758   5.717   0.979   0.677
    7CHTO  H103 2759   5.692   1.032   0.603
    7CHTO   O39 2760   6.015   1.273   0.964
    7CHTO   C60 2761   6.091   1.181   0.884
    7CHTO  H117 2762   6.043   1.083   0.888
    7CHTO   C62 2763   6.097   1.224   0.734
    7CHTO  H119 2764   5.992   1.225   0.697
    7CHTO   O43 2765   6.150   1.358   0.725
    7CHTO  H101 2766   6.148   1.387   0.636
    7CHTO   C66 2767   6.181   1.115   0.651
    7CHTO  H123 2768   6.133   1.018   0.664
    7CHTO   N12 2769   6.179   1.143   0.505
    7CHTO  H110 2770   6.138   1.059   0.451
    7CHTO  H111 2771   6.278   1.168   0.469
    7CHTO   C69 2772   6.323   1.104   0.712
    7CHTO  H126 2773   6.377   1.201   0.703
    7CHTO   O41 2774   6.312   1.064   0.861
    7CHTO   C64 2775   6.234   1.164   0.943
    7CHTO  H121 2776   6.286   1.263   0.941
    7CHTO   C71 2777   6.230   1.113   1.089
    7CHTO   O47 2778   6.188   1.214   1.181
    7CHTO  H104 2779   6.099   1.237   1.165
    7CHTO   O34 2780   6.404   0.999   0.640
    7CHTO   C49 2781   6.480   0.894   0.571
    7CHTO   H91 2782   6.515   0.826   0.649
    7CHTO   C47 2783   6.603   0.956   0.500
    7CHTO   H89 2784   6.684   0.954   0.576
    7CHTO   O33 2785   6.580   1.092   0.461
    7CHTO   H70 2786   6.510   1.098   0.398
    7CHTO   C45 2787   6.645   0.871   0.368
    7CHTO   H87 2788   6.587   0.910   0.283
    7CHTO    N8 2789   6.789   0.892   0.338
    7CHTO   H75 2790   6.849   0.846   0.415
    7CHTO   H76 2791   6.812   0.848   0.242
    7CHTO   C43 2792   6.600   0.718   0.381
    7CHTO   H85 2793   6.636   0.667   0.292
    7CHTO   O29 2794   6.457   0.711   0.392
    7CHTO   C50 2795   6.391   0.811   0.472
    7CHTO   H92 2796   6.340   0.882   0.405
    7CHTO   C54 2797   6.275   0.743   0.549
    7CHTO   O36 2798   6.176   0.691   0.460
    7CHTO   H72 2799   6.131   0.761   0.417
    7CHTO   O27 2800   6.660   0.652   0.494
    7CHTO   C37 2801   6.697   0.519   0.531
    7CHTO   H79 2802   6.685   0.506   0.640
    7CHTO   C38 2803   6.608   0.410   0.463
    7CHTO   H80 2804   6.606   0.430   0.354
    7CHTO   O31 2805   6.474   0.424   0.514
    7CHTO   H68 2806   6.471   0.406   0.606
    7CHTO   C39 2807   6.664   0.264   0.487
    7CHTO   H81 2808   6.651   0.241   0.593
    7CHTO    N7 2809   6.590   0.158   0.410
    7CHTO   H73 2810   6.486   0.157   0.439
    7CHTO   H74 2811   6.598   0.177   0.304
    7CHTO   C40 2812   6.818   0.259   0.457
    7CHTO   H82 2813   6.836   0.271   0.350
    7CHTO   O26 2814   6.884   0.360   0.534
    7CHTO   C41 2815   6.846   0.495   0.495
    7CHTO   H83 2816   6.861   0.508   0.387
    7CHTO   C52 2817   6.941   0.593   0.568
    7CHTO   O35 2818   7.081   0.573   0.528
    7CHTO   H71 2819   7.135   0.634   0.575
    7CHTO   O28 2820   6.884   0.138   0.500
    7CHTO   C42 2821   7.011   0.097   0.438
    7CHTO   H84 2822   7.050   0.022   0.507
    7CHTO   C44 2823   7.122   0.208   0.426
    7CHTO   H86 2824   7.080   0.294   0.374
    7CHTO   O32 2825   7.155   0.249   0.560
    7CHTO   H69 2826   7.084   0.296   0.599
    7CHTO   C48 2827   7.250   0.161   0.346
    7CHTO   H90 2828   7.303   0.087   0.406
    7CHTO    N9 2829   7.348   0.273   0.324
    7CHTO   H77 2830   7.435   0.237   0.272
    7CHTO   H78 2831   7.300   0.353   0.268
    7CHTO   C51 2832   7.205   0.093   0.212
    7CHTO   H93 2833   7.153   0.168   0.152
    7CHTO   O30 2834   7.120   9.983   0.245
    7CHTO   C46 2835   6.989   0.026   0.301
    7CHTO   H88 2836   6.941   0.095   0.232
    7CHTO   C53 2837   6.901   9.900   0.317
    7CHTO   O72 2838   6.877   9.839   0.190
    7CHTO  H199 2839   6.830   9.759   0.202
    7CHTO   O22 2840   7.313   0.035   0.136
    7CHTO   C31 2841   7.305   0.029   2.821
    7CHTO   H59 2842   7.387   9.961   2.789
    7CHTO   C29 2843   7.173   9.968   2.765
    7CHTO   H57 2844   7.090   0.024   2.809
    7CHTO   O21 2845   7.163   9.833   2.816
    7CHTO   H37 2846   7.079   9.797   2.796
    7CHTO   C27 2847   7.164   9.975   2.608
    7CHTO   H55 2848   7.242   9.911   2.565
    7CHTO    N5 2849   7.032   9.928   2.557
    7CHTO   H43 2850   6.982   0.004   2.499
    7CHTO   H44 2851   7.045   9.838   2.498
    7CHTO   C25 2852   7.195   0.122   2.563
    7CHTO   H53 2853   7.119   0.189   2.607
    7CHTO   O17 2854   7.326   0.161   2.612
    7CHTO   C32 2855   7.336   0.167   2.755
    7CHTO   H60 2856   7.265   0.240   2.793
    7CHTO   C36 2857   7.479   0.213   2.791
    7CHTO   O25 2858   7.505   0.345   2.742
    7CHTO   H40 2859   7.593   0.370   2.765
    7CHTO   O15 2860   7.194   0.139   2.405
    7CHTO   C19 2861   7.183   0.265   2.333
    7CHTO   H47 2862   7.168   0.233   2.229
    7CHTO   C20 2863   7.060   0.351   2.376
    7CHTO   H48 2864   7.062   0.375   2.484
    7CHTO   O19 2865   6.942   0.271   2.353
    7CHTO   H35 2866   6.932   0.254   2.261
    7CHTO   C21 2867   7.052   0.488   2.297
    7CHTO   H49 2868   7.030   0.467   2.192
    7CHTO    N4 2869   6.943   0.577   2.346
    7CHTO   H41 2870   6.848   0.527   2.335
    7CHTO   H42 2871   6.941   0.668   2.289
    7CHTO   C22 2872   7.191   0.558   2.301
    7CHTO   H50 2873   7.213   0.590   2.403
    7CHTO   O14 2874   7.293   0.468   2.254
    7CHTO   C23 2875   7.313   0.351   2.335
    7CHTO   H51 2876   7.339   0.384   2.437
    7CHTO   C34 2877   7.433   0.278   2.274
    7CHTO   O23 2878   7.477   0.169   2.357
    7CHTO   H38 2879   7.552   0.128   2.317
    7CHTO   O16 2880   7.200   0.669   2.208
    7CHTO   C24 2881   7.248   0.812   2.274
    7CHTO   H52 2882   7.248   0.809   2.383
    7CHTO   C26 2883   7.153   0.923   2.226
    7CHTO   H54 2884   7.151   0.923   2.114
    7CHTO   O20 2885   7.020   0.893   2.273
    7CHTO   H36 2886   6.987   0.818   2.230
    7CHTO   C30 2887   7.202   1.064   2.274
    7CHTO   H58 2888   7.195   1.070   2.383
    7CHTO    N6 2889   7.115   1.174   2.222
    7CHTO   H45 2890   7.014   1.161   2.257
    7CHTO   H46 2891   7.115   1.173   2.114
    7CHTO   C33 2892   7.352   1.086   2.237
    7CHTO   H61 2893   7.363   1.093   2.128
    7CHTO   O18 2894   7.431   0.974   2.283
    7CHTO   C28 2895   7.394   0.846   2.230
    7CHTO   H56 2896   7.398   0.846   2.121
    7CHTO   C35 2897   7.495   0.740   2.281
    7CHTO   O24 2898   7.499   0.727   2.424
    7CHTO   H39 2899   7.533   0.805   2.462
    7CHTO    O9 2900   7.402   1.210   2.290
    7CHTO   C13 2901   7.524   1.279   2.209
    7CHTO   H26 2902   7.517   1.250   2.103
    7CHTO   C11 2903   7.662   1.233   2.272
    7CHTO   H24 2904   7.674   1.125   2.252
    7CHTO    O8 2905   7.661   1.250   2.415
    7CHTO    H3 2906   7.597   1.193   2.454
    7CHTO    C9 2907   7.776   1.311   2.201
    7CHTO   H22 2908   7.764   1.290   2.094
    7CHTO    N2 2909   7.912   1.261   2.233
    7CHTO   H10 2910   7.934   1.279   2.338
    7CHTO   H11 2911   7.920   1.156   2.211
    7CHTO    C7 2912   7.758   1.465   2.224
    7CHTO   H20 2913   7.833   1.511   2.157
    7CHTO    O4 2914   7.628   1.511   2.181
    7CHTO   C14 2915   7.508   1.437   2.212
    7CHTO   H27 2916   7.435   1.463   2.132
    7CHTO   C18 2917   7.448   1.489   2.345
    7CHTO   O13 2918   7.409   1.626   2.333
    7CHTO    H7 2919   7.374   1.656   2.415
    7CHTO    O2 2920   7.786   1.513   2.383
    7CHTO    C1 2921   7.847   1.642   2.398
    7CHTO   H14 2922   7.800   1.714   2.328
    7CHTO    C2 2923   8.005   1.644   2.375
    7CHTO   H15 2924   8.046   1.565   2.441
    7CHTO    O6 2925   8.034   1.611   2.238
    7CHTO    H1 2926   8.127   1.602   2.226
    7CHTO    C3 2927   8.068   1.787   2.413
    7CHTO   H16 2928   8.036   1.860   2.338
    7CHTO    N1 2929   8.219   1.784   2.410
    7CHTO    H8 2930   8.258   1.882   2.433
    7CHTO    H9 2931   8.255   1.712   2.483
    7CHTO    C4 2932   8.013   1.841   2.551
    7CHTO   H17 2933   8.059   1.786   2.633
    7CHTO    O1 2934   7.870   1.829   2.557
    7CHTO    C5 2935   7.820   1.695   2.542
    7CHTO   H18 2936   7.873   1.630   2.612
    7CHTO   C16 2937   7.670   1.696   2.580
    7CHTO   O11 2938   7.594   1.785   2.498
    7CHTO    H5 2939   7.504   1.783   2.524
    7CHTO    O3 2940   8.033   1.983   2.565
    7CHTO    C6 2941   8.125   2.031   2.668
    7CHTO   H19 2942   8.193   1.953   2.705
    7CHTO    C8 2943   8.213   2.147   2.609
    7CHTO   H21 2944   8.146   2.220   2.563
    7CHTO    O7 2945   8.298   2.090   2.508
    7CHTO    H2 2946   8.247   2.063   2.434
    7CHTO   C12 2947   8.298   2.219   2.721
    7CHTO   H25 2948   8.374   2.145   2.754
    7CHTO    N3 2949   8.373   2.337   2.664
    7CHTO   H12 2950   8.479   2.325   2.680
    7CHTO   H13 2951   8.339   2.429   2.708
    7CHTO   C15 2952   8.206   2.255   0.011
    7CHTO   H28 2953   8.136   2.335   2.818
    7CHTO   O10 2954   8.288   2.297   0.137
    7CHTO    H4 2955   8.352   2.232   0.158
    7CHTO    O5 2956   8.136   2.139   0.058
    7CHTO   C10 2957   8.046   2.083   2.792
    7CHTO   H23 2958   7.976   2.160   2.761
    7CHTO   C17 2959   7.965   1.973   0.030
    7CHTO   O12 2960   7.881   2.026   0.133
    7CHTO    H6 2961   7.813   2.079   0.095
    8CHTO  H203 2962   7.225   9.472   1.334
    8CHTO   O82 2963   7.265   9.391   1.306
    8CHTO  C123 2964   7.267   9.297   1.414
    8CHTO  H227 2965   7.303   9.347   1.505
    8CHTO   O77 2966   7.127   9.260   1.429
    8CHTO  C118 2967   7.099   9.171   1.538
    8CHTO  H222 2968   7.131   9.215   1.633
    8CHTO  C125 2969   6.943   9.155   1.538
    8CHTO   O84 2970   6.893   9.093   1.656
    8CHTO  H205 2971   6.799   9.086   1.651
    8CHTO  C114 2972   7.172   9.036   1.515
    8CHTO  H218 2973   7.131   8.988   1.427
    8CHTO  C116 2974   7.325   9.057   1.491
    8CHTO  H220 2975   7.373   9.087   1.588
    8CHTO   O79 2976   7.383   8.930   1.455
    8CHTO  H201 2977   7.380   8.871   1.528
    8CHTO  C120 2978   7.352   9.168   1.381
    8CHTO  H224 2979   7.319   9.125   1.285
    8CHTO   N21 2980   7.497   9.199   1.368
    8CHTO  H211 2981   7.519   9.231   1.268
    8CHTO  H212 2982   7.557   9.113   1.393
    8CHTO   O75 2983   7.145   8.958   1.633
    8CHTO  C112 2984   7.075   8.809   1.608
    8CHTO  H216 2985   7.146   8.744   1.554
    8CHTO   O73 2986   6.955   8.832   1.531
    8CHTO  C113 2987   6.864   8.722   1.519
    8CHTO  H217 2988   6.917   8.637   1.470
    8CHTO  C124 2989   6.751   8.766   1.425
    8CHTO   O83 2990   6.683   8.884   1.468
    8CHTO  H204 2991   6.635   8.866   1.547
    8CHTO  C109 2992   6.814   8.679   1.659
    8CHTO  H213 2993   6.767   8.768   1.704
    8CHTO  C110 2994   6.937   8.633   1.742
    8CHTO  H214 2995   6.981   8.546   1.694
    8CHTO   O78 2996   6.892   8.593   1.873
    8CHTO  H200 2997   6.964   8.556   1.922
    8CHTO  C111 2998   7.042   8.748   1.750
    8CHTO  H215 2999   6.998   8.830   1.810
    8CHTO   N19 3000   7.169   8.710   1.817
    8CHTO  H207 3001   7.148   8.675   1.918
    8CHTO  H208 3002   7.235   8.794   1.823
    8CHTO   O74 3003   6.713   8.573   1.647
    8CHTO  C115 3004   6.579   8.591   1.741
    8CHTO  H219 3005   6.543   8.495   1.778
    8CHTO   O76 3006   6.611   8.679   1.877
    8CHTO  C122 3007   6.497   8.702   1.962
    8CHTO  H226 3008   6.519   8.793   2.019
    8CHTO  C126 3009   6.485   8.588   2.070
    8CHTO   O85 3010   6.464   8.457   2.015
    8CHTO  H206 3011   6.458   8.394   2.084
    8CHTO  C121 3012   6.361   8.724   1.883
    8CHTO  H225 3013   6.306   8.627   1.878
    8CHTO   O81 3014   6.278   8.818   1.952
    8CHTO  H202 3015   6.252   8.785   2.035
    8CHTO  C119 3016   6.392   8.771   1.738
    8CHTO  H223 3017   6.295   8.792   1.691
    8CHTO  C117 3018   6.466   8.660   1.653
    8CHTO  H221 3019   6.518   8.698   1.566
    8CHTO   N20 3020   6.370   8.557   1.600
    8CHTO  H209 3021   6.321   8.506   1.681
    8CHTO  H210 3022   6.297   8.604   1.536
    8CHTO   O80 3023   6.462   8.912   1.730
    8CHTO  C103 3024   6.372   9.045   1.710
    8CHTO  H190 3025   6.266   9.020   1.708
    8CHTO  C101 3026   6.395   9.159   1.818
    8CHTO  H188 3027   6.502   9.176   1.829
    8CHTO   O68 3028   6.338   9.110   1.955
    8CHTO  H168 3029   6.387   9.035   1.984
    8CHTO   C99 3030   6.326   9.296   1.771
    8CHTO  H186 3031   6.217   9.280   1.759
    8CHTO   N17 3032   6.343   9.410   1.867
    8CHTO  H174 3033   6.288   9.496   1.832
    8CHTO  H175 3034   6.448   9.433   1.879
    8CHTO   C97 3035   6.379   9.331   1.629
    8CHTO  H184 3036   6.488   9.346   1.635
    8CHTO   O64 3037   6.345   9.224   1.539
    8CHTO  C104 3038   6.410   9.099   1.567
    8CHTO  H191 3039   6.519   9.108   1.560
    8CHTO  C108 3040   6.368   8.999   1.458
    8CHTO   O71 3041   6.415   9.040   1.329
    8CHTO  H171 3042   6.387   8.977   1.265
    8CHTO   O62 3043   6.314   9.445   1.569
    8CHTO   C91 3044   6.392   9.521   1.474
    8CHTO  H178 3045   6.487   9.470   1.457
    8CHTO   C92 3046   6.427   9.660   1.537
    8CHTO  H179 3047   6.334   9.704   1.576
    8CHTO   O66 3048   6.511   9.637   1.652
    8CHTO  H166 3049   6.463   9.593   1.720
    8CHTO   C93 3050   6.498   9.758   1.436
    8CHTO  H180 3051   6.599   9.720   1.419
    8CHTO   N16 3052   6.515   9.895   1.490
    8CHTO  H172 3053   6.419   9.938   1.515
    8CHTO  H173 3054   6.580   9.893   1.576
    8CHTO   C94 3055   6.421   9.761   1.299
    8CHTO  H181 3056   6.320   9.802   1.309
    8CHTO   O61 3057   6.406   9.627   1.249
    8CHTO   C95 3058   6.325   9.543   1.333
    8CHTO  H182 3059   6.227   9.590   1.347
    8CHTO  C106 3060   6.300   9.407   1.259
    8CHTO   O69 3061   6.221   9.425   1.141
    8CHTO  H169 3062   6.134   9.449   1.164
    8CHTO   O63 3063   6.505   9.848   1.186
    8CHTO   C96 3064   6.431   9.858   1.045
    8CHTO  H183 3065   6.350   9.784   1.043
    8CHTO   C98 3066   6.524   9.829   0.924
    8CHTO  H185 3067   6.613   9.894   0.931
    8CHTO   O67 3068   6.573   9.695   0.939
    8CHTO  H167 3069   6.635   9.675   0.871
    8CHTO  C102 3070   6.450   9.849   0.782
    8CHTO  H189 3071   6.380   9.765   0.773
    8CHTO   N18 3072   6.538   9.839   0.663
    8CHTO  H176 3073   6.583   9.741   0.659
    8CHTO  H177 3074   6.616   9.915   0.668
    8CHTO  C105 3075   6.367   9.981   0.782
    8CHTO  H192 3076   6.434   0.066   0.768
    8CHTO   O65 3077   6.292   0.000   0.903
    8CHTO  C100 3078   6.367   0.001   1.025
    8CHTO  H187 3079   6.446   0.076   1.018
    8CHTO  C107 3080   6.267   0.043   1.135
    8CHTO   O70 3081   6.333   0.075   1.258
    8CHTO  H170 3082   6.371   9.997   1.295
    8CHTO   O57 3083   6.259   9.969   0.654
    8CHTO   C85 3084   6.203   0.087   0.593
    8CHTO  H157 3085   6.289   0.143   0.550
    8CHTO   C83 3086   6.139   0.183   0.699
    8CHTO  H155 3087   6.218   0.216   0.767
    8CHTO   O56 3088   6.045   0.109   0.780
    8CHTO  H135 3089   6.089   0.042   0.829
    8CHTO   C81 3090   6.079   0.307   0.627
    8CHTO  H153 3091   6.157   0.352   0.567
    8CHTO   N14 3092   6.038   0.414   0.722
    8CHTO  H141 3093   6.098   0.501   0.709
    8CHTO  H142 3094   5.935   0.440   0.709
    8CHTO   C79 3095   5.964   0.261   0.530
    8CHTO  H151 3096   5.930   0.349   0.476
    8CHTO   O52 3097   6.019   0.169   0.430
    8CHTO   C86 3098   6.094   0.054   0.483
    8CHTO  H158 3099   6.016   9.987   0.524
    8CHTO   C90 3100   6.160   9.977   0.365
    8CHTO   O60 3101   6.061   9.925   0.276
    8CHTO  H138 3102   6.019   9.995   0.230
    8CHTO   O50 3103   5.849   0.203   0.596
    8CHTO   C73 3104   5.717   0.159   0.560
    8CHTO  H145 3105   5.717   0.119   0.458
    8CHTO   C74 3106   5.613   0.276   0.567
    8CHTO  H146 3107   5.650   0.356   0.501
    8CHTO   O54 3108   5.490   0.229   0.508
    8CHTO  H133 3109   5.453   0.160   0.559
    8CHTO   C75 3110   5.598   0.325   0.716
    8CHTO  H147 3111   5.693   0.372   0.746
    8CHTO   N13 3112   5.496   0.431   0.735
    8CHTO  H139 3113   5.521   0.518   0.675
    8CHTO  H140 3114   5.399   0.394   0.703
    8CHTO   C76 3115   5.574   0.203   0.817
    8CHTO  H148 3116   5.473   0.165   0.803
    8CHTO   O49 3117   5.670   0.094   0.794
    8CHTO   C77 3118   5.671   0.047   0.658
    8CHTO  H149 3119   5.570   0.014   0.630
    8CHTO   C88 3120   5.759   9.922   0.649
    8CHTO   O58 3121   5.755   9.866   0.513
    8CHTO  H136 3122   5.810   9.790   0.509
    8CHTO   O51 3123   5.601   0.255   0.972
    8CHTO   C78 3124   5.614   0.143   1.086
    8CHTO  H150 3125   5.621   0.041   1.041
    8CHTO   C80 3126   5.490   0.148   1.178
    8CHTO  H152 3127   5.475   0.254   1.211
    8CHTO   O55 3128   5.377   0.109   1.099
    8CHTO  H134 3129   5.356   0.175   1.036
    8CHTO   C84 3130   5.505   0.056   1.306
    8CHTO  H156 3131   5.501   9.953   1.273
    8CHTO   N15 3132   5.391   0.072   1.403
    8CHTO  H143 3133   5.341   9.979   1.419
    8CHTO  H144 3134   5.425   0.110   1.497
    8CHTO   C87 3135   5.643   0.077   1.374
    8CHTO  H159 3136   5.645   0.176   1.421
    8CHTO   O53 3137   5.753   0.067   1.269
    8CHTO   C82 3138   5.742   0.168   1.167
    8CHTO  H154 3139   5.742   0.268   1.212
    8CHTO   C89 3140   5.870   0.157   1.081
    8CHTO   O59 3141   5.885   0.268   0.992
    8CHTO  H137 3142   5.962   0.257   0.941
    8CHTO   O45 3143   5.672   9.962   1.493
    8CHTO   C67 3144   5.710   9.832   1.445
    8CHTO  H124 3145   5.668   9.813   1.347
    8CHTO   C65 3146   5.866   9.821   1.437
    8CHTO  H122 3147   5.900   9.911   1.387
    8CHTO   O44 3148   5.902   9.707   1.357
    8CHTO  H102 3149   5.995   9.706   1.343
    8CHTO   C63 3150   5.926   9.825   1.581
    8CHTO  H120 3151   5.886   9.912   1.633
    8CHTO   N11 3152   6.074   9.851   1.589
    8CHTO  H108 3153   6.103   9.864   1.691
    8CHTO  H109 3154   6.127   9.768   1.547
    8CHTO   C61 3155   5.877   9.698   1.660
    8CHTO  H118 3156   5.908   9.716   1.764
    8CHTO   O40 3157   5.731   9.690   1.661
    8CHTO   C68 3158   5.649   9.722   1.543
    8CHTO  H125 3159   5.554   9.763   1.582
    8CHTO   C72 3160   5.612   9.590   1.469
    8CHTO   O48 3161   5.509   9.606   1.371
    8CHTO  H105 3162   5.428   9.626   1.413
    8CHTO   O38 3163   5.940   9.577   1.613
    8CHTO   C55 3164   5.894   9.446   1.655
    8CHTO  H112 3165   5.786   9.438   1.634
    8CHTO   C56 3166   5.927   9.414   1.807
    8CHTO  H113 3167   6.036   9.426   1.820
    8CHTO   O42 3168   5.865   9.510   1.894
    8CHTO  H100 3169   5.892   9.496   1.983
    8CHTO   C57 3170   5.881   9.267   1.844
    8CHTO  H114 3171   5.772   9.272   1.846
    8CHTO   N10 3172   5.925   9.220   1.978
    8CHTO  H106 3173   5.932   9.304   2.046
    8CHTO  H107 3174   5.855   9.149   2.017
    8CHTO   C58 3175   5.924   9.163   1.736
    8CHTO  H115 3176   6.032   9.136   1.751
    8CHTO   O37 3177   5.907   9.208   1.601
    8CHTO   C59 3178   5.963   9.337   1.569
    8CHTO  H116 3179   6.070   9.335   1.588
    8CHTO   C70 3180   5.945   9.360   1.418
    8CHTO   O46 3181   5.810   9.345   1.372
    8CHTO  H103 3182   5.756   9.414   1.407
    8CHTO   O39 3183   5.828   9.021   1.746
    8CHTO   C60 3184   5.684   9.037   1.753
    8CHTO  H117 3185   5.659   9.089   1.846
    8CHTO   C62 3186   5.624   9.119   1.635
    8CHTO  H119 3187   5.668   9.220   1.640
    8CHTO   O43 3188   5.662   9.057   1.511
    8CHTO  H101 3189   5.633   9.109   1.438
    8CHTO   C66 3190   5.465   9.133   1.653
    8CHTO  H123 3191   5.445   9.183   1.748
    8CHTO   N12 3192   5.406   9.221   1.548
    8CHTO  H110 3193   5.299   9.231   1.564
    8CHTO  H111 3194   5.426   9.180   1.450
    8CHTO   C69 3195   5.399   8.993   1.659
    8CHTO  H126 3196   5.416   8.940   1.562
    8CHTO   O41 3197   5.465   8.910   1.775
    8CHTO   C64 3198   5.617   8.897   1.761
    8CHTO  H121 3199   5.640   8.841   1.668
    8CHTO   C71 3200   5.671   8.813   1.879
    8CHTO   O47 3201   5.639   8.870   2.006
    8CHTO  H104 3202   5.547   8.865   2.021
    8CHTO   O34 3203   5.246   9.001   1.684
    8CHTO   C49 3204   5.128   9.041   1.773
    8CHTO   H91 3205   5.127   8.972   1.857
    8CHTO   C47 3206   4.998   9.025   1.690
    8CHTO   H89 3207   4.914   9.047   1.759
    8CHTO   O33 3208   4.988   8.888   1.648
    8CHTO   H70 3209   5.056   8.868   1.586
    8CHTO   C45 3210   5.000   9.132   1.569
    8CHTO   H87 3211   5.090   9.112   1.509
    8CHTO    N8 3212   4.881   9.117   1.481
    8CHTO   H75 3213   4.791   9.140   1.535
    8CHTO   H76 3214   4.876   9.015   1.443
    8CHTO   C43 3215   5.020   9.283   1.625
    8CHTO   H85 3216   5.042   9.343   1.537
    8CHTO   O29 3217   5.127   9.288   1.721
    8CHTO   C50 3218   5.139   9.187   1.824
    8CHTO   H92 3219   5.238   9.199   1.869
    8CHTO   C54 3220   5.042   9.218   1.942
    8CHTO   O36 3221   5.056   9.125   2.051
    8CHTO   H72 3222   5.026   9.040   2.024
    8CHTO   O27 3223   4.901   9.342   1.682
    8CHTO   C37 3224   4.860   9.477   1.711
    8CHTO   H79 3225   4.803   9.477   1.805
    8CHTO   C38 3226   4.982   9.573   1.735
    8CHTO   H80 3227   5.054   9.558   1.652
    8CHTO   O31 3228   5.047   9.533   1.857
    8CHTO   H68 3229   4.989   9.543   1.930
    8CHTO   C39 3230   4.943   9.726   1.742
    8CHTO   H81 3231   4.889   9.741   1.835
    8CHTO    N7 3232   5.063   9.817   1.745
    8CHTO   H73 3233   5.031   9.920   1.751
    8CHTO   H74 3234   5.125   9.793   1.831
    8CHTO   C40 3235   4.846   9.762   1.624
    8CHTO   H82 3236   4.899   9.757   1.529
    8CHTO   O26 3237   4.733   9.673   1.628
    8CHTO   C41 3238   4.768   9.534   1.598
    8CHTO   H83 3239   4.820   9.529   1.502
    8CHTO   C52 3240   4.634   9.460   1.584
    8CHTO   O35 3241   4.644   9.329   1.533
    8CHTO   H71 3242   4.687   9.274   1.595
    8CHTO   O28 3243   4.790   9.895   1.638
    8CHTO   C42 3244   4.737   9.968   1.522
    8CHTO   H84 3245   4.694   0.058   1.567
    8CHTO   C44 3246   4.621   9.900   1.443
    8CHTO   H86 3247   4.657   9.804   1.405
    8CHTO   O32 3248   4.516   9.875   1.539
    8CHTO   H69 3249   4.447   9.826   1.498
    8CHTO   C48 3250   4.572   9.987   1.320
    8CHTO   H90 3251   4.525   0.078   1.359
    8CHTO    N9 3252   4.464   9.917   1.242
    8CHTO   H77 3253   4.430   9.980   1.161
    8CHTO   H78 3254   4.502   9.823   1.204
    8CHTO   C51 3255   4.695   0.028   1.231
    8CHTO   H93 3256   4.740   9.937   1.190
    8CHTO   O30 3257   4.786   0.101   1.315
    8CHTO   C46 3258   4.848   0.015   1.423
    8CHTO   H88 3259   4.893   9.928   1.376
    8CHTO   C53 3260   4.959   0.098   1.492
    8CHTO   O72 3261   4.909   0.218   1.554
    8CHTO  H199 3262   4.854   0.195   1.627
    8CHTO   O22 3263   4.660   0.119   1.123
    8CHTO   C31 3264   4.751   0.155   1.012
    8CHTO   H59 3265   4.697   0.234   0.955
    8CHTO   C29 3266   4.886   0.217   1.057
    8CHTO   H57 3267   4.936   0.143   1.121
    8CHTO   O21 3268   4.856   0.331   1.139
    8CHTO   H37 3269   4.935   0.363   1.179
    8CHTO   C27 3270   4.980   0.251   0.935
    8CHTO   H55 3271   4.932   0.329   0.874
    8CHTO    N5 3272   5.114   0.301   0.978
    8CHTO   H43 3273   5.173   0.328   0.892
    8CHTO   H44 3274   5.165   0.226   1.036
    8CHTO   C25 3275   4.994   0.124   0.845
    8CHTO   H53 3276   5.039   0.043   0.904
    8CHTO   O17 3277   4.861   0.081   0.803
    8CHTO   C32 3278   4.775   0.038   0.910
    8CHTO   H60 3279   4.821   9.954   0.962
    8CHTO   C36 3280   4.646   9.991   0.839
    8CHTO   O25 3281   4.558   9.921   0.928
    8CHTO   H40 3282   4.480   9.896   0.882
    8CHTO   O15 3283   5.081   0.150   0.716
    8CHTO   C19 3284   5.104   0.074   0.594
    8CHTO   H47 3285   5.021   0.002   0.590
    8CHTO   C20 3286   5.100   0.162   0.465
    8CHTO   H48 3287   5.177   0.242   0.468
    8CHTO   O19 3288   4.971   0.225   0.460
    8CHTO   H35 3289   4.963   0.289   0.529
    8CHTO   C21 3290   5.124   0.077   0.334
    8CHTO   H49 3291   5.039   0.011   0.320
    8CHTO    N4 3292   5.134   0.160   0.211
    8CHTO   H41 3293   5.042   0.215   0.196
    8CHTO   H42 3294   5.215   0.231   0.220
    8CHTO   C22 3295   5.249   9.987   0.354
    8CHTO   H50 3296   5.337   0.051   0.359
    8CHTO   O14 3297   5.238   9.909   0.474
    8CHTO   C23 3298   5.236   9.989   0.594
    8CHTO   H51 3299   5.326   0.052   0.594
    8CHTO   C34 3300   5.246   9.892   0.712
    8CHTO   O23 3301   5.280   9.960   0.833
    8CHTO   H38 3302   5.285   9.898   0.903
    8CHTO   O16 3303   5.262   9.891   0.247
    8CHTO   C24 3304   5.400   9.806   0.240
    8CHTO   H52 3305   5.429   9.769   0.339
    8CHTO   C26 3306   5.513   9.892   0.181
    8CHTO   H54 3307   5.472   9.949   0.094
    8CHTO   O20 3308   5.554   9.989   0.280
    8CHTO   H36 3309   5.615   0.049   0.243
    8CHTO   C30 3310   5.635   9.808   0.132
    8CHTO   H58 3311   5.689   9.768   0.219
    8CHTO    N6 3312   5.734   9.892   0.057
    8CHTO   H45 3313   5.703   9.995   0.051
    8CHTO   H46 3314   5.831   9.887   0.104
    8CHTO   C33 3315   5.587   9.685   0.049
    8CHTO   H61 3316   5.537   9.720   2.789
    8CHTO   O18 3317   5.493   9.611   0.128
    8CHTO   C28 3318   5.371   9.682   0.152
    8CHTO   H56 3319   5.327   9.715   0.058
    8CHTO   C35 3320   5.270   9.585   0.219
    8CHTO   O24 3321   5.319   9.525   0.340
    8CHTO   H39 3322   5.325   9.590   0.407
    8CHTO    O9 3323   5.695   9.601   0.004
    8CHTO   C13 3324   5.645   9.480   2.737
    8CHTO   H26 3325   5.555   9.515   2.682
    8CHTO   C11 3326   5.616   9.348   2.822
    8CHTO   H24 3327   5.509   9.348   0.017
    8CHTO    O8 3328   5.692   9.348   0.112
    8CHTO    H3 3329   5.667   9.276   0.166
    8CHTO    C9 3330   5.646   9.223   2.734
    8CHTO   H22 3331   5.589   9.238   2.641
    8CHTO    N2 3332   5.596   9.094   2.788
    8CHTO   H10 3333   5.557   9.107   0.056
    8CHTO   H11 3334   5.521   9.052   2.723
    8CHTO    C7 3335   5.800   9.225   2.699
    8CHTO   H20 3336   5.808   9.162   2.608
    8CHTO    O4 3337   5.851   9.357   2.671
    8CHTO   C14 3338   5.754   9.453   2.625
    8CHTO   H27 3339   5.703   9.412   2.535
    8CHTO   C18 3340   5.825   9.583   2.579
    8CHTO   O13 3341   5.910   9.560   2.466
    8CHTO    H7 3342   5.858   9.540   2.390
    8CHTO    O2 3343   5.893   9.157   2.821
    8CHTO    C1 3344   6.034   9.187   2.822
    8CHTO   H14 3345   6.048   9.297   2.825
    8CHTO    C2 3346   6.115   9.129   2.698
    8CHTO   H15 3347   6.085   9.023   2.689
    8CHTO    O6 3348   6.077   9.200   2.579
    8CHTO    H1 3349   6.118   9.161   2.504
    8CHTO    C3 3350   6.274   9.139   2.722
    8CHTO   H16 3351   6.304   9.245   2.721
    8CHTO    N1 3352   6.350   9.069   2.614
    8CHTO    H8 3353   6.457   9.080   2.630
    8CHTO    H9 3354   6.325   8.964   2.612
    8CHTO    C4 3355   6.309   9.085   0.034
    8CHTO   H17 3356   6.285   8.979   0.038
    8CHTO    O1 3357   6.234   9.157   0.133
    8CHTO    C5 3358   6.093   9.132   0.124
    8CHTO   H18 3359   6.077   9.024   0.125
    8CHTO   C16 3360   6.023   9.194   0.247
    8CHTO   O11 3361   6.066   9.131   0.369
    8CHTO    H5 3362   6.033   9.043   0.373
    8CHTO    O3 3363   6.447   9.106   0.070
    8CHTO    C6 3364   6.502   9.000   0.155
    8CHTO   H19 3365   6.425   8.935   0.198
    8CHTO    C8 3366   6.600   8.910   0.073
    8CHTO   H21 3367   6.676   8.974   0.028
    8CHTO    O7 3368   6.522   8.846   2.802
    8CHTO    H2 3369   6.578   8.799   2.744
    8CHTO   C12 3370   6.669   8.803   0.168
    8CHTO   H25 3371   6.590   8.732   0.199
    8CHTO    N3 3372   6.772   8.723   0.092
    8CHTO   H12 3373   6.724   8.672   0.010
    8CHTO   H13 3374   6.819   8.652   0.158
    8CHTO   C15 3375   6.728   8.873   0.296
    8CHTO   H28 3376   6.818   8.930   0.273
    8CHTO   O10 3377   6.758   8.773   0.408
    8CHTO    H4 3378   6.824   8.713   0.380
    8CHTO    O5 3379   6.631   8.958   0.360
    8CHTO   C10 3380   6.579   9.062   0.275
    8CHTO   H23 3381   6.663   9.123   0.239
    8CHTO   C17 3382   6.491   9.155   0.360
    8CHTO   O12 3383   6.381   9.085   0.420
    8CHTO    H6 3384   6.330   9.145   0.471
    9CHTO  H203 3385   8.482   3.860   1.377
    9CHTO   O82 3386   8.461   3.839   1.288
    9CHTO  C123 3387   8.478   3.954   1.203
    9CHTO  H227 3388   8.427   4.040   1.250
    9CHTO   O77 3389   8.622   3.975   1.202
    9CHTO  C118 3390   8.662   4.091   1.128
    9CHTO  H222 3391   8.603   4.178   1.159
    9CHTO  C125 3392   8.813   4.118   1.162
    9CHTO   O84 3393   8.852   4.251   1.124
    9CHTO  H205 3394   8.852   4.259   1.031
    9CHTO  C114 3395   8.636   4.061   0.979
    9CHTO  H218 3396   8.688   3.968   0.952
    9CHTO  C116 3397   8.483   4.038   0.956
    9CHTO  H220 3398   8.430   4.135   0.971
    9CHTO   O79 3399   8.460   4.001   0.819
    9CHTO  H201 3400   8.368   3.995   0.802
    9CHTO  C120 3401   8.425   3.929   1.056
    9CHTO  H224 3402   8.463   3.831   1.020
    9CHTO   N21 3403   8.277   3.921   1.051
    9CHTO  H211 3404   8.241   3.945   0.952
    9CHTO  H212 3405   8.233   3.989   1.123
    9CHTO   O75 3406   8.692   4.172   0.906
    9CHTO  C112 3407   8.734   4.140   0.747
    9CHTO  H216 3408   8.645   4.108   0.691
    9CHTO   O73 3409   8.836   4.038   0.747
    9CHTO  C113 3410   8.872   3.993   0.615
    9CHTO  H217 3411   8.781   3.954   0.564
    9CHTO  C124 3412   8.969   3.876   0.629
    9CHTO   O83 3413   8.909   3.762   0.692
    9CHTO  H204 3414   8.972   3.693   0.699
    9CHTO  C109 3415   8.932   4.109   0.530
    9CHTO  H213 3416   9.029   4.135   0.575
    9CHTO  C110 3417   8.836   4.232   0.532
    9CHTO  H214 3418   8.747   4.207   0.473
    9CHTO   O78 3419   8.902   4.341   0.466
    9CHTO  H200 3420   8.844   4.414   0.456
    9CHTO  C111 3421   8.794   4.268   0.677
    9CHTO  H215 3422   8.883   4.299   0.733
    9CHTO   N19 3423   8.698   4.382   0.685
    9CHTO  H207 3424   8.674   4.403   0.788
    9CHTO  H208 3425   8.607   4.357   0.632
    9CHTO   O74 3426   8.953   4.066   0.391
    9CHTO  C115 3427   9.106   4.046   0.345
    9CHTO  H219 3428   9.175   4.052   0.430
    9CHTO   O76 3429   9.131   3.900   0.282
    9CHTO  C122 3430   9.268   3.874   0.251
    9CHTO  H226 3431   9.269   3.794   0.176
    9CHTO  C126 3432   9.338   3.813   0.378
    9CHTO   O85 3433   9.473   3.772   0.352
    9CHTO  H206 3434   9.509   3.734   0.430
    9CHTO  C121 3435   9.345   4.001   0.194
    9CHTO  H225 3436   9.398   4.053   0.277
    9CHTO   O81 3437   9.444   3.962   0.097
    9CHTO  H202 3438   9.510   3.909   0.138
    9CHTO  C119 3439   9.242   4.100   0.131
    9CHTO  H223 3440   9.301   4.181   0.088
    9CHTO  C117 3441   9.143   4.159   0.239
    9CHTO  H221 3442   9.047   4.193   0.200
    9CHTO   N20 3443   9.201   4.278   0.309
    9CHTO  H209 3444   9.130   4.318   0.379
    9CHTO  H210 3445   9.227   4.354   0.236
    9CHTO   O80 3446   9.174   4.040   0.002
    9CHTO  C103 3447   9.065   4.123   2.755
    9CHTO  H190 3448   8.979   4.141   2.818
    9CHTO  C101 3449   9.110   4.259   2.690
    9CHTO  H188 3450   9.196   4.241   2.625
    9CHTO   O68 3451   9.152   4.359   2.802
    9CHTO  H168 3452   9.226   4.326   0.016
    9CHTO   C99 3453   8.992   4.320   2.600
    9CHTO  H186 3454   8.907   4.346   2.666
    9CHTO   N17 3455   9.031   4.446   2.528
    9CHTO  H174 3456   9.014   4.438   2.421
    9CHTO  H175 3457   8.978   4.531   2.570
    9CHTO   C97 3458   8.938   4.212   2.502
    9CHTO  H184 3459   9.012   4.196   2.422
    9CHTO   O64 3460   8.906   4.090   2.571
    9CHTO  C104 3461   9.017   4.028   2.637
    9CHTO  H191 3462   9.100   4.011   2.568
    9CHTO  C108 3463   8.970   3.889   2.683
    9CHTO   O71 3464   9.079   3.805   2.724
    9CHTO  H171 3465   9.045   3.721   2.749
    9CHTO   O62 3466   8.811   4.253   2.444
    9CHTO   C91 3467   8.776   4.195   2.318
    9CHTO  H178 3468   8.843   4.111   2.298
    9CHTO   C92 3469   8.803   4.300   2.205
    9CHTO  H179 3470   8.906   4.340   2.216
    9CHTO   O66 3471   8.803   4.230   2.080
    9CHTO  H166 3472   8.830   4.287   2.011
    9CHTO   C93 3473   8.694   4.415   2.199
    9CHTO  H180 3474   8.692   4.452   2.095
    9CHTO   N16 3475   8.729   4.533   2.281
    9CHTO  H172 3476   8.824   4.574   2.248
    9CHTO  H173 3477   8.652   4.608   2.273
    9CHTO   C94 3478   8.551   4.360   2.237
    9CHTO  H181 3479   8.527   4.377   2.342
    9CHTO   O61 3480   8.544   4.218   2.217
    9CHTO   C95 3481   8.624   4.143   2.310
    9CHTO  H182 3482   8.579   4.151   2.409
    9CHTO  C106 3483   8.616   3.992   2.271
    9CHTO   O69 3484   8.682   3.909   2.367
    9CHTO  H169 3485   8.774   3.923   2.363
    9CHTO   O63 3486   8.443   4.432   2.145
    9CHTO   C96 3487   8.295   4.420   2.205
    9CHTO  H183 3488   8.300   4.369   2.301
    9CHTO   C98 3489   8.197   4.341   2.114
    9CHTO  H185 3490   8.200   4.382   2.012
    9CHTO   O67 3491   8.248   4.207   2.104
    9CHTO  H167 3492   8.195   4.157   2.045
    9CHTO  C102 3493   8.046   4.344   2.172
    9CHTO  H189 3494   8.049   4.289   2.267
    9CHTO   N18 3495   7.946   4.274   2.088
    9CHTO  H176 3496   7.848   4.279   2.135
    9CHTO  H177 3497   7.941   4.319   1.990
    9CHTO  C105 3498   8.008   4.492   2.201
    9CHTO  H192 3499   8.004   4.546   2.106
    9CHTO   O65 3500   8.104   4.555   2.286
    9CHTO  C100 3501   8.236   4.564   2.230
    9CHTO  H187 3502   8.229   4.617   2.134
    9CHTO  C107 3503   8.325   4.648   2.325
    9CHTO   O70 3504   8.277   4.782   2.336
    9CHTO  H170 3505   8.291   4.828   2.255
    9CHTO   O57 3506   7.861   4.496   2.275
    9CHTO   C85 3507   7.773   4.606   2.246
    9CHTO  H157 3508   7.762   4.608   2.135
    9CHTO   C83 3509   7.838   4.743   2.285
    9CHTO  H155 3510   7.927   4.756   2.223
    9CHTO   O56 3511   7.885   4.737   2.421
    9CHTO  H135 3512   7.813   4.730   2.480
    9CHTO   C81 3513   7.738   4.858   2.254
    9CHTO  H153 3514   7.710   4.851   2.149
    9CHTO   N14 3515   7.800   4.993   2.267
    9CHTO  H141 3516   7.745   5.054   2.335
    9CHTO  H142 3517   7.805   5.041   2.172
    9CHTO   C79 3518   7.608   4.839   2.341
    9CHTO  H151 3519   7.539   4.918   2.313
    9CHTO   O52 3520   7.545   4.712   2.306
    9CHTO   C86 3521   7.632   4.594   2.317
    9CHTO  H158 3522   7.644   4.579   2.427
    9CHTO   C90 3523   7.557   4.469   2.265
    9CHTO   O60 3524   7.438   4.446   2.341
    9CHTO  H138 3525   7.393   4.370   2.308
    9CHTO   O50 3526   7.630   4.844   2.483
    9CHTO   C73 3527   7.584   4.895   2.609
    9CHTO  H145 3528   7.475   4.908   2.607
    9CHTO   C74 3529   7.650   5.033   2.640
    9CHTO  H146 3530   7.624   5.101   2.558
    9CHTO   O54 3531   7.588   5.087   2.759
    9CHTO  H133 3532   7.622   5.172   2.777
    9CHTO   C75 3533   7.807   5.014   2.653
    9CHTO  H147 3534   7.845   4.982   2.555
    9CHTO   N13 3535   7.881   5.138   2.685
    9CHTO  H139 3536   7.847   5.179   2.779
    9CHTO  H140 3537   7.865   5.212   2.607
    9CHTO   C76 3538   7.841   4.895   2.755
    9CHTO  H148 3539   7.819   4.930   0.024
    9CHTO   O49 3540   7.763   4.774   2.728
    9CHTO   C77 3541   7.621   4.795   2.723
    9CHTO  H149 3542   7.587   4.836   2.818
    9CHTO   C88 3543   7.549   4.661   2.706
    9CHTO   O58 3544   7.568   4.574   2.826
    9CHTO  H136 3545   7.658   4.549   0.001
    9CHTO   O51 3546   7.992   4.851   2.735
    9CHTO   C78 3547   8.053   4.764   0.017
    9CHTO  H150 3548   7.977   4.696   0.062
    9CHTO   C80 3549   8.110   4.855   0.129
    9CHTO  H152 3550   8.168   4.936   0.081
    9CHTO   O55 3551   8.000   4.917   0.197
    9CHTO  H134 3552   7.947   4.853   0.241
    9CHTO   C84 3553   8.203   4.777   0.230
    9CHTO  H156 3554   8.140   4.708   0.287
    9CHTO   N15 3555   8.270   4.867   0.330
    9CHTO  H143 3556   8.329   4.940   0.279
    9CHTO  H144 3557   8.196   4.917   0.389
    9CHTO   C87 3558   8.307   4.692   0.152
    9CHTO  H159 3559   8.375   4.758   0.098
    9CHTO   O53 3560   8.231   4.600   0.054
    9CHTO   C82 3561   8.162   4.675   2.786
    9CHTO  H154 3562   8.233   4.737   2.730
    9CHTO   C89 3563   8.097   4.578   2.684
    9CHTO   O59 3564   8.196   4.501   2.614
    9CHTO  H137 3565   8.237   4.441   2.673
    9CHTO   O45 3566   8.392   4.599   0.254
    9CHTO   C67 3567   8.493   4.513   0.196
    9CHTO  H124 3568   8.447   4.450   0.120
    9CHTO   C65 3569   8.611   4.594   0.130
    9CHTO  H122 3570   8.614   4.690   0.181
    9CHTO   O44 3571   8.574   4.614   2.825
    9CHTO  H102 3572   8.499   4.669   2.819
    9CHTO   C63 3573   8.753   4.530   0.159
    9CHTO  H120 3574   8.783   4.557   0.260
    9CHTO   N11 3575   8.868   4.586   0.080
    9CHTO  H108 3576   8.868   4.693   0.086
    9CHTO  H109 3577   8.961   4.548   0.117
    9CHTO   C61 3578   8.744   4.373   0.158
    9CHTO  H118 3579   8.844   4.337   0.188
    9CHTO   O40 3580   8.652   4.327   0.261
    9CHTO   C68 3581   8.545   4.415   0.308
    9CHTO  H125 3582   8.582   4.473   0.395
    9CHTO   C72 3583   8.430   4.325   0.359
    9CHTO   O48 3584   8.467   4.241   0.468
    9CHTO  H105 3585   8.485   4.293   0.544
    9CHTO   O38 3586   8.714   4.317   0.028
    9CHTO   C55 3587   8.625   4.204   0.016
    9CHTO  H112 3588   8.533   4.225   0.073
    9CHTO   C56 3589   8.693   4.068   0.061
    9CHTO  H113 3590   8.781   4.054   2.828
    9CHTO   O42 3591   8.743   4.076   0.195
    9CHTO  H100 3592   8.673   4.093   0.256
    9CHTO   C57 3593   8.593   3.946   0.045
    9CHTO  H114 3594   8.515   3.959   0.120
    9CHTO   N10 3595   8.658   3.815   0.070
    9CHTO  H106 3596   8.762   3.818   0.042
    9CHTO  H107 3597   8.651   3.790   0.175
    9CHTO   C58 3598   8.525   3.948   2.736
    9CHTO  H115 3599   8.596   3.908   2.659
    9CHTO   O37 3600   8.481   4.080   2.699
    9CHTO   C59 3601   8.579   4.186   2.701
    9CHTO  H116 3602   8.662   4.160   2.636
    9CHTO   C70 3603   8.510   4.311   2.646
    9CHTO   O46 3604   8.603   4.414   2.611
    9CHTO  H103 3605   8.556   4.488   2.577
    9CHTO   O39 3606   8.380   3.868   2.733
    9CHTO   C60 3607   8.373   3.726   2.755
    9CHTO  H117 3608   8.472   3.682   2.754
    9CHTO   C62 3609   8.306   3.698   0.061
    9CHTO  H119 3610   8.369   3.750   0.137
    9CHTO   O43 3611   8.174   3.757   0.065
    9CHTO  H101 3612   8.118   3.717   0.001
    9CHTO   C66 3613   8.308   3.540   0.089
    9CHTO  H123 3614   8.411   3.505   0.084
    9CHTO   N12 3615   8.260   3.508   0.227
    9CHTO  H110 3616   8.336   3.454   0.281
    9CHTO  H111 3617   8.167   3.453   0.224
    9CHTO   C69 3618   8.228   3.466   2.810
    9CHTO  H126 3619   8.120   3.494   2.817
    9CHTO   O41 3620   8.283   3.507   2.665
    9CHTO   C64 3621   8.293   3.657   2.641
    9CHTO  H121 3622   8.190   3.701   2.638
    9CHTO   C71 3623   8.358   3.682   2.502
    9CHTO   O47 3624   8.488   3.623   2.493
    9CHTO  H104 3625   8.523   3.638   2.407
    9CHTO   O34 3626   8.240   3.309   2.828
    9CHTO   C49 3627   8.329   3.214   2.744
    9CHTO   H91 3628   8.292   3.220   2.641
    9CHTO   C47 3629   8.312   3.071   2.798
    9CHTO   H89 3630   8.368   3.007   2.725
    9CHTO   O33 3631   8.174   3.031   2.797
    9CHTO   H70 3632   8.142   3.028   2.709
    9CHTO   C45 3633   8.374   3.056   0.115
    9CHTO   H87 3634   8.293   3.074   0.188
    9CHTO    N8 3635   8.422   2.917   0.134
    9CHTO   H75 3636   8.342   2.847   0.115
    9CHTO   H76 3637   8.505   2.897   0.067
    9CHTO   C43 3638   8.482   3.173   0.144
    9CHTO   H85 3639   8.422   3.259   0.173
    9CHTO   O29 3640   8.559   3.198   0.026
    9CHTO   C50 3641   8.481   3.251   2.748
    9CHTO   H92 3642   8.490   3.360   2.751
    9CHTO   C54 3643   8.551   3.213   2.614
    9CHTO   O36 3644   8.680   3.273   2.603
    9CHTO   H72 3645   8.671   3.366   2.592
    9CHTO   O27 3646   8.566   3.148   0.259
    9CHTO   C37 3647   8.619   3.232   0.362
    9CHTO   H79 3648   8.691   3.174   0.423
    9CHTO   C38 3649   8.699   3.352   0.302
    9CHTO   H80 3650   8.638   3.398   0.222
    9CHTO   O31 3651   8.819   3.299   0.241
    9CHTO   H68 3652   8.797   3.248   0.166
    9CHTO   C39 3653   8.733   3.462   0.410
    9CHTO   H81 3654   8.802   3.418   0.482
    9CHTO    N7 3655   8.801   3.584   0.353
    9CHTO   H73 3656   8.824   3.654   0.432
    9CHTO   H74 3657   8.738   3.631   0.280
    9CHTO   C40 3658   8.601   3.498   0.487
    9CHTO   H82 3659   8.529   3.537   0.414
    9CHTO   O26 3660   8.554   3.378   0.550
    9CHTO   C41 3661   8.503   3.281   0.454
    9CHTO   H83 3662   8.424   3.327   0.394
    9CHTO   C52 3663   8.440   3.167   0.538
    9CHTO   O35 3664   8.364   3.073   0.457
    9CHTO   H71 3665   8.327   3.007   0.513
    9CHTO   O28 3666   8.615   3.596   0.592
    9CHTO   C42 3667   8.497   3.664   0.646
    9CHTO   H84 3668   8.537   3.729   0.724
    9CHTO   C44 3669   8.392   3.571   0.718
    9CHTO   H86 3670   8.362   3.492   0.649
    9CHTO   O32 3671   8.460   3.510   0.829
    9CHTO   H69 3672   8.404   3.448   0.871
    9CHTO   C48 3673   8.260   3.647   0.763
    9CHTO   H90 3674   8.285   3.715   0.844
    9CHTO    N9 3675   8.156   3.553   0.818
    9CHTO   H77 3676   8.129   3.479   0.744
    9CHTO   H78 3677   8.194   3.505   0.907
    9CHTO   C51 3678   8.207   3.731   0.641
    9CHTO   H93 3679   8.186   3.661   0.560
    9CHTO   O30 3680   8.311   3.824   0.606
    9CHTO   C46 3681   8.426   3.756   0.542
    9CHTO   H88 3682   8.388   3.695   0.459
    9CHTO   C53 3683   8.520   3.864   0.486
    9CHTO   O72 3684   8.457   3.941   0.383
    9CHTO  H199 3685   8.446   3.887   0.306
    9CHTO   O22 3686   8.088   3.808   0.671
    9CHTO   C31 3687   8.039   3.921   0.588
    9CHTO   H59 3688   7.929   3.924   0.603
    9CHTO   C29 3689   8.094   4.057   0.637
    9CHTO   H57 3690   8.204   4.050   0.641
    9CHTO   O21 3691   8.050   4.076   0.772
    9CHTO   H37 3692   8.088   4.012   0.829
    9CHTO   C27 3693   8.055   4.177   0.542
    9CHTO   H55 3694   7.945   4.189   0.544
    9CHTO    N5 3695   8.117   4.306   0.584
    9CHTO   H43 3696   8.224   4.299   0.578
    9CHTO   H44 3697   8.081   4.386   0.521
    9CHTO   C25 3698   8.094   4.137   0.395
    9CHTO   H53 3699   8.202   4.115   0.392
    9CHTO   O17 3700   8.019   4.017   0.359
    9CHTO   C32 3701   8.061   3.902   0.433
    9CHTO   H60 3702   8.168   3.887   0.414
    9CHTO   C36 3703   7.987   3.777   0.378
    9CHTO   O25 3704   7.845   3.783   0.395
    9CHTO   H40 3705   7.810   3.850   0.340
    9CHTO   O15 3706   8.064   4.250   0.291
    9CHTO   C19 3707   8.033   4.257   0.149
    9CHTO   H47 3708   8.060   4.360   0.122
    9CHTO   C20 3709   8.116   4.159   0.059
    9CHTO   H48 3710   8.103   4.054   0.089
    9CHTO   O19 3711   8.255   4.193   0.076
    9CHTO   H35 3712   8.284   4.169   0.162
    9CHTO   C21 3713   8.073   4.172   2.739
    9CHTO   H49 3714   8.100   4.272   2.703
    9CHTO    N4 3715   8.143   4.076   2.649
    9CHTO   H41 3716   8.119   3.974   2.678
    9CHTO   H42 3717   8.112   4.091   2.547
    9CHTO   C22 3718   7.919   4.160   2.729
    9CHTO   H50 3719   7.890   4.060   2.762
    9CHTO   O14 3720   7.856   4.259   2.813
    9CHTO   C23 3721   7.881   4.242   0.121
    9CHTO   H51 3722   7.843   4.143   0.150
    9CHTO   C34 3723   7.801   4.348   0.198
    9CHTO   O23 3724   7.660   4.330   0.181
    9CHTO   H38 3725   7.614   4.397   0.227
    9CHTO   O16 3726   7.868   4.189   2.597
    9CHTO   C24 3727   7.746   4.094   2.553
    9CHTO   H52 3728   7.721   4.021   2.630
    9CHTO   C26 3729   7.784   4.021   2.423
    9CHTO   H54 3730   7.821   4.096   2.349
    9CHTO   O20 3731   7.894   3.931   2.452
    9CHTO   H36 3732   7.868   3.865   2.513
    9CHTO   C30 3733   7.663   3.944   2.360
    9CHTO   H58 3734   7.638   3.857   2.422
    9CHTO    N6 3735   7.695   3.890   2.225
    9CHTO   H45 3736   7.776   3.819   2.232
    9CHTO   H46 3737   7.724   3.971   2.159
    9CHTO   C33 3738   7.535   4.033   2.358
    9CHTO   H61 3739   7.547   4.115   2.284
    9CHTO   O18 3740   7.516   4.092   2.488
    9CHTO   C28 3741   7.620   4.180   2.531
    9CHTO   H56 3742   7.641   4.256   2.455
    9CHTO   C35 3743   7.572   4.249   2.661
    9CHTO   O24 3744   7.454   4.328   2.642
    9CHTO   H39 3745   7.382   4.273   2.621
    9CHTO    O9 3746   7.418   3.960   2.316
    9CHTO   C13 3747   7.288   4.054   2.271
    9CHTO   H26 3748   7.318   4.108   2.180
    9CHTO   C11 3749   7.245   4.153   2.387
    9CHTO   H24 3750   7.324   4.229   2.396
    9CHTO    O8 3751   7.238   4.083   2.513
    9CHTO    H3 3752   7.223   4.144   2.583
    9CHTO    C9 3753   7.114   4.223   2.345
    9CHTO   H22 3754   7.134   4.266   2.245
    9CHTO    N2 3755   7.078   4.340   2.429
    9CHTO   H10 3756   7.057   4.307   2.530
    9CHTO   H11 3757   7.159   4.412   2.429
    9CHTO    C7 3758   7.002   4.115   2.332
    9CHTO   H20 3759   6.911   4.171   2.300
    9CHTO    O4 3760   7.035   4.017   2.232
    9CHTO   C14 3761   7.167   3.960   2.223
    9CHTO   H27 3762   7.182   3.944   2.115
    9CHTO   C18 3763   7.168   3.818   2.288
    9CHTO   O13 3764   7.143   3.819   2.429
    9CHTO    H7 3765   7.146   3.731   2.462
    9CHTO    O2 3766   6.974   4.038   2.473
    9CHTO    C1 3767   6.838   4.012   2.513
    9CHTO   H14 3768   6.842   3.935   2.593
    9CHTO    C2 3769   6.741   3.960   2.399
    9CHTO   H15 3770   6.745   4.034   2.318
    9CHTO    O6 3771   6.790   3.833   2.353
    9CHTO    H1 3772   6.740   3.805   2.279
    9CHTO    C3 3773   6.590   3.949   2.454
    9CHTO   H16 3774   6.586   3.865   2.526
    9CHTO    N1 3775   6.492   3.917   2.345
    9CHTO    H8 3776   6.493   3.996   2.271
    9CHTO    H9 3777   6.393   3.906   2.386
    9CHTO    C4 3778   6.549   4.077   2.537
    9CHTO   H17 3779   6.530   4.160   2.468
    9CHTO    O1 3780   6.649   4.111   2.633
    9CHTO    C5 3781   6.780   4.139   2.581
    9CHTO   H18 3782   6.775   4.219   2.507
    9CHTO   C16 3783   6.867   4.187   2.700
    9CHTO   O11 3784   6.822   4.313   2.750
    9CHTO    H5 3785   6.876   4.339   2.822
    9CHTO    O3 3786   6.435   4.049   2.621
    9CHTO    C6 3787   6.329   4.150   2.629
    9CHTO   H19 3788   6.339   4.230   2.555
    9CHTO    C8 3789   6.193   4.077   2.606
    9CHTO   H21 3790   6.192   3.986   2.667
    9CHTO    O7 3791   6.187   4.039   2.467
    9CHTO    H2 3792   6.185   4.115   2.412
    9CHTO   C12 3793   6.069   4.166   2.648
    9CHTO   H25 3794   6.063   4.249   2.574
    9CHTO    N3 3795   5.940   4.089   2.639
    9CHTO   H12 3796   5.925   4.055   2.538
    9CHTO   H13 3797   5.858   4.151   2.671
    9CHTO   C15 3798   6.095   4.228   2.790
    9CHTO   H28 3799   6.098   4.152   0.036
    9CHTO   O10 3800   5.994   4.335   2.830
    9CHTO    H4 3801   5.910   4.296   0.007
    9CHTO    O5 3802   6.218   4.303   2.788
    9CHTO   C10 3803   6.332   4.219   2.769
    9CHTO   H23 3804   6.333   4.143   0.015
    9CHTO   C17 3805   6.457   4.305   2.791
    9CHTO   O12 3806   6.466   4.356   0.093
    9CHTO    H6 3807   6.398   4.420   0.107
   10CHTO  H203 3808   5.608   6.672   2.658
   10CHTO   O82 3809   5.595   6.640   2.571
   10CHTO  C123 3810   5.454   6.625   2.543
   10CHTO  H227 3811   5.443   6.591   2.439
   10CHTO   O77 3812   5.412   6.520   2.635
   10CHTO  C118 3813   5.275   6.481   2.622
   10CHTO  H222 3814   5.252   6.452   2.518
   10CHTO  C125 3815   5.256   6.355   2.713
   10CHTO   O84 3816   5.141   6.280   2.677
   10CHTO  H205 3817   5.132   6.205   2.733
   10CHTO  C114 3818   5.187   6.600   2.663
   10CHTO  H218 3819   5.213   6.629   2.765
   10CHTO  C116 3820   5.217   6.723   2.571
   10CHTO  H220 3821   5.183   6.699   2.467
   10CHTO   O79 3822   5.137   6.834   2.615
   10CHTO  H201 3823   5.161   6.860   2.702
   10CHTO  C120 3824   5.372   6.757   2.571
   10CHTO  H224 3825   5.396   6.795   2.672
   10CHTO   N21 3826   5.404   6.865   2.473
   10CHTO  H211 3827   5.394   6.961   2.521
   10CHTO  H212 3828   5.504   6.853   2.434
   10CHTO   O75 3829   5.050   6.557   2.655
   10CHTO  C112 3830   4.969   6.567   2.799
   10CHTO  H216 3831   5.020   6.640   0.032
   10CHTO   O73 3832   4.970   6.435   0.024
   10CHTO  C113 3833   4.918   6.430   0.157
   10CHTO  H217 3834   4.975   6.500   0.222
   10CHTO  C124 3835   4.939   6.288   0.212
   10CHTO   O83 3836   5.077   6.254   0.225
   10CHTO  H204 3837   5.117   6.248   0.140
   10CHTO  C109 3838   4.768   6.469   0.159
   10CHTO  H213 3839   4.713   6.390   0.105
   10CHTO  C110 3840   4.746   6.607   0.086
   10CHTO  H214 3841   4.785   6.686   0.151
   10CHTO   O78 3842   4.605   6.632   0.071
   10CHTO  H200 3843   4.565   6.565   0.018
   10CHTO  C111 3844   4.819   6.612   2.780
   10CHTO  H215 3845   4.771   6.540   2.712
   10CHTO   N19 3846   4.813   6.745   2.714
   10CHTO  H207 3847   4.710   6.772   2.698
   10CHTO  H208 3848   4.863   6.741   2.619
   10CHTO   O74 3849   4.723   6.471   0.298
   10CHTO  C115 3850   4.569   6.450   0.324
   10CHTO  H219 3851   4.509   6.482   0.239
   10CHTO   O76 3852   4.534   6.296   0.344
   10CHTO  C122 3853   4.565   6.247   0.475
   10CHTO  H226 3854   4.673   6.257   0.489
   10CHTO  C126 3855   4.537   6.092   0.477
   10CHTO   O85 3856   4.576   6.031   0.601
   10CHTO  H206 3857   4.520   6.060   0.670
   10CHTO  C121 3858   4.485   6.323   0.588
   10CHTO  H225 3859   4.400   6.260   0.621
   10CHTO   O81 3860   4.573   6.343   0.700
   10CHTO  H202 3861   4.524   6.373   0.774
   10CHTO  C119 3862   4.428   6.461   0.539
   10CHTO  H223 3863   4.343   6.437   0.474
   10CHTO  C117 3864   4.534   6.537   0.452
   10CHTO  H221 3865   4.629   6.555   0.502
   10CHTO   N20 3866   4.486   6.673   0.410
   10CHTO  H209 3867   4.396   6.664   0.351
   10CHTO  H210 3868   4.467   6.733   0.498
   10CHTO   O80 3869   4.356   6.546   0.657
   10CHTO  C103 3870   4.197   6.549   0.670
   10CHTO  H190 3871   4.169   6.618   0.751
   10CHTO  C101 3872   4.115   6.591   0.542
   10CHTO  H188 3873   4.144   6.527   0.458
   10CHTO   O68 3874   4.149   6.738   0.504
   10CHTO  H168 3875   4.240   6.745   0.482
   10CHTO   C99 3876   3.958   6.570   0.568
   10CHTO  H186 3877   3.926   6.636   0.652
   10CHTO   N17 3878   3.870   6.603   0.451
   10CHTO  H174 3879   3.766   6.593   0.478
   10CHTO  H175 3880   3.892   6.703   0.416
   10CHTO   C97 3881   3.935   6.425   0.617
   10CHTO  H184 3882   3.964   6.356   0.536
   10CHTO   O64 3883   4.012   6.401   0.737
   10CHTO  C104 3884   4.154   6.405   0.716
   10CHTO  H191 3885   4.185   6.333   0.641
   10CHTO  C108 3886   4.223   6.365   0.847
   10CHTO   O71 3887   4.198   6.228   0.880
   10CHTO  H171 3888   4.108   6.216   0.903
   10CHTO   O62 3889   3.799   6.399   0.659
   10CHTO   C91 3890   3.752   6.265   0.635
   10CHTO  H178 3891   3.779   6.240   0.532
   10CHTO   C92 3892   3.596   6.266   0.638
   10CHTO  H179 3893   3.557   6.345   0.572
   10CHTO   O66 3894   3.553   6.142   0.578
   10CHTO  H166 3895   3.460   6.143   0.566
   10CHTO   C93 3896   3.536   6.274   0.784
   10CHTO  H180 3897   3.435   6.230   0.780
   10CHTO   N16 3898   3.514   6.413   0.831
   10CHTO  H172 3899   3.575   6.436   0.918
   10CHTO  H173 3900   3.533   6.485   0.753
   10CHTO   C94 3901   3.624   6.190   0.885
   10CHTO  H181 3902   3.693   6.253   0.941
   10CHTO   O61 3903   3.706   6.094   0.815
   10CHTO   C95 3904   3.809   6.154   0.735
   10CHTO  H182 3905   3.882   6.199   0.802
   10CHTO  C106 3906   3.883   6.038   0.660
   10CHTO   O69 3907   3.997   6.087   0.588
   10CHTO  H169 3908   4.037   6.016   0.542
   10CHTO   O63 3909   3.531   6.113   0.984
   10CHTO   C96 3910   3.617   6.046   1.100
   10CHTO  H183 3911   3.723   6.069   1.082
   10CHTO   C98 3912   3.605   5.892   1.110
   10CHTO  H185 3913   3.500   5.864   1.125
   10CHTO   O67 3914   3.642   5.837   0.983
   10CHTO  H167 3915   3.629   5.744   0.983
   10CHTO  C102 3916   3.698   5.834   1.229
   10CHTO  H189 3917   3.801   5.846   1.194
   10CHTO   N18 3918   3.680   5.689   1.255
   10CHTO  H176 3919   3.578   5.668   1.285
   10CHTO  H177 3920   3.749   5.656   1.332
   10CHTO  C105 3921   3.680   5.920   1.357
   10CHTO  H192 3922   3.585   5.894   1.405
   10CHTO   O65 3923   3.679   6.062   1.334
   10CHTO  C100 3924   3.580   6.106   1.240
   10CHTO  H187 3925   3.482   6.069   1.272
   10CHTO  C107 3926   3.578   6.260   1.244
   10CHTO   O70 3927   3.463   6.314   1.177
   10CHTO  H170 3928   3.470   6.298   1.085
   10CHTO   O57 3929   3.804   5.885   1.455
   10CHTO   C85 3930   3.778   5.882   1.596
   10CHTO  H157 3931   3.675   5.841   1.607
   10CHTO   C83 3932   3.773   6.026   1.654
   10CHTO  H155 3933   3.695   6.082   1.601
   10CHTO   O56 3934   3.897   6.094   1.628
   10CHTO  H135 3935   3.910   6.105   1.536
   10CHTO   C81 3936   3.734   6.017   1.805
   10CHTO  H153 3937   3.639   5.964   1.812
   10CHTO   N14 3938   3.706   6.149   1.867
   10CHTO  H141 3939   3.602   6.158   1.891
   10CHTO  H142 3940   3.734   6.230   1.802
   10CHTO   C79 3941   3.843   5.935   1.884
   10CHTO  H151 3942   3.802   5.917   1.984
   10CHTO   O52 3943   3.860   5.802   1.824
   10CHTO   C86 3944   3.883   5.799   1.679
   10CHTO  H158 3945   3.987   5.837   1.667
   10CHTO   C90 3946   3.886   5.651   1.632
   10CHTO   O60 3947   3.943   5.637   1.501
   10CHTO  H138 3948   4.034   5.658   1.504
   10CHTO   O50 3949   3.970   6.000   1.900
   10CHTO   C73 3950   4.064   5.971   2.005
   10CHTO  H145 3951   4.074   5.862   2.016
   10CHTO   C74 3952   4.015   6.029   2.142
   10CHTO  H146 3953   3.915   5.988   2.163
   10CHTO   O54 3954   4.102   5.978   2.245
   10CHTO  H133 3955   4.072   6.006   2.329
   10CHTO   C75 3956   4.014   6.186   2.135
   10CHTO  H147 3957   3.945   6.217   2.055
   10CHTO   N13 3958   3.962   6.250   2.259
   10CHTO  H139 3959   3.961   6.357   2.248
   10CHTO  H140 3960   4.026   6.225   2.343
   10CHTO   C76 3961   4.160   6.236   2.095
   10CHTO  H148 3962   4.229   6.204   2.173
   10CHTO   O49 3963   4.201   6.176   1.968
   10CHTO   C77 3964   4.204   6.032   1.971
   10CHTO  H149 3965   4.276   5.999   2.046
   10CHTO   C88 3966   4.257   5.981   1.836
   10CHTO   O58 3967   4.271   5.832   1.837
   10CHTO  H136 3968   4.305   5.803   1.754
   10CHTO   O51 3969   4.163   6.393   2.072
   10CHTO   C78 3970   4.293   6.468   2.129
   10CHTO  H150 3971   4.386   6.411   2.106
   10CHTO   C80 3972   4.284   6.490   2.282
   10CHTO  H152 3973   4.183   6.530   2.306
   10CHTO   O55 3974   4.295   6.361   2.346
   10CHTO  H134 3975   4.280   6.370   2.439
   10CHTO   C84 3976   4.394   6.590   2.338
   10CHTO  H156 3977   4.489   6.538   2.332
   10CHTO   N15 3978   4.373   6.625   2.482
   10CHTO  H143 3979   4.378   6.537   2.543
   10CHTO  H144 3980   4.277   6.671   2.495
   10CHTO   C87 3981   4.403   6.716   2.249
   10CHTO  H159 3982   4.314   6.779   2.262
   10CHTO   O53 3983   4.418   6.675   2.104
   10CHTO   C82 3984   4.303   6.604   2.057
   10CHTO  H154 3985   4.212   6.662   2.072
   10CHTO   C89 3986   4.317   6.583   1.904
   10CHTO   O59 3987   4.310   6.708   1.834
   10CHTO  H137 3988   4.222   6.741   1.837
   10CHTO   O45 3989   4.534   6.801   2.283
   10CHTO   C67 3990   4.530   6.935   2.232
   10CHTO  H124 3991   4.460   6.941   2.149
   10CHTO   C65 3992   4.484   7.036   2.344
   10CHTO  H122 3993   4.493   6.982   2.439
   10CHTO   O44 3994   4.346   7.066   2.321
   10CHTO  H102 3995   4.293   6.989   2.331
   10CHTO   C63 3996   4.582   7.159   2.358
   10CHTO  H120 3997   4.677   7.123   2.398
   10CHTO   N11 3998   4.544   7.262   2.460
   10CHTO  H108 3999   4.623   7.333   2.471
   10CHTO  H109 4000   4.525   7.215   2.554
   10CHTO   C61 4001   4.613   7.215   2.214
   10CHTO  H118 4002   4.689   7.294   2.228
   10CHTO   O40 4003   4.672   7.115   2.126
   10CHTO   C68 4004   4.670   6.975   2.171
   10CHTO  H125 4005   4.750   6.960   2.247
   10CHTO   C72 4006   4.706   6.884   2.051
   10CHTO   O48 4007   4.841   6.904   2.006
   10CHTO  H105 4008   4.858   6.847   1.933
   10CHTO   O38 4009   4.496   7.267   2.147
   10CHTO   C55 4010   4.506   7.386   2.066
   10CHTO  H112 4011   4.412   7.389   2.009
   10CHTO   C56 4012   4.633   7.388   1.968
   10CHTO  H113 4013   4.723   7.366   2.029
   10CHTO   O42 4014   4.621   7.280   1.874
   10CHTO  H100 4015   4.626   7.197   1.918
   10CHTO   C57 4016   4.649   7.527   1.895
   10CHTO  H114 4017   4.567   7.535   1.824
   10CHTO   N10 4018   4.775   7.538   1.816
   10CHTO  H106 4019   4.803   7.442   1.777
   10CHTO  H107 4020   4.855   7.576   1.878
   10CHTO   C58 4021   4.637   7.641   1.999
   10CHTO  H115 4022   4.723   7.636   2.071
   10CHTO   O37 4023   4.513   7.630   2.072
   10CHTO   C59 4024   4.504   7.514   2.155
   10CHTO  H116 4025   4.586   7.512   2.227
   10CHTO   C70 4026   4.372   7.522   2.233
   10CHTO   O46 4027   4.367   7.634   2.321
   10CHTO  H103 4028   4.285   7.635   2.367
   10CHTO   O39 4029   4.634   7.788   1.927
   10CHTO   C60 4030   4.655   7.897   2.018
   10CHTO  H117 4031   4.610   7.874   2.115
   10CHTO   C62 4032   4.807   7.924   2.043
   10CHTO  H119 4033   4.847   7.832   2.092
   10CHTO   O43 4034   4.873   7.942   1.916
   10CHTO  H101 4035   4.966   7.951   1.930
   10CHTO   C66 4036   4.824   8.049   2.143
   10CHTO  H123 4037   4.770   8.028   2.235
   10CHTO   N12 4038   4.966   8.071   2.182
   10CHTO  H110 4039   5.004   7.983   2.232
   10CHTO  H111 4040   4.973   8.157   2.247
   10CHTO   C69 4041   4.759   8.175   2.078
   10CHTO  H126 4042   4.808   8.198   1.980
   10CHTO   O41 4043   4.610   8.144   2.055
   10CHTO   C64 4044   4.584   8.025   1.965
   10CHTO  H121 4045   4.622   8.046   1.862
   10CHTO   C71 4046   4.432   8.001   1.956
   10CHTO   O47 4047   4.365   8.110   1.891
   10CHTO  H104 4048   4.387   8.111   1.800
   10CHTO   O34 4049   4.768   8.303   2.170
   10CHTO   C49 4050   4.853   8.434   2.167
   10CHTO   H91 4051   4.958   8.404   2.173
   10CHTO   C47 4052   4.815   8.518   2.291
   10CHTO   H89 4053   4.886   8.604   2.294
   10CHTO   O33 4054   4.836   8.437   2.409
   10CHTO   H70 4055   4.820   8.488   2.486
   10CHTO   C45 4056   4.664   8.572   2.274
   10CHTO   H87 4057   4.599   8.485   2.257
   10CHTO    N8 4058   4.615   8.644   2.395
   10CHTO   H75 4059   4.623   8.580   2.482
   10CHTO   H76 4060   4.512   8.672   2.381
   10CHTO   C43 4061   4.654   8.660   2.140
   10CHTO   H85 4062   4.548   8.685   2.129
   10CHTO   O29 4063   4.703   8.585   2.028
   10CHTO   C50 4064   4.830   8.517   2.038
   10CHTO   H92 4065   4.834   8.446   1.954
   10CHTO   C54 4066   4.948   8.613   2.009
   10CHTO   O36 4067   4.942   8.665   1.876
   10CHTO   H72 4068   5.015   8.722   1.860
   10CHTO   O27 4069   4.723   8.786   2.151
   10CHTO   C37 4070   4.741   8.916   2.091
   10CHTO   H79 4071   4.843   8.925   2.051
   10CHTO   C38 4072   4.642   8.939   1.973
   10CHTO   H80 4073   4.540   8.920   2.008
   10CHTO   O31 4074   4.674   8.845   1.869
   10CHTO   H68 4075   4.654   8.758   1.896
   10CHTO   C39 4076   4.651   9.087   1.918
   10CHTO   H81 4077   4.748   9.098   1.870
   10CHTO    N7 4078   4.547   9.120   1.813
   10CHTO   H73 4079   4.595   9.148   1.721
   10CHTO   H74 4080   4.481   9.036   1.797
   10CHTO   C40 4081   4.647   9.193   2.035
   10CHTO   H82 4082   4.545   9.205   2.072
   10CHTO   O26 4083   4.738   9.158   2.140
   10CHTO   C41 4084   4.719   9.026   2.198
   10CHTO   H83 4085   4.616   9.018   2.238
   10CHTO   C52 4086   4.817   9.010   2.317
   10CHTO   O35 4087   4.790   9.106   2.426
   10CHTO   H71 4088   4.708   9.086   2.467
   10CHTO   O28 4089   4.698   9.321   1.991
   10CHTO   C42 4090   4.649   9.448   2.044
   10CHTO   H84 4091   4.594   9.423   2.135
   10CHTO   C44 4092   4.547   9.523   1.952
   10CHTO   H86 4093   4.593   9.535   1.853
   10CHTO   O32 4094   4.433   9.437   1.937
   10CHTO   H69 4095   4.372   9.474   1.875
   10CHTO   C48 4096   4.508   9.668   2.004
   10CHTO   H90 4097   4.448   9.657   2.094
   10CHTO    N9 4098   4.422   9.742   1.905
   10CHTO   H77 4099   4.398   9.840   1.944
   10CHTO   H78 4100   4.332   9.686   1.886
   10CHTO   C51 4101   4.639   9.746   2.040
   10CHTO   H93 4102   4.698   9.758   1.949
   10CHTO   O30 4103   4.710   9.671   2.140
   10CHTO   C46 4104   4.765   9.543   2.086
   10CHTO   H88 4105   4.826   9.565   1.999
   10CHTO   C53 4106   4.853   9.479   2.196
   10CHTO   O72 4107   4.967   9.561   2.225
   10CHTO  H199 4108   5.027   9.559   2.152
   10CHTO   O22 4109   4.615   9.875   2.101
   10CHTO   C31 4110   4.715   9.984   2.093
   10CHTO   H59 4111   4.678   0.063   2.162
   10CHTO   C29 4112   4.857   9.946   2.142
   10CHTO   H57 4113   4.893   9.863   2.079
   10CHTO   O21 4114   4.846   9.895   2.276
   10CHTO   H37 4115   4.927   9.859   2.304
   10CHTO   C27 4116   4.959   0.067   2.132
   10CHTO   H55 4117   4.928   0.144   2.203
   10CHTO    N5 4118   5.099   0.027   2.163
   10CHTO   H43 4119   5.132   0.076   2.253
   10CHTO   H44 4120   5.109   9.920   2.172
   10CHTO   C25 4121   4.950   0.132   1.989
   10CHTO   H53 4122   4.988   0.062   1.914
   10CHTO   O17 4123   4.812   0.165   1.955
   10CHTO   C32 4124   4.724   0.050   1.952
   10CHTO   H60 4125   4.764   9.977   1.882
   10CHTO   C36 4126   4.586   0.096   1.899
   10CHTO   O25 4127   4.525   0.196   1.983
   10CHTO   H40 4128   4.574   0.275   1.979
   10CHTO   O15 4129   5.036   0.267   1.983
   10CHTO   C19 4130   5.061   0.369   1.882
   10CHTO   H47 4131   4.990   0.345   1.801
   10CHTO   C20 4132   5.033   0.514   1.932
   10CHTO   H48 4133   5.097   0.541   2.018
   10CHTO   O19 4134   4.896   0.517   1.976
   10CHTO   H35 4135   4.877   0.599   2.016
   10CHTO   C21 4136   5.058   0.621   1.818
   10CHTO   H49 4137   4.983   0.607   1.740
   10CHTO    N4 4138   5.042   0.762   1.864
   10CHTO   H41 4139   5.134   0.818   1.854
   10CHTO   H42 4140   5.009   0.766   1.967
   10CHTO   C22 4141   5.196   0.596   1.751
   10CHTO   H50 4142   5.275   0.624   1.822
   10CHTO   O14 4143   5.211   0.459   1.712
   10CHTO   C23 4144   5.204   0.363   1.819
   10CHTO   H51 4145   5.282   0.388   1.892
   10CHTO   C34 4146   5.236   0.226   1.758
   10CHTO   O23 4147   5.261   0.128   1.858
   10CHTO   H38 4148   5.280   0.045   1.817
   10CHTO   O16 4149   5.210   0.669   1.628
   10CHTO   C24 4150   5.359   0.716   1.593
   10CHTO   H52 4151   5.432   0.677   1.664
   10CHTO   C26 4152   5.363   0.870   1.594
   10CHTO   H54 4153   5.281   0.908   1.529
   10CHTO   O20 4154   5.337   0.917   1.728
   10CHTO   H36 4155   5.405   0.889   1.786
   10CHTO   C30 4156   5.499   0.926   1.539
   10CHTO   H58 4157   5.577   0.912   1.615
   10CHTO    N6 4158   5.492   1.074   1.517
   10CHTO   H45 4159   5.471   1.124   1.610
   10CHTO   H46 4160   5.415   1.097   1.445
   10CHTO   C33 4161   5.549   0.851   1.412
   10CHTO   H61 4162   5.491   0.884   1.324
   10CHTO   O18 4163   5.533   0.709   1.426
   10CHTO   C28 4164   5.399   0.664   1.452
   10CHTO   H56 4165   5.330   0.705   1.378
   10CHTO   C35 4166   5.395   0.510   1.442
   10CHTO   O24 4167   5.484   0.444   1.533
   10CHTO   H39 4168   5.478   0.351   1.522
   10CHTO    O9 4169   5.686   0.885   1.384
   10CHTO   C13 4170   5.732   0.875   1.227
   10CHTO   H26 4171   5.668   0.945   1.169
   10CHTO   C11 4172   5.719   0.726   1.174
   10CHTO   H24 4173   5.612   0.706   1.154
   10CHTO    O8 4174   5.764   0.631   1.273
   10CHTO    H3 4175   5.709   0.635   1.349
   10CHTO    C9 4176   5.799   0.715   1.042
   10CHTO   H22 4177   5.766   0.800   0.980
   10CHTO    N2 4178   5.765   0.595   0.962
   10CHTO   H10 4179   5.854   0.538   0.939
   10CHTO   H11 4180   5.714   0.623   0.871
   10CHTO    C7 4181   5.953   0.734   1.076
   10CHTO   H20 4182   5.995   0.781   0.984
   10CHTO    O4 4183   5.976   0.820   1.189
   10CHTO   C14 4184   5.882   0.928   1.207
   10CHTO   H27 4185   5.885   0.992   1.116
   10CHTO   C18 4186   5.932   1.015   1.325
   10CHTO   O13 4187   5.853   1.133   1.341
   10CHTO    H7 4188   5.767   1.110   1.371
   10CHTO    O2 4189   6.029   0.588   1.104
   10CHTO    C1 4190   6.168   0.591   1.141
   10CHTO   H14 4191   6.184   0.670   1.218
   10CHTO    C2 4192   6.267   0.617   1.020
   10CHTO   H15 4193   6.237   0.547   0.941
   10CHTO    O6 4194   6.252   0.752   0.973
   10CHTO    H1 4195   6.167   0.764   0.936
   10CHTO    C3 4196   6.420   0.589   1.062
   10CHTO   H16 4197   6.454   0.670   1.129
   10CHTO    N1 4198   6.512   0.590   0.943
   10CHTO    H8 4199   6.484   0.512   0.874
   10CHTO    H9 4200   6.614   0.577   0.975
   10CHTO    C4 4201   6.433   0.456   1.146
   10CHTO   H17 4202   6.419   0.370   1.079
   10CHTO    O1 4203   6.337   0.453   1.253
   10CHTO    C5 4204   6.201   0.455   1.208
   10CHTO   H18 4205   6.185   0.376   1.135
   10CHTO   C16 4206   6.110   0.428   1.331
   10CHTO   O11 4207   6.130   0.296   1.382
   10CHTO    H5 4208   6.098   0.232   1.320
   10CHTO    O3 4209   6.561   0.448   1.212
   10CHTO    C6 4210   6.608   0.312   1.243
   10CHTO   H19 4211   6.529   0.237   1.232
   10CHTO    C8 4212   6.725   0.272   1.147
   10CHTO   H21 4213   6.800   0.351   1.150
   10CHTO    O7 4214   6.669   0.264   1.014
   10CHTO    H2 4215   6.738   0.251   0.952
   10CHTO   C12 4216   6.791   0.136   1.192
   10CHTO   H25 4217   6.714   0.057   1.176
   10CHTO    N3 4218   6.908   0.100   1.106
   10CHTO   H12 4219   6.877   0.090   1.003
   10CHTO   H13 4220   6.985   0.176   1.114
   10CHTO   C15 4221   6.825   0.141   1.345
   10CHTO   H28 4222   6.906   0.212   1.366
   10CHTO   O10 4223   6.863   0.003   1.404
   10CHTO    H4 4224   6.895   0.012   1.492
   10CHTO    O5 4225   6.709   0.176   1.422
   10CHTO   C10 4226   6.657   0.306   1.391
   10CHTO   H23 4227   6.736   0.379   1.406
   10CHTO   C17 4228   6.545   0.339   1.492
   10CHTO   O12 4229   6.436   0.246   1.488
   10CHTO    H6 4230   6.391   0.254   1.406
   11CHTO  H203 4231   7.942   5.170   0.600
   11CHTO   O82 4232   7.975   5.214   0.524
   11CHTO  C123 4233   7.945   5.355   0.529
   11CHTO  H227 4234   7.990   5.403   0.441
   11CHTO   O77 4235   7.800   5.360   0.520
   11CHTO  C118 4236   7.748   5.494   0.511
   11CHTO  H222 4237   7.797   5.546   0.427
   11CHTO  C125 4238   7.593   5.485   0.480
   11CHTO   O84 4239   7.521   5.420   0.585
   11CHTO  H205 4240   7.430   5.416   0.563
   11CHTO  C114 4241   7.777   5.569   0.642
   11CHTO  H218 4242   7.726   5.518   0.724
   11CHTO  C116 4243   7.930   5.569   0.674
   11CHTO  H220 4244   7.980   5.636   0.602
   11CHTO   O79 4245   7.950   5.626   0.804
   11CHTO  H201 4246   7.928   5.717   0.804
   11CHTO  C120 4247   7.993   5.424   0.663
   11CHTO  H224 4248   7.956   5.366   0.750
   11CHTO   N21 4249   8.141   5.427   0.673
   11CHTO  H211 4250   8.177   5.334   0.715
   11CHTO  H212 4251   8.174   5.510   0.734
   11CHTO   O75 4252   7.724   5.701   0.623
   11CHTO  C112 4253   7.638   5.758   0.749
   11CHTO  H216 4254   7.689   5.731   0.843
   11CHTO   O73 4255   7.507   5.698   0.741
   11CHTO  C113 4256   7.413   5.742   0.840
   11CHTO  H217 4257   7.454   5.722   0.941
   11CHTO  C124 4258   7.285   5.660   0.825
   11CHTO   O83 4259   7.305   5.520   0.850
   11CHTO  H204 4260   7.325   5.507   0.941
   11CHTO  C109 4261   7.386   5.894   0.822
   11CHTO  H213 4262   7.346   5.908   0.720
   11CHTO  C110 4263   7.521   5.971   0.838
   11CHTO  H214 4264   7.556   5.958   0.941
   11CHTO   O78 4265   7.496   6.111   0.816
   11CHTO  H200 4266   7.574   6.160   0.833
   11CHTO  C111 4267   7.627   5.915   0.738
   11CHTO  H215 4268   7.595   5.938   0.636
   11CHTO   N19 4269   7.762   5.976   0.755
   11CHTO  H207 4270   7.757   6.082   0.737
   11CHTO  H208 4271   7.799   5.958   0.855
   11CHTO   O74 4272   7.287   5.941   0.919
   11CHTO  C115 4273   7.147   6.000   0.849
   11CHTO  H219 4274   7.165   6.035   0.747
   11CHTO   O76 4275   7.039   5.890   0.838
   11CHTO  C122 4276   6.914   5.928   0.779
   11CHTO  H226 4277   6.846   5.844   0.792
   11CHTO  C126 4278   6.929   5.947   0.623
   11CHTO   O85 4279   6.970   5.827   0.557
   11CHTO  H206 4280   6.903   5.762   0.565
   11CHTO  C121 4281   6.850   6.055   0.847
   11CHTO  H225 4282   6.773   6.095   0.777
   11CHTO   O81 4283   6.780   6.012   0.965
   11CHTO  H202 4284   6.728   6.082   0.999
   11CHTO  C119 4285   6.953   6.169   0.877
   11CHTO  H223 4286   6.973   6.211   0.779
   11CHTO  C117 4287   7.092   6.120   0.934
   11CHTO  H221 4288   7.092   6.082   1.035
   11CHTO   N20 4289   7.191   6.233   0.933
   11CHTO  H209 4290   7.153   6.315   0.992
   11CHTO  H210 4291   7.286   6.200   0.974
   11CHTO   O80 4292   6.885   6.297   0.953
   11CHTO  C103 4293   6.842   6.289   1.115
   11CHTO  H190 4294   6.741   6.249   1.126
   11CHTO  C101 4295   6.939   6.214   1.218
   11CHTO  H188 4296   7.042   6.235   1.189
   11CHTO   O68 4297   6.916   6.063   1.207
   11CHTO  H168 4298   6.981   6.017   1.256
   11CHTO   C99 4299   6.920   6.263   1.369
   11CHTO  H186 4300   6.818   6.235   1.405
   11CHTO   N17 4301   7.018   6.203   1.466
   11CHTO  H174 4302   6.995   6.234   1.566
   11CHTO  H175 4303   7.119   6.232   1.438
   11CHTO   C97 4304   6.923   6.418   1.372
   11CHTO  H184 4305   7.021   6.451   1.332
   11CHTO   O64 4306   6.814   6.463   1.290
   11CHTO  C104 4307   6.836   6.443   1.151
   11CHTO  H191 4308   6.929   6.490   1.120
   11CHTO  C108 4309   6.724   6.515   1.074
   11CHTO   O71 4310   6.593   6.472   1.112
   11CHTO  H171 4311   6.529   6.519   1.061
   11CHTO   O62 4312   6.902   6.478   1.502
   11CHTO   C91 4313   6.908   6.622   1.504
   11CHTO  H178 4314   6.903   6.660   1.402
   11CHTO   C92 4315   7.043   6.675   1.561
   11CHTO  H179 4316   7.055   6.639   1.665
   11CHTO   O66 4317   7.152   6.616   1.487
   11CHTO  H166 4318   7.148   6.643   1.397
   11CHTO   C93 4319   7.048   6.833   1.556
   11CHTO  H180 4320   7.053   6.862   1.449
   11CHTO   N16 4321   7.170   6.891   1.618
   11CHTO  H172 4322   7.170   6.999   1.608
   11CHTO  H173 4323   7.176   6.863   1.722
   11CHTO   C94 4324   6.917   6.895   1.619
   11CHTO  H181 4325   6.914   6.882   1.727
   11CHTO   O61 4326   6.799   6.834   1.566
   11CHTO   C95 4327   6.792   6.692   1.584
   11CHTO  H182 4328   6.800   6.668   1.690
   11CHTO  C106 4329   6.651   6.642   1.537
   11CHTO   O69 4330   6.627   6.670   1.399
   11CHTO  H169 4331   6.542   6.639   1.374
   11CHTO   O63 4332   6.904   7.049   1.580
   11CHTO   C96 4333   6.869   7.138   1.701
   11CHTO  H183 4334   6.925   7.101   1.787
   11CHTO   C98 4335   6.718   7.145   1.741
   11CHTO  H185 4336   6.660   7.186   1.657
   11CHTO   O67 4337   6.667   7.012   1.763
   11CHTO  H167 4338   6.667   6.963   1.683
   11CHTO  C102 4339   6.698   7.233   1.873
   11CHTO  H189 4340   6.718   7.165   1.957
   11CHTO   N18 4341   6.560   7.282   1.895
   11CHTO  H176 4342   6.530   7.346   1.814
   11CHTO  H177 4343   6.554   7.337   1.988
   11CHTO  C105 4344   6.805   7.347   1.880
   11CHTO  H192 4345   6.762   7.436   1.926
   11CHTO   O65 4346   6.856   7.387   1.751
   11CHTO  C100 4347   6.918   7.284   1.669
   11CHTO  H187 4348   6.890   7.306   1.565
   11CHTO  C107 4349   7.072   7.293   1.678
   11CHTO   O70 4350   7.118   7.423   1.639
   11CHTO  H170 4351   7.095   7.486   1.704
   11CHTO   O57 4352   6.918   7.288   1.974
   11CHTO   C85 4353   6.962   7.363   2.089
   11CHTO  H157 4354   6.873   7.412   2.130
   11CHTO   C83 4355   7.057   7.479   2.043
   11CHTO  H155 4356   6.998   7.548   1.982
   11CHTO   O56 4357   7.162   7.428   1.958
   11CHTO  H135 4358   7.125   7.393   1.879
   11CHTO   C81 4359   7.109   7.554   2.168
   11CHTO  H153 4360   7.022   7.588   2.226
   11CHTO   N14 4361   7.182   7.679   2.135
   11CHTO  H141 4362   7.121   7.743   2.075
   11CHTO  H142 4363   7.208   7.731   2.225
   11CHTO   C79 4364   7.191   7.455   2.259
   11CHTO  H151 4365   7.222   7.510   2.348
   11CHTO   O52 4366   7.104   7.346   2.304
   11CHTO   C86 4367   7.035   7.273   2.197
   11CHTO  H158 4368   7.115   7.210   2.151
   11CHTO   C90 4369   6.937   7.174   2.264
   11CHTO   O60 4370   6.872   7.087   2.171
   11CHTO  H138 4371   6.935   7.027   2.134
   11CHTO   O50 4372   7.309   7.401   2.196
   11CHTO   C73 4373   7.436   7.337   2.212
   11CHTO  H145 4374   7.425   7.242   2.267
   11CHTO   C74 4375   7.534   7.429   2.292
   11CHTO  H146 4376   7.488   7.448   2.390
   11CHTO   O54 4377   7.655   7.354   2.317
   11CHTO  H133 4378   7.714   7.406   2.369
   11CHTO   C75 4379   7.556   7.563   2.211
   11CHTO  H147 4380   7.461   7.617   2.207
   11CHTO   N13 4381   7.650   7.658   2.275
   11CHTO  H139 4382   7.612   7.687   2.372
   11CHTO  H140 4383   7.747   7.611   2.288
   11CHTO   C76 4384   7.599   7.531   2.059
   11CHTO  H148 4385   7.702   7.497   2.058
   11CHTO   O49 4386   7.513   7.430   1.998
   11CHTO   C77 4387   7.499   7.308   2.073
   11CHTO  H149 4388   7.597   7.262   2.087
   11CHTO   C88 4389   7.416   7.206   1.993
   11CHTO   O58 4390   7.486   7.168   1.869
   11CHTO  H136 4391   7.433   7.108   1.820
   11CHTO   O51 4392   7.573   7.661   1.968
   11CHTO   C78 4393   7.694   7.702   1.873
   11CHTO  H150 4394   7.786   7.646   1.898
   11CHTO   C80 4395   7.721   7.853   1.888
   11CHTO  H152 4396   7.625   7.908   1.874
   11CHTO   O55 4397   7.767   7.875   2.023
   11CHTO  H134 4398   7.696   7.862   2.084
   11CHTO   C84 4399   7.827   7.905   1.782
   11CHTO  H156 4400   7.923   7.858   1.805
   11CHTO   N15 4401   7.848   8.054   1.790
   11CHTO  H143 4402   7.922   8.085   1.719
   11CHTO  H144 4403   7.756   8.105   1.770
   11CHTO   C87 4404   7.783   7.861   1.641
   11CHTO  H159 4405   7.690   7.911   1.614
   11CHTO   O53 4406   7.764   7.709   1.639
   11CHTO   C82 4407   7.657   7.669   1.726
   11CHTO  H154 4408   7.566   7.720   1.698
   11CHTO   C89 4409   7.631   7.517   1.705
   11CHTO   O59 4410   7.746   7.436   1.733
   11CHTO  H137 4411   7.765   7.440   1.825
   11CHTO   O45 4412   7.897   7.896   1.529
   11CHTO   C67 4413   7.850   7.882   1.394
   11CHTO  H124 4414   7.797   7.787   1.385
   11CHTO   C65 4415   7.751   7.999   1.355
   11CHTO  H122 4416   7.768   8.079   1.428
   11CHTO   O44 4417   7.618   7.948   1.372
   11CHTO  H102 4418   7.601   7.929   1.462
   11CHTO   C63 4419   7.784   8.064   1.215
   11CHTO  H120 4420   7.876   8.121   1.224
   11CHTO   N11 4421   7.689   8.169   1.166
   11CHTO  H108 4422   7.602   8.174   1.229
   11CHTO  H109 4423   7.658   8.150   1.065
   11CHTO   C61 4424   7.812   7.947   1.114
   11CHTO  H118 4425   7.840   7.994   1.018
   11CHTO   O40 4426   7.923   7.862   1.154
   11CHTO   C68 4427   7.970   7.873   1.293
   11CHTO  H125 4428   8.034   7.963   1.302
   11CHTO   C72 4429   8.060   7.751   1.324
   11CHTO   O48 4430   8.176   7.744   1.240
   11CHTO  H105 4431   8.234   7.816   1.259
   11CHTO   O38 4432   7.695   7.864   1.095
   11CHTO   C55 4433   7.694   7.784   0.976
   11CHTO  H112 4434   7.795   7.774   0.934
   11CHTO   C56 4435   7.593   7.847   0.871
   11CHTO  H113 4436   7.497   7.862   0.923
   11CHTO   O42 4437   7.638   7.978   0.831
   11CHTO  H100 4438   7.637   8.037   0.904
   11CHTO   C57 4439   7.574   7.750   0.747
   11CHTO  H114 4440   7.669   7.746   0.694
   11CHTO   N10 4441   7.469   7.795   0.652
   11CHTO  H106 4442   7.392   7.850   0.704
   11CHTO  H107 4443   7.513   7.860   0.577
   11CHTO   C58 4444   7.540   7.609   0.800
   11CHTO  H115 4445   7.442   7.612   0.853
   11CHTO   O37 4446   7.641   7.562   0.891
   11CHTO   C59 4447   7.649   7.640   1.012
   11CHTO  H116 4448   7.552   7.641   1.061
   11CHTO   C70 4449   7.747   7.570   1.108
   11CHTO   O46 4450   7.879   7.555   1.054
   11CHTO  H103 4451   7.933   7.512   1.117
   11CHTO   O39 4452   7.536   7.497   0.681
   11CHTO   C60 4453   7.429   7.404   0.699
   11CHTO  H117 4454   7.377   7.422   0.793
   11CHTO   C62 4455   7.324   7.420   0.585
   11CHTO  H119 4456   7.292   7.526   0.587
   11CHTO   O43 4457   7.384   7.393   0.457
   11CHTO  H101 4458   7.448   7.458   0.437
   11CHTO   C66 4459   7.197   7.327   0.618
   11CHTO  H123 4460   7.155   7.359   0.713
   11CHTO   N12 4461   7.088   7.342   0.519
   11CHTO  H110 4462   7.053   7.444   0.518
   11CHTO  H111 4463   7.122   7.312   0.421
   11CHTO   C69 4464   7.241   7.179   0.637
   11CHTO  H126 4465   7.269   7.134   0.538
   11CHTO   O41 4466   7.366   7.167   0.738
   11CHTO   C64 4467   7.480   7.257   0.704
   11CHTO  H121 4468   7.520   7.229   0.604
   11CHTO   C71 4469   7.595   7.238   0.806
   11CHTO   O47 4470   7.556   7.271   0.940
   11CHTO  H104 4471   7.628   7.257   0.998
   11CHTO   O34 4472   7.128   7.099   0.694
   11CHTO   C49 4473   7.073   6.968   0.721
   11CHTO   H91 4474   7.157   6.902   0.739
   11CHTO   C47 4475   6.995   6.922   0.596
   11CHTO   H89 4476   6.964   6.817   0.615
   11CHTO   O33 4477   7.083   6.924   0.482
   11CHTO   H70 4478   7.149   6.858   0.491
   11CHTO   C45 4479   6.864   7.015   0.579
   11CHTO   H87 4480   6.897   7.120   0.575
   11CHTO    N8 4481   6.789   6.986   0.454
   11CHTO   H75 4482   6.748   6.886   0.457
   11CHTO   H76 4483   6.709   7.058   0.442
   11CHTO   C43 4484   6.774   7.003   0.711
   11CHTO   H85 4485   6.690   7.072   0.698
   11CHTO   O29 4486   6.852   7.034   0.829
   11CHTO   C50 4487   6.981   6.972   0.846
   11CHTO   H92 4488   7.034   7.031   0.922
   11CHTO   C54 4489   6.970   6.832   0.913
   11CHTO   O36 4490   6.912   6.842   1.043
   11CHTO   H72 4491   6.908   6.756   1.082
   11CHTO   O27 4492   6.716   6.872   0.723
   11CHTO   C37 4493   6.631   6.782   0.796
   11CHTO   H79 4494   6.674   6.761   0.895
   11CHTO   C38 4495   6.491   6.846   0.819
   11CHTO   H80 4496   6.453   6.881   0.722
   11CHTO   O31 4497   6.507   6.958   0.907
   11CHTO   H68 4498   6.553   7.028   0.864
   11CHTO   C39 4499   6.389   6.742   0.880
   11CHTO   H81 4500   6.418   6.726   0.984
   11CHTO    N7 4501   6.248   6.793   0.881
   11CHTO   H73 4502   6.214   6.811   0.780
   11CHTO   H74 4503   6.183   6.721   0.929
   11CHTO   C40 4504   6.398   6.603   0.808
   11CHTO   H82 4505   6.345   6.605   0.712
   11CHTO   O26 4506   6.533   6.558   0.792
   11CHTO   C41 4507   6.618   6.649   0.717
   11CHTO   H83 4508   6.573   6.669   0.619
   11CHTO   C52 4509   6.755   6.582   0.694
   11CHTO   O35 4510   6.745   6.457   0.619
   11CHTO   H71 4511   6.830   6.421   0.606
   11CHTO   O28 4512   6.342   6.500   0.892
   11CHTO   C42 4513   6.282   6.381   0.832
   11CHTO   H84 4514   6.316   6.380   0.729
   11CHTO   C44 4515   6.126   6.383   0.826
   11CHTO   H86 4516   6.087   6.394   0.927
   11CHTO   O32 4517   6.089   6.501   0.751
   11CHTO   H69 4518   5.996   6.511   0.751
   11CHTO   C48 4519   6.069   6.250   0.763
   11CHTO   H90 4520   6.101   6.244   0.659
   11CHTO    N9 4521   5.918   6.249   0.759
   11CHTO   H77 4522   5.879   6.259   0.859
   11CHTO   H78 4523   5.883   6.330   0.697
   11CHTO   C51 4524   6.127   6.128   0.842
   11CHTO   H93 4525   6.094   6.136   0.946
   11CHTO   O30 4526   6.270   6.131   0.832
   11CHTO   C46 4527   6.333   6.250   0.899
   11CHTO   H88 4528   6.304   6.249   1.004
   11CHTO   C53 4529   6.487   6.234   0.887
   11CHTO   O72 4530   6.531   6.230   0.751
   11CHTO  H199 4531   6.519   6.313   0.710
   11CHTO   O22 4532   6.091   6.001   0.786
   11CHTO   C31 4533   6.083   5.884   0.876
   11CHTO   H59 4534   6.137   5.913   0.969
   11CHTO   C29 4535   5.939   5.848   0.916
   11CHTO   H57 4536   5.884   5.822   0.824
   11CHTO   O21 4537   5.875   5.964   0.972
   11CHTO   H37 4538   5.866   6.031   0.906
   11CHTO   C27 4539   5.934   5.725   1.015
   11CHTO   H55 4540   5.977   5.756   1.112
   11CHTO    N5 4541   5.795   5.678   1.039
   11CHTO   H43 4542   5.768   5.691   1.143
   11CHTO   H44 4543   5.782   5.575   1.009
   11CHTO   C25 4544   6.027   5.609   0.962
   11CHTO   H53 4545   5.981   5.565   0.872
   11CHTO   O17 4546   6.159   5.659   0.926
   11CHTO   C32 4547   6.157   5.758   0.822
   11CHTO   H60 4548   6.103   5.720   0.735
   11CHTO   C36 4549   6.304   5.784   0.782
   11CHTO   O25 4550   6.315   5.867   0.666
   11CHTO   H40 4551   6.287   5.955   0.687
   11CHTO   O15 4552   6.049   5.493   1.072
   11CHTO   C19 4553   5.991   5.362   1.100
   11CHTO   H47 4554   6.077   5.303   1.135
   11CHTO   C20 4555   5.883   5.364   1.213
   11CHTO   H48 4556   5.810   5.445   1.198
   11CHTO   O19 4557   5.954   5.394   1.335
   11CHTO   H35 4558   6.013   5.325   1.357
   11CHTO   C21 4559   5.802   5.229   1.227
   11CHTO   H49 4560   5.869   5.151   1.263
   11CHTO    N4 4561   5.689   5.238   1.324
   11CHTO   H41 4562   5.728   5.260   1.422
   11CHTO   H42 4563   5.621   5.316   1.294
   11CHTO   C22 4564   5.755   5.187   1.085
   11CHTO   H50 4565   5.691   5.266   1.045
   11CHTO   O14 4566   5.870   5.169   1.002
   11CHTO   C23 4567   5.940   5.290   0.970
   11CHTO   H51 4568   5.872   5.354   0.911
   11CHTO   C34 4569   6.056   5.245   0.880
   11CHTO   O23 4570   6.129   5.354   0.822
   11CHTO   H38 4571   6.177   5.399   0.889
   11CHTO   O16 4572   5.686   5.060   1.080
   11CHTO   C24 4573   5.594   5.047   0.945
   11CHTO   H52 4574   5.613   5.129   0.874
   11CHTO   C26 4575   5.445   5.048   0.984
   11CHTO   H54 4576   5.426   4.962   1.051
   11CHTO   O20 4577   5.418   5.169   1.057
   11CHTO   H36 4578   5.330   5.169   1.090
   11CHTO   C30 4579   5.354   5.034   0.858
   11CHTO   H58 4580   5.362   5.126   0.798
   11CHTO    N6 4581   5.210   5.021   0.893
   11CHTO   H45 4582   5.177   5.109   0.946
   11CHTO   H46 4583   5.195   4.935   0.957
   11CHTO   C33 4584   5.401   4.917   0.765
   11CHTO   H61 4585   5.368   4.821   0.808
   11CHTO   O18 4586   5.545   4.912   0.751
   11CHTO   C28 4587   5.625   4.915   0.870
   11CHTO   H56 4588   5.601   4.831   0.935
   11CHTO   C35 4589   5.772   4.905   0.823
   11CHTO   O24 4590   5.865   4.889   0.930
   11CHTO   H39 4591   5.868   4.967   0.983
   11CHTO    O9 4592   5.336   4.925   0.636
   11CHTO   C13 4593   5.403   5.042   0.538
   11CHTO   H26 4594   5.477   5.100   0.598
   11CHTO   C11 4595   5.291   5.135   0.478
   11CHTO   H24 4596   5.234   5.179   0.562
   11CHTO    O8 4597   5.199   5.054   0.401
   11CHTO    H3 4598   5.153   4.995   0.458
   11CHTO    C9 4599   5.361   5.250   0.400
   11CHTO   H22 4600   5.400   5.318   0.478
   11CHTO    N2 4601   5.266   5.337   0.326
   11CHTO   H10 4602   5.317   5.425   0.289
   11CHTO   H11 4603   5.223   5.281   0.244
   11CHTO    C7 4604   5.487   5.197   0.319
   11CHTO   H20 4605   5.572   5.217   0.389
   11CHTO    O4 4606   5.479   5.055   0.297
   11CHTO   C14 4607   5.488   4.977   0.418
   11CHTO   H27 4608   5.594   4.973   0.449
   11CHTO   C18 4609   5.445   4.831   0.386
   11CHTO   O13 4610   5.531   4.770   0.290
   11CHTO    H7 4611   5.520   4.810   0.207
   11CHTO    O2 4612   5.520   5.271   0.174
   11CHTO    C1 4613   5.631   5.363   0.177
   11CHTO   H14 4614   5.682   5.358   0.276
   11CHTO    C2 4615   5.589   5.513   0.151
   11CHTO   H15 4616   5.532   5.513   0.056
   11CHTO    O6 4617   5.504   5.556   0.258
   11CHTO    H1 4618   5.422   5.511   0.254
   11CHTO    C3 4619   5.719   5.607   0.137
   11CHTO   H16 4620   5.775   5.605   0.232
   11CHTO    N1 4621   5.684   5.750   0.109
   11CHTO    H8 4622   5.624   5.790   0.189
   11CHTO    H9 4623   5.630   5.757   0.016
   11CHTO    C4 4624   5.814   5.544   0.030
   11CHTO   H17 4625   5.763   5.543   2.765
   11CHTO    O1 4626   5.849   5.410   0.068
   11CHTO    C5 4627   5.738   5.318   0.072
   11CHTO   H18 4628   5.690   5.314   2.807
   11CHTO   C16 4629   5.794   5.178   0.106
   11CHTO   O11 4630   5.885   5.132   0.005
   11CHTO    H5 4631   5.965   5.182   0.009
   11CHTO    O3 4632   5.940   5.614   0.019
   11CHTO    C6 4633   5.998   5.616   2.716
   11CHTO   H19 4634   5.957   5.538   2.652
   11CHTO    C8 4635   5.972   5.754   2.647
   11CHTO   H21 4636   6.005   5.833   2.715
   11CHTO    O7 4637   5.830   5.764   2.626
   11CHTO    H2 4638   5.809   5.849   2.593
   11CHTO   C12 4639   6.053   5.764   2.511
   11CHTO   H25 4640   6.008   5.689   2.442
   11CHTO    N3 4641   6.035   5.899   2.446
   11CHTO   H12 4642   6.069   5.977   2.512
   11CHTO   H13 4643   5.930   5.914   2.421
   11CHTO   C15 4644   6.203   5.727   2.535
   11CHTO   H28 4645   6.254   5.802   2.596
   11CHTO   O10 4646   6.282   5.706   2.403
   11CHTO    H4 4647   6.374   5.696   2.421
   11CHTO    O5 4648   6.214   5.598   2.597
   11CHTO   C10 4649   6.152   5.589   2.726
   11CHTO   H23 4650   6.197   5.664   2.792
   11CHTO   C17 4651   6.184   5.452   2.786
   11CHTO   O12 4652   6.131   5.344   2.707
   11CHTO    H6 4653   6.153   5.262   2.748
   12CHTO  H203 4654   5.950   2.078   2.561
   12CHTO   O82 4655   5.973   1.988   2.566
   12CHTO  C123 4656   5.899   1.923   2.671
   12CHTO  H227 4657   5.903   1.986   2.761
   12CHTO   O77 4658   5.763   1.919   2.619
   12CHTO  C118 4659   5.666   1.865   2.711
   12CHTO  H222 4660   5.670   1.921   2.806
   12CHTO  C125 4661   5.524   1.883   2.648
   12CHTO   O84 4662   5.491   2.021   2.631
   12CHTO  H205 4663   5.478   2.061   2.715
   12CHTO  C114 4664   5.698   1.717   2.738
   12CHTO  H218 4665   5.690   1.662   2.644
   12CHTO  C116 4666   5.844   1.700   2.790
   12CHTO  H220 4667   5.849   1.738   0.063
   12CHTO   O79 4668   5.875   1.559   2.798
   12CHTO  H201 4669   5.873   1.520   2.713
   12CHTO  C120 4670   5.949   1.776   2.700
   12CHTO  H224 4671   5.956   1.720   2.604
   12CHTO   N21 4672   6.085   1.777   2.760
   12CHTO  H211 4673   6.160   1.782   2.682
   12CHTO  H212 4674   6.100   1.688   2.820
   12CHTO   O75 4675   5.599   1.673   2.832
   12CHTO  C112 4676   5.529   1.527   2.796
   12CHTO  H216 4677   5.595   1.471   2.728
   12CHTO   O73 4678   5.401   1.555   2.736
   12CHTO  C113 4679   5.332   1.437   2.692
   12CHTO  H217 4680   5.398   1.382   2.621
   12CHTO  C124 4681   5.208   1.480   2.613
   12CHTO   O83 4682   5.115   1.559   2.688
   12CHTO  H204 4683   5.154   1.642   2.709
   12CHTO  C109 4684   5.296   1.343   2.811
   12CHTO  H213 4685   5.219   1.395   0.039
   12CHTO  C110 4686   5.423   1.316   0.068
   12CHTO  H214 4687   5.484   1.242   0.016
   12CHTO   O78 4688   5.381   1.256   0.192
   12CHTO  H200 4689   5.325   1.313   0.240
   12CHTO  C111 4690   5.506   1.444   0.096
   12CHTO  H215 4691   5.450   1.508   0.165
   12CHTO   N19 4692   5.636   1.415   0.162
   12CHTO  H207 4693   5.689   1.507   0.182
   12CHTO  H208 4694   5.620   1.363   0.255
   12CHTO   O74 4695   5.238   1.220   2.757
   12CHTO  C115 4696   5.154   1.124   0.030
   12CHTO  H219 4697   5.202   1.119   0.128
   12CHTO   O76 4698   5.009   1.180   0.057
   12CHTO  C122 4699   4.919   1.098   0.134
   12CHTO  H226 4700   4.819   1.134   0.110
   12CHTO  C126 4701   4.936   1.123   0.289
   12CHTO   O85 4702   5.068   1.099   0.340
   12CHTO  H206 4703   5.069   1.115   0.432
   12CHTO  C121 4704   4.923   0.944   0.095
   12CHTO  H225 4705   4.873   0.887   0.176
   12CHTO   O81 4706   4.846   0.925   2.808
   12CHTO  H202 4707   4.886   0.968   2.735
   12CHTO  C119 4708   5.069   0.889   0.080
   12CHTO  H223 4709   5.117   0.908   0.176
   12CHTO  C117 4710   5.147   0.976   2.807
   12CHTO  H221 4711   5.103   0.984   2.707
   12CHTO   N20 4712   5.286   0.923   2.784
   12CHTO  H209 4713   5.280   0.823   2.743
   12CHTO  H210 4714   5.341   0.922   0.044
   12CHTO   O80 4715   5.083   0.722   0.068
   12CHTO  C103 4716   4.966   0.635   0.011
   12CHTO  H190 4717   4.871   0.689   0.010
   12CHTO  C101 4718   4.989   0.573   2.701
   12CHTO  H188 4719   5.086   0.524   2.699
   12CHTO   O68 4720   4.990   0.689   2.597
   12CHTO  H168 4721   5.013   0.655   2.512
   12CHTO   C99 4722   4.876   0.463   2.667
   12CHTO  H186 4723   4.777   0.513   2.664
   12CHTO   N17 4724   4.895   0.394   2.535
   12CHTO  H174 4725   4.897   0.468   2.456
   12CHTO  H175 4726   4.986   0.336   2.536
   12CHTO   C97 4727   4.868   0.360   2.783
   12CHTO  H184 4728   4.961   0.300   2.784
   12CHTO   O64 4729   4.847   0.427   0.076
   12CHTO  C104 4730   4.950   0.519   0.117
   12CHTO  H191 4731   5.045   0.467   0.128
   12CHTO  C108 4732   4.914   0.571   0.256
   12CHTO   O71 4733   4.787   0.637   0.259
   12CHTO  H171 4734   4.768   0.667   0.346
   12CHTO   O62 4735   4.752   0.274   2.774
   12CHTO   C91 4736   4.755   0.154   0.023
   12CHTO  H178 4737   4.845   0.155   0.085
   12CHTO   C92 4738   4.765   0.030   2.762
   12CHTO  H179 4739   4.685   0.036   2.686
   12CHTO   O66 4740   4.889   0.040   2.689
   12CHTO  H166 4741   4.895   9.971   2.625
   12CHTO   C93 4742   4.757   9.893   0.009
   12CHTO  H180 4743   4.850   9.884   0.067
   12CHTO   N16 4744   4.751   9.774   2.753
   12CHTO  H172 4745   4.747   9.684   2.812
   12CHTO  H173 4746   4.838   9.772   2.688
   12CHTO   C94 4747   4.635   9.896   0.109
   12CHTO  H181 4748   4.540   9.903   0.056
   12CHTO   O61 4749   4.643   0.012   0.192
   12CHTO   C95 4750   4.631   0.136   0.120
   12CHTO  H182 4751   4.538   0.134   0.062
   12CHTO  C106 4752   4.618   0.251   0.226
   12CHTO   O69 4753   4.575   0.373   0.166
   12CHTO  H169 4754   4.642   0.407   0.111
   12CHTO   O63 4755   4.632   9.759   0.205
   12CHTO   C96 4756   4.702   9.766   0.349
   12CHTO  H183 4757   4.714   9.870   0.378
   12CHTO   C98 4758   4.842   9.698   0.355
   12CHTO  H185 4759   4.837   9.600   0.306
   12CHTO   O67 4760   4.933   9.776   0.275
   12CHTO  H167 4761   4.944   9.862   0.312
   12CHTO  C102 4762   4.897   9.682   0.506
   12CHTO  H189 4763   4.915   9.784   0.543
   12CHTO   N18 4764   5.027   9.611   0.518
   12CHTO  H176 4765   5.103   9.664   0.464
   12CHTO  H177 4766   5.018   9.510   0.478
   12CHTO  C105 4767   4.786   9.617   0.593
   12CHTO  H192 4768   4.768   9.515   0.559
   12CHTO   O65 4769   4.662   9.690   0.585
   12CHTO  C100 4770   4.605   9.697   0.454
   12CHTO  H187 4771   4.584   9.595   0.420
   12CHTO  C107 4772   4.469   9.771   0.463
   12CHTO   O70 4773   4.485   9.904   0.515
   12CHTO  H170 4774   4.402   9.946   0.519
   12CHTO   O57 4775   4.836   9.617   0.747
   12CHTO   C85 4776   4.787   9.515   0.837
   12CHTO  H157 4777   4.710   9.457   0.781
   12CHTO   C83 4778   4.711   9.583   0.955
   12CHTO  H155 4779   4.619   9.627   0.915
   12CHTO   O56 4780   4.788   9.693   1.007
   12CHTO  H135 4781   4.868   9.662   1.046
   12CHTO   C81 4782   4.672   9.477   1.063
   12CHTO  H153 4783   4.608   9.402   1.015
   12CHTO   N14 4784   4.589   9.531   1.173
   12CHTO  H141 4785   4.644   9.605   1.228
   12CHTO  H142 4786   4.500   9.577   1.133
   12CHTO   C79 4787   4.802   9.404   1.115
   12CHTO  H151 4788   4.769   9.327   1.185
   12CHTO   O52 4789   4.866   9.335   1.004
   12CHTO   C86 4790   4.903   9.421   0.892
   12CHTO  H158 4791   4.987   9.482   0.932
   12CHTO   C90 4792   4.964   9.334   0.779
   12CHTO   O60 4793   4.871   9.236   0.731
   12CHTO  H138 4794   4.855   9.171   0.797
   12CHTO   O50 4795   4.897   9.489   1.180
   12CHTO   C73 4796   5.003   9.513   1.274
   12CHTO  H145 4797   4.973   9.478   1.374
   12CHTO   C74 4798   5.031   9.666   1.282
   12CHTO  H146 4799   4.935   9.715   1.304
   12CHTO   O54 4800   5.116   9.691   1.396
   12CHTO  H133 4801   5.071   9.673   1.476
   12CHTO   C75 4802   5.093   9.716   1.146
   12CHTO  H147 4803   5.021   9.697   1.065
   12CHTO   N13 4804   5.120   9.862   1.142
   12CHTO  H139 4805   5.191   9.889   1.219
   12CHTO  H140 4806   5.160   9.890   1.046
   12CHTO   C76 4807   5.223   9.629   1.114
   12CHTO  H148 4808   5.294   9.645   1.195
   12CHTO   O49 4809   5.187   9.487   1.109
   12CHTO   C77 4810   5.135   9.439   1.234
   12CHTO  H149 4811   5.209   9.456   1.313
   12CHTO   C88 4812   5.117   9.287   1.227
   12CHTO   O58 4813   5.247   9.219   1.216
   12CHTO  H136 4814   5.286   9.238   1.132
   12CHTO   O51 4815   5.286   9.661   0.970
   12CHTO   C78 4816   5.435   9.606   0.963
   12CHTO  H150 4817   5.448   9.520   1.032
   12CHTO   C80 4818   5.536   9.716   0.999
   12CHTO  H152 4819   5.528   9.798   0.924
   12CHTO   O55 4820   5.499   9.767   1.128
   12CHTO  H134 4821   5.554   9.840   1.150
   12CHTO   C84 4822   5.683   9.657   1.000
   12CHTO  H156 4823   5.687   9.581   1.078
   12CHTO   N15 4824   5.786   9.760   1.033
   12CHTO  H143 4825   5.766   9.802   1.130
   12CHTO  H144 4826   5.884   9.716   1.034
   12CHTO   C87 4827   5.713   9.588   0.864
   12CHTO  H159 4828   5.724   9.665   0.787
   12CHTO   O53 4829   5.594   9.490   0.823
   12CHTO   C82 4830   5.466   9.555   0.821
   12CHTO  H154 4831   5.468   9.638   0.750
   12CHTO   C89 4832   5.358   9.456   0.773
   12CHTO   O59 4833   5.378   9.422   0.636
   12CHTO  H137 4834   5.309   9.365   0.607
   12CHTO   O45 4835   5.851   9.497   0.877
   12CHTO   C67 4836   5.936   9.487   0.761
   12CHTO  H124 4837   6.018   9.421   0.787
   12CHTO   C65 4838   5.862   9.426   0.636
   12CHTO  H122 4839   5.769   9.383   0.672
   12CHTO   O44 4840   5.944   9.321   0.583
   12CHTO  H102 4841   6.023   9.356   0.545
   12CHTO   C63 4842   5.823   9.538   0.533
   12CHTO  H120 4843   5.767   9.616   0.585
   12CHTO   N11 4844   5.727   9.498   0.425
   12CHTO  H108 4845   5.639   9.456   0.468
   12CHTO  H109 4846   5.701   9.584   0.366
   12CHTO   C61 4847   5.957   9.603   0.482
   12CHTO  H118 4848   5.931   9.695   0.428
   12CHTO   O40 4849   6.048   9.641   0.590
   12CHTO   C68 4850   6.003   9.628   0.728
   12CHTO  H125 4851   5.932   9.711   0.748
   12CHTO   C72 4852   6.127   9.654   0.817
   12CHTO   O48 4853   6.100   9.652   0.958
   12CHTO  H105 4854   6.045   9.725   0.981
   12CHTO   O38 4855   6.030   9.512   0.397
   12CHTO   C55 4856   6.134   9.568   0.315
   12CHTO  H112 4857   6.162   9.668   0.352
   12CHTO   C56 4858   6.085   9.572   0.164
   12CHTO  H113 4859   6.048   9.472   0.139
   12CHTO   O42 4860   5.971   9.660   0.154
   12CHTO  H100 4861   5.936   9.657   0.067
   12CHTO   C57 4862   6.202   9.614   0.067
   12CHTO  H114 4863   6.227   9.718   0.089
   12CHTO   N10 4864   6.168   9.605   2.755
   12CHTO  H106 4865   6.096   9.526   2.739
   12CHTO  H107 4866   6.125   9.699   2.722
   12CHTO   C58 4867   6.327   9.527   0.098
   12CHTO  H115 4868   6.304   9.421   0.072
   12CHTO   O37 4869   6.361   9.536   0.238
   12CHTO   C59 4870   6.263   9.481   0.326
   12CHTO  H116 4871   6.243   9.377   0.300
   12CHTO   C70 4872   6.323   9.486   0.467
   12CHTO   O46 4873   6.249   9.408   0.563
   12CHTO  H103 4874   6.258   9.317   0.544
   12CHTO   O39 4875   6.458   9.578   0.019
   12CHTO   C60 4876   6.555   9.474   2.832
   12CHTO  H117 4877   6.524   9.384   0.053
   12CHTO   C62 4878   6.567   9.438   2.681
   12CHTO  H119 4879   6.465   9.408   2.648
   12CHTO   O43 4880   6.605   9.555   2.606
   12CHTO  H101 4881   6.691   9.584   2.631
   12CHTO   C66 4882   6.666   9.314   2.664
   12CHTO  H123 4883   6.627   9.230   2.721
   12CHTO   N12 4884   6.676   9.267   2.523
   12CHTO  H110 4885   6.649   9.162   2.516
   12CHTO  H111 4886   6.774   9.285   2.482
   12CHTO   C69 4887   6.805   9.348   2.726
   12CHTO  H126 4888   6.856   9.426   2.664
   12CHTO   O41 4889   6.788   9.401   0.041
   12CHTO   C64 4890   6.694   9.514   0.056
   12CHTO  H121 4891   6.732   9.603   0.002
   12CHTO   C71 4892   6.690   9.548   0.207
   12CHTO   O47 4893   6.623   9.672   0.233
   12CHTO  H104 4894   6.623   9.689   0.325
   12CHTO   O34 4895   6.893   9.225   2.731
   12CHTO   C49 4896   7.038   9.203   2.720
   12CHTO   H91 4897   7.063   9.210   2.614
   12CHTO   C47 4898   7.069   9.061   2.772
   12CHTO   H89 4899   7.177   9.046   2.747
   12CHTO   O33 4900   6.993   8.963   2.699
   12CHTO   H70 4901   7.019   8.877   2.724
   12CHTO   C45 4902   7.043   9.050   0.100
   12CHTO   H87 4903   6.939   9.017   0.114
   12CHTO    N8 4904   7.133   8.945   0.154
   12CHTO   H75 4905   7.236   8.974   0.142
   12CHTO   H76 4906   7.115   8.851   0.103
   12CHTO   C43 4907   7.052   9.195   0.171
   12CHTO   H85 4908   6.953   9.239   0.159
   12CHTO   O29 4909   7.153   9.274   0.107
   12CHTO   C50 4910   7.124   9.306   2.801
   12CHTO   H92 4911   7.070   9.402   2.801
   12CHTO   C54 4912   7.256   9.341   2.728
   12CHTO   O36 4913   7.351   9.234   2.732
   12CHTO   H72 4914   7.428   9.258   2.686
   12CHTO   O27 4915   7.073   9.192   0.313
   12CHTO   C37 4916   7.022   9.218   0.445
   12CHTO   H79 4917   7.103   9.253   0.510
   12CHTO   C38 4918   6.914   9.332   0.444
   12CHTO   H80 4919   6.840   9.309   0.366
   12CHTO   O31 4920   6.982   9.454   0.408
   12CHTO   H68 4921   6.920   9.523   0.397
   12CHTO   C39 4922   6.841   9.345   0.583
   12CHTO   H81 4923   6.915   9.377   0.657
   12CHTO    N7 4924   6.730   9.447   0.585
   12CHTO   H73 4925   6.750   9.523   0.658
   12CHTO   H74 4926   6.716   9.491   0.487
   12CHTO   C40 4927   6.789   9.203   0.627
   12CHTO   H82 4928   6.714   9.169   0.556
   12CHTO   O26 4929   6.901   9.114   0.634
   12CHTO   C41 4930   6.962   9.088   0.505
   12CHTO   H83 4931   6.887   9.047   0.436
   12CHTO   C52 4932   7.072   8.980   0.526
   12CHTO   O35 4933   7.016   8.851   0.572
   12CHTO   H71 4934   6.981   8.861   0.659
   12CHTO   O28 4935   6.735   9.198   0.761
   12CHTO   C42 4936   6.626   9.106   0.797
   12CHTO   H84 4937   6.647   9.082   0.901
   12CHTO   C44 4938   6.620   8.968   0.721
   12CHTO   H86 4939   6.609   8.988   0.614
   12CHTO   O32 4940   6.746   8.902   0.741
   12CHTO   H69 4941   6.750   8.823   0.690
   12CHTO   C48 4942   6.499   8.878   0.767
   12CHTO   H90 4943   6.520   8.843   0.869
   12CHTO    N9 4944   6.487   8.753   0.684
   12CHTO   H77 4945   6.577   8.694   0.693
   12CHTO   H78 4946   6.470   8.779   0.580
   12CHTO   C51 4947   6.365   8.961   0.770
   12CHTO   H93 4948   6.338   8.986   0.667
   12CHTO   O30 4949   6.384   9.078   0.851
   12CHTO   C46 4950   6.487   9.174   0.793
   12CHTO   H88 4951   6.460   9.197   0.689
   12CHTO   C53 4952   6.485   9.303   0.878
   12CHTO   O72 4953   6.359   9.370   0.867
   12CHTO  H199 4954   6.292   9.320   0.910
   12CHTO   O22 4955   6.260   8.884   0.832
   12CHTO   C31 4956   6.118   8.924   0.843
   12CHTO   H59 4957   6.067   8.838   0.892
   12CHTO   C29 4958   6.093   9.048   0.934
   12CHTO   H57 4959   6.137   9.136   0.885
   12CHTO   O21 4960   6.162   9.029   1.059
   12CHTO   H37 4961   6.255   9.028   1.045
   12CHTO   C27 4962   5.938   9.072   0.954
   12CHTO   H55 4963   5.897   8.986   1.009
   12CHTO    N5 4964   5.908   9.195   1.031
   12CHTO   H43 4965   5.945   9.282   0.979
   12CHTO   H44 4966   5.953   9.189   1.130
   12CHTO   C25 4967   5.867   9.074   0.815
   12CHTO   H53 4968   5.897   9.165   0.761
   12CHTO   O17 4969   5.905   8.959   0.733
   12CHTO   C32 4970   6.045   8.946   0.707
   12CHTO   H60 4971   6.083   9.037   0.660
   12CHTO   C36 4972   6.059   8.827   0.609
   12CHTO   O25 4973   6.184   8.829   0.540
   12CHTO   H40 4974   6.189   8.755   0.483
   12CHTO   O15 4975   5.714   9.071   0.828
   12CHTO   C19 4976   5.601   9.108   0.743
   12CHTO   H47 4977   5.595   9.217   0.752
   12CHTO   C20 4978   5.616   9.070   0.592
   12CHTO   H48 4979   5.627   8.961   0.578
   12CHTO   O19 4980   5.737   9.132   0.544
   12CHTO   H35 4981   5.755   9.104   0.456
   12CHTO   C21 4982   5.491   9.119   0.509
   12CHTO   H49 4983   5.488   9.228   0.510
   12CHTO    N4 4984   5.498   9.079   0.366
   12CHTO   H41 4985   5.501   8.972   0.357
   12CHTO   H42 4986   5.413   9.117   0.312
   12CHTO   C22 4987   5.361   9.068   0.578
   12CHTO   H50 4988   5.357   8.959   0.569
   12CHTO   O14 4989   5.358   9.106   0.716
   12CHTO   C23 4990   5.466   9.052   0.795
   12CHTO   H51 4991   5.461   8.942   0.787
   12CHTO   C34 4992   5.443   9.089   0.942
   12CHTO   O23 4993   5.324   9.026   0.992
   12CHTO   H38 4994   5.311   9.052   1.081
   12CHTO   O16 4995   5.241   9.129   0.525
   12CHTO   C24 4996   5.149   9.027   0.436
   12CHTO   H52 4997   5.204   8.937   0.408
   12CHTO   C26 4998   5.100   9.099   0.308
   12CHTO   H54 4999   5.036   9.185   0.338
   12CHTO   O20 5000   5.214   9.150   0.236
   12CHTO   H36 5001   5.186   9.201   0.163
   12CHTO   C30 5002   5.016   9.000   0.222
   12CHTO   H58 5003   5.081   8.921   0.183
   12CHTO    N6 5004   4.959   9.066   0.100
   12CHTO   H45 5005   4.904   8.995   0.041
   12CHTO   H46 5006   4.892   9.146   0.130
   12CHTO   C33 5007   4.905   8.930   0.307
   12CHTO   H61 5008   4.822   9.001   0.324
   12CHTO   O18 5009   4.953   8.887   0.435
   12CHTO   C28 5010   5.025   8.982   0.516
   12CHTO   H56 5011   4.962   9.068   0.537
   12CHTO   C35 5012   5.063   8.914   0.649
   12CHTO   O24 5013   4.949   8.876   0.727
   12CHTO   H39 5014   4.906   8.953   0.759
   12CHTO    O9 5015   4.846   8.821   0.233
   12CHTO   C13 5016   4.938   8.685   0.232
   12CHTO   H26 5017   5.039   8.711   0.270
   12CHTO   C11 5018   4.944   8.626   0.085
   12CHTO   H24 5019   4.999   8.698   0.023
   12CHTO    O8 5020   4.811   8.614   0.030
   12CHTO    H3 5021   4.816   8.587   2.773
   12CHTO    C9 5022   5.024   8.493   0.091
   12CHTO   H22 5023   5.122   8.519   0.132
   12CHTO    N2 5024   5.054   8.436   2.789
   12CHTO   H10 5025   5.122   8.352   2.800
   12CHTO   H11 5026   4.963   8.405   2.740
   12CHTO    C7 5027   4.953   8.393   0.189
   12CHTO   H20 5028   5.023   8.306   0.195
   12CHTO    O4 5029   4.940   8.450   0.321
   12CHTO   C14 5030   4.881   8.581   0.337
   12CHTO   H27 5031   4.911   8.616   0.438
   12CHTO   C18 5032   4.726   8.573   0.336
   12CHTO   O13 5033   4.676   8.493   0.443
   12CHTO    H7 5034   4.583   8.490   0.440
   12CHTO    O2 5035   4.808   8.346   0.137
   12CHTO    C1 5036   4.789   8.206   0.115
   12CHTO   H14 5037   4.887   8.155   0.104
   12CHTO    C2 5038   4.704   8.180   2.815
   12CHTO   H15 5039   4.619   8.250   2.820
   12CHTO    O6 5040   4.786   8.215   2.702
   12CHTO    H1 5041   4.736   8.208   2.623
   12CHTO    C3 5042   4.651   8.029   2.804
   12CHTO   H16 5043   4.737   7.962   2.786
   12CHTO    N1 5044   4.555   8.011   2.690
   12CHTO    H8 5045   4.471   8.077   2.701
   12CHTO    H9 5046   4.605   8.031   2.597
   12CHTO    C4 5047   4.591   7.983   0.110
   12CHTO   H17 5048   4.501   8.041   0.131
   12CHTO    O1 5049   4.689   8.004   0.213
   12CHTO    C5 5050   4.718   8.142   0.238
   12CHTO   H18 5051   4.625   8.197   0.256
   12CHTO   C16 5052   4.804   8.147   0.367
   12CHTO   O11 5053   4.731   8.102   0.482
   12CHTO    H5 5054   4.714   8.010   0.476
   12CHTO    O3 5055   4.557   7.842   0.110
   12CHTO    C6 5056   4.523   7.781   0.239
   12CHTO   H19 5057   4.559   7.838   0.325
   12CHTO    C8 5058   4.369   7.765   0.257
   12CHTO   H21 5059   4.330   7.710   0.171
   12CHTO    O7 5060   4.311   7.897   0.259
   12CHTO    H2 5061   4.341   7.945   0.334
   12CHTO   C12 5062   4.337   7.684   0.390
   12CHTO   H25 5063   4.368   7.749   0.474
   12CHTO    N3 5064   4.190   7.660   0.406
   12CHTO   H12 5065   4.171   7.607   0.498
   12CHTO   H13 5066   4.152   7.603   0.322
   12CHTO   C15 5067   4.423   7.552   0.393
   12CHTO   H28 5068   4.389   7.480   0.319
   12CHTO   O10 5069   4.422   7.486   0.533
   12CHTO    H4 5070   4.464   7.402   0.529
   12CHTO    O5 5071   4.563   7.581   0.374
   12CHTO   C10 5072   4.591   7.642   0.247
   12CHTO   H23 5073   4.552   7.577   0.167
   12CHTO   C17 5074   4.743   7.652   0.227
   12CHTO   O12 5075   4.806   7.524   0.214
   12CHTO    H6 5076   4.780   7.484   0.134
   13CHTO  H203 5077   8.942   4.627   1.952
   13CHTO   O82 5078   8.849   4.624   1.966
   13CHTO  C123 5079   8.780   4.685   1.856
   13CHTO  H227 5080   8.805   4.631   1.764
   13CHTO   O77 5081   8.639   4.664   1.889
   13CHTO  C118 5082   8.548   4.713   1.789
   13CHTO  H222 5083   8.573   4.667   1.691
   13CHTO  C125 5084   8.402   4.669   1.829
   13CHTO   O84 5085   8.360   4.728   1.953
   13CHTO  H205 5086   8.411   4.693   2.024
   13CHTO  C114 5087   8.562   4.866   1.779
   13CHTO  H218 5088   8.540   4.908   1.877
   13CHTO  C116 5089   8.708   4.907   1.744
   13CHTO  H220 5090   8.729   4.875   1.639
   13CHTO   O79 5091   8.717   5.051   1.746
   13CHTO  H201 5092   8.700   5.084   1.832
   13CHTO  C120 5093   8.811   4.840   1.843
   13CHTO  H224 5094   8.796   4.889   1.941
   13CHTO   N21 5095   8.951   4.866   1.801
   13CHTO  H211 5096   9.016   4.867   1.887
   13CHTO  H212 5097   8.984   4.792   1.729
   13CHTO   O75 5098   8.465   4.911   1.683
   13CHTO  C112 5099   8.387   5.047   1.737
   13CHTO  H216 5100   8.457   5.107   1.798
   13CHTO   O73 5101   8.274   5.002   1.814
   13CHTO  C113 5102   8.195   5.109   1.869
   13CHTO  H217 5103   8.260   5.175   1.928
   13CHTO  C124 5104   8.091   5.049   1.965
   13CHTO   O83 5105   8.151   4.986   2.078
   13CHTO  H204 5106   8.191   5.050   2.134
   13CHTO  C109 5107   8.131   5.191   1.753
   13CHTO  H213 5108   8.069   5.121   1.695
   13CHTO  C110 5109   8.245   5.248   1.663
   13CHTO  H214 5110   8.301   5.321   1.722
   13CHTO   O78 5111   8.185   5.320   1.554
   13CHTO  H200 5112   8.135   5.262   1.499
   13CHTO  C111 5113   8.339   5.134   1.615
   13CHTO  H215 5114   8.282   5.068   1.548
   13CHTO   N19 5115   8.455   5.184   1.537
   13CHTO  H207 5116   8.515   5.101   1.503
   13CHTO  H208 5117   8.516   5.249   1.598
   13CHTO   O74 5118   8.048   5.299   1.805
   13CHTO  C115 5119   7.882   5.281   1.780
   13CHTO  H219 5120   7.850   5.332   1.689
   13CHTO   O76 5121   7.842   5.131   1.760
   13CHTO  C122 5122   7.702   5.103   1.748
   13CHTO  H226 5123   7.691   4.995   1.755
   13CHTO  C126 5124   7.653   5.142   1.603
   13CHTO   O85 5125   7.517   5.103   1.578
   13CHTO  H206 5126   7.511   5.009   1.575
   13CHTO  C121 5127   7.616   5.169   1.862
   13CHTO  H225 5128   7.511   5.160   1.833
   13CHTO   O81 5129   7.634   5.094   1.983
   13CHTO  H202 5130   7.602   5.007   1.973
   13CHTO  C119 5131   7.650   5.320   1.886
   13CHTO  H223 5132   7.616   5.373   1.796
   13CHTO  C117 5133   7.805   5.344   1.901
   13CHTO  H221 5134   7.851   5.299   1.989
   13CHTO   N20 5135   7.836   5.490   1.910
   13CHTO  H209 5136   7.786   5.533   1.996
   13CHTO  H210 5137   7.804   5.541   1.821
   13CHTO   O80 5138   7.557   5.392   2.005
   13CHTO  C103 5139   7.405   5.450   1.973
   13CHTO  H190 5140   7.371   5.508   2.059
   13CHTO  C101 5141   7.386   5.542   1.845
   13CHTO  H188 5142   7.425   5.490   1.758
   13CHTO   O68 5143   7.466   5.670   1.865
   13CHTO  H168 5144   7.432   5.719   1.938
   13CHTO   C99 5145   7.230   5.571   1.822
   13CHTO  H186 5146   7.189   5.622   1.912
   13CHTO   N17 5147   7.200   5.659   1.704
   13CHTO  H174 5148   7.094   5.679   1.699
   13CHTO  H175 5149   7.256   5.750   1.711
   13CHTO   C97 5150   7.156   5.435   1.814
   13CHTO  H184 5151   7.197   5.379   1.728
   13CHTO   O64 5152   7.175   5.364   1.938
   13CHTO  C104 5153   7.311   5.325   1.962
   13CHTO  H191 5154   7.346   5.261   1.881
   13CHTO  C108 5155   7.321   5.241   2.090
   13CHTO   O71 5156   7.246   5.119   2.078
   13CHTO  H171 5157   7.256   5.069   2.157
   13CHTO   O62 5158   7.012   5.446   1.804
   13CHTO   C91 5159   6.946   5.344   1.727
   13CHTO  H178 5160   7.020   5.272   1.690
   13CHTO   C92 5161   6.880   5.408   1.601
   13CHTO  H179 5162   6.818   5.493   1.633
   13CHTO   O66 5163   6.985   5.464   1.520
   13CHTO  H166 5164   7.025   5.537   1.564
   13CHTO   C93 5165   6.794   5.305   1.517
   13CHTO  H180 5166   6.864   5.233   1.472
   13CHTO   N16 5167   6.722   5.365   1.402
   13CHTO  H172 5168   6.615   5.355   1.412
   13CHTO  H173 5169   6.749   5.469   1.389
   13CHTO   C94 5170   6.698   5.227   1.613
   13CHTO  H181 5171   6.624   5.293   1.659
   13CHTO   O61 5172   6.772   5.167   1.720
   13CHTO   C95 5173   6.837   5.261   1.806
   13CHTO  H182 5174   6.762   5.329   1.848
   13CHTO  C106 5175   6.898   5.181   1.927
   13CHTO   O69 5176   6.995   5.086   1.885
   13CHTO  H169 5177   7.071   5.130   1.851
   13CHTO   O63 5178   6.626   5.105   1.536
   13CHTO   C96 5179   6.477   5.078   1.581
   13CHTO  H183 5180   6.441   4.992   1.525
   13CHTO   C98 5181   6.380   5.197   1.554
   13CHTO  H185 5182   6.424   5.291   1.591
   13CHTO   O67 5183   6.371   5.212   1.411
   13CHTO  H167 5184   6.319   5.287   1.390
   13CHTO  C102 5185   6.235   5.175   1.620
   13CHTO  H189 5186   6.189   5.092   1.566
   13CHTO   N18 5187   6.142   5.290   1.604
   13CHTO  H176 5188   6.127   5.311   1.499
   13CHTO  H177 5189   6.047   5.267   1.650
   13CHTO  C105 5190   6.255   5.134   1.769
   13CHTO  H192 5191   6.301   5.217   1.823
   13CHTO   O65 5192   6.341   5.019   1.781
   13CHTO  C100 5193   6.474   5.038   1.734
   13CHTO  H187 5194   6.520   5.119   1.792
   13CHTO  C107 5195   6.555   4.909   1.759
   13CHTO   O70 5196   6.569   4.882   1.899
   13CHTO  H170 5197   6.486   4.858   1.936
   13CHTO   O57 5198   6.112   5.100   1.833
   13CHTO   C85 5199   6.045   4.976   1.807
   13CHTO  H157 5200   6.111   4.915   1.742
   13CHTO   C83 5201   5.917   5.005   1.722
   13CHTO  H155 5202   5.949   5.041   1.624
   13CHTO   O56 5203   5.842   5.112   1.782
   13CHTO  H135 5204   5.808   5.086   1.865
   13CHTO   C81 5205   5.837   4.873   1.702
   13CHTO  H153 5206   5.902   4.801   1.652
   13CHTO   N14 5207   5.722   4.889   1.609
   13CHTO  H141 5208   5.649   4.955   1.652
   13CHTO  H142 5209   5.676   4.794   1.591
   13CHTO   C79 5210   5.797   4.814   1.842
   13CHTO  H151 5211   5.745   4.719   1.823
   13CHTO   O52 5212   5.917   4.783   1.918
   13CHTO   C86 5213   6.005   4.898   1.939
   13CHTO  H158 5214   5.948   4.964   2.008
   13CHTO   C90 5215   6.132   4.854   2.016
   13CHTO   O60 5216   6.100   4.807   2.147
   13CHTO  H138 5217   6.071   4.878   2.201
   13CHTO   O50 5218   5.712   4.900   1.919
   13CHTO   C73 5219   5.580   4.895   1.975
   13CHTO  H145 5220   5.526   4.807   1.937
   13CHTO   C74 5221   5.501   5.023   1.935
   13CHTO  H146 5222   5.502   5.030   1.825
   13CHTO   O54 5223   5.363   5.003   1.972
   13CHTO  H133 5224   5.311   5.077   1.944
   13CHTO   C75 5225   5.567   5.149   2.002
   13CHTO  H147 5226   5.671   5.158   1.966
   13CHTO   N13 5227   5.501   5.277   1.968
   13CHTO  H139 5228   5.504   5.292   1.861
   13CHTO  H140 5229   5.552   5.360   2.015
   13CHTO   C76 5230   5.574   5.125   2.160
   13CHTO  H148 5231   5.471   5.110   2.193
   13CHTO   O49 5232   5.649   5.002   2.187
   13CHTO   C77 5233   5.589   4.884   2.131
   13CHTO  H149 5234   5.488   4.871   2.171
   13CHTO   C88 5235   5.669   4.763   2.179
   13CHTO   O58 5236   5.610   4.637   2.131
   13CHTO  H136 5237   5.661   4.564   2.162
   13CHTO   O51 5238   5.646   5.252   2.249
   13CHTO   C78 5239   5.807   5.298   2.235
   13CHTO  H150 5240   5.832   5.367   2.318
   13CHTO   C80 5241   5.835   5.371   2.102
   13CHTO  H152 5242   5.813   5.302   2.018
   13CHTO   O55 5243   5.747   5.484   2.096
   13CHTO  H134 5244   5.658   5.455   2.083
   13CHTO   C84 5245   5.986   5.417   2.092
   13CHTO  H156 5246   6.003   5.490   2.171
   13CHTO   N15 5247   6.021   5.484   1.961
   13CHTO  H143 5248   6.056   5.583   1.979
   13CHTO  H144 5249   5.936   5.487   1.896
   13CHTO   C87 5250   6.080   5.296   2.119
   13CHTO  H159 5251   6.075   5.226   2.036
   13CHTO   O53 5252   6.038   5.225   2.249
   13CHTO   C82 5253   5.903   5.178   2.251
   13CHTO  H154 5254   5.887   5.105   2.171
   13CHTO   C89 5255   5.879   5.106   2.385
   13CHTO   O59 5256   5.959   4.987   2.394
   13CHTO  H137 5257   5.943   4.944   2.476
   13CHTO   O45 5258   6.233   5.347   2.139
   13CHTO   C67 5259   6.333   5.245   2.126
   13CHTO  H124 5260   6.299   5.164   2.061
   13CHTO   C65 5261   6.462   5.309   2.065
   13CHTO  H122 5262   6.429   5.366   1.978
   13CHTO   O44 5263   6.552   5.206   2.021
   13CHTO  H102 5264   6.587   5.159   2.095
   13CHTO   C63 5265   6.521   5.413   2.167
   13CHTO  H120 5266   6.443   5.486   2.191
   13CHTO   N11 5267   6.629   5.501   2.111
   13CHTO  H108 5268   6.715   5.502   2.175
   13CHTO  H109 5269   6.594   5.601   2.097
   13CHTO   C61 5270   6.557   5.340   2.302
   13CHTO  H118 5271   6.579   5.421   2.374
   13CHTO   O40 5272   6.444   5.266   2.356
   13CHTO   C68 5273   6.363   5.181   2.268
   13CHTO  H125 5274   6.265   5.169   2.319
   13CHTO   C72 5275   6.423   5.038   2.255
   13CHTO   O48 5276   6.414   4.963   2.377
   13CHTO  H105 5277   6.324   4.943   2.395
   13CHTO   O38 5278   6.670   5.250   2.292
   13CHTO   C55 5279   6.764   5.239   2.402
   13CHTO  H112 5280   6.828   5.154   2.376
   13CHTO   C56 5281   6.695   5.220   2.545
   13CHTO  H113 5282   6.623   5.303   2.559
   13CHTO   O42 5283   6.618   5.099   2.544
   13CHTO  H100 5284   6.673   5.025   2.528
   13CHTO   C57 5285   6.802   5.221   2.661
   13CHTO  H114 5286   6.863   5.132   2.650
   13CHTO   N10 5287   6.742   5.216   2.797
   13CHTO  H106 5288   6.646   5.266   2.799
   13CHTO  H107 5289   6.806   5.261   0.039
   13CHTO   C58 5290   6.892   5.346   2.645
   13CHTO  H115 5291   6.830   5.438   2.658
   13CHTO   O37 5292   6.953   5.347   2.515
   13CHTO   C59 5293   6.860   5.362   2.406
   13CHTO  H116 5294   6.804   5.455   2.419
   13CHTO   C70 5295   6.941   5.376   2.276
   13CHTO   O46 5296   7.026   5.264   2.249
   13CHTO  H103 5297   7.097   5.262   2.311
   13CHTO   O39 5298   7.016   5.346   2.754
   13CHTO   C60 5299   7.088   5.471   2.756
   13CHTO  H117 5300   7.095   5.509   2.654
   13CHTO   C62 5301   7.014   5.577   0.010
   13CHTO  H119 5302   6.911   5.585   2.801
   13CHTO   O43 5303   7.003   5.531   0.147
   13CHTO  H101 5304   7.088   5.523   0.185
   13CHTO   C66 5305   7.087   5.719   2.826
   13CHTO  H123 5306   7.087   5.746   2.721
   13CHTO   N12 5307   7.014   5.829   0.063
   13CHTO  H110 5308   7.067   5.922   0.049
   13CHTO  H111 5309   6.913   5.836   0.025
   13CHTO   C69 5310   7.235   5.708   0.038
   13CHTO  H126 5311   7.242   5.694   0.149
   13CHTO   O41 5312   7.307   5.587   2.796
   13CHTO   C64 5313   7.234   5.453   2.807
   13CHTO  H121 5314   7.232   5.419   0.081
   13CHTO   C71 5315   7.314   5.349   2.725
   13CHTO   O47 5316   7.268   5.215   2.747
   13CHTO  H104 5317   7.320   5.156   2.696
   13CHTO   O34 5318   7.311   5.839   0.001
   13CHTO   C49 5319   7.441   5.904   0.032
   13CHTO   H91 5320   7.516   5.825   0.033
   13CHTO   C47 5321   7.433   5.971   0.171
   13CHTO   H89 5322   7.537   6.007   0.190
   13CHTO   O33 5323   7.401   5.874   0.273
   13CHTO   H70 5324   7.315   5.839   0.259
   13CHTO   C45 5325   7.326   6.093   0.172
   13CHTO   H87 5326   7.229   6.054   0.206
   13CHTO    N8 5327   7.373   6.194   0.270
   13CHTO   H75 5328   7.300   6.274   0.277
   13CHTO   H76 5329   7.385   6.148   0.367
   13CHTO   C43 5330   7.299   6.146   0.021
   13CHTO   H85 5331   7.225   6.078   2.812
   13CHTO   O29 5332   7.421   6.145   2.778
   13CHTO   C50 5333   7.480   6.015   2.760
   13CHTO   H92 5334   7.453   5.978   2.660
   13CHTO   C54 5335   7.634   6.035   2.750
   13CHTO   O36 5336   7.702   5.913   2.717
   13CHTO   H72 5337   7.699   5.854   2.790
   13CHTO   O27 5338   7.233   6.274   0.015
   13CHTO   C37 5339   7.236   6.417   0.028
   13CHTO   H79 5340   7.271   6.445   0.129
   13CHTO   C38 5341   7.336   6.482   2.759
   13CHTO   H80 5342   7.312   6.443   2.658
   13CHTO   O31 5343   7.468   6.438   2.796
   13CHTO   H68 5344   7.530   6.466   2.732
   13CHTO   C39 5345   7.326   6.639   2.759
   13CHTO   H81 5346   7.367   6.674   0.022
   13CHTO    N7 5347   7.408   6.703   2.650
   13CHTO   H73 5348   7.512   6.675   2.662
   13CHTO   H74 5349   7.399   6.811   2.656
   13CHTO   C40 5350   7.176   6.688   2.753
   13CHTO   H82 5351   7.135   6.674   2.653
   13CHTO   O26 5352   7.098   6.621   0.020
   13CHTO   C41 5353   7.094   6.476   0.007
   13CHTO   H83 5354   7.058   6.448   2.739
   13CHTO   C52 5355   6.994   6.420   0.111
   13CHTO   O35 5356   6.854   6.465   0.083
   13CHTO   H71 5357   6.824   6.427   0.003
   13CHTO   O28 5358   7.162   6.826   2.792
   13CHTO   C42 5359   7.097   6.929   2.711
   13CHTO   H84 5360   7.100   6.892   2.608
   13CHTO   C44 5361   7.174   7.065   2.710
   13CHTO   H86 5362   7.188   7.097   2.814
   13CHTO   O32 5363   7.304   7.041   2.655
   13CHTO   H69 5364   7.298   7.016   2.565
   13CHTO   C48 5365   7.098   7.182   2.634
   13CHTO   H90 5366   7.099   7.158   2.528
   13CHTO    N9 5367   7.169   7.315   2.646
   13CHTO   H77 5368   7.259   7.305   2.704
   13CHTO   H78 5369   7.104   7.390   2.689
   13CHTO   C51 5370   6.948   7.189   2.681
   13CHTO   H93 5371   6.947   7.215   2.787
   13CHTO   O30 5372   6.887   7.061   2.658
   13CHTO   C46 5373   6.947   6.951   2.747
   13CHTO   H88 5374   6.940   6.983   0.020
   13CHTO   C53 5375   6.862   6.824   2.726
   13CHTO   O72 5376   6.728   6.843   2.772
   13CHTO  H199 5377   6.726   6.846   0.034
   13CHTO   O22 5378   6.872   7.285   2.605
   13CHTO   C31 5379   6.734   7.330   2.637
   13CHTO   H59 5380   6.716   7.417   2.571
   13CHTO   C29 5381   6.624   7.227   2.607
   13CHTO   H57 5382   6.639   7.141   2.674
   13CHTO   O21 5383   6.642   7.179   2.472
   13CHTO   H37 5384   6.583   7.108   2.455
   13CHTO   C27 5385   6.479   7.287   2.631
   13CHTO   H55 5386   6.462   7.368   2.558
   13CHTO    N5 5387   6.371   7.186   2.614
   13CHTO   H43 5388   6.375   7.145   2.514
   13CHTO   H44 5389   6.382   7.107   2.687
   13CHTO   C25 5390   6.472   7.353   2.774
   13CHTO   H53 5391   6.475   7.274   0.019
   13CHTO   O17 5392   6.585   7.443   2.796
   13CHTO   C32 5393   6.715   7.382   2.783
   13CHTO   H60 5394   6.722   7.298   0.020
   13CHTO   C36 5395   6.821   7.487   2.826
   13CHTO   O25 5396   6.810   7.610   2.754
   13CHTO   H40 5397   6.731   7.655   2.778
   13CHTO   O15 5398   6.340   7.438   2.792
   13CHTO   C19 5399   6.220   7.509   2.749
   13CHTO   H47 5400   6.208   7.587   2.825
   13CHTO   C20 5401   6.230   7.576   2.609
   13CHTO   H48 5402   6.254   7.503   2.530
   13CHTO   O19 5403   6.339   7.671   2.616
   13CHTO   H35 5404   6.421   7.625   2.624
   13CHTO   C21 5405   6.095   7.649   2.569
   13CHTO   H49 5406   6.078   7.732   2.638
   13CHTO    N4 5407   6.099   7.707   2.432
   13CHTO   H41 5408   6.179   7.780   2.426
   13CHTO   H42 5409   6.005   7.756   2.411
   13CHTO   C22 5410   5.976   7.550   2.589
   13CHTO   H50 5411   5.989   7.467   2.518
   13CHTO   O14 5412   5.976   7.499   2.724
   13CHTO   C23 5413   6.092   7.421   2.757
   13CHTO   H51 5414   6.095   7.337   2.686
   13CHTO   C34 5415   6.072   7.359   0.064
   13CHTO   O23 5416   6.052   7.457   0.166
   13CHTO   H38 5417   6.038   7.415   0.248
   13CHTO   O16 5418   5.848   7.613   2.568
   13CHTO   C24 5419   5.712   7.526   2.610
   13CHTO   H52 5420   5.725   7.473   2.704
   13CHTO   C26 5421   5.675   7.426   2.499
   13CHTO   H54 5422   5.668   7.481   2.402
   13CHTO   O20 5423   5.780   7.329   2.487
   13CHTO   H36 5424   5.789   7.279   2.566
   13CHTO   C30 5425   5.537   7.358   2.527
   13CHTO   H58 5426   5.546   7.291   2.614
   13CHTO    N6 5427   5.493   7.272   2.414
   13CHTO   H45 5428   5.485   7.330   2.323
   13CHTO   H46 5429   5.565   7.193   2.398
   13CHTO   C33 5430   5.428   7.464   2.565
   13CHTO   H61 5431   5.405   7.524   2.475
   13CHTO   O18 5432   5.478   7.553   2.666
   13CHTO   C28 5433   5.596   7.626   2.631
   13CHTO   H56 5434   5.580   7.682   2.538
   13CHTO   C35 5435   5.629   7.726   2.744
   13CHTO   O24 5436   5.528   7.826   2.761
   13CHTO   H39 5437   5.449   7.786   2.792
   13CHTO    O9 5438   5.302   7.404   2.604
   13CHTO   C13 5439   5.298   7.336   2.757
   13CHTO   H26 5440   5.385   7.374   2.814
   13CHTO   C11 5441   5.300   7.178   2.743
   13CHTO   H24 5442   5.401   7.149   2.711
   13CHTO    O8 5443   5.207   7.137   2.641
   13CHTO    H3 5444   5.215   7.045   2.626
   13CHTO    C9 5445   5.270   7.117   0.051
   13CHTO   H22 5446   5.343   7.162   0.119
   13CHTO    N2 5447   5.298   6.972   0.058
   13CHTO   H10 5448   5.231   6.918   2.826
   13CHTO   H11 5449   5.401   6.953   0.030
   13CHTO    C7 5450   5.125   7.160   0.099
   13CHTO   H20 5451   5.141   7.188   0.206
   13CHTO    O4 5452   5.075   7.275   0.028
   13CHTO   C14 5453   5.169   7.382   0.009
   13CHTO   H27 5454   5.202   7.417   0.109
   13CHTO   C18 5455   5.092   7.501   2.777
   13CHTO   O13 5456   5.174   7.618   2.772
   13CHTO    H7 5457   5.127   7.688   2.731
   13CHTO    O2 5458   5.007   7.036   0.090
   13CHTO    C1 5459   4.914   7.026   0.199
   13CHTO   H14 5460   4.838   6.949   0.173
   13CHTO    C2 5461   4.836   7.160   0.234
   13CHTO   H15 5462   4.913   7.238   0.246
   13CHTO    O6 5463   4.753   7.193   0.122
   13CHTO    H1 5464   4.712   7.277   0.135
   13CHTO    C3 5465   4.751   7.146   0.370
   13CHTO   H16 5466   4.668   7.075   0.354
   13CHTO    N1 5467   4.691   7.277   0.411
   13CHTO    H8 5468   4.627   7.314   0.332
   13CHTO    H9 5469   4.633   7.264   0.501
   13CHTO    C4 5470   4.840   7.083   0.483
   13CHTO   H17 5471   4.922   7.151   0.505
   13CHTO    O1 5472   4.895   6.958   0.437
   13CHTO    C5 5473   4.986   6.972   0.327
   13CHTO   H18 5474   5.065   7.042   0.354
   13CHTO   C16 5475   5.049   6.833   0.303
   13CHTO   O11 5476   5.132   6.798   0.414
   13CHTO    H5 5477   5.210   6.850   0.414
   13CHTO    O3 5478   4.771   7.058   0.609
   13CHTO    C6 5479   4.687   6.940   0.633
   13CHTO   H19 5480   4.659   6.889   0.540
   13CHTO    C8 5481   4.762   6.837   0.725
   13CHTO   H21 5482   4.805   6.893   0.809
   13CHTO    O7 5483   4.869   6.778   0.649
   13CHTO    H2 5484   4.934   6.842   0.627
   13CHTO   C12 5485   4.665   6.727   0.783
   13CHTO   H25 5486   4.632   6.665   0.697
   13CHTO    N3 5487   4.734   6.634   0.879
   13CHTO   H12 5488   4.775   6.691   0.962
   13CHTO   H13 5489   4.812   6.580   0.828
   13CHTO   C15 5490   4.538   6.796   0.845
   13CHTO   H28 5491   4.565   6.859   0.930
   13CHTO   O10 5492   4.426   6.698   0.889
   13CHTO    H4 5493   4.404   6.640   0.819
   13CHTO    O5 5494   4.474   6.875   0.744
   13CHTO   C10 5495   4.554   6.986   0.701
   13CHTO   H23 5496   4.578   7.046   0.789
   13CHTO   C17 5497   4.467   7.074   0.611
   13CHTO   O12 5498   4.422   7.002   0.495
   13CHTO    H6 5499   4.367   7.058   0.443
   14CHTO  H203 5500   7.273   4.810   1.925
   14CHTO   O82 5501   7.204   4.857   1.967
   14CHTO  C123 5502   7.083   4.780   1.968
   14CHTO  H227 5503   7.005   4.836   2.022
   14CHTO   O77 5504   7.048   4.771   1.827
   14CHTO  C118 5505   6.928   4.697   1.798
   14CHTO  H222 5506   6.843   4.743   1.851
   14CHTO  C125 5507   6.901   4.705   1.643
   14CHTO   O84 5508   6.865   4.838   1.605
   14CHTO  H205 5509   6.850   4.842   1.513
   14CHTO  C114 5510   6.946   4.551   1.845
   14CHTO  H218 5511   7.035   4.510   1.797
   14CHTO  C116 5512   6.976   4.547   1.999
   14CHTO  H220 5513   6.887   4.586   2.055
   14CHTO   O79 5514   6.993   4.410   2.038
   14CHTO  H201 5515   7.004   4.404   2.131
   14CHTO  C120 5516   7.103   4.636   2.030
   14CHTO  H224 5517   7.189   4.585   1.981
   14CHTO   N21 5518   7.132   4.641   2.176
   14CHTO  H211 5519   7.238   4.655   2.192
   14CHTO  H212 5520   7.076   4.720   2.223
   14CHTO   O75 5521   6.831   4.477   1.800
   14CHTO  C112 5522   6.686   4.498   1.875
   14CHTO  H216 5523   6.669   4.605   1.892
   14CHTO   O73 5524   6.689   4.424   1.998
   14CHTO  C113 5525   6.568   4.431   2.074
   14CHTO  H217 5526   6.544   4.538   2.094
   14CHTO  C124 5527   6.592   4.366   2.211
   14CHTO   O83 5528   6.630   4.228   2.202
   14CHTO  H204 5529   6.716   4.221   2.164
   14CHTO  C109 5530   6.451   4.365   1.996
   14CHTO  H213 5531   6.479   4.260   1.980
   14CHTO  C110 5532   6.436   4.437   1.858
   14CHTO  H214 5533   6.400   4.539   1.875
   14CHTO   O78 5534   6.336   4.369   1.779
   14CHTO  H200 5535   6.251   4.379   1.819
   14CHTO  C111 5536   6.571   4.441   1.781
   14CHTO  H215 5537   6.599   4.338   1.755
   14CHTO   N19 5538   6.567   4.518   1.654
   14CHTO  H207 5539   6.592   4.454   1.570
   14CHTO  H208 5540   6.469   4.561   1.638
   14CHTO   O74 5541   6.328   4.371   2.074
   14CHTO  C115 5542   6.229   4.245   2.043
   14CHTO  H219 5543   6.245   4.204   1.943
   14CHTO   O76 5544   6.254   4.125   2.141
   14CHTO  C122 5545   6.175   4.007   2.116
   14CHTO  H226 5546   6.190   3.940   2.201
   14CHTO  C126 5547   6.230   3.929   1.990
   14CHTO   O85 5548   6.366   3.887   2.005
   14CHTO  H206 5549   6.372   3.821   2.071
   14CHTO  C121 5550   6.021   4.038   2.102
   14CHTO  H225 5551   5.971   3.948   2.059
   14CHTO   O81 5552   5.964   4.058   2.232
   14CHTO  H202 5553   6.001   4.134   2.273
   14CHTO  C119 5554   5.993   4.160   2.008
   14CHTO  H223 5555   6.029   4.129   1.910
   14CHTO  C117 5556   6.077   4.286   2.051
   14CHTO  H221 5557   6.062   4.322   2.153
   14CHTO   N20 5558   6.048   4.404   1.963
   14CHTO  H209 5559   6.108   4.488   1.993
   14CHTO  H210 5560   5.944   4.429   1.968
   14CHTO   O80 5561   5.837   4.181   1.979
   14CHTO  C103 5562   5.782   4.153   1.835
   14CHTO  H190 5563   5.848   4.196   1.760
   14CHTO  C101 5564   5.757   4.001   1.800
   14CHTO  H188 5565   5.701   3.955   1.880
   14CHTO   O68 5566   5.895   3.928   1.790
   14CHTO  H168 5567   5.945   3.962   1.718
   14CHTO   C99 5568   5.673   3.987   1.664
   14CHTO  H186 5569   5.736   4.023   1.579
   14CHTO   N17 5570   5.634   3.845   1.631
   14CHTO  H174 5571   5.568   3.807   1.707
   14CHTO  H175 5572   5.722   3.784   1.621
   14CHTO   C97 5573   5.549   4.080   1.667
   14CHTO  H184 5574   5.477   4.041   1.741
   14CHTO   O64 5575   5.589   4.215   1.697
   14CHTO  C104 5576   5.646   4.232   1.827
   14CHTO  H191 5577   5.579   4.196   1.906
   14CHTO  C108 5578   5.666   4.382   1.854
   14CHTO   O71 5579   5.541   4.452   1.856
   14CHTO  H171 5580   5.492   4.427   1.932
   14CHTO   O62 5581   5.488   4.094   1.537
   14CHTO   C91 5582   5.344   4.092   1.535
   14CHTO  H178 5583   5.313   3.995   1.575
   14CHTO   C92 5584   5.298   4.093   1.385
   14CHTO  H179 5585   5.354   4.016   1.329
   14CHTO   O66 5586   5.161   4.051   1.379
   14CHTO  H166 5587   5.106   4.110   1.427
   14CHTO   C93 5588   5.310   4.235   1.317
   14CHTO  H180 5589   5.242   4.235   1.230
   14CHTO   N16 5590   5.444   4.264   1.260
   14CHTO  H172 5591   5.518   4.259   1.338
   14CHTO  H173 5592   5.466   4.193   1.181
   14CHTO   C94 5593   5.263   4.349   1.417
   14CHTO  H181 5594   5.348   4.404   1.459
   14CHTO   O61 5595   5.191   4.295   1.529
   14CHTO   C95 5596   5.272   4.211   1.614
   14CHTO  H182 5597   5.347   4.272   1.663
   14CHTO  C106 5598   5.180   4.154   1.729
   14CHTO   O69 5599   5.132   4.259   1.814
   14CHTO  H169 5600   5.071   4.312   1.767
   14CHTO   O63 5601   5.167   4.446   1.342
   14CHTO   C96 5602   5.192   4.601   1.368
   14CHTO  H183 5603   5.114   4.656   1.316
   14CHTO   C98 5604   5.328   4.655   1.316
   14CHTO  H185 5605   5.411   4.594   1.357
   14CHTO   O67 5606   5.331   4.635   1.174
   14CHTO  H167 5607   5.335   4.544   1.153
   14CHTO  C102 5608   5.350   4.810   1.353
   14CHTO  H189 5609   5.276   4.866   1.294
   14CHTO   N18 5610   5.483   4.865   1.315
   14CHTO  H176 5611   5.497   4.854   1.209
   14CHTO  H177 5612   5.489   4.969   1.341
   14CHTO  C105 5613   5.318   4.833   1.504
   14CHTO  H192 5614   5.396   4.785   1.564
   14CHTO   O65 5615   5.192   4.776   1.544
   14CHTO  C100 5616   5.179   4.635   1.522
   14CHTO  H187 5617   5.259   4.584   1.578
   14CHTO  C107 5618   5.043   4.587   1.580
   14CHTO   O70 5619   4.931   4.650   1.517
   14CHTO  H170 5620   4.929   4.741   1.539
   14CHTO   O57 5621   5.318   4.998   1.532
   14CHTO   C85 5622   5.203   5.077   1.497
   14CHTO  H157 5623   5.126   5.007   1.457
   14CHTO   C83 5624   5.238   5.172   1.378
   14CHTO  H155 5625   5.264   5.110   1.292
   14CHTO   O56 5626   5.356   5.249   1.411
   14CHTO  H135 5627   5.430   5.193   1.421
   14CHTO   C81 5628   5.113   5.257   1.343
   14CHTO  H153 5629   5.031   5.189   1.321
   14CHTO   N14 5630   5.129   5.337   1.219
   14CHTO  H141 5631   5.064   5.301   1.142
   14CHTO  H142 5632   5.230   5.335   1.183
   14CHTO   C79 5633   5.072   5.345   1.467
   14CHTO  H151 5634   4.980   5.397   1.441
   14CHTO   O52 5635   5.041   5.259   1.581
   14CHTO   C86 5636   5.147   5.164   1.617
   14CHTO  H158 5637   5.226   5.228   1.660
   14CHTO   C90 5638   5.098   5.074   1.733
   14CHTO   O60 5639   4.986   4.993   1.694
   14CHTO  H138 5640   4.960   4.939   1.766
   14CHTO   O50 5641   5.170   5.443   1.506
   14CHTO   C73 5642   5.152   5.579   1.548
   14CHTO  H145 5643   5.053   5.591   1.596
   14CHTO   C74 5644   5.158   5.676   1.425
   14CHTO  H146 5645   5.080   5.643   1.355
   14CHTO   O54 5646   5.120   5.808   1.469
   14CHTO  H133 5647   5.030   5.810   1.495
   14CHTO   C75 5648   5.302   5.669   1.361
   14CHTO  H147 5649   5.319   5.567   1.326
   14CHTO   N13 5650   5.319   5.755   1.241
   14CHTO  H139 5651   5.418   5.744   1.202
   14CHTO  H140 5652   5.304   5.859   1.268
   14CHTO   C76 5653   5.412   5.699   1.474
   14CHTO  H148 5654   5.405   5.804   1.503
   14CHTO   O49 5655   5.393   5.614   1.591
   14CHTO   C77 5656   5.262   5.620   1.650
   14CHTO  H149 5657   5.243   5.721   1.686
   14CHTO   C88 5658   5.262   5.531   1.775
   14CHTO   O58 5659   5.133   5.540   1.850
   14CHTO  H136 5660   5.064   5.503   1.798
   14CHTO   O51 5661   5.554   5.659   1.420
   14CHTO   C78 5662   5.675   5.737   1.485
   14CHTO  H150 5663   5.648   5.777   1.585
   14CHTO   C80 5664   5.715   5.854   1.393
   14CHTO  H152 5665   5.711   5.819   1.287
   14CHTO   O55 5666   5.615   5.957   1.408
   14CHTO  H134 5667   5.533   5.929   1.371
   14CHTO   C84 5668   5.860   5.910   1.423
   14CHTO  H156 5669   5.858   5.958   1.520
   14CHTO   N15 5670   5.904   6.015   1.324
   14CHTO  H143 5671   5.904   5.975   1.225
   14CHTO  H144 5672   5.838   6.099   1.329
   14CHTO   C87 5673   5.958   5.791   1.428
   14CHTO  H159 5674   5.958   5.738   1.332
   14CHTO   O53 5675   5.912   5.700   1.539
   14CHTO   C82 5676   5.788   5.634   1.506
   14CHTO  H154 5677   5.801   5.572   1.417
   14CHTO   C89 5678   5.758   5.538   1.624
   14CHTO   O59 5679   5.647   5.452   1.598
   14CHTO  H137 5680   5.632   5.397   1.673
   14CHTO   O45 5681   6.110   5.834   1.465
   14CHTO   C67 5682   6.206   5.734   1.427
   14CHTO  H124 5683   6.161   5.635   1.428
   14CHTO   C65 5684   6.261   5.765   1.284
   14CHTO  H122 5685   6.174   5.791   1.224
   14CHTO   O44 5686   6.322   5.647   1.229
   14CHTO  H102 5687   6.401   5.626   1.275
   14CHTO   C63 5688   6.351   5.894   1.289
   14CHTO  H120 5689   6.292   5.976   1.331
   14CHTO   N11 5690   6.390   5.951   1.155
   14CHTO  H108 5691   6.495   5.968   1.151
   14CHTO  H109 5692   6.361   5.885   1.076
   14CHTO   C61 5693   6.471   5.870   1.387
   14CHTO  H118 5694   6.524   5.966   1.396
   14CHTO   O40 5695   6.422   5.837   1.520
   14CHTO   C68 5696   6.322   5.730   1.536
   14CHTO  H125 5697   6.274   5.746   1.635
   14CHTO   C72 5698   6.391   5.591   1.542
   14CHTO   O48 5699   6.483   5.579   1.651
   14CHTO  H105 5700   6.437   5.580   1.733
   14CHTO   O38 5701   6.562   5.765   1.347
   14CHTO   C55 5702   6.696   5.799   1.305
   14CHTO  H112 5703   6.704   5.907   1.286
   14CHTO   C56 5704   6.730   5.713   1.175
   14CHTO  H113 5705   6.705   5.608   1.199
   14CHTO   O42 5706   6.644   5.751   1.067
   14CHTO  H100 5707   6.555   5.730   1.087
   14CHTO   C57 5708   6.882   5.725   1.133
   14CHTO  H114 5709   6.894   5.824   1.089
   14CHTO   N10 5710   6.922   5.626   1.030
   14CHTO  H106 5711   7.003   5.666   0.970
   14CHTO  H107 5712   6.954   5.534   1.075
   14CHTO   C58 5713   6.976   5.716   1.257
   14CHTO  H115 5714   6.981   5.610   1.292
   14CHTO   O37 5715   6.932   5.800   1.365
   14CHTO   C59 5716   6.801   5.765   1.414
   14CHTO  H116 5717   6.797   5.659   1.440
   14CHTO   C70 5718   6.777   5.845   1.543
   14CHTO   O46 5719   6.865   5.804   1.649
   14CHTO  H103 5720   6.842   5.718   1.678
   14CHTO   O39 5721   7.123   5.770   1.216
   14CHTO   C60 5722   7.231   5.734   1.302
   14CHTO  H117 5723   7.206   5.762   1.405
   14CHTO   C62 5724   7.260   5.580   1.301
   14CHTO  H119 5725   7.173   5.532   1.350
   14CHTO   O43 5726   7.268   5.534   1.165
   14CHTO  H101 5727   7.278   5.441   1.164
   14CHTO   C66 5728   7.392   5.549   1.387
   14CHTO  H123 5729   7.382   5.595   1.485
   14CHTO   N12 5730   7.411   5.404   1.411
   14CHTO  H110 5731   7.505   5.370   1.369
   14CHTO  H111 5732   7.406   5.383   1.517
   14CHTO   C69 5733   7.510   5.619   1.316
   14CHTO  H126 5734   7.513   5.591   1.208
   14CHTO   O41 5735   7.485   5.770   1.329
   14CHTO   C64 5736   7.356   5.819   1.262
   14CHTO  H121 5737   7.369   5.816   1.152
   14CHTO   C71 5738   7.340   5.966   1.305
   14CHTO   O47 5739   7.235   6.032   1.234
   14CHTO  H104 5740   7.228   6.121   1.264
   14CHTO   O34 5741   7.647   5.586   1.377
   14CHTO   C49 5742   7.783   5.608   1.309
   14CHTO   H91 5743   7.787   5.542   1.223
   14CHTO   C47 5744   7.892   5.571   1.412
   14CHTO   H89 5745   7.989   5.583   1.356
   14CHTO   O33 5746   7.880   5.434   1.451
   14CHTO   H70 5747   7.953   5.408   1.504
   14CHTO   C45 5748   7.886   5.671   1.539
   14CHTO   H87 5749   7.819   5.626   1.614
   14CHTO    N8 5750   8.022   5.680   1.598
   14CHTO   H75 5751   8.018   5.736   1.691
   14CHTO   H76 5752   8.089   5.729   1.529
   14CHTO   C43 5753   7.815   5.811   1.500
   14CHTO   H85 5754   7.708   5.792   1.508
   14CHTO   O29 5755   7.852   5.849   1.366
   14CHTO   C50 5756   7.808   5.756   1.264
   14CHTO   H92 5757   7.715   5.794   1.220
   14CHTO   C54 5758   7.907   5.760   1.145
   14CHTO   O36 5759   7.910   5.889   1.081
   14CHTO   H72 5760   7.829   5.904   1.037
   14CHTO   O27 5761   7.838   5.917   1.594
   14CHTO   C37 5762   7.761   6.015   1.666
   14CHTO   H79 5763   7.828   6.077   1.728
   14CHTO   C38 5764   7.686   6.111   1.571
   14CHTO   H80 5765   7.633   6.050   1.495
   14CHTO   O31 5766   7.787   6.189   1.504
   14CHTO   H68 5767   7.747   6.243   1.438
   14CHTO   C39 5768   7.582   6.203   1.647
   14CHTO   H81 5769   7.640   6.274   1.706
   14CHTO    N7 5770   7.496   6.283   1.554
   14CHTO   H73 5771   7.440   6.217   1.488
   14CHTO   H74 5772   7.557   6.350   1.495
   14CHTO   C40 5773   7.494   6.120   1.748
   14CHTO   H82 5774   7.419   6.061   1.695
   14CHTO   O26 5775   7.577   6.039   1.832
   14CHTO   C41 5776   7.661   5.943   1.760
   14CHTO   H83 5777   7.596   5.877   1.701
   14CHTO   C52 5778   7.735   5.855   1.863
   14CHTO   O35 5779   7.807   5.930   1.965
   14CHTO   H71 5780   7.850   5.870   2.023
   14CHTO   O28 5781   7.428   6.206   1.845
   14CHTO   C42 5782   7.296   6.178   1.901
   14CHTO   H84 5783   7.295   6.238   1.993
   14CHTO   C44 5784   7.265   6.031   1.946
   14CHTO   H86 5785   7.276   5.965   1.860
   14CHTO   O32 5786   7.366   5.994   2.043
   14CHTO   H69 5787   7.358   6.046   2.120
   14CHTO   C48 5788   7.118   6.015   2.004
   14CHTO   H90 5789   7.112   6.071   2.097
   14CHTO    N9 5790   7.087   5.872   2.040
   14CHTO   H77 5791   6.986   5.865   2.079
   14CHTO   H78 5792   7.158   5.836   2.113
   14CHTO   C51 5793   7.013   6.074   1.903
   14CHTO   H93 5794   7.015   6.015   1.811
   14CHTO   O30 5795   7.046   6.212   1.878
   14CHTO   C46 5796   7.181   6.232   1.811
   14CHTO   H88 5797   7.181   6.176   1.717
   14CHTO   C53 5798   7.196   6.383   1.781
   14CHTO   O72 5799   7.185   6.464   1.899
   14CHTO  H199 5800   7.196   6.554   1.877
   14CHTO   O22 5801   6.880   6.079   1.959
   14CHTO   C31 5802   6.759   6.048   1.881
   14CHTO   H59 5803   6.794   6.011   1.782
   14CHTO   C29 5804   6.673   5.935   1.943
   14CHTO   H57 5805   6.647   5.968   2.045
   14CHTO   O21 5806   6.756   5.818   1.957
   14CHTO   H37 5807   6.712   5.753   2.007
   14CHTO   C27 5808   6.541   5.905   1.862
   14CHTO   H55 5809   6.568   5.861   1.765
   14CHTO    N5 5810   6.451   5.810   1.932
   14CHTO   H43 5811   6.503   5.718   1.953
   14CHTO   H44 5812   6.364   5.790   1.871
   14CHTO   C25 5813   6.466   6.040   1.830
   14CHTO   H53 5814   6.428   6.084   1.923
   14CHTO   O17 5815   6.558   6.135   1.769
   14CHTO   C32 5816   6.669   6.172   1.852
   14CHTO   H60 5817   6.633   6.212   1.946
   14CHTO   C36 5818   6.746   6.283   1.777
   14CHTO   O25 5819   6.667   6.401   1.765
   14CHTO   H40 5820   6.596   6.386   1.705
   14CHTO   O15 5821   6.347   6.019   1.733
   14CHTO   C19 5822   6.211   6.063   1.707
   14CHTO   H47 5823   6.180   6.001   1.623
   14CHTO   C20 5824   6.113   6.037   1.826
   14CHTO   H48 5825   6.145   6.089   1.918
   14CHTO   O19 5826   6.116   5.896   1.851
   14CHTO   H35 5827   6.065   5.875   1.927
   14CHTO   C21 5828   5.966   6.085   1.791
   14CHTO   H49 5829   5.927   6.022   1.711
   14CHTO    N4 5830   5.870   6.070   1.905
   14CHTO   H41 5831   5.772   6.102   1.875
   14CHTO   H42 5832   5.866   5.966   1.935
   14CHTO   C22 5833   5.970   6.230   1.737
   14CHTO   H50 5834   6.000   6.297   1.818
   14CHTO   O14 5835   6.063   6.240   1.627
   14CHTO   C23 5836   6.200   6.211   1.658
   14CHTO   H51 5837   6.234   6.282   1.735
   14CHTO   C34 5838   6.277   6.236   1.528
   14CHTO   O23 5839   6.419   6.234   1.546
   14CHTO   H38 5840   6.461   6.251   1.464
   14CHTO   O16 5841   5.844   6.270   1.679
   14CHTO   C24 5842   5.799   6.435   1.671
   14CHTO   H52 5843   5.770   6.463   1.569
   14CHTO   C26 5844   5.911   6.531   1.716
   14CHTO   H54 5845   5.947   6.498   1.816
   14CHTO   O20 5846   6.020   6.521   1.623
   14CHTO   H36 5847   5.994   6.549   1.537
   14CHTO   C30 5848   5.860   6.678   1.730
   14CHTO   H58 5849   5.835   6.717   1.630
   14CHTO    N6 5850   5.966   6.768   1.784
   14CHTO   H45 5851   5.994   6.737   1.884
   14CHTO   H46 5852   5.929   6.870   1.789
   14CHTO   C33 5853   5.729   6.682   1.814
   14CHTO   H61 5854   5.751   6.649   1.917
   14CHTO   O18 5855   5.633   6.591   1.756
   14CHTO   C28 5856   5.672   6.453   1.759
   14CHTO   H56 5857   5.695   6.421   1.861
   14CHTO   C35 5858   5.552   6.371   1.705
   14CHTO   O24 5859   5.566   6.230   1.721
   14CHTO   H39 5860   5.563   6.208   1.812
   14CHTO    O9 5861   5.675   6.815   1.825
   14CHTO   C13 5862   5.580   6.838   1.957
   14CHTO   H26 5863   5.620   6.776   2.040
   14CHTO   C11 5864   5.430   6.797   1.922
   14CHTO   H24 5865   5.425   6.687   1.915
   14CHTO    O8 5866   5.393   6.851   1.794
   14CHTO    H3 5867   5.445   6.812   1.726
   14CHTO    C9 5868   5.337   6.846   2.037
   14CHTO   H22 5869   5.378   6.801   2.129
   14CHTO    N2 5870   5.199   6.791   2.029
   14CHTO   H10 5871   5.183   6.718   2.107
   14CHTO   H11 5872   5.180   6.748   1.931
   14CHTO    C7 5873   5.347   7.005   2.052
   14CHTO   H20 5874   5.356   7.020   2.162
   14CHTO    O4 5875   5.463   7.058   1.986
   14CHTO   C14 5876   5.586   6.988   2.010
   14CHTO   H27 5877   5.604   6.986   2.120
   14CHTO   C18 5878   5.702   7.070   1.947
   14CHTO   O13 5879   5.714   7.200   2.006
   14CHTO    H7 5880   5.743   7.192   2.095
   14CHTO    O2 5881   5.211   7.089   1.997
   14CHTO    C1 5882   5.194   7.227   2.035
   14CHTO   H14 5883   5.113   7.268   1.971
   14CHTO    C2 5884   5.321   7.321   2.021
   14CHTO   H15 5885   5.397   7.283   2.092
   14CHTO    O6 5886   5.372   7.312   1.887
   14CHTO    H1 5887   5.308   7.342   1.826
   14CHTO    C3 5888   5.282   7.472   2.059
   14CHTO   H16 5889   5.210   7.508   1.984
   14CHTO    N1 5890   5.400   7.565   2.055
   14CHTO    H8 5891   5.474   7.534   2.127
   14CHTO    H9 5892   5.368   7.666   2.076
   14CHTO    C4 5893   5.207   7.476   2.197
   14CHTO   H17 5894   5.279   7.461   2.278
   14CHTO    O1 5895   5.102   7.377   2.205
   14CHTO    C5 5896   5.141   7.241   2.182
   14CHTO   H18 5897   5.221   7.212   2.251
   14CHTO   C16 5898   5.015   7.156   2.212
   14CHTO   O11 5899   5.047   7.018   2.228
   14CHTO    H5 5900   4.968   6.970   2.247
   14CHTO    O3 5901   5.137   7.602   2.213
   14CHTO    C6 5902   5.126   7.653   2.350
   14CHTO   H19 5903   5.157   7.580   2.425
   14CHTO    C8 5904   5.213   7.781   2.366
   14CHTO   H21 5905   5.186   7.851   2.287
   14CHTO    O7 5906   5.351   7.743   2.350
   14CHTO    H2 5907   5.378   7.685   2.419
   14CHTO   C12 5908   5.187   7.850   2.506
   14CHTO   H25 5909   5.230   7.782   2.583
   14CHTO    N3 5910   5.262   7.980   2.518
   14CHTO   H12 5911   5.244   8.024   2.616
   14CHTO   H13 5912   5.230   8.048   2.441
   14CHTO   C15 5913   5.033   7.865   2.532
   14CHTO   H28 5914   4.988   7.942   2.469
   14CHTO   O10 5915   5.000   7.896   2.680
   14CHTO    H4 5916   5.035   7.980   2.703
   14CHTO    O5 5917   4.965   7.740   2.513
   14CHTO   C10 5918   4.977   7.687   2.380
   14CHTO   H23 5919   4.942   7.763   2.310
   14CHTO   C17 5920   4.882   7.567   2.365
   14CHTO   O12 5921   4.915   7.461   2.455
   14CHTO    H6 5922   4.855   7.390   2.443
   15CHTO  H203 5923   8.053   4.716   1.936
   15CHTO   O82 5924   7.964   4.745   1.948
   15CHTO  C123 5925   7.879   4.682   1.850
   15CHTO  H227 5926   7.885   4.573   1.863
   15CHTO   O77 5927   7.747   4.731   1.886
   15CHTO  C118 5928   7.639   4.674   1.808
   15CHTO  H222 5929   7.640   4.565   1.820
   15CHTO  C125 5930   7.504   4.731   1.865
   15CHTO   O84 5931   7.483   4.690   2.000
   15CHTO  H205 5932   7.469   4.598   2.004
   15CHTO  C114 5933   7.657   4.711   1.659
   15CHTO  H218 5934   7.656   4.820   1.651
   15CHTO  C116 5935   7.798   4.668   1.608
   15CHTO  H220 5936   7.805   4.557   1.605
   15CHTO   O79 5937   7.811   4.714   1.472
   15CHTO  H201 5938   7.811   4.808   1.468
   15CHTO  C120 5939   7.912   4.725   1.702
   15CHTO  H224 5940   7.909   4.836   1.692
   15CHTO   N21 5941   8.047   4.680   1.657
   15CHTO  H211 5942   8.073   4.586   1.703
   15CHTO  H212 5943   8.120   4.755   1.682
   15CHTO   O75 5944   7.543   4.661   1.586
   15CHTO  C112 5945   7.510   4.496   1.584
   15CHTO  H216 5946   7.496   4.461   1.688
   15CHTO   O73 5947   7.620   4.430   1.520
   15CHTO  C113 5948   7.607   4.287   1.522
   15CHTO  H217 5949   7.591   4.254   1.627
   15CHTO  C124 5950   7.739   4.225   1.474
   15CHTO   O83 5951   7.849   4.259   1.559
   15CHTO  H204 5952   7.927   4.218   1.527
   15CHTO  C109 5953   7.488   4.244   1.434
   15CHTO  H213 5954   7.514   4.271   1.330
   15CHTO  C110 5955   7.357   4.317   1.477
   15CHTO  H214 5956   7.319   4.269   1.568
   15CHTO   O78 5957   7.256   4.295   1.376
   15CHTO  H200 5958   7.174   4.330   1.404
   15CHTO  C111 5959   7.378   4.470   1.501
   15CHTO  H215 5960   7.391   4.519   1.404
   15CHTO   N19 5961   7.261   4.535   1.566
   15CHTO  H207 5962   7.225   4.617   1.506
   15CHTO  H208 5963   7.285   4.570   1.666
   15CHTO   O74 5964   7.471   4.099   1.443
   15CHTO  C115 5965   7.429   4.029   1.307
   15CHTO  H219 5966   7.400   4.102   1.231
   15CHTO   O76 5967   7.548   3.950   1.243
   15CHTO  C122 5968   7.599   3.850   1.332
   15CHTO  H226 5969   7.642   3.901   1.418
   15CHTO  C126 5970   7.718   3.775   1.262
   15CHTO   O85 5971   7.830   3.861   1.237
   15CHTO  H206 5972   7.807   3.924   1.172
   15CHTO  C121 5973   7.486   3.748   1.379
   15CHTO  H225 5974   7.515   3.646   1.346
   15CHTO   O81 5975   7.482   3.748   1.522
   15CHTO  H202 5976   7.428   3.678   1.553
   15CHTO  C119 5977   7.346   3.781   1.319
   15CHTO  H223 5978   7.354   3.763   1.212
   15CHTO  C117 5979   7.307   3.933   1.341
   15CHTO  H221 5980   7.280   3.958   1.443
   15CHTO   N20 5981   7.186   3.972   1.260
   15CHTO  H209 5982   7.154   3.891   1.196
   15CHTO  H210 5983   7.105   4.000   1.326
   15CHTO   O80 5984   7.233   3.671   1.364
   15CHTO  C103 5985   7.149   3.581   1.250
   15CHTO  H190 5986   7.088   3.508   1.303
   15CHTO  C101 5987   7.053   3.660   1.155
   15CHTO  H188 5988   7.110   3.735   1.101
   15CHTO   O68 5989   6.947   3.730   1.242
   15CHTO  H168 5990   6.892   3.784   1.188
   15CHTO   C99 5991   6.985   3.561   1.049
   15CHTO  H186 5992   6.916   3.494   1.104
   15CHTO   N17 5993   6.901   3.632   0.946
   15CHTO  H174 5994   6.964   3.695   0.884
   15CHTO  H175 5995   6.824   3.690   0.994
   15CHTO   C97 5996   7.090   3.468   0.982
   15CHTO  H184 5997   7.145   3.525   0.905
   15CHTO   O64 5998   7.180   3.409   1.078
   15CHTO  C104 5999   7.251   3.501   1.163
   15CHTO  H191 6000   7.312   3.570   1.104
   15CHTO  C108 6001   7.350   3.423   1.251
   15CHTO   O71 6002   7.448   3.355   1.173
   15CHTO  H171 6003   7.409   3.284   1.125
   15CHTO   O62 6004   7.022   3.355   0.923
   15CHTO   C91 6005   7.082   3.290   0.810
   15CHTO  H178 6006   7.142   3.364   0.757
   15CHTO   C92 6007   6.968   3.247   0.712
   15CHTO  H179 6008   6.904   3.334   0.689
   15CHTO   O66 6009   7.029   3.211   0.587
   15CHTO  H166 6010   6.963   3.196   0.522
   15CHTO   C93 6011   6.885   3.124   0.765
   15CHTO  H180 6012   6.838   3.078   0.677
   15CHTO   N16 6013   6.772   3.162   0.853
   15CHTO  H172 6014   6.717   3.074   0.883
   15CHTO  H173 6015   6.808   3.215   0.939
   15CHTO   C94 6016   6.980   3.017   0.833
   15CHTO  H181 6017   6.973   3.019   0.943
   15CHTO   O61 6018   7.119   3.038   0.801
   15CHTO   C95 6019   7.172   3.164   0.848
   15CHTO  H182 6020   7.181   3.159   0.957
   15CHTO  C106 6021   7.318   3.178   0.794
   15CHTO   O69 6022   7.382   3.295   0.847
   15CHTO  H169 6023   7.470   3.300   0.813
   15CHTO   O63 6024   6.937   2.877   0.780
   15CHTO   C96 6025   6.961   2.755   0.877
   15CHTO  H183 6026   7.002   2.792   0.971
   15CHTO   C98 6027   7.063   2.653   0.816
   15CHTO  H185 6028   7.050   2.651   0.707
   15CHTO   O67 6029   7.195   2.706   0.838
   15CHTO  H167 6030   7.208   2.784   0.787
   15CHTO  C102 6031   7.050   2.504   0.875
   15CHTO  H189 6032   7.084   2.509   0.979
   15CHTO   N18 6033   7.138   2.403   0.809
   15CHTO  H176 6034   7.124   2.307   0.855
   15CHTO  H177 6035   7.241   2.433   0.818
   15CHTO  C105 6036   6.900   2.466   0.872
   15CHTO  H192 6037   6.862   2.481   0.771
   15CHTO   O65 6038   6.829   2.556   0.960
   15CHTO  C100 6039   6.820   2.690   0.908
   15CHTO  H187 6040   6.763   2.685   0.814
   15CHTO  C107 6041   6.738   2.776   1.007
   15CHTO   O70 6042   6.604   2.727   1.020
   15CHTO  H170 6043   6.557   2.780   1.081
   15CHTO   O57 6044   6.874   2.306   0.915
   15CHTO   C85 6045   6.874   2.259   1.050
   15CHTO  H157 6046   6.915   2.340   1.113
   15CHTO   C83 6047   6.975   2.140   1.061
   15CHTO  H155 6048   7.075   2.179   1.042
   15CHTO   O56 6049   6.948   2.045   0.956
   15CHTO  H135 6050   7.014   1.978   0.955
   15CHTO   C81 6051   6.971   2.079   1.205
   15CHTO  H153 6052   6.997   2.158   1.275
   15CHTO   N14 6053   7.076   1.976   1.226
   15CHTO  H141 6054   7.173   2.016   1.204
   15CHTO  H142 6055   7.058   1.891   1.163
   15CHTO   C79 6056   6.826   2.028   1.239
   15CHTO  H151 6057   6.827   1.997   1.344
   15CHTO   O52 6058   6.732   2.140   1.230
   15CHTO   C86 6059   6.732   2.210   1.101
   15CHTO  H158 6060   6.687   2.138   1.031
   15CHTO   C90 6061   6.632   2.329   1.109
   15CHTO   O60 6062   6.669   2.423   1.210
   15CHTO  H138 6063   6.749   2.466   1.187
   15CHTO   O50 6064   6.781   1.917   1.161
   15CHTO   C73 6065   6.683   1.815   1.134
   15CHTO  H145 6066   6.594   1.859   1.086
   15CHTO   C74 6067   6.638   1.740   1.264
   15CHTO  H146 6068   6.595   1.816   1.331
   15CHTO   O54 6069   6.531   1.650   1.230
   15CHTO  H133 6070   6.562   1.583   1.172
   15CHTO   C75 6071   6.763   1.669   1.329
   15CHTO  H147 6072   6.834   1.747   1.361
   15CHTO   N13 6073   6.732   1.591   1.452
   15CHTO  H139 6074   6.822   1.547   1.491
   15CHTO  H140 6075   6.690   1.657   1.527
   15CHTO   C76 6076   6.838   1.579   1.220
   15CHTO  H148 6077   6.777   1.490   1.200
   15CHTO   O49 6078   6.863   1.651   1.095
   15CHTO   C77 6079   6.746   1.710   1.036
   15CHTO  H149 6080   6.672   1.633   1.014
   15CHTO   C88 6081   6.784   1.773   0.902
   15CHTO   O58 6082   6.666   1.829   0.832
   15CHTO  H136 6083   6.693   1.867   0.751
   15CHTO   O51 6084   6.981   1.543   1.276
   15CHTO   C78 6085   7.056   1.436   1.198
   15CHTO  H150 6086   7.014   1.425   1.096
   15CHTO   C80 6087   7.047   1.300   1.271
   15CHTO  H152 6088   7.078   1.315   1.377
   15CHTO   O55 6089   6.909   1.259   1.271
   15CHTO  H134 6090   6.880   1.242   1.183
   15CHTO   C84 6091   7.142   1.193   1.204
   15CHTO  H156 6092   7.105   1.173   1.104
   15CHTO   N15 6093   7.141   1.062   1.279
   15CHTO  H143 6094   7.110   0.982   1.214
   15CHTO  H144 6095   7.238   1.038   1.318
   15CHTO   C87 6096   7.285   1.252   1.192
   15CHTO  H159 6097   7.326   1.270   1.292
   15CHTO   O53 6098   7.277   1.384   1.114
   15CHTO   C82 6099   7.202   1.483   1.185
   15CHTO  H154 6100   7.246   1.500   1.283
   15CHTO   C89 6101   7.213   1.617   1.107
   15CHTO   O59 6102   7.154   1.610   0.977
   15CHTO  H137 6103   7.061   1.600   0.984
   15CHTO   O45 6104   7.385   1.158   1.110
   15CHTO   C67 6105   7.522   1.198   1.127
   15CHTO  H124 6106   7.526   1.296   1.174
   15CHTO   C65 6107   7.596   1.096   1.220
   15CHTO  H122 6108   7.546   1.000   1.207
   15CHTO   O44 6109   7.573   1.141   1.355
   15CHTO  H102 6110   7.604   1.077   1.416
   15CHTO   C63 6111   7.746   1.069   1.176
   15CHTO  H120 6112   7.745   1.003   1.090
   15CHTO   N11 6113   7.831   0.992   1.273
   15CHTO  H108 6114   7.924   0.967   1.228
   15CHTO  H109 6115   7.780   0.902   1.301
   15CHTO   C61 6116   7.809   1.204   1.126
   15CHTO  H118 6117   7.910   1.180   1.088
   15CHTO   O40 6118   7.735   1.262   1.014
   15CHTO   C68 6119   7.598   1.215   0.990
   15CHTO  H125 6120   7.602   1.118   0.935
   15CHTO   C72 6121   7.532   1.318   0.894
   15CHTO   O48 6122   7.402   1.279   0.848
   15CHTO  H105 6123   7.341   1.278   0.919
   15CHTO   O38 6124   7.819   1.300   1.234
   15CHTO   C55 6125   7.881   1.428   1.206
   15CHTO  H112 6126   7.864   1.456   1.101
   15CHTO   C56 6127   8.035   1.425   1.242
   15CHTO  H113 6128   8.042   1.388   1.345
   15CHTO   O42 6129   8.102   1.328   1.159
   15CHTO  H100 6130   8.192   1.321   1.184
   15CHTO   C57 6131   8.099   1.569   1.228
   15CHTO  H114 6132   8.099   1.593   1.122
   15CHTO   N10 6133   8.240   1.576   1.276
   15CHTO  H106 6134   8.293   1.652   1.221
   15CHTO  H107 6135   8.289   1.481   1.260
   15CHTO   C58 6136   8.012   1.674   1.302
   15CHTO  H115 6137   8.020   1.657   1.412
   15CHTO   O37 6138   7.873   1.665   1.265
   15CHTO   C59 6139   7.811   1.538   1.291
   15CHTO  H116 6140   7.819   1.514   1.397
   15CHTO   C70 6141   7.662   1.547   1.254
   15CHTO   O46 6142   7.587   1.629   1.344
   15CHTO  H103 6143   7.616   1.718   1.337
   15CHTO   O39 6144   8.066   1.833   1.266
   15CHTO   C60 6145   8.020   1.885   1.140
   15CHTO  H117 6146   8.000   1.802   1.073
   15CHTO   C62 6147   7.888   1.966   1.158
   15CHTO  H119 6148   7.815   1.898   1.206
   15CHTO   O43 6149   7.912   2.076   1.247
   15CHTO  H101 6150   7.974   2.136   1.211
   15CHTO   C66 6151   7.834   2.012   1.014
   15CHTO  H123 6152   7.827   1.924   0.950
   15CHTO   N12 6153   7.697   2.068   1.022
   15CHTO  H110 6154   7.696   2.155   1.086
   15CHTO  H111 6155   7.661   2.092   0.923
   15CHTO   C69 6156   7.938   2.108   0.951
   15CHTO  H126 6157   7.950   2.198   1.015
   15CHTO   O41 6158   8.076   2.033   0.938
   15CHTO   C64 6159   8.128   1.973   1.072
   15CHTO  H121 6160   8.155   2.056   1.141
   15CHTO   C71 6161   8.258   1.894   1.044
   15CHTO   O47 6162   8.237   1.789   0.948
   15CHTO  H104 6163   8.318   1.744   0.933
   15CHTO   O34 6164   7.895   2.156   0.812
   15CHTO   C49 6165   7.855   2.201   0.677
   15CHTO   H91 6166   7.832   2.110   0.620
   15CHTO   C47 6167   7.973   2.276   0.612
   15CHTO   H89 6168   7.943   2.297   0.507
   15CHTO   O33 6169   8.087   2.188   0.610
   15CHTO   H70 6170   8.158   2.229   0.566
   15CHTO   C45 6171   7.998   2.414   0.692
   15CHTO   H87 6172   8.014   2.389   0.798
   15CHTO    N8 6173   8.117   2.488   0.643
   15CHTO   H75 6174   8.159   2.441   0.556
   15CHTO   H76 6175   8.093   2.591   0.622
   15CHTO   C43 6176   7.863   2.502   0.691
   15CHTO   H85 6177   7.882   2.587   0.756
   15CHTO   O29 6178   7.750   2.424   0.736
   15CHTO   C50 6179   7.729   2.292   0.683
   15CHTO   H92 6180   7.656   2.243   0.750
   15CHTO   C54 6181   7.652   2.298   0.548
   15CHTO   O36 6182   7.613   2.169   0.500
   15CHTO   H72 6183   7.689   2.120   0.476
   15CHTO   O27 6184   7.836   2.559   0.561
   15CHTO   C37 6185   7.747   2.640   0.483
   15CHTO   H79 6186   7.668   2.577   0.438
   15CHTO   C38 6187   7.675   2.748   0.570
   15CHTO   H80 6188   7.752   2.807   0.623
   15CHTO   O31 6189   7.595   2.678   0.667
   15CHTO   H68 6190   7.559   2.740   0.729
   15CHTO   C39 6191   7.587   2.844   0.481
   15CHTO   H81 6192   7.504   2.784   0.442
   15CHTO    N7 6193   7.526   2.957   0.558
   15CHTO   H73 6194   7.603   3.019   0.601
   15CHTO   H74 6195   7.462   3.016   0.493
   15CHTO   C40 6196   7.668   2.897   0.357
   15CHTO   H82 6197   7.738   2.975   0.387
   15CHTO   O26 6198   7.734   2.790   0.287
   15CHTO   C41 6199   7.825   2.711   0.369
   15CHTO   H83 6200   7.902   2.776   0.413
   15CHTO   C52 6201   7.896   2.608   0.277
   15CHTO   O35 6202   7.980   2.674   0.175
   15CHTO   H71 6203   8.022   2.609   0.123
   15CHTO   O28 6204   7.579   2.947   0.255
   15CHTO   C42 6205   7.597   3.070   0.176
   15CHTO   H84 6206   7.564   3.040   0.077
   15CHTO   C44 6207   7.742   3.126   0.158
   15CHTO   H86 6208   7.781   3.156   0.256
   15CHTO   O32 6209   7.824   3.020   0.106
   15CHTO   H69 6210   7.836   2.953   0.171
   15CHTO   C48 6211   7.745   3.253   0.063
   15CHTO   H90 6212   7.721   3.219   2.794
   15CHTO    N9 6213   7.881   3.316   0.054
   15CHTO   H77 6214   7.915   3.346   0.152
   15CHTO   H78 6215   7.951   3.246   0.010
   15CHTO   C51 6216   7.635   3.358   0.105
   15CHTO   H93 6217   7.666   3.407   0.198
   15CHTO   O30 6218   7.508   3.293   0.119
   15CHTO   C46 6219   7.505   3.185   0.223
   15CHTO   H88 6220   7.542   3.226   0.318
   15CHTO   C53 6221   7.358   3.140   0.239
   15CHTO   O72 6222   7.275   3.246   0.287
   15CHTO  H199 6223   7.267   3.313   0.222
   15CHTO   O22 6224   7.614   3.456   0.001
   15CHTO   C31 6225   7.543   3.585   0.020
   15CHTO   H59 6226   7.526   3.624   2.749
   15CHTO   C29 6227   7.404   3.574   0.087
   15CHTO   H57 6228   7.418   3.525   0.185
   15CHTO   O21 6229   7.324   3.485   0.007
   15CHTO   H37 6230   7.244   3.465   0.051
   15CHTO   C27 6231   7.335   3.714   0.109
   15CHTO   H55 6232   7.316   3.759   0.010
   15CHTO    N5 6233   7.206   3.705   0.183
   15CHTO   H43 6234   7.186   3.604   0.215
   15CHTO   H44 6235   7.204   3.772   0.268
   15CHTO   C25 6236   7.438   3.808   0.181
   15CHTO   H53 6237   7.461   3.766   0.280
   15CHTO   O17 6238   7.561   3.817   0.103
   15CHTO   C32 6239   7.632   3.692   0.091
   15CHTO   H60 6240   7.659   3.655   0.190
   15CHTO   C36 6241   7.761   3.718   0.009
   15CHTO   O25 6242   7.845   3.816   0.071
   15CHTO   H40 6243   7.882   3.781   0.150
   15CHTO   O15 6244   7.383   3.952   0.200
   15CHTO   C19 6245   7.410   4.086   0.249
   15CHTO   H47 6246   7.487   4.125   0.180
   15CHTO   C20 6247   7.285   4.180   0.242
   15CHTO   H48 6248   7.200   4.140   0.300
   15CHTO   O19 6249   7.246   4.185   0.103
   15CHTO   H35 6250   7.166   4.234   0.094
   15CHTO   C21 6251   7.318   4.325   0.297
   15CHTO   H49 6252   7.393   4.371   0.233
   15CHTO    N4 6253   7.201   4.417   0.298
   15CHTO   H41 6254   7.164   4.430   0.197
   15CHTO   H42 6255   7.122   4.376   0.359
   15CHTO   C22 6256   7.383   4.311   0.438
   15CHTO   H50 6257   7.309   4.270   0.507
   15CHTO   O14 6258   7.497   4.225   0.431
   15CHTO   C23 6259   7.472   4.090   0.392
   15CHTO   H51 6260   7.406   4.044   0.467
   15CHTO   C34 6261   7.607   4.016   0.395
   15CHTO   O23 6262   7.663   4.012   0.527
   15CHTO   H38 6263   7.745   3.968   0.525
   15CHTO   O16 6264   7.436   4.436   0.486
   15CHTO   C24 6265   7.436   4.453   0.646
   15CHTO   H52 6266   7.387   4.370   0.696
   15CHTO   C26 6267   7.360   4.584   0.678
   15CHTO   H54 6268   7.393   4.662   0.606
   15CHTO   O20 6269   7.219   4.561   0.656
   15CHTO   H36 6270   7.202   4.549   0.564
   15CHTO   C30 6271   7.388   4.637   0.822
   15CHTO   H58 6272   7.343   4.570   0.897
   15CHTO    N6 6273   7.326   4.771   0.845
   15CHTO   H45 6274   7.219   4.765   0.832
   15CHTO   H46 6275   7.348   4.805   0.946
   15CHTO   C33 6276   7.542   4.636   0.849
   15CHTO   H61 6277   7.593   4.699   0.774
   15CHTO   O18 6278   7.584   4.500   0.833
   15CHTO   C28 6279   7.583   4.456   0.696
   15CHTO   H56 6280   7.640   4.524   0.634
   15CHTO   C35 6281   7.652   4.317   0.691
   15CHTO   O24 6282   7.588   4.217   0.771
   15CHTO   H39 6283   7.596   4.239   0.862
   15CHTO    O9 6284   7.580   4.688   0.977
   15CHTO   C13 6285   7.745   4.719   1.012
   15CHTO   H26 6286   7.749   4.824   1.046
   15CHTO   C11 6287   7.849   4.692   0.893
   15CHTO   H24 6288   7.819   4.755   0.807
   15CHTO    O8 6289   7.848   4.555   0.851
   15CHTO    H3 6290   7.765   4.533   0.814
   15CHTO    C9 6291   7.989   4.738   0.943
   15CHTO   H22 6292   7.978   4.845   0.966
   15CHTO    N2 6293   8.093   4.736   0.837
   15CHTO   H10 6294   8.060   4.792   0.751
   15CHTO   H11 6295   8.115   4.634   0.810
   15CHTO    C7 6296   8.025   4.663   1.079
   15CHTO   H20 6297   8.037   4.748   1.151
   15CHTO    O4 6298   7.920   4.576   1.125
   15CHTO   C14 6299   7.791   4.636   1.141
   15CHTO   H27 6300   7.794   4.705   1.227
   15CHTO   C18 6301   7.696   4.519   1.179
   15CHTO   O13 6302   7.571   4.565   1.230
   15CHTO    H7 6303   7.583   4.606   1.314
   15CHTO    O2 6304   8.166   4.576   1.079
   15CHTO    C1 6305   8.221   4.564   1.212
   15CHTO   H14 6306   8.147   4.601   1.287
   15CHTO    C2 6307   8.355   4.645   1.229
   15CHTO   H15 6308   8.425   4.606   1.154
   15CHTO    O6 6309   8.329   4.784   1.204
   15CHTO    H1 6310   8.307   4.797   1.113
   15CHTO    C3 6311   8.414   4.623   1.377
   15CHTO   H16 6312   8.347   4.671   1.449
   15CHTO    N1 6313   8.549   4.687   1.394
   15CHTO    H8 6314   8.619   4.645   1.323
   15CHTO    H9 6315   8.542   4.793   1.379
   15CHTO    C4 6316   8.415   4.470   1.415
   15CHTO   H17 6317   8.497   4.420   1.361
   15CHTO    O1 6318   8.290   4.405   1.384
   15CHTO    C5 6319   8.248   4.415   1.247
   15CHTO   H18 6320   8.328   4.379   1.182
   15CHTO   C16 6321   8.124   4.324   1.229
   15CHTO   O11 6322   8.016   4.362   1.315
   15CHTO    H5 6323   7.943   4.305   1.301
   15CHTO    O3 6324   8.431   4.454   1.557
   15CHTO    C6 6325   8.484   4.325   1.603
   15CHTO   H19 6326   8.469   4.245   1.529
   15CHTO    C8 6327   8.637   4.339   1.631
   15CHTO   H21 6328   8.652   4.426   1.694
   15CHTO    O7 6329   8.701   4.359   1.503
   15CHTO    H2 6330   8.792   4.377   1.516
   15CHTO   C12 6331   8.694   4.211   1.705
   15CHTO   H25 6332   8.690   4.128   1.631
   15CHTO    N3 6333   8.839   4.231   1.741
   15CHTO   H12 6334   8.853   4.225   1.848
   15CHTO   H13 6335   8.900   4.157   1.691
   15CHTO   C15 6336   8.602   4.174   1.827
   15CHTO   H28 6337   8.608   4.249   1.906
   15CHTO   O10 6338   8.633   4.033   1.885
   15CHTO    H4 6339   8.584   4.019   1.963
   15CHTO    O5 6340   8.466   4.160   1.784
   15CHTO   C10 6341   8.409   4.281   1.732
   15CHTO   H23 6342   8.416   4.358   1.809
   15CHTO   C17 6343   8.260   4.251   1.709
   15CHTO   O12 6344   8.184   4.369   1.679
   15CHTO    H6 6345   8.208   4.401   1.594
   16CHTO  H203 6346   6.512   4.579   0.416
   16CHTO   O82 6347   6.500   4.513   0.482
   16CHTO  C123 6348   6.623   4.490   0.552
   16CHTO  H227 6349   6.657   4.585   0.596
   16CHTO   O77 6350   6.585   4.397   0.656
   16CHTO  C118 6351   6.689   4.369   0.751
   16CHTO  H222 6352   6.723   4.462   0.799
   16CHTO  C125 6353   6.628   4.275   0.862
   16CHTO   O84 6354   6.518   4.339   0.929
   16CHTO  H205 6355   6.550   4.410   0.981
   16CHTO  C114 6356   6.808   4.300   0.682
   16CHTO  H218 6357   6.776   4.201   0.647
   16CHTO  C116 6358   6.856   4.379   0.556
   16CHTO  H220 6359   6.914   4.469   0.589
   16CHTO   O79 6360   6.948   4.296   0.482
   16CHTO  H201 6361   6.986   4.345   0.411
   16CHTO  C120 6362   6.735   4.424   0.464
   16CHTO  H224 6363   6.695   4.331   0.417
   16CHTO   N21 6364   6.780   4.512   0.353
   16CHTO  H211 6365   6.779   4.616   0.384
   16CHTO  H212 6366   6.717   4.498   0.266
   16CHTO   O75 6367   6.906   4.284   0.787
   16CHTO  C112 6368   7.049   4.208   0.745
   16CHTO  H216 6369   7.107   4.276   0.681
   16CHTO   O73 6370   7.016   4.086   0.678
   16CHTO  C113 6371   7.130   4.018   0.624
   16CHTO  H217 6372   7.187   4.088   0.558
   16CHTO  C124 6373   7.082   3.902   0.535
   16CHTO   O83 6374   7.011   3.948   0.420
   16CHTO  H204 6375   6.982   3.874   0.370
   16CHTO  C109 6376   7.222   3.970   0.739
   16CHTO  H213 6377   7.164   3.896   0.797
   16CHTO  C110 6378   7.261   4.091   0.830
   16CHTO  H214 6379   7.329   4.155   0.774
   16CHTO   O78 6380   7.335   4.041   0.944
   16CHTO  H200 6381   7.281   3.985   0.996
   16CHTO  C111 6382   7.135   4.173   0.873
   16CHTO  H215 6383   7.074   4.111   0.940
   16CHTO   N19 6384   7.169   4.296   0.948
   16CHTO  H207 6385   7.078   4.348   0.976
   16CHTO  H208 6386   7.225   4.271   1.037
   16CHTO   O74 6387   7.341   3.905   0.685
   16CHTO  C115 6388   7.379   3.770   0.759
   16CHTO  H219 6389   7.357   3.774   0.865
   16CHTO   O76 6390   7.294   3.648   0.704
   16CHTO  C122 6391   7.336   3.607   0.574
   16CHTO  H226 6392   7.325   3.692   0.506
   16CHTO  C126 6393   7.238   3.497   0.519
   16CHTO   O85 6394   7.103   3.544   0.509
   16CHTO  H206 6395   7.048   3.475   0.477
   16CHTO  C121 6396   7.485   3.554   0.574
   16CHTO  H225 6397   7.484   3.443   0.567
   16CHTO   O81 6398   7.554   3.604   0.458
   16CHTO  H202 6399   7.515   3.569   0.380
   16CHTO  C119 6400   7.562   3.596   0.704
   16CHTO  H223 6401   7.517   3.536   0.784
   16CHTO  C117 6402   7.535   3.747   0.738
   16CHTO  H221 6403   7.565   3.817   0.660
   16CHTO   N20 6404   7.611   3.790   0.860
   16CHTO  H209 6405   7.594   3.894   0.880
   16CHTO  H210 6406   7.717   3.773   0.845
   16CHTO   O80 6407   7.714   3.542   0.707
   16CHTO  C103 6408   7.741   3.389   0.694
   16CHTO  H190 6409   7.648   3.335   0.679
   16CHTO  C101 6410   7.843   3.344   0.583
   16CHTO  H188 6411   7.938   3.397   0.599
   16CHTO   O68 6412   7.787   3.385   0.443
   16CHTO  H168 6413   7.707   3.338   0.426
   16CHTO   C99 6414   7.871   3.186   0.592
   16CHTO  H186 6415   7.778   3.133   0.562
   16CHTO   N17 6416   7.978   3.137   0.497
   16CHTO  H174 6417   8.054   3.080   0.549
   16CHTO  H175 6418   8.022   3.220   0.444
   16CHTO   C97 6419   7.899   3.141   0.739
   16CHTO  H184 6420   8.003   3.167   0.765
   16CHTO   O64 6421   7.805   3.198   0.831
   16CHTO  C104 6422   7.799   3.341   0.833
   16CHTO  H191 6423   7.897   3.386   0.848
   16CHTO  C108 6424   7.713   3.386   0.952
   16CHTO   O71 6425   7.773   3.350   1.076
   16CHTO  H171 6426   7.720   3.381   1.147
   16CHTO   O62 6427   7.882   2.997   0.751
   16CHTO   C91 6428   7.902   2.936   0.880
   16CHTO  H178 6429   7.924   3.014   0.953
   16CHTO   C92 6430   8.029   2.844   0.876
   16CHTO  H179 6431   8.019   2.773   0.792
   16CHTO   O66 6432   8.143   2.926   0.845
   16CHTO  H166 6433   8.137   2.959   0.757
   16CHTO   C93 6434   8.050   2.767   1.012
   16CHTO  H180 6435   8.079   2.841   1.088
   16CHTO   N16 6436   8.162   2.668   1.009
   16CHTO  H172 6437   8.172   2.621   1.105
   16CHTO  H173 6438   8.254   2.717   0.981
   16CHTO   C94 6439   7.916   2.698   1.058
   16CHTO  H181 6440   7.885   2.620   0.989
   16CHTO   O61 6441   7.811   2.796   1.060
   16CHTO   C95 6442   7.780   2.852   0.932
   16CHTO  H182 6443   7.759   2.771   0.862
   16CHTO  C106 6444   7.649   2.937   0.945
   16CHTO   O69 6445   7.537   2.854   0.981
   16CHTO  H169 6446   7.547   2.823   1.068
   16CHTO   O63 6447   7.927   2.637   1.210
   16CHTO   C96 6448   7.785   2.581   1.271
   16CHTO  H183 6449   7.810   2.504   1.345
   16CHTO   C98 6450   7.689   2.513   1.167
   16CHTO  H185 6451   7.685   2.574   1.076
   16CHTO   O67 6452   7.751   2.390   1.127
   16CHTO  H167 6453   7.754   2.330   1.200
   16CHTO  C102 6454   7.540   2.492   1.223
   16CHTO  H189 6455   7.549   2.420   1.305
   16CHTO   N18 6456   7.445   2.432   1.125
   16CHTO  H176 6457   7.404   2.340   1.164
   16CHTO  H177 6458   7.365   2.500   1.102
   16CHTO  C105 6459   7.494   2.629   1.281
   16CHTO  H192 6460   7.503   2.705   1.203
   16CHTO   O65 6461   7.580   2.666   1.390
   16CHTO  C100 6462   7.714   2.698   1.351
   16CHTO  H187 6463   7.710   2.787   1.287
   16CHTO  C107 6464   7.796   2.734   1.477
   16CHTO   O70 6465   7.745   2.852   1.540
   16CHTO  H170 6466   7.797   2.872   1.616
   16CHTO   O57 6467   7.340   2.620   1.334
   16CHTO   C85 6468   7.241   2.700   1.266
   16CHTO  H157 6469   7.260   2.684   1.157
   16CHTO   C83 6470   7.265   2.852   1.290
   16CHTO  H155 6471   7.365   2.878   1.255
   16CHTO   O56 6472   7.265   2.879   1.432
   16CHTO  H135 6473   7.336   2.835   1.474
   16CHTO   C81 6474   7.160   2.934   1.209
   16CHTO  H153 6475   7.175   2.912   1.104
   16CHTO   N14 6476   7.184   3.081   1.220
   16CHTO  H141 6477   7.165   3.114   1.320
   16CHTO  H142 6478   7.118   3.133   1.153
   16CHTO   C79 6479   7.013   2.892   1.248
   16CHTO  H151 6480   6.947   2.940   1.175
   16CHTO   O52 6481   6.994   2.748   1.233
   16CHTO   C86 6482   7.092   2.667   1.305
   16CHTO  H158 6483   7.073   2.689   1.412
   16CHTO   C90 6484   7.063   2.517   1.286
   16CHTO   O60 6485   6.933   2.485   1.336
   16CHTO  H138 6486   6.917   2.393   1.325
   16CHTO   O50 6487   6.973   2.934   1.379
   16CHTO   C73 6488   6.862   2.927   1.470
   16CHTO  H145 6489   6.856   2.827   1.515
   16CHTO   C74 6490   6.727   2.957   1.397
   16CHTO  H146 6491   6.716   2.883   1.317
   16CHTO   O54 6492   6.620   2.932   1.491
   16CHTO  H133 6493   6.537   2.943   1.449
   16CHTO   C75 6494   6.729   3.105   1.342
   16CHTO  H147 6495   6.812   3.115   1.271
   16CHTO   N13 6496   6.607   3.142   1.266
   16CHTO  H139 6497   6.596   3.078   1.180
   16CHTO  H140 6498   6.519   3.131   1.328
   16CHTO   C76 6499   6.757   3.204   1.464
   16CHTO  H148 6500   6.672   3.199   1.532
   16CHTO   O49 6501   6.880   3.167   1.534
   16CHTO   C77 6502   6.884   3.032   1.584
   16CHTO  H149 6503   6.808   3.018   1.661
   16CHTO   C88 6504   7.020   3.015   1.654
   16CHTO   O58 6505   7.031   2.886   1.717
   16CHTO  H136 6506   6.973   2.881   1.790
   16CHTO   O51 6507   6.785   3.352   1.414
   16CHTO   C78 6508   6.750   3.459   1.526
   16CHTO  H150 6509   6.727   3.410   1.623
   16CHTO   C80 6510   6.628   3.543   1.482
   16CHTO  H152 6511   6.648   3.585   1.381
   16CHTO   O55 6512   6.517   3.452   1.472
   16CHTO  H134 6513   6.442   3.497   1.438
   16CHTO   C84 6514   6.599   3.661   1.584
   16CHTO  H156 6515   6.573   3.617   1.680
   16CHTO   N15 6516   6.483   3.747   1.543
   16CHTO  H143 6517   6.394   3.688   1.538
   16CHTO  H144 6518   6.501   3.790   1.446
   16CHTO   C87 6519   6.729   3.744   1.602
   16CHTO  H159 6520   6.754   3.793   1.508
   16CHTO   O53 6521   6.843   3.649   1.647
   16CHTO   C82 6522   6.873   3.549   1.549
   16CHTO  H154 6523   6.906   3.596   1.456
   16CHTO   C89 6524   6.992   3.464   1.600
   16CHTO   O59 6525   7.112   3.541   1.609
   16CHTO  H137 6526   7.182   3.487   1.641
   16CHTO   O45 6527   6.711   3.859   1.719
   16CHTO   C67 6528   6.830   3.938   1.740
   16CHTO  H124 6529   6.915   3.870   1.749
   16CHTO   C65 6530   6.856   4.036   1.620
   16CHTO  H122 6531   6.760   4.048   1.570
   16CHTO   O44 6532   6.946   3.967   1.530
   16CHTO  H102 6533   6.954   4.015   1.450
   16CHTO   C63 6534   6.897   4.181   1.666
   16CHTO  H120 6535   6.809   4.230   1.707
   16CHTO   N11 6536   6.935   4.275   1.557
   16CHTO  H108 6537   6.859   4.278   1.482
   16CHTO  H109 6538   6.949   4.374   1.596
   16CHTO   C61 6539   7.001   4.169   1.784
   16CHTO  H118 6540   7.018   4.271   1.821
   16CHTO   O40 6541   6.948   4.092   1.898
   16CHTO   C68 6542   6.824   4.017   1.876
   16CHTO  H125 6543   6.739   4.089   1.874
   16CHTO   C72 6544   6.799   3.923   1.997
   16CHTO   O48 6545   6.904   3.828   2.018
   16CHTO  H105 6546   6.884   3.775   2.093
   16CHTO   O38 6547   7.125   4.114   1.736
   16CHTO   C55 6548   7.229   4.070   1.826
   16CHTO  H112 6549   7.183   4.027   1.916
   16CHTO   C56 6550   7.330   4.189   1.862
   16CHTO  H113 6551   7.346   4.246   1.770
   16CHTO   O42 6552   7.266   4.280   1.953
   16CHTO  H100 6553   7.245   4.237   2.034
   16CHTO   C57 6554   7.469   4.137   1.919
   16CHTO  H114 6555   7.452   4.098   2.019
   16CHTO   N10 6556   7.571   4.244   1.930
   16CHTO  H106 6557   7.557   4.318   1.852
   16CHTO  H107 6558   7.671   4.203   1.923
   16CHTO   C58 6559   7.518   4.020   1.829
   16CHTO  H115 6560   7.535   4.058   1.726
   16CHTO   O37 6561   7.420   3.916   1.828
   16CHTO   C59 6562   7.302   3.953   1.755
   16CHTO  H116 6563   7.330   3.981   1.654
   16CHTO   C70 6564   7.212   3.829   1.744
   16CHTO   O46 6565   7.173   3.773   1.870
   16CHTO  H103 6566   7.119   3.698   1.856
   16CHTO   O39 6567   7.654   3.950   1.885
   16CHTO   C60 6568   7.724   3.879   1.781
   16CHTO  H117 6569   7.665   3.879   1.689
   16CHTO   C62 6570   7.860   3.948   1.748
   16CHTO  H119 6571   7.835   4.052   1.719
   16CHTO   O43 6572   7.942   3.954   1.867
   16CHTO  H101 6573   7.965   3.868   1.895
   16CHTO   C66 6574   7.929   3.873   1.624
   16CHTO  H123 6575   7.859   3.873   1.541
   16CHTO   N12 6576   8.051   3.944   1.576
   16CHTO  H110 6577   8.138   3.881   1.585
   16CHTO  H111 6578   8.037   3.977   1.474
   16CHTO   C69 6579   7.954   3.725   1.662
   16CHTO  H126 6580   8.027   3.718   1.746
   16CHTO   O41 6581   7.819   3.660   1.705
   16CHTO   C64 6582   7.748   3.730   1.819
   16CHTO  H121 6583   7.810   3.726   1.911
   16CHTO   C71 6584   7.615   3.656   1.847
   16CHTO   O47 6585   7.638   3.519   1.883
   16CHTO  H104 6586   7.669   3.472   1.808
   16CHTO   O34 6587   8.012   3.644   1.541
   16CHTO   C49 6588   8.066   3.519   1.474
   16CHTO   H91 6589   8.088   3.546   1.370
   16CHTO   C47 6590   7.959   3.408   1.477
   16CHTO   H89 6591   7.998   3.325   1.412
   16CHTO   O33 6592   7.838   3.459   1.418
   16CHTO   H70 6593   7.851   3.476   1.326
   16CHTO   C45 6594   7.940   3.355   1.628
   16CHTO   H87 6595   7.910   3.439   1.691
   16CHTO    N8 6596   7.833   3.251   1.636
   16CHTO   H75 6597   7.750   3.287   1.695
   16CHTO   H76 6598   7.871   3.159   1.678
   16CHTO   C43 6599   8.081   3.307   1.689
   16CHTO   H85 6600   8.061   3.287   1.794
   16CHTO   O29 6601   8.181   3.409   1.672
   16CHTO   C50 6602   8.197   3.470   1.542
   16CHTO   H92 6603   8.260   3.559   1.555
   16CHTO   C54 6604   8.281   3.381   1.446
   16CHTO   O36 6605   8.411   3.355   1.500
   16CHTO   H72 6606   8.462   3.433   1.500
   16CHTO   O27 6607   8.125   3.182   1.632
   16CHTO   C37 6608   8.180   3.054   1.667
   16CHTO   H79 6609   8.290   3.055   1.654
   16CHTO   C38 6610   8.150   3.018   1.815
   16CHTO   H80 6611   8.043   3.033   1.833
   16CHTO   O31 6612   8.225   3.109   1.898
   16CHTO   H68 6613   8.203   3.097   1.988
   16CHTO   C39 6614   8.187   2.868   1.849
   16CHTO   H81 6615   8.296   2.861   1.848
   16CHTO    N7 6616   8.143   2.826   1.987
   16CHTO   H73 6617   8.036   2.837   1.996
   16CHTO   H74 6618   8.193   2.886   2.061
   16CHTO   C40 6619   8.133   2.768   1.739
   16CHTO   H82 6620   8.025   2.757   1.747
   16CHTO   O26 6621   8.172   2.814   1.608
   16CHTO   C41 6622   8.120   2.946   1.573
   16CHTO   H83 6623   8.010   2.946   1.584
   16CHTO   C52 6624   8.153   2.974   1.425
   16CHTO   O35 6625   8.087   2.879   1.336
   16CHTO   H71 6626   7.994   2.894   1.337
   16CHTO   O28 6627   8.196   2.639   1.752
   16CHTO   C42 6628   8.147   2.515   1.689
   16CHTO   H84 6629   8.223   2.442   1.717
   16CHTO   C44 6630   8.140   2.512   1.533
   16CHTO   H86 6631   8.065   2.584   1.500
   16CHTO   O32 6632   8.269   2.555   1.486
   16CHTO   H69 6633   8.268   2.562   1.392
   16CHTO   C48 6634   8.100   2.369   1.480
   16CHTO   H90 6635   8.179   2.300   1.507
   16CHTO    N9 6636   8.092   2.364   1.329
   16CHTO   H77 6637   8.017   2.432   1.293
   16CHTO   H78 6638   8.071   2.263   1.297
   16CHTO   C51 6639   7.966   2.321   1.549
   16CHTO   H93 6640   7.885   2.386   1.516
   16CHTO   O30 6641   7.983   2.323   1.691
   16CHTO   C46 6642   8.012   2.464   1.748
   16CHTO   H88 6643   7.931   2.531   1.720
   16CHTO   C53 6644   8.021   2.452   1.902
   16CHTO   O72 6645   7.898   2.406   1.959
   16CHTO  H199 6646   7.906   2.401   2.052
   16CHTO   O22 6647   7.937   2.183   1.514
   16CHTO   C31 6648   7.819   2.109   1.562
   16CHTO   H59 6649   7.802   2.142   1.666
   16CHTO   C29 6650   7.688   2.137   1.483
   16CHTO   H57 6651   7.710   2.119   1.376
   16CHTO   O21 6652   7.656   2.277   1.495
   16CHTO   H37 6653   7.722   2.330   1.456
   16CHTO   C27 6654   7.568   2.044   1.527
   16CHTO   H55 6655   7.535   2.074   1.627
   16CHTO    N5 6656   7.452   2.055   1.434
   16CHTO   H43 6657   7.421   2.158   1.427
   16CHTO   H44 6658   7.370   1.994   1.470
   16CHTO   C25 6659   7.616   1.895   1.540
   16CHTO   H53 6660   7.643   1.857   1.439
   16CHTO   O17 6661   7.734   1.887   1.624
   16CHTO   C32 6662   7.847   1.956   1.569
   16CHTO   H60 6663   7.867   1.919   1.468
   16CHTO   C36 6664   7.971   1.927   1.657
   16CHTO   O25 6665   8.011   1.790   1.646
   16CHTO   H40 6666   8.086   1.774   1.700
   16CHTO   O15 6667   7.503   1.798   1.603
   16CHTO   C19 6668   7.403   1.781   1.708
   16CHTO   H47 6669   7.408   1.673   1.731
   16CHTO   C20 6670   7.433   1.860   1.839
   16CHTO   H48 6671   7.444   1.968   1.820
   16CHTO   O19 6672   7.559   1.810   1.890
   16CHTO   H35 6673   7.629   1.837   1.834
   16CHTO   C21 6674   7.317   1.842   1.946
   16CHTO   H49 6675   7.312   1.737   1.974
   16CHTO    N4 6676   7.341   1.919   2.071
   16CHTO   H41 6677   7.344   1.852   2.156
   16CHTO   H42 6678   7.265   1.993   2.088
   16CHTO   C22 6679   7.183   1.878   1.877
   16CHTO   H50 6680   7.188   1.982   1.844
   16CHTO   O14 6681   7.162   1.792   1.764
   16CHTO   C23 6682   7.258   1.808   1.658
   16CHTO   H51 6683   7.247   1.910   1.618
   16CHTO   C34 6684   7.221   1.710   1.545
   16CHTO   O23 6685   7.091   1.738   1.491
   16CHTO   H38 6686   7.025   1.716   1.553
   16CHTO   O16 6687   7.068   1.857   1.961
   16CHTO   C24 6688   6.943   1.958   1.928
   16CHTO   H52 6689   6.956   2.008   1.832
   16CHTO   C26 6690   6.931   2.064   2.039
   16CHTO   H54 6691   6.929   2.012   2.137
   16CHTO   O20 6692   7.050   2.145   2.034
   16CHTO   H36 6693   7.051   2.205   2.106
   16CHTO   C30 6694   6.800   2.148   2.025
   16CHTO   H58 6695   6.806   2.211   1.934
   16CHTO    N6 6696   6.785   2.243   2.139
   16CHTO   H45 6697   6.695   2.222   2.195
   16CHTO   H46 6698   6.782   2.345   2.103
   16CHTO   C33 6699   6.677   2.055   2.005
   16CHTO   H61 6700   6.661   1.996   2.097
   16CHTO   O18 6701   6.702   1.963   1.897
   16CHTO   C28 6702   6.813   1.875   1.916
   16CHTO   H56 6703   6.799   1.817   2.008
   16CHTO   C35 6704   6.820   1.776   1.797
   16CHTO   O24 6705   6.836   1.841   1.670
   16CHTO   H39 6706   6.758   1.890   1.649
   16CHTO    O9 6707   6.555   2.129   1.984
   16CHTO   C13 6708   6.434   2.097   2.089
   16CHTO   H26 6709   6.477   2.097   2.191
   16CHTO   C11 6710   6.367   1.956   2.054
   16CHTO   H24 6711   6.437   1.877   2.086
   16CHTO    O8 6712   6.349   1.943   1.911
   16CHTO    H3 6713   6.291   2.009   1.879
   16CHTO    C9 6714   6.234   1.945   2.133
   16CHTO   H22 6715   6.261   1.965   2.238
   16CHTO    N2 6716   6.179   1.807   2.137
   16CHTO   H10 6717   6.095   1.803   2.205
   16CHTO   H11 6718   6.149   1.777   2.038
   16CHTO    C7 6719   6.134   2.057   2.085
   16CHTO   H20 6720   6.082   2.087   2.179
   16CHTO    O4 6721   6.200   2.172   2.029
   16CHTO   C14 6722   6.324   2.213   2.090
   16CHTO   H27 6723   6.302   2.239   2.196
   16CHTO   C18 6724   6.369   2.343   2.020
   16CHTO   O13 6725   6.483   2.401   2.083
   16CHTO    H7 6726   6.508   2.479   2.037
   16CHTO    O2 6727   6.021   2.005   1.975
   16CHTO    C1 6728   5.892   2.066   1.989
   16CHTO   H14 6729   5.901   2.155   2.056
   16CHTO    C2 6730   5.784   1.967   2.049
   16CHTO   H15 6731   5.789   1.876   1.989
   16CHTO    O6 6732   5.821   1.938   2.185
   16CHTO    H1 6733   5.764   1.872   2.220
   16CHTO    C3 6734   5.636   2.030   2.041
   16CHTO   H16 6735   5.629   2.114   2.111
   16CHTO    N1 6736   5.530   1.931   2.081
   16CHTO    H8 6737   5.532   1.846   2.015
   16CHTO    H9 6738   5.433   1.978   2.079
   16CHTO    C4 6739   5.610   2.091   1.898
   16CHTO   H17 6740   5.605   2.009   1.825
   16CHTO    O1 6741   5.715   2.182   1.863
   16CHTO    C5 6742   5.845   2.122   1.851
   16CHTO   H18 6743   5.842   2.040   1.779
   16CHTO   C16 6744   5.936   2.233   1.795
   16CHTO   O11 6745   6.065   2.183   1.758
   16CHTO    H5 6746   6.113   2.158   1.834
   16CHTO    O3 6747   5.491   2.171   1.893
   16CHTO    C6 6748   5.423   2.174   1.763
   16CHTO   H19 6749   5.479   2.125   1.684
   16CHTO    C8 6750   5.284   2.103   1.774
   16CHTO   H21 6751   5.227   2.150   1.855
   16CHTO    O7 6752   5.309   1.965   1.807
   16CHTO    H2 6753   5.343   1.957   1.894
   16CHTO   C12 6754   5.203   2.118   1.639
   16CHTO   H25 6755   5.260   2.062   1.563
   16CHTO    N3 6756   5.067   2.055   1.649
   16CHTO   H12 6757   4.989   2.128   1.635
   16CHTO   H13 6758   5.057   1.976   1.576
   16CHTO   C15 6759   5.199   2.270   1.597
   16CHTO   H28 6760   5.136   2.328   1.665
   16CHTO   O10 6761   5.148   2.290   1.451
   16CHTO    H4 6762   5.199   2.238   1.391
   16CHTO    O5 6763   5.331   2.326   1.592
   16CHTO   C10 6764   5.401   2.322   1.717
   16CHTO   H23 6765   5.343   2.376   1.792
   16CHTO   C17 6766   5.535   2.396   1.700
   16CHTO   O12 6767   5.517   2.535   1.675
   16CHTO    H6 6768   5.480   2.548   1.589
   17CHTO  H203 6769   6.131   4.377   0.471
   17CHTO   O82 6770   6.064   4.422   0.424
   17CHTO  C123 6771   6.040   4.551   0.484
   17CHTO  H227 6772   6.030   4.539   0.593
   17CHTO   O77 6773   6.161   4.626   0.452
   17CHTO  C118 6774   6.167   4.756   0.513
   17CHTO  H222 6775   6.158   4.749   0.622
   17CHTO  C125 6776   6.309   4.812   0.477
   17CHTO   O84 6777   6.340   4.932   0.549
   17CHTO  H205 6778   6.426   4.961   0.525
   17CHTO  C114 6779   6.053   4.844   0.456
   17CHTO  H218 6780   6.070   4.858   0.349
   17CHTO  C116 6781   5.914   4.775   0.472
   17CHTO  H220 6782   5.885   4.778   0.580
   17CHTO   O79 6783   5.816   4.854   0.402
   17CHTO  H201 6784   5.804   4.936   0.444
   17CHTO  C120 6785   5.915   4.625   0.422
   17CHTO  H224 6786   5.924   4.628   0.312
   17CHTO   N21 6787   5.787   4.556   0.454
   17CHTO  H211 6788   5.803   4.450   0.468
   17CHTO  H212 6789   5.715   4.574   0.376
   17CHTO   O75 6790   6.061   4.969   0.526
   17CHTO  C112 6791   6.049   5.103   0.429
   17CHTO  H216 6792   5.992   5.077   0.338
   17CHTO   O73 6793   6.183   5.144   0.398
   17CHTO  C113 6794   6.193   5.258   0.312
   17CHTO  H217 6795   6.140   5.236   0.217
   17CHTO  C124 6796   6.341   5.278   0.277
   17CHTO   O83 6797   6.425   5.302   0.391
   17CHTO  H204 6798   6.403   5.385   0.430
   17CHTO  C109 6799   6.128   5.384   0.378
   17CHTO  H213 6800   6.191   5.410   0.465
   17CHTO  C110 6801   5.983   5.352   0.423
   17CHTO  H214 6802   5.920   5.344   0.335
   17CHTO   O78 6803   5.934   5.463   0.500
   17CHTO  H200 6804   5.984   5.475   0.578
   17CHTO  C111 6805   5.975   5.219   0.505
   17CHTO  H215 6806   6.028   5.234   0.600
   17CHTO   N19 6807   5.836   5.179   0.539
   17CHTO  H207 6808   5.778   5.166   0.449
   17CHTO  H208 6809   5.790   5.254   0.602
   17CHTO   O74 6810   6.126   5.497   0.284
   17CHTO  C115 6811   6.227   5.622   0.320
   17CHTO  H219 6812   6.257   5.622   0.425
   17CHTO   O76 6813   6.362   5.612   0.238
   17CHTO  C122 6814   6.451   5.724   0.247
   17CHTO  H226 6815   6.531   5.708   0.174
   17CHTO  C126 6816   6.522   5.730   0.388
   17CHTO   O85 6817   6.601   5.613   0.415
   17CHTO  H206 6818   6.675   5.611   0.358
   17CHTO  C121 6819   6.379   5.860   0.211
   17CHTO  H225 6820   6.449   5.943   0.232
   17CHTO   O81 6821   6.351   5.863   0.071
   17CHTO  H202 6822   6.289   5.796   0.048
   17CHTO  C119 6823   6.250   5.881   0.296
   17CHTO  H223 6824   6.284   5.892   0.400
   17CHTO  C117 6825   6.152   5.757   0.290
   17CHTO  H221 6826   6.103   5.741   0.194
   17CHTO   N20 6827   6.039   5.776   0.388
   17CHTO  H209 6828   5.987   5.868   0.367
   17CHTO  H210 6829   5.971   5.693   0.382
   17CHTO   O80 6830   6.182   6.024   0.269
   17CHTO  C103 6831   6.209   6.145   0.367
   17CHTO  H190 6832   6.197   6.114   0.471
   17CHTO  C101 6833   6.349   6.217   0.351
   17CHTO  H188 6834   6.370   6.228   0.244
   17CHTO   O68 6835   6.460   6.126   0.413
   17CHTO  H168 6836   6.447   6.118   0.505
   17CHTO   C99 6837   6.350   6.363   0.418
   17CHTO  H186 6838   6.345   6.352   0.527
   17CHTO   N17 6839   6.474   6.442   0.389
   17CHTO  H174 6840   6.482   6.462   0.283
   17CHTO  H175 6841   6.561   6.389   0.424
   17CHTO   C97 6842   6.222   6.442   0.378
   17CHTO  H184 6843   6.226   6.463   0.269
   17CHTO   O64 6844   6.106   6.364   0.413
   17CHTO  C104 6845   6.093   6.245   0.334
   17CHTO  H191 6846   6.094   6.268   0.227
   17CHTO  C108 6847   5.956   6.181   0.362
   17CHTO   O71 6848   5.849   6.270   0.328
   17CHTO  H171 6849   5.767   6.229   0.348
   17CHTO   O62 6850   6.205   6.566   0.451
   17CHTO   C91 6851   6.108   6.657   0.396
   17CHTO  H178 6852   6.038   6.600   0.335
   17CHTO   C92 6853   6.178   6.758   0.299
   17CHTO  H179 6854   6.247   6.704   0.232
   17CHTO   O66 6855   6.077   6.813   0.213
   17CHTO  H166 6856   6.116   6.866   0.145
   17CHTO   C93 6857   6.249   6.878   0.373
   17CHTO  H180 6858   6.266   6.956   0.298
   17CHTO   N16 6859   6.386   6.845   0.422
   17CHTO  H172 6860   6.392   6.851   0.530
   17CHTO  H173 6861   6.417   6.747   0.389
   17CHTO   C94 6862   6.156   6.936   0.488
   17CHTO  H181 6863   6.197   6.918   0.588
   17CHTO   O61 6864   6.025   6.878   0.488
   17CHTO   C95 6865   6.024   6.736   0.507
   17CHTO  H182 6866   6.066   6.713   0.605
   17CHTO  C106 6867   5.875   6.689   0.510
   17CHTO   O69 6868   5.864   6.548   0.535
   17CHTO  H169 6869   5.898   6.500   0.462
   17CHTO   O63 6870   6.141   7.091   0.464
   17CHTO   C96 6871   6.124   7.173   0.599
   17CHTO  H183 6872   6.137   7.105   0.683
   17CHTO   C98 6873   5.987   7.244   0.616
   17CHTO  H185 6874   5.967   7.309   0.529
   17CHTO   O67 6875   5.884   7.144   0.614
   17CHTO  H167 6876   5.878   7.105   0.529
   17CHTO  C102 6877   5.981   7.330   0.752
   17CHTO  H189 6878   5.973   7.256   0.834
   17CHTO   N18 6879   5.861   7.417   0.766
   17CHTO  H176 6880   5.804   7.390   0.854
   17CHTO  H177 6881   5.798   7.410   0.679
   17CHTO  C105 6882   6.112   7.411   0.776
   17CHTO  H192 6883   6.108   7.505   0.720
   17CHTO   O65 6884   6.233   7.342   0.739
   17CHTO  C100 6885   6.235   7.283   0.608
   17CHTO  H187 6886   6.214   7.362   0.534
   17CHTO  C107 6887   6.377   7.229   0.580
   17CHTO   O70 6888   6.418   7.133   0.678
   17CHTO  H170 6889   6.505   7.104   0.659
   17CHTO   O57 6890   6.117   7.438   0.937
   17CHTO   C85 6891   6.193   7.546   0.993
   17CHTO  H157 6892   6.151   7.640   0.950
   17CHTO   C83 6893   6.343   7.542   0.948
   17CHTO  H155 6894   6.347   7.554   0.839
   17CHTO   O56 6895   6.399   7.412   0.977
   17CHTO  H135 6896   6.355   7.346   0.927
   17CHTO   C81 6897   6.421   7.660   1.013
   17CHTO  H153 6898   6.372   7.753   0.982
   17CHTO   N14 6899   6.561   7.675   0.965
   17CHTO  H141 6900   6.589   7.592   0.903
   17CHTO  H142 6901   6.572   7.765   0.910
   17CHTO   C79 6902   6.413   7.651   1.170
   17CHTO  H151 6903   6.458   7.742   1.210
   17CHTO   O52 6904   6.273   7.651   1.214
   17CHTO   C86 6905   6.190   7.548   1.152
   17CHTO  H158 6906   6.230   7.453   1.193
   17CHTO   C90 6907   6.044   7.558   1.202
   17CHTO   O60 6908   6.035   7.531   1.343
   17CHTO  H138 6909   6.053   7.440   1.359
   17CHTO   O50 6910   6.481   7.538   1.226
   17CHTO   C73 6911   6.584   7.513   1.324
   17CHTO  H145 6912   6.618   7.607   1.369
   17CHTO   C74 6913   6.706   7.442   1.258
   17CHTO  H146 6914   6.744   7.508   1.179
   17CHTO   O54 6915   6.812   7.432   1.356
   17CHTO  H133 6916   6.844   7.517   1.378
   17CHTO   C75 6917   6.660   7.302   1.200
   17CHTO  H147 6918   6.589   7.321   1.118
   17CHTO   N13 6919   6.768   7.223   1.137
   17CHTO  H139 6920   6.844   7.200   1.210
   17CHTO  H140 6921   6.729   7.131   1.098
   17CHTO   C76 6922   6.580   7.217   1.311
   17CHTO  H148 6923   6.651   7.180   1.384
   17CHTO   O49 6924   6.478   7.299   1.379
   17CHTO   C77 6925   6.527   7.421   1.435
   17CHTO  H149 6926   6.606   7.401   1.508
   17CHTO   C88 6927   6.415   7.490   1.513
   17CHTO   O58 6928   6.375   7.411   1.626
   17CHTO  H136 6929   6.306   7.454   1.672
   17CHTO   O51 6930   6.498   7.098   1.235
   17CHTO   C78 6931   6.363   7.044   1.304
   17CHTO  H150 6932   6.316   7.122   1.368
   17CHTO   C80 6933   6.393   6.920   1.390
   17CHTO  H152 6934   6.452   6.848   1.329
   17CHTO   O55 6935   6.475   6.963   1.500
   17CHTO  H134 6936   6.428   7.022   1.556
   17CHTO   C84 6937   6.260   6.849   1.438
   17CHTO  H156 6938   6.207   6.919   1.503
   17CHTO   N15 6939   6.284   6.725   1.521
   17CHTO  H143 6940   6.244   6.638   1.474
   17CHTO  H144 6941   6.389   6.711   1.538
   17CHTO   C87 6942   6.171   6.820   1.315
   17CHTO  H159 6943   6.222   6.752   1.247
   17CHTO   O53 6944   6.144   6.955   1.245
   17CHTO   C82 6945   6.264   7.012   1.191
   17CHTO  H154 6946   6.309   6.944   1.119
   17CHTO   C89 6947   6.228   7.142   1.114
   17CHTO   O59 6948   6.144   7.115   1.001
   17CHTO  H137 6949   6.192   7.068   0.935
   17CHTO   O45 6950   6.023   6.755   1.360
   17CHTO   C67 6951   5.944   6.685   1.262
   17CHTO  H124 6952   5.861   6.638   1.316
   17CHTO   C65 6953   5.883   6.781   1.153
   17CHTO  H122 6954   5.952   6.865   1.143
   17CHTO   O44 6955   5.761   6.829   1.210
   17CHTO  H102 6956   5.725   6.898   1.157
   17CHTO   C63 6957   5.877   6.718   1.008
   17CHTO  H120 6958   5.978   6.716   0.967
   17CHTO   N11 6959   5.806   6.800   0.904
   17CHTO  H108 6960   5.701   6.803   0.926
   17CHTO  H109 6961   5.821   6.757   0.808
   17CHTO   C61 6962   5.832   6.568   1.020
   17CHTO  H118 6963   5.841   6.525   0.919
   17CHTO   O40 6964   5.922   6.492   1.106
   17CHTO   C68 6965   6.018   6.565   1.190
   17CHTO  H125 6966   6.101   6.602   1.126
   17CHTO   C72 6967   6.079   6.464   1.290
   17CHTO   O48 6968   6.154   6.361   1.223
   17CHTO  H105 6969   6.232   6.398   1.185
   17CHTO   O38 6970   5.693   6.558   1.061
   17CHTO   C55 6971   5.641   6.455   1.147
   17CHTO  H112 6972   5.699   6.454   1.241
   17CHTO   C56 6973   5.640   6.311   1.077
   17CHTO  H113 6974   5.604   6.327   0.974
   17CHTO   O42 6975   5.774   6.261   1.065
   17CHTO  H100 6976   5.813   6.251   1.149
   17CHTO   C57 6977   5.548   6.207   1.153
   17CHTO  H114 6978   5.596   6.184   1.248
   17CHTO   N10 6979   5.530   6.079   1.079
   17CHTO  H106 6980   5.513   5.999   1.149
   17CHTO  H107 6981   5.618   6.057   1.021
   17CHTO   C58 6982   5.411   6.273   1.182
   17CHTO  H115 6983   5.362   6.300   1.085
   17CHTO   O37 6984   5.431   6.392   1.260
   17CHTO   C59 6985   5.496   6.497   1.188
   17CHTO  H116 6986   5.438   6.521   1.099
   17CHTO   C70 6987   5.500   6.622   1.277
   17CHTO   O46 6988   5.370   6.674   1.305
   17CHTO  H103 6989   5.378   6.749   1.360
   17CHTO   O39 6990   5.311   6.176   1.269
   17CHTO   C60 6991   5.175   6.224   1.274
   17CHTO  H117 6992   5.175   6.333   1.281
   17CHTO   C62 6993   5.095   6.184   1.146
   17CHTO  H119 6994   5.147   6.231   1.060
   17CHTO   O43 6995   5.099   6.041   1.130
   17CHTO  H101 6996   5.187   6.013   1.110
   17CHTO   C66 6997   4.945   6.242   1.155
   17CHTO  H123 6998   4.951   6.351   1.166
   17CHTO   N12 6999   4.866   6.217   1.032
   17CHTO  H110 7000   4.768   6.261   1.041
   17CHTO  H111 7001   4.860   6.111   1.013
   17CHTO   C69 7002   4.875   6.188   1.283
   17CHTO  H126 7003   4.864   6.077   1.276
   17CHTO   O41 7004   4.961   6.224   1.409
   17CHTO   C64 7005   5.105   6.171   1.401
   17CHTO  H121 7006   5.104   6.060   1.398
   17CHTO   C71 7007   5.182   6.214   1.529
   17CHTO   O47 7008   5.124   6.156   1.646
   17CHTO  H104 7009   5.040   6.194   1.663
   17CHTO   O34 7010   4.728   6.251   1.301
   17CHTO   C49 7011   4.654   6.384   1.336
   17CHTO   H91 7012   4.715   6.466   1.297
   17CHTO   C47 7013   4.640   6.394   1.489
   17CHTO   H89 7014   4.593   6.494   1.507
   17CHTO   O33 7015   4.770   6.395   1.552
   17CHTO   H70 7016   4.818   6.470   1.527
   17CHTO   C45 7017   4.548   6.274   1.547
   17CHTO   H87 7018   4.613   6.188   1.569
   17CHTO    N8 7019   4.486   6.319   1.674
   17CHTO   H75 7020   4.416   6.399   1.655
   17CHTO   H76 7021   4.434   6.236   1.721
   17CHTO   C43 7022   4.446   6.221   1.433
   17CHTO   H85 7023   4.505   6.150   1.375
   17CHTO   O29 7024   4.403   6.331   1.352
   17CHTO   C50 7025   4.509   6.392   1.275
   17CHTO   H92 7026   4.512   6.344   1.176
   17CHTO   C54 7027   4.471   6.539   1.243
   17CHTO   O36 7028   4.353   6.546   1.162
   17CHTO   H72 7029   4.332   6.636   1.145
   17CHTO   O27 7030   4.336   6.143   1.483
   17CHTO   C37 7031   4.255   6.038   1.429
   17CHTO   H79 7032   4.185   6.002   1.507
   17CHTO   C38 7033   4.167   6.088   1.310
   17CHTO   H80 7034   4.231   6.149   1.243
   17CHTO   O31 7035   4.065   6.174   1.365
   17CHTO   H68 7036   4.016   6.214   1.297
   17CHTO   C39 7037   4.105   5.969   1.225
   17CHTO   H81 7038   4.033   5.917   1.289
   17CHTO    N7 7039   4.030   6.017   1.104
   17CHTO   H73 7040   4.073   5.978   1.013
   17CHTO   H74 7041   3.926   5.989   1.110
   17CHTO   C40 7042   4.220   5.868   1.191
   17CHTO   H82 7043   4.297   5.922   1.135
   17CHTO   O26 7044   4.270   5.818   1.316
   17CHTO   C41 7045   4.347   5.919   1.387
   17CHTO   H83 7046   4.427   5.956   1.322
   17CHTO   C52 7047   4.413   5.851   1.509
   17CHTO   O35 7048   4.507   5.743   1.471
   17CHTO   H71 7049   4.581   5.780   1.427
   17CHTO   O28 7050   4.183   5.753   1.111
   17CHTO   C42 7051   4.287   5.663   1.056
   17CHTO   H84 7052   4.229   5.592   0.998
   17CHTO   C44 7053   4.366   5.579   1.162
   17CHTO   H86 7054   4.414   5.647   1.232
   17CHTO   O32 7055   4.269   5.500   1.233
   17CHTO   H69 7056   4.309   5.455   1.304
   17CHTO   C48 7057   4.481   5.490   1.098
   17CHTO   H90 7058   4.435   5.413   1.036
   17CHTO    N9 7059   4.561   5.417   1.203
   17CHTO   H77 7060   4.496   5.352   1.260
   17CHTO   H78 7061   4.639   5.359   1.155
   17CHTO   C51 7062   4.569   5.583   1.008
   17CHTO   H93 7063   4.609   5.663   1.072
   17CHTO   O30 7064   4.484   5.635   0.905
   17CHTO   C46 7065   4.385   5.734   0.956
   17CHTO   H88 7066   4.439   5.814   1.007
   17CHTO   C53 7067   4.314   5.790   0.830
   17CHTO   O72 7068   4.229   5.901   0.860
   17CHTO  H199 7069   4.187   5.930   0.781
   17CHTO   O22 7070   4.678   5.515   0.941
   17CHTO   C31 7071   4.783   5.585   0.864
   17CHTO   H59 7072   4.865   5.511   0.850
   17CHTO   C29 7073   4.737   5.628   0.722
   17CHTO   H57 7074   4.652   5.696   0.733
   17CHTO   O21 7075   4.687   5.510   0.655
   17CHTO   H37 7076   4.757   5.450   0.637
   17CHTO   C27 7077   4.852   5.701   0.642
   17CHTO   H55 7078   4.934   5.630   0.625
   17CHTO    N5 7079   4.806   5.751   0.509
   17CHTO   H43 7080   4.729   5.826   0.522
   17CHTO   H44 7081   4.889   5.793   0.455
   17CHTO   C25 7082   4.909   5.818   0.731
   17CHTO   H53 7083   4.829   5.892   0.747
   17CHTO   O17 7084   4.952   5.766   0.860
   17CHTO   C32 7085   4.847   5.707   0.938
   17CHTO   H60 7086   4.770   5.782   0.957
   17CHTO   C36 7087   4.908   5.663   1.074
   17CHTO   O25 7088   4.951   5.777   1.150
   17CHTO   H40 7089   4.989   5.748   1.230
   17CHTO   O15 7090   5.033   5.888   0.662
   17CHTO   C19 7091   5.083   6.025   0.655
   17CHTO   H47 7092   5.153   6.022   0.569
   17CHTO   C20 7093   4.974   6.132   0.626
   17CHTO   H48 7094   4.897   6.134   0.705
   17CHTO   O19 7095   4.907   6.094   0.504
   17CHTO   H35 7096   4.967   6.096   0.431
   17CHTO   C21 7097   5.036   6.277   0.613
   17CHTO   H49 7098   5.096   6.281   0.522
   17CHTO    N4 7099   4.933   6.385   0.601
   17CHTO   H41 7100   4.946   6.438   0.507
   17CHTO   H42 7101   4.833   6.344   0.605
   17CHTO   C22 7102   5.133   6.303   0.731
   17CHTO   H50 7103   5.075   6.312   0.823
   17CHTO   O14 7104   5.228   6.197   0.747
   17CHTO   C23 7105   5.168   6.070   0.778
   17CHTO   H51 7106   5.105   6.083   0.868
   17CHTO   C34 7107   5.281   5.973   0.813
   17CHTO   O23 7108   5.233   5.854   0.875
   17CHTO   H38 7109   5.201   5.873   0.961
   17CHTO   O16 7110   5.212   6.421   0.707
   17CHTO   C24 7111   5.260   6.507   0.835
   17CHTO   H52 7112   5.296   6.442   0.916
   17CHTO   C26 7113   5.144   6.594   0.887
   17CHTO   H54 7114   5.095   6.643   0.800
   17CHTO   O20 7115   5.046   6.508   0.949
   17CHTO   H36 7116   5.082   6.465   1.024
   17CHTO   C30 7117   5.192   6.705   0.986
   17CHTO   H58 7118   5.225   6.658   1.080
   17CHTO    N6 7119   5.079   6.796   1.022
   17CHTO   H45 7120   5.064   6.797   1.129
   17CHTO   H46 7121   5.098   6.897   0.988
   17CHTO   C33 7122   5.315   6.780   0.928
   17CHTO   H61 7123   5.287   6.835   0.837
   17CHTO   O18 7124   5.418   6.685   0.895
   17CHTO   C28 7125   5.380   6.594   0.790
   17CHTO   H56 7126   5.352   6.649   0.700
   17CHTO   C35 7127   5.500   6.503   0.757
   17CHTO   O24 7128   5.614   6.576   0.709
   17CHTO   H39 7129   5.651   6.626   0.778
   17CHTO    O9 7130   5.364   6.880   1.020
   17CHTO   C13 7131   5.454   6.998   0.956
   17CHTO   H26 7132   5.515   6.955   0.873
   17CHTO   C11 7133   5.545   7.055   1.071
   17CHTO   H24 7134   5.616   6.976   1.098
   17CHTO    O8 7135   5.466   7.082   1.189
   17CHTO    H3 7136   5.521   7.106   1.261
   17CHTO    C9 7137   5.625   7.177   1.018
   17CHTO   H22 7138   5.679   7.140   0.929
   17CHTO    N2 7139   5.731   7.225   1.110
   17CHTO   H10 7140   5.788   7.303   1.063
   17CHTO   H11 7141   5.796   7.143   1.137
   17CHTO    C7 7142   5.524   7.288   0.974
   17CHTO   H20 7143   5.587   7.366   0.927
   17CHTO    O4 7144   5.431   7.241   0.874
   17CHTO   C14 7145   5.365   7.113   0.889
   17CHTO   H27 7146   5.340   7.080   0.786
   17CHTO   C18 7147   5.230   7.135   0.963
   17CHTO   O13 7148   5.143   7.221   0.889
   17CHTO    H7 7149   5.063   7.232   0.937
   17CHTO    O2 7150   5.439   7.349   1.104
   17CHTO    C1 7151   5.400   7.488   1.101
   17CHTO   H14 7152   5.344   7.509   1.008
   17CHTO    C2 7153   5.522   7.592   1.113
   17CHTO   H15 7154   5.586   7.553   1.194
   17CHTO    O6 7155   5.598   7.593   0.990
   17CHTO    H1 7156   5.544   7.619   0.918
   17CHTO    C3 7157   5.473   7.741   1.148
   17CHTO   H16 7158   5.424   7.783   1.058
   17CHTO    N1 7159   5.587   7.833   1.184
   17CHTO    H8 7160   5.591   7.916   1.115
   17CHTO    H9 7161   5.681   7.780   1.182
   17CHTO    C4 7162   5.363   7.739   1.260
   17CHTO   H17 7163   5.410   7.709   1.354
   17CHTO    O1 7164   5.259   7.648   1.223
   17CHTO    C5 7165   5.301   7.511   1.220
   17CHTO   H18 7166   5.353   7.486   1.313
   17CHTO   C16 7167   5.172   7.427   1.212
   17CHTO   O11 7168   5.193   7.289   1.244
   17CHTO    H5 7169   5.245   7.248   1.178
   17CHTO    O3 7170   5.295   7.866   1.275
   17CHTO    C6 7171   5.246   7.907   1.408
   17CHTO   H19 7172   5.165   7.980   1.397
   17CHTO    C8 7173   5.184   7.790   1.494
   17CHTO   H21 7174   5.255   7.707   1.496
   17CHTO    O7 7175   5.063   7.750   1.428
   17CHTO    H2 7176   5.026   7.674   1.471
   17CHTO   C12 7177   5.158   7.835   1.643
   17CHTO   H25 7178   5.077   7.912   1.640
   17CHTO    N3 7179   5.109   7.722   1.729
   17CHTO   H12 7180   5.100   7.631   1.672
   17CHTO   H13 7181   5.014   7.748   1.774
   17CHTO   C15 7182   5.288   7.903   1.699
   17CHTO   H28 7183   5.371   7.832   1.704
   17CHTO   O10 7184   5.270   7.968   1.837
   17CHTO    H4 7185   5.251   7.902   1.901
   17CHTO    O5 7186   5.323   8.016   1.618
   17CHTO   C10 7187   5.361   7.979   1.484
   17CHTO   H23 7188   5.448   7.914   1.490
   17CHTO   C17 7189   5.407   8.107   1.412
   17CHTO   O12 7190   5.303   8.206   1.402
   17CHTO    H6 7191   5.235   8.176   1.345
   18CHTO  H203 7192   6.854   7.986   2.073
   18CHTO   O82 7193   6.841   7.914   2.014
   18CHTO  C123 7194   6.848   7.960   1.878
   18CHTO  H227 7195   6.947   8.006   1.861
   18CHTO   O77 7196   6.837   7.836   1.801
   18CHTO  C118 7197   6.845   7.851   1.658
   18CHTO  H222 7198   6.941   7.898   1.633
   18CHTO  C125 7199   6.839   7.707   1.594
   18CHTO   O84 7200   6.720   7.636   1.629
   18CHTO  H205 7201   6.721   7.616   1.721
   18CHTO  C114 7202   6.729   7.942   1.610
   18CHTO  H218 7203   6.635   7.897   1.641
   18CHTO  C116 7204   6.737   8.080   1.681
   18CHTO  H220 7205   6.832   8.132   1.654
   18CHTO   O79 7206   6.630   8.163   1.631
   18CHTO  H201 7207   6.546   8.127   1.655
   18CHTO  C120 7208   6.731   8.058   1.838
   18CHTO  H224 7209   6.632   8.011   1.860
   18CHTO   N21 7210   6.736   8.186   1.914
   18CHTO  H211 7211   6.690   8.266   1.857
   18CHTO  H212 7212   6.687   8.174   2.009
   18CHTO   O75 7213   6.731   7.945   1.465
   18CHTO  C112 7214   6.866   8.005   1.384
   18CHTO  H216 7215   6.955   7.950   1.417
   18CHTO   O73 7216   6.876   8.146   1.412
   18CHTO  C113 7217   6.989   8.207   1.350
   18CHTO  H217 7218   7.081   8.150   1.374
   18CHTO  C124 7219   7.009   8.349   1.406
   18CHTO   O83 7220   7.029   8.347   1.548
   18CHTO  H204 7221   7.040   8.435   1.579
   18CHTO  C109 7222   6.971   8.209   1.196
   18CHTO  H213 7223   6.882   8.270   1.175
   18CHTO  C110 7224   6.948   8.062   1.145
   18CHTO  H214 7225   7.044   8.011   1.146
   18CHTO   O78 7226   6.905   8.067   1.008
   18CHTO  H200 7227   6.904   7.981   0.971
   18CHTO  C111 7228   6.843   7.984   1.230
   18CHTO  H215 7229   6.743   8.023   1.206
   18CHTO   N19 7230   6.840   7.838   1.198
   18CHTO  H207 7231   6.765   7.789   1.258
   18CHTO  H208 7232   6.818   7.824   1.094
   18CHTO   O74 7233   7.087   8.271   1.133
   18CHTO  C115 7234   7.056   8.338   0.987
   18CHTO  H219 7235   6.991   8.275   0.927
   18CHTO   O76 7236   6.981   8.474   1.001
   18CHTO  C122 7237   6.939   8.533   0.877
   18CHTO  H226 7238   6.908   8.635   0.900
   18CHTO  C126 7239   6.808   8.460   0.827
   18CHTO   O85 7240   6.754   8.517   0.707
   18CHTO  H206 7241   6.722   8.604   0.725
   18CHTO  C121 7242   7.053   8.538   0.767
   18CHTO  H225 7243   7.005   8.553   0.668
   18CHTO   O81 7244   7.134   8.654   0.790
   18CHTO  H202 7245   7.083   8.732   0.781
   18CHTO  C119 7246   7.142   8.409   0.760
   18CHTO  H223 7247   7.077   8.331   0.720
   18CHTO  C117 7248   7.186   8.361   0.903
   18CHTO  H221 7249   7.246   8.431   0.961
   18CHTO   N20 7250   7.269   8.236   0.895
   18CHTO  H209 7251   7.300   8.206   0.995
   18CHTO  H210 7252   7.213   8.157   0.848
   18CHTO   O80 7253   7.258   8.420   0.644
   18CHTO  C103 7254   7.246   8.332   0.507
   18CHTO  H190 7255   7.327   8.359   0.439
   18CHTO  C101 7256   7.250   8.175   0.525
   18CHTO  H188 7257   7.179   8.147   0.604
   18CHTO   O68 7258   7.394   8.135   0.570
   18CHTO  H168 7259   7.413   8.172   0.654
   18CHTO   C99 7260   7.205   8.103   0.389
   18CHTO  H186 7261   7.274   8.132   0.307
   18CHTO   N17 7262   7.206   7.953   0.396
   18CHTO  H174 7263   7.136   7.919   0.470
   18CHTO  H175 7264   7.306   7.918   0.417
   18CHTO   C97 7265   7.066   8.159   0.349
   18CHTO  H184 7266   6.997   8.139   0.433
   18CHTO   O64 7267   7.080   8.300   0.323
   18CHTO  C104 7268   7.111   8.379   0.439
   18CHTO  H191 7269   7.030   8.374   0.512
   18CHTO  C108 7270   7.123   8.526   0.399
   18CHTO   O71 7271   6.997   8.582   0.359
   18CHTO  H171 7272   6.941   8.590   0.433
   18CHTO   O62 7273   7.013   8.105   0.225
   18CHTO   C91 7274   6.869   8.101   0.216
   18CHTO  H178 7275   6.825   8.142   0.307
   18CHTO   C92 7276   6.816   7.955   0.204
   18CHTO  H179 7277   6.856   7.909   0.112
   18CHTO   O66 7278   6.869   7.877   0.313
   18CHTO  H166 7279   6.962   7.868   0.305
   18CHTO   C93 7280   6.657   7.951   0.205
   18CHTO  H180 7281   6.625   7.978   0.307
   18CHTO   N16 7282   6.602   7.814   0.181
   18CHTO  H172 7283   6.543   7.811   0.091
   18CHTO  H173 7284   6.544   7.782   0.266
   18CHTO   C94 7285   6.596   8.055   0.103
   18CHTO  H181 7286   6.603   8.020   2.832
   18CHTO   O61 7287   6.664   8.182   0.107
   18CHTO   C95 7288   6.806   8.180   0.095
   18CHTO  H182 7289   6.833   8.131   0.001
   18CHTO  C106 7290   6.856   8.328   0.085
   18CHTO   O69 7291   6.818   8.403   0.201
   18CHTO  H169 7292   6.866   8.372   0.276
   18CHTO   O63 7293   6.434   8.081   0.144
   18CHTO   C96 7294   6.387   8.236   0.137
   18CHTO  H183 7295   6.451   8.288   0.067
   18CHTO   C98 7296   6.391   8.312   0.272
   18CHTO  H185 7297   6.331   8.258   0.347
   18CHTO   O67 7298   6.526   8.309   0.323
   18CHTO  H167 7299   6.584   8.355   0.265
   18CHTO  C102 7300   6.341   8.464   0.258
   18CHTO  H189 7301   6.421   8.517   0.205
   18CHTO   N18 7302   6.322   8.536   0.387
   18CHTO  H176 7303   6.387   8.623   0.391
   18CHTO  H177 7304   6.342   8.471   0.471
   18CHTO  C105 7305   6.213   8.472   0.170
   18CHTO  H192 7306   6.125   8.448   0.230
   18CHTO   O65 7307   6.212   8.385   0.055
   18CHTO  C100 7308   6.240   8.247   0.083
   18CHTO  H187 7309   6.170   8.210   0.159
   18CHTO  C107 7310   6.220   8.164   2.785
   18CHTO   O70 7311   6.083   8.167   2.743
   18CHTO  H170 7312   6.030   8.119   2.804
   18CHTO   O57 7313   6.210   8.633   0.118
   18CHTO   C85 7314   6.093   8.701   0.071
   18CHTO  H157 7315   6.133   8.798   0.032
   18CHTO   C83 7316   5.999   8.741   0.189
   18CHTO  H155 7317   6.056   8.807   0.256
   18CHTO   O56 7318   5.965   8.625   0.268
   18CHTO  H135 7319   5.918   8.650   0.344
   18CHTO   C81 7320   5.876   8.818   0.134
   18CHTO  H153 7321   5.913   8.904   0.079
   18CHTO   N14 7322   5.792   8.876   0.242
   18CHTO  H141 7323   5.716   8.937   0.199
   18CHTO  H142 7324   5.747   8.797   0.299
   18CHTO   C79 7325   5.797   8.727   0.033
   18CHTO  H151 7326   5.717   8.788   2.823
   18CHTO   O52 7327   5.883   8.688   2.753
   18CHTO   C86 7328   6.009   8.624   2.792
   18CHTO  H158 7329   5.979   8.523   2.827
   18CHTO   C90 7330   6.094   8.602   2.664
   18CHTO   O60 7331   6.126   8.725   2.599
   18CHTO  H138 7332   6.186   8.775   2.651
   18CHTO   O50 7333   5.738   8.611   0.093
   18CHTO   C73 7334   5.635   8.514   0.067
   18CHTO  H145 7335   5.661   8.453   2.812
   18CHTO   C74 7336   5.498   8.584   0.041
   18CHTO  H146 7337   5.511   8.649   2.784
   18CHTO   O54 7338   5.402   8.484   0.004
   18CHTO  H133 7339   5.321   8.524   2.814
   18CHTO   C75 7340   5.458   8.668   0.169
   18CHTO  H147 7341   5.534   8.746   0.184
   18CHTO   N13 7342   5.331   8.742   0.155
   18CHTO  H139 7343   5.337   8.811   0.072
   18CHTO  H140 7344   5.311   8.799   0.245
   18CHTO   C76 7345   5.460   8.574   0.299
   18CHTO  H148 7346   5.375   8.506   0.295
   18CHTO   O49 7347   5.585   8.496   0.308
   18CHTO   C77 7348   5.622   8.421   0.191
   18CHTO  H149 7349   5.547   8.345   0.171
   18CHTO   C88 7350   5.752   8.346   0.223
   18CHTO   O58 7351   5.795   8.259   0.109
   18CHTO  H136 7352   5.820   8.312   0.036
   18CHTO   O51 7353   5.459   8.669   0.431
   18CHTO   C78 7354   5.472   8.593   0.568
   18CHTO  H150 7355   5.492   8.485   0.552
   18CHTO   C80 7356   5.342   8.609   0.650
   18CHTO  H152 7357   5.318   8.718   0.656
   18CHTO   O55 7358   5.237   8.544   0.576
   18CHTO  H134 7359   5.155   8.559   0.618
   18CHTO   C84 7360   5.358   8.551   0.796
   18CHTO  H156 7361   5.373   8.443   0.788
   18CHTO   N15 7362   5.236   8.572   0.883
   18CHTO  H143 7363   5.197   8.478   0.914
   18CHTO  H144 7364   5.160   8.626   0.829
   18CHTO   C87 7365   5.484   8.611   0.863
   18CHTO  H159 7366   5.471   8.718   0.879
   18CHTO   O53 7367   5.604   8.584   0.771
   18CHTO   C82 7368   5.592   8.652   0.645
   18CHTO  H154 7369   5.577   8.758   0.662
   18CHTO   C89 7370   5.726   8.636   0.568
   18CHTO   O59 7371   5.763   8.499   0.551
   18CHTO  H137 7372   5.845   8.495   0.504
   18CHTO   O45 7373   5.518   8.539   1.009
   18CHTO   C67 7374   5.651   8.567   1.057
   18CHTO  H124 7375   5.722   8.544   0.978
   18CHTO   C65 7376   5.669   8.719   1.098
   18CHTO  H122 7377   5.570   8.754   1.128
   18CHTO   O44 7378   5.709   8.789   0.979
   18CHTO  H102 7379   5.640   8.788   0.915
   18CHTO   C63 7380   5.760   8.737   1.225
   18CHTO  H120 7381   5.702   8.709   1.313
   18CHTO   N11 7382   5.800   8.877   1.260
   18CHTO  H108 7383   5.866   8.916   1.185
   18CHTO  H109 7384   5.848   8.879   1.355
   18CHTO   C61 7385   5.879   8.635   1.216
   18CHTO  H118 7386   5.939   8.647   1.308
   18CHTO   O40 7387   5.832   8.496   1.215
   18CHTO   C68 7388   5.692   8.472   1.177
   18CHTO  H125 7389   5.627   8.492   1.265
   18CHTO   C72 7390   5.675   8.323   1.141
   18CHTO   O48 7391   5.705   8.237   1.252
   18CHTO  H105 7392   5.694   8.147   1.226
   18CHTO   O38 7393   5.963   8.658   1.101
   18CHTO   C55 7394   6.091   8.593   1.103
   18CHTO  H112 7395   6.089   8.506   1.172
   18CHTO   C56 7396   6.205   8.696   1.141
   18CHTO  H113 7397   6.200   8.778   1.068
   18CHTO   O42 7398   6.178   8.754   1.269
   18CHTO  H100 7399   6.100   8.805   1.266
   18CHTO   C57 7400   6.347   8.627   1.138
   18CHTO  H114 7401   6.351   8.563   1.226
   18CHTO   N10 7402   6.460   8.722   1.152
   18CHTO  H106 7403   6.549   8.684   1.103
   18CHTO  H107 7404   6.435   8.818   1.109
   18CHTO   C58 7405   6.366   8.538   1.011
   18CHTO  H115 7406   6.394   8.602   0.924
   18CHTO   O37 7407   6.249   8.462   0.975
   18CHTO   C59 7408   6.126   8.534   0.963
   18CHTO  H116 7409   6.137   8.614   0.890
   18CHTO   C70 7410   6.017   8.438   0.912
   18CHTO   O46 7411   5.998   8.322   0.994
   18CHTO  H103 7412   5.961   8.348   1.076
   18CHTO   O39 7413   6.488   8.423   1.040
   18CHTO   C60 7414   6.447   8.316   1.127
   18CHTO  H117 7415   6.363   8.349   1.188
   18CHTO   C62 7416   6.398   8.192   1.047
   18CHTO  H119 7417   6.322   8.229   0.975
   18CHTO   O43 7418   6.505   8.133   0.971
   18CHTO  H101 7419   6.534   8.193   0.904
   18CHTO   C66 7420   6.327   8.092   1.149
   18CHTO  H123 7421   6.255   8.148   1.208
   18CHTO   N12 7422   6.250   7.987   1.079
   18CHTO  H110 7423   6.201   7.923   1.151
   18CHTO  H111 7424   6.314   7.930   1.015
   18CHTO   C69 7425   6.433   8.035   1.248
   18CHTO  H126 7426   6.505   7.970   1.192
   18CHTO   O41 7427   6.516   8.155   1.317
   18CHTO   C64 7428   6.560   8.276   1.226
   18CHTO  H121 7429   6.651   8.249   1.169
   18CHTO   C71 7430   6.592   8.397   1.316
   18CHTO   O47 7431   6.686   8.366   1.419
   18CHTO  H104 7432   6.770   8.349   1.381
   18CHTO   O34 7433   6.363   7.947   1.362
   18CHTO   C49 7434   6.303   7.971   1.507
   18CHTO   H91 7435   6.376   7.931   1.577
   18CHTO   C47 7436   6.171   7.893   1.518
   18CHTO   H89 7437   6.139   7.901   1.624
   18CHTO   O33 7438   6.196   7.754   1.490
   18CHTO   H70 7439   6.220   7.743   1.399
   18CHTO   C45 7440   6.060   7.960   1.423
   18CHTO   H87 7441   6.099   7.960   1.320
   18CHTO    N8 7442   5.932   7.885   1.424
   18CHTO   H75 7443   5.912   7.844   1.326
   18CHTO   H76 7444   5.849   7.948   1.454
   18CHTO   C43 7445   6.042   8.116   1.461
   18CHTO   H85 7446   5.976   8.158   1.386
   18CHTO   O29 7447   6.171   8.182   1.463
   18CHTO   C50 7448   6.279   8.122   1.537
   18CHTO   H92 7449   6.370   8.177   1.510
   18CHTO   C54 7450   6.266   8.153   1.689
   18CHTO   O36 7451   6.378   8.106   1.765
   18CHTO   H72 7452   6.365   8.127   1.856
   18CHTO   O27 7453   5.975   8.135   1.588
   18CHTO   C37 7454   5.903   8.237   1.658
   18CHTO   H79 7455   5.942   8.247   1.760
   18CHTO   C38 7456   5.920   8.377   1.590
   18CHTO   H80 7457   5.898   8.366   1.482
   18CHTO   O31 7458   6.057   8.416   1.605
   18CHTO   H68 7459   6.113   8.361   1.554
   18CHTO   C39 7460   5.823   8.485   1.652
   18CHTO   H81 7461   5.855   8.501   1.755
   18CHTO    N7 7462   5.830   8.617   1.582
   18CHTO   H73 7463   5.765   8.688   1.630
   18CHTO   H74 7464   5.803   8.605   1.478
   18CHTO   C40 7465   5.676   8.429   1.658
   18CHTO   H82 7466   5.636   8.418   1.557
   18CHTO   O26 7467   5.675   8.304   1.730
   18CHTO   C41 7468   5.752   8.198   1.665
   18CHTO   H83 7469   5.714   8.181   1.563
   18CHTO   C52 7470   5.734   8.068   1.746
   18CHTO   O35 7471   5.597   8.023   1.748
   18CHTO   H71 7472   5.591   7.943   1.797
   18CHTO   O28 7473   5.590   8.518   1.733
   18CHTO   C42 7474   5.444   8.505   1.740
   18CHTO   H84 7475   5.414   8.596   1.792
   18CHTO   C44 7476   5.389   8.386   1.826
   18CHTO   H86 7477   5.417   8.293   1.777
   18CHTO   O32 7478   5.455   8.393   1.954
   18CHTO   H69 7479   5.430   8.470   2.000
   18CHTO   C48 7480   5.231   8.392   1.837
   18CHTO   H90 7481   5.205   8.482   1.891
   18CHTO    N9 7482   5.176   8.278   1.918
   18CHTO   H77 7483   5.201   8.183   1.871
   18CHTO   H78 7484   5.069   8.288   1.928
   18CHTO   C51 7485   5.168   8.399   1.693
   18CHTO   H93 7486   5.191   8.306   1.641
   18CHTO   O30 7487   5.221   8.514   1.625
   18CHTO   C46 7488   5.372   8.506   1.602
   18CHTO   H88 7489   5.396   8.414   1.548
   18CHTO   C53 7490   5.414   8.629   1.517
   18CHTO   O72 7491   5.355   8.622   1.386
   18CHTO  H199 7492   5.382   8.696   1.336
   18CHTO   O22 7493   5.025   8.420   1.698
   18CHTO   C31 7494   4.936   8.402   1.581
   18CHTO   H59 7495   4.833   8.421   1.620
   18CHTO   C29 7496   4.959   8.503   1.467
   18CHTO   H57 7497   5.064   8.492   1.433
   18CHTO   O21 7498   4.946   8.636   1.521
   18CHTO   H37 7499   5.015   8.653   1.582
   18CHTO   C27 7500   4.863   8.478   1.344
   18CHTO   H55 7501   4.759   8.494   1.377
   18CHTO    N5 7502   4.890   8.569   1.230
   18CHTO   H43 7503   4.820   8.551   1.150
   18CHTO   H44 7504   4.883   8.672   1.262
   18CHTO   C25 7505   4.876   8.328   1.302
   18CHTO   H53 7506   4.981   8.309   1.273
   18CHTO   O17 7507   4.844   8.242   1.415
   18CHTO   C32 7508   4.935   8.256   1.526
   18CHTO   H60 7509   5.035   8.230   1.493
   18CHTO   C36 7510   4.893   8.153   1.635
   18CHTO   O25 7511   4.761   8.177   1.684
   18CHTO   H40 7512   4.740   8.113   1.750
   18CHTO   O15 7513   4.778   8.286   1.179
   18CHTO   C19 7514   4.814   8.237   1.045
   18CHTO   H47 7515   4.730   8.171   1.019
   18CHTO   C20 7516   4.824   8.350   0.938
   18CHTO   H48 7517   4.892   8.431   0.969
   18CHTO   O19 7518   4.692   8.406   0.926
   18CHTO   H35 7519   4.693   8.481   0.869
   18CHTO   C21 7520   4.876   8.297   0.798
   18CHTO   H49 7521   4.802   8.229   0.756
   18CHTO    N4 7522   4.898   8.405   0.698
   18CHTO   H41 7523   4.805   8.456   0.679
   18CHTO   H42 7524   4.970   8.476   0.736
   18CHTO   C22 7525   5.005   8.214   0.824
   18CHTO   H50 7526   5.079   8.280   0.869
   18CHTO   O14 7527   4.973   8.105   0.912
   18CHTO   C23 7528   4.942   8.147   1.045
   18CHTO   H51 7529   5.030   8.201   1.084
   18CHTO   C34 7530   4.922   8.021   1.130
   18CHTO   O23 7531   5.041   7.941   1.136
   18CHTO   H38 7532   5.057   7.903   1.052
   18CHTO   O16 7533   5.059   8.148   0.708
   18CHTO   C24 7534   5.216   8.184   0.675
   18CHTO   H52 7535   5.241   8.287   0.703
   18CHTO   C26 7536   5.235   8.168   0.523
   18CHTO   H54 7537   5.190   8.070   0.493
   18CHTO   O20 7538   5.159   8.270   0.457
   18CHTO   H36 7539   5.193   8.355   0.477
   18CHTO   C30 7540   5.385   8.168   0.479
   18CHTO   H58 7541   5.427   8.268   0.492
   18CHTO    N6 7542   5.399   8.134   0.335
   18CHTO   H45 7543   5.357   8.037   0.315
   18CHTO   H46 7544   5.349   8.208   0.274
   18CHTO   C33 7545   5.468   8.072   0.571
   18CHTO   H61 7546   5.432   7.969   0.557
   18CHTO   O18 7547   5.447   8.110   0.708
   18CHTO   C28 7548   5.313   8.091   0.755
   18CHTO   H56 7549   5.281   7.988   0.742
   18CHTO   C35 7550   5.314   8.124   0.906
   18CHTO   O24 7551   5.393   8.033   0.983
   18CHTO   H39 7552   5.352   7.949   0.985
   18CHTO    O9 7553   5.608   8.070   0.537
   18CHTO   C13 7554   5.687   7.940   0.593
   18CHTO   H26 7555   5.616   7.855   0.598
   18CHTO   C11 7556   5.752   7.970   0.735
   18CHTO   H24 7557   5.670   7.986   0.806
   18CHTO    O8 7558   5.828   8.093   0.730
   18CHTO    H3 7559   5.901   8.085   0.672
   18CHTO    C9 7560   5.834   7.845   0.779
   18CHTO   H22 7561   5.762   7.762   0.779
   18CHTO    N2 7562   5.884   7.852   0.918
   18CHTO   H10 7563   5.930   7.758   0.945
   18CHTO   H11 7564   5.803   7.875   0.986
   18CHTO    C7 7565   5.946   7.815   0.673
   18CHTO   H20 7566   5.988   7.717   0.705
   18CHTO    O4 7567   5.892   7.799   0.540
   18CHTO   C14 7568   5.797   7.895   0.487
   18CHTO   H27 7569   5.743   7.842   0.405
   18CHTO   C18 7570   5.871   8.014   0.422
   18CHTO   O13 7571   5.950   7.971   0.311
   18CHTO    H7 7572   5.993   8.045   0.272
   18CHTO    O2 7573   6.065   7.928   0.671
   18CHTO    C1 7574   6.186   7.906   0.596
   18CHTO   H14 7575   6.170   7.944   0.492
   18CHTO    C2 7576   6.239   7.755   0.585
   18CHTO   H15 7577   6.236   7.714   0.688
   18CHTO    O6 7578   6.150   7.680   0.500
   18CHTO    H1 7579   6.066   7.672   0.540
   18CHTO    C3 7580   6.389   7.750   0.528
   18CHTO   H16 7581   6.390   7.785   0.424
   18CHTO    N1 7582   6.444   7.610   0.528
   18CHTO    H8 7583   6.544   7.609   0.486
   18CHTO    H9 7584   6.446   7.570   0.628
   18CHTO    C4 7585   6.479   7.850   0.609
   18CHTO   H17 7586   6.481   7.820   0.713
   18CHTO    O1 7587   6.424   7.982   0.596
   18CHTO    C5 7588   6.295   7.998   0.659
   18CHTO   H18 7589   6.303   7.974   0.764
   18CHTO   C16 7590   6.255   8.148   0.645
   18CHTO   O11 7591   6.349   8.234   0.712
   18CHTO    H5 7592   6.321   8.323   0.702
   18CHTO    O3 7593   6.614   7.862   0.557
   18CHTO    C6 7594   6.721   7.874   0.658
   18CHTO   H19 7595   6.682   7.886   0.759
   18CHTO    C8 7596   6.812   7.746   0.657
   18CHTO   H21 7597   6.854   7.734   0.557
   18CHTO    O7 7598   6.728   7.633   0.688
   18CHTO    H2 7599   6.777   7.553   0.680
   18CHTO   C12 7600   6.930   7.764   0.761
   18CHTO   H25 7601   6.883   7.775   0.861
   18CHTO    N3 7602   7.019   7.643   0.767
   18CHTO   H12 7603   6.961   7.556   0.794
   18CHTO   H13 7604   7.098   7.660   0.838
   18CHTO   C15 7605   7.006   7.896   0.727
   18CHTO   H28 7606   7.057   7.889   0.631
   18CHTO   O10 7607   7.109   7.936   0.835
   18CHTO    H4 7608   7.161   8.009   0.805
   18CHTO    O5 7609   6.916   8.008   0.726
   18CHTO   C10 7610   6.810   7.999   0.629
   18CHTO   H23 7611   6.855   7.992   0.530
   18CHTO   C17 7612   6.734   8.131   0.637
   18CHTO   O12 7613   6.647   8.149   0.525
   18CHTO    H6 7614   6.576   8.089   0.530
   19CHTO  H203 7615   5.212   9.542   2.364
   19CHTO   O82 7616   5.290   9.504   2.328
   19CHTO  C123 7617   5.265   9.367   2.293
   19CHTO  H227 7618   5.184   9.364   2.218
   19CHTO   O77 7619   5.391   9.326   2.232
   19CHTO  C118 7620   5.390   9.193   2.177
   19CHTO  H222 7621   5.308   9.185   2.104
   19CHTO  C125 7622   5.527   9.170   2.103
   19CHTO   O84 7623   5.639   9.179   2.192
   19CHTO  H205 7624   5.639   9.107   2.251
   19CHTO  C114 7625   5.367   9.091   2.290
   19CHTO  H218 7626   5.451   9.097   2.360
   19CHTO  C116 7627   5.237   9.122   2.370
   19CHTO  H220 7628   5.149   9.102   2.305
   19CHTO   O79 7629   5.226   9.031   2.481
   19CHTO  H201 7630   5.297   9.044   2.541
   19CHTO  C120 7631   5.234   9.274   2.417
   19CHTO  H224 7632   5.314   9.285   2.493
   19CHTO   N21 7633   5.106   9.310   2.482
   19CHTO  H211 7634   5.122   9.389   2.554
   19CHTO  H212 7635   5.062   9.224   2.531
   19CHTO   O75 7636   5.365   8.963   2.225
   19CHTO  C112 7637   5.441   8.844   2.308
   19CHTO  H216 7638   5.416   8.853   2.415
   19CHTO   O73 7639   5.582   8.859   2.285
   19CHTO  C113 7640   5.666   8.755   2.339
   19CHTO  H217 7641   5.651   8.751   2.449
   19CHTO  C124 7642   5.813   8.792   2.313
   19CHTO   O83 7643   5.851   8.912   2.381
   19CHTO  H204 7644   5.940   8.933   2.359
   19CHTO  C109 7645   5.629   8.619   2.275
   19CHTO  H213 7646   5.643   8.629   2.167
   19CHTO  C110 7647   5.479   8.589   2.308
   19CHTO  H214 7648   5.468   8.579   2.416
   19CHTO   O78 7649   5.443   8.462   2.248
   19CHTO  H200 7650   5.356   8.438   2.274
   19CHTO  C111 7651   5.389   8.704   2.254
   19CHTO  H215 7652   5.396   8.706   2.145
   19CHTO   N19 7653   5.245   8.687   2.287
   19CHTO  H207 7654   5.187   8.768   2.245
   19CHTO  H208 7655   5.231   8.684   2.394
   19CHTO   O74 7656   5.717   8.513   2.325
   19CHTO  C115 7657   5.749   8.401   2.213
   19CHTO  H219 7658   5.657   8.359   2.170
   19CHTO   O76 7659   5.828   8.463   2.086
   19CHTO  C122 7660   5.971   8.461   2.101
   19CHTO  H226 7661   5.996   8.521   2.189
   19CHTO  C126 7662   6.038   8.533   1.979
   19CHTO   O85 7663   5.999   8.670   1.967
   19CHTO  H206 7664   6.034   8.720   2.039
   19CHTO  C121 7665   6.027   8.314   2.118
   19CHTO  H225 7666   6.063   8.278   2.019
   19CHTO   O81 7667   6.138   8.317   2.208
   19CHTO  H202 7668   6.182   8.234   2.209
   19CHTO  C119 7669   5.917   8.215   2.169
   19CHTO  H223 7670   5.851   8.199   2.084
   19CHTO  C117 7671   5.830   8.283   2.281
   19CHTO  H221 7672   5.886   8.330   2.363
   19CHTO   N20 7673   5.736   8.188   2.348
   19CHTO  H209 7674   5.792   8.109   2.397
   19CHTO  H210 7675   5.669   8.145   2.275
   19CHTO   O80 7676   5.974   8.066   2.193
   19CHTO  C103 7677   6.007   7.978   2.069
   19CHTO  H190 7678   5.977   8.030   1.978
   19CHTO  C101 7679   6.155   7.930   2.051
   19CHTO  H188 7680   6.184   7.869   2.137
   19CHTO   O68 7681   6.249   8.055   2.044
   19CHTO  H168 7682   6.228   8.107   1.970
   19CHTO   C99 7683   6.165   7.840   1.918
   19CHTO  H186 7684   6.140   7.905   1.832
   19CHTO   N17 7685   6.302   7.784   1.891
   19CHTO  H174 7686   6.303   7.735   1.795
   19CHTO  H175 7687   6.375   7.864   1.895
   19CHTO   C97 7688   6.058   7.727   1.919
   19CHTO  H184 7689   6.091   7.647   1.988
   19CHTO   O64 7690   5.927   7.778   1.954
   19CHTO  C104 7691   5.917   7.849   2.078
   19CHTO  H191 7692   5.951   7.788   2.162
   19CHTO  C108 7693   5.770   7.881   2.105
   19CHTO   O71 7694   5.694   7.762   2.129
   19CHTO  H171 7695   5.718   7.725   2.212
   19CHTO   O62 7696   6.039   7.674   1.786
   19CHTO   C91 7697   5.964   7.551   1.774
   19CHTO  H178 7698   5.926   7.523   1.872
   19CHTO   C92 7699   6.059   7.436   1.727
   19CHTO  H179 7700   6.113   7.470   1.637
   19CHTO   O66 7701   6.159   7.418   1.829
   19CHTO  H166 7702   6.223   7.356   1.801
   19CHTO   C93 7703   5.982   7.300   1.698
   19CHTO  H180 7704   5.957   7.257   1.796
   19CHTO   N16 7705   6.068   7.198   1.632
   19CHTO  H172 7706   6.104   7.236   1.537
   19CHTO  H173 7707   6.150   7.172   1.696
   19CHTO   C94 7708   5.849   7.323   1.618
   19CHTO  H181 7709   5.868   7.349   1.513
   19CHTO   O61 7710   5.775   7.432   1.675
   19CHTO   C95 7711   5.843   7.558   1.674
   19CHTO  H182 7712   5.879   7.578   1.574
   19CHTO  C106 7713   5.738   7.670   1.708
   19CHTO   O69 7714   5.675   7.649   1.835
   19CHTO  H169 7715   5.737   7.659   1.904
   19CHTO   O63 7716   5.757   7.194   1.628
   19CHTO   C96 7717   5.621   7.190   1.541
   19CHTO  H183 7718   5.649   7.194   1.435
   19CHTO   C98 7719   5.523   7.309   1.569
   19CHTO  H185 7720   5.535   7.342   1.673
   19CHTO   O67 7721   5.567   7.421   1.488
   19CHTO  H167 7722   5.518   7.498   1.510
   19CHTO  C102 7723   5.368   7.279   1.539
   19CHTO  H189 7724   5.359   7.275   1.430
   19CHTO   N18 7725   5.274   7.386   1.584
   19CHTO  H176 7726   5.282   7.398   1.691
   19CHTO  H177 7727   5.173   7.360   1.557
   19CHTO  C105 7728   5.333   7.138   1.594
   19CHTO  H192 7729   5.351   7.137   1.702
   19CHTO   O65 7730   5.417   7.040   1.532
   19CHTO  C100 7731   5.555   7.049   1.568
   19CHTO  H187 7732   5.563   7.027   1.676
   19CHTO  C107 7733   5.627   6.935   1.492
   19CHTO   O70 7734   5.768   6.931   1.519
   19CHTO  H170 7735   5.807   6.861   1.470
   19CHTO   O57 7736   5.178   7.106   1.563
   19CHTO   C85 7737   5.115   6.995   1.629
   19CHTO  H157 7738   5.169   6.981   1.725
   19CHTO   C83 7739   5.141   6.864   1.547
   19CHTO  H155 7740   5.248   6.842   1.551
   19CHTO   O56 7741   5.109   6.887   1.408
   19CHTO  H135 7742   5.134   6.813   1.357
   19CHTO   C81 7743   5.063   6.745   1.611
   19CHTO  H153 7744   5.098   6.733   1.714
   19CHTO   N14 7745   5.093   6.614   1.547
   19CHTO  H141 7746   5.060   6.614   1.445
   19CHTO  H142 7747   5.198   6.595   1.550
   19CHTO   C79 7748   4.909   6.778   1.615
   19CHTO  H151 7749   4.860   6.695   1.665
   19CHTO   O52 7750   4.887   6.897   1.697
   19CHTO   C86 7751   4.959   7.016   1.653
   19CHTO  H158 7752   4.908   7.046   1.559
   19CHTO   C90 7753   4.931   7.129   1.754
   19CHTO   O60 7754   4.976   7.257   1.708
   19CHTO  H138 7755   5.069   7.258   1.705
   19CHTO   O50 7756   4.848   6.796   1.486
   19CHTO   C73 7757   4.737   6.799   1.394
   19CHTO  H145 7758   4.703   6.696   1.374
   19CHTO   C74 7759   4.781   6.864   1.259
   19CHTO  H146 7760   4.867   6.806   1.222
   19CHTO   O54 7761   4.675   6.845   1.163
   19CHTO  H133 7762   4.598   6.892   1.189
   19CHTO   C75 7763   4.818   7.016   1.283
   19CHTO  H147 7764   4.905   7.020   1.350
   19CHTO   N13 7765   4.861   7.089   1.161
   19CHTO  H139 7766   4.961   7.128   1.173
   19CHTO  H140 7767   4.859   7.025   1.074
   19CHTO   C76 7768   4.697   7.090   1.356
   19CHTO  H148 7769   4.613   7.093   1.287
   19CHTO   O49 7770   4.658   7.017   1.477
   19CHTO   C77 7771   4.618   6.881   1.452
   19CHTO  H149 7772   4.536   6.879   1.381
   19CHTO   C88 7773   4.561   6.820   1.581
   19CHTO   O58 7774   4.439   6.892   1.623
   19CHTO  H136 7775   4.404   6.853   1.701
   19CHTO   O51 7776   4.739   7.235   1.411
   19CHTO   C78 7777   4.640   7.352   1.359
   19CHTO  H150 7778   4.576   7.317   1.275
   19CHTO   C80 7779   4.723   7.473   1.312
   19CHTO  H152 7780   4.790   7.505   1.396
   19CHTO   O55 7781   4.806   7.427   1.204
   19CHTO  H134 7782   4.866   7.494   1.178
   19CHTO   C84 7783   4.631   7.593   1.268
   19CHTO  H156 7784   4.575   7.561   1.180
   19CHTO   N15 7785   4.709   7.715   1.227
   19CHTO  H143 7786   4.770   7.748   1.308
   19CHTO  H144 7787   4.771   7.692   1.143
   19CHTO   C87 7788   4.530   7.627   1.380
   19CHTO  H159 7789   4.581   7.673   1.465
   19CHTO   O53 7790   4.456   7.496   1.426
   19CHTO   C82 7791   4.546   7.395   1.474
   19CHTO  H154 7792   4.603   7.433   1.559
   19CHTO   C89 7793   4.462   7.275   1.525
   19CHTO   O59 7794   4.391   7.306   1.645
   19CHTO  H137 7795   4.323   7.369   1.627
   19CHTO   O45 7796   4.415   7.732   1.324
   19CHTO   C67 7797   4.329   7.782   1.428
   19CHTO  H124 7798   4.341   7.719   1.516
   19CHTO   C65 7799   4.365   7.930   1.467
   19CHTO  H122 7800   4.406   7.975   1.376
   19CHTO   O44 7801   4.469   7.921   1.566
   19CHTO  H102 7802   4.504   8.006   1.584
   19CHTO   C63 7803   4.238   8.018   1.502
   19CHTO  H120 7804   4.189   8.046   1.409
   19CHTO   N11 7805   4.265   8.153   1.561
   19CHTO  H108 7806   4.206   8.169   1.649
   19CHTO  H109 7807   4.369   8.163   1.586
   19CHTO   C61 7808   4.135   7.929   1.581
   19CHTO  H118 7809   4.045   7.991   1.596
   19CHTO   O40 7810   4.093   7.812   1.504
   19CHTO   C68 7811   4.177   7.771   1.390
   19CHTO  H125 7812   4.154   7.837   1.303
   19CHTO   C72 7813   4.138   7.627   1.349
   19CHTO   O48 7814   4.003   7.620   1.300
   19CHTO  H105 7815   3.984   7.531   1.275
   19CHTO   O38 7816   4.188   7.891   1.710
   19CHTO   C55 7817   4.114   7.798   1.792
   19CHTO  H112 7818   4.055   7.730   1.729
   19CHTO   C56 7819   4.024   7.873   1.899
   19CHTO  H113 7820   4.090   7.941   1.955
   19CHTO   O42 7821   3.927   7.955   1.831
   19CHTO  H100 7822   3.970   8.024   1.784
   19CHTO   C57 7823   3.955   7.768   1.994
   19CHTO  H114 7824   3.882   7.714   1.934
   19CHTO   N10 7825   3.880   7.830   2.107
   19CHTO  H106 7826   3.840   7.926   2.077
   19CHTO  H107 7827   3.798   7.766   2.136
   19CHTO   C58 7828   4.057   7.666   2.051
   19CHTO  H115 7829   4.119   7.716   2.131
   19CHTO   O37 7830   4.145   7.614   1.950
   19CHTO   C59 7831   4.215   7.707   1.867
   19CHTO  H116 7832   4.283   7.766   1.929
   19CHTO   C70 7833   4.300   7.624   1.770
   19CHTO   O46 7834   4.223   7.538   1.686
   19CHTO  H103 7835   4.183   7.470   1.737
   19CHTO   O39 7836   3.974   7.530   2.118
   19CHTO   C60 7837   3.966   7.419   2.026
   19CHTO  H117 7838   3.966   7.457   1.924
   19CHTO   C62 7839   4.089   7.325   2.042
   19CHTO  H119 7840   4.179   7.389   2.032
   19CHTO   O43 7841   4.093   7.268   2.174
   19CHTO  H101 7842   4.106   7.335   2.239
   19CHTO   C66 7843   4.089   7.218   1.923
   19CHTO  H123 7844   4.090   7.272   1.829
   19CHTO   N12 7845   4.212   7.134   1.921
   19CHTO  H110 7846   4.209   7.066   1.838
   19CHTO  H111 7847   4.222   7.081   2.015
   19CHTO   C69 7848   3.959   7.134   1.927
   19CHTO  H126 7849   3.961   7.064   2.014
   19CHTO   O41 7850   3.828   7.227   1.937
   19CHTO   C64 7851   3.835   7.338   2.043
   19CHTO  H121 7852   3.832   7.293   2.144
   19CHTO   C71 7853   3.711   7.429   2.028
   19CHTO   O47 7854   3.591   7.356   2.056
   19CHTO  H104 7855   3.517   7.413   2.046
   19CHTO   O34 7856   3.948   7.049   1.798
   19CHTO   C49 7857   3.882   7.074   1.659
   19CHTO   H91 7858   3.774   7.085   1.678
   19CHTO   C47 7859   3.908   6.951   1.571
   19CHTO   H89 7860   3.847   6.963   1.479
   19CHTO   O33 7861   3.860   6.836   1.643
   19CHTO   H70 7862   3.868   6.759   1.589
   19CHTO   C45 7863   4.065   6.944   1.534
   19CHTO   H87 7864   4.122   6.941   1.628
   19CHTO    N8 7865   4.099   6.822   1.456
   19CHTO   H75 7866   4.051   6.826   1.359
   19CHTO   H76 7867   4.206   6.815   1.443
   19CHTO   C43 7868   4.112   7.081   1.462
   19CHTO   H85 7869   4.221   7.074   1.457
   19CHTO   O29 7870   4.070   7.196   1.539
   19CHTO   C50 7871   3.935   7.202   1.589
   19CHTO   H92 7872   3.932   7.283   1.664
   19CHTO   C54 7873   3.835   7.251   1.481
   19CHTO   O36 7874   3.871   7.381   1.433
   19CHTO   H72 7875   3.857   7.445   1.500
   19CHTO   O27 7876   4.068   7.092   1.325
   19CHTO   C37 7877   4.105   7.135   1.193
   19CHTO   H79 7878   4.082   7.056   1.120
   19CHTO   C38 7879   4.023   7.261   1.149
   19CHTO   H80 7880   4.026   7.335   1.230
   19CHTO   O31 7881   3.887   7.218   1.131
   19CHTO   H68 7882   3.880   7.157   1.060
   19CHTO   C39 7883   4.081   7.328   1.017
   19CHTO   H81 7884   4.069   7.256   0.936
   19CHTO    N7 7885   4.008   7.453   0.977
   19CHTO   H73 7886   4.016   7.528   1.055
   19CHTO   H74 7887   4.048   7.491   0.885
   19CHTO   C40 7888   4.235   7.354   1.035
   19CHTO   H82 7889   4.251   7.426   1.116
   19CHTO   O26 7890   4.299   7.228   1.062
   19CHTO   C41 7891   4.259   7.164   1.187
   19CHTO   H83 7892   4.287   7.229   1.271
   19CHTO   C52 7893   4.342   7.034   1.198
   19CHTO   O35 7894   4.322   6.939   1.083
   19CHTO   H71 7895   4.354   6.978   1.004
   19CHTO   O28 7896   4.301   7.400   0.916
   19CHTO   C42 7897   4.412   7.496   0.922
   19CHTO   H84 7898   4.430   7.513   1.028
   19CHTO   C44 7899   4.381   7.637   0.860
   19CHTO   H86 7900   4.349   7.623   0.757
   19CHTO   O32 7901   4.270   7.692   0.933
   19CHTO   H69 7902   4.294   7.709   1.022
   19CHTO   C48 7903   4.506   7.734   0.860
   19CHTO   H90 7904   4.528   7.762   0.963
   19CHTO    N9 7905   4.478   7.864   0.788
   19CHTO   H77 7906   4.565   7.927   0.791
   19CHTO   H78 7907   4.394   7.914   0.834
   19CHTO   C51 7908   4.632   7.661   0.800
   19CHTO   H93 7909   4.612   7.638   0.695
   19CHTO   O30 7910   4.655   7.542   0.877
   19CHTO   C46 7911   4.545   7.439   0.862
   19CHTO   H88 7912   4.530   7.418   0.756
   19CHTO   C53 7913   4.591   7.312   0.935
   19CHTO   O72 7914   4.709   7.258   0.874
   19CHTO  H199 7915   4.735   7.180   0.920
   19CHTO   O22 7916   4.753   7.738   0.814
   19CHTO   C31 7917   4.873   7.699   0.737
   19CHTO   H59 7918   4.856   7.594   0.702
   19CHTO   C29 7919   4.900   7.784   0.611
   19CHTO   H57 7920   4.919   7.888   0.644
   19CHTO   O21 7921   4.780   7.787   0.531
   19CHTO   H37 7922   4.711   7.832   0.576
   19CHTO   C27 7923   5.026   7.731   0.531
   19CHTO   H55 7924   5.003   7.630   0.494
   19CHTO    N5 7925   5.061   7.817   0.415
   19CHTO   H43 7926   5.087   7.916   0.449
   19CHTO   H44 7927   4.979   7.821   0.346
   19CHTO   C25 7928   5.148   7.717   0.630
   19CHTO   H53 7929   5.179   7.817   0.663
   19CHTO   O17 7930   5.112   7.639   0.747
   19CHTO   C32 7931   5.003   7.694   0.823
   19CHTO   H60 7932   5.028   7.796   0.853
   19CHTO   C36 7933   4.985   7.611   0.952
   19CHTO   O25 7934   4.955   7.474   0.923
   19CHTO   H40 7935   4.945   7.426   1.004
   19CHTO   O15 7936   5.272   7.646   0.560
   19CHTO   C19 7937   5.340   7.549   0.476
   19CHTO   H47 7938   5.287   7.556   0.379
   19CHTO   C20 7939   5.491   7.580   0.453
   19CHTO   H48 7940   5.548   7.577   0.547
   19CHTO   O19 7941   5.498   7.714   0.400
   19CHTO   H35 7942   5.475   7.776   0.466
   19CHTO   C21 7943   5.556   7.477   0.352
   19CHTO   H49 7944   5.513   7.494   0.253
   19CHTO    N4 7945   5.703   7.496   0.336
   19CHTO   H41 7946   5.724   7.596   0.301
   19CHTO   H42 7947   5.742   7.425   0.265
   19CHTO   C22 7948   5.521   7.332   0.392
   19CHTO   H50 7949   5.581   7.300   0.478
   19CHTO   O14 7950   5.381   7.315   0.421
   19CHTO   C23 7951   5.325   7.401   0.522
   19CHTO   H51 7952   5.379   7.382   0.616
   19CHTO   C34 7953   5.179   7.360   0.541
   19CHTO   O23 7954   5.167   7.225   0.587
   19CHTO   H38 7955   5.194   7.166   0.519
   19CHTO   O16 7956   5.535   7.243   0.280
   19CHTO   C24 7957   5.635   7.118   0.291
   19CHTO   H52 7958   5.720   7.139   0.356
   19CHTO   C26 7959   5.686   7.093   0.146
   19CHTO   H54 7960   5.598   7.101   0.077
   19CHTO   O20 7961   5.777   7.199   0.112
   19CHTO   H36 7962   5.730   7.281   0.104
   19CHTO   C30 7963   5.749   6.952   0.126
   19CHTO   H58 7964   5.844   6.945   0.182
   19CHTO    N6 7965   5.782   6.926   2.815
   19CHTO   H45 7966   5.826   6.828   2.805
   19CHTO   H46 7967   5.853   7.000   2.780
   19CHTO   C33 7968   5.653   6.846   0.186
   19CHTO   H61 7969   5.555   6.855   0.136
   19CHTO   O18 7970   5.636   6.876   0.325
   19CHTO   C28 7971   5.561   6.995   0.351
   19CHTO   H56 7972   5.462   6.988   0.306
   19CHTO   C35 7973   5.544   7.008   0.504
   19CHTO   O24 7974   5.471   6.900   0.562
   19CHTO   H39 7975   5.468   6.910   0.655
   19CHTO    O9 7976   5.693   6.708   0.166
   19CHTO   C13 7977   5.562   6.607   0.144
   19CHTO   H26 7978   5.502   6.647   0.059
   19CHTO   C11 7979   5.477   6.602   0.278
   19CHTO   H24 7980   5.429   6.701   0.292
   19CHTO    O8 7981   5.563   6.578   0.391
   19CHTO    H3 7982   5.622   6.650   0.402
   19CHTO    C9 7983   5.367   6.494   0.261
   19CHTO   H22 7984   5.313   6.521   0.169
   19CHTO    N2 7985   5.263   6.501   0.366
   19CHTO   H10 7986   5.182   6.433   0.344
   19CHTO   H11 7987   5.306   6.477   0.462
   19CHTO    C7 7988   5.435   6.351   0.239
   19CHTO   H20 7989   5.376   6.307   0.157
   19CHTO    O4 7990   5.574   6.360   0.200
   19CHTO   C14 7991   5.604   6.459   0.100
   19CHTO   H27 7992   5.545   6.433   0.009
   19CHTO   C18 7993   5.753   6.450   0.061
   19CHTO   O13 7994   5.783   6.324   2.832
   19CHTO    H7 7995   5.873   6.322   2.807
   19CHTO    O2 7996   5.425   6.256   0.371
   19CHTO    C1 7997   5.446   6.115   0.354
   19CHTO   H14 7998   5.531   6.098   0.284
   19CHTO    C2 7999   5.318   6.036   0.300
   19CHTO   H15 8000   5.233   6.076   0.358
   19CHTO    O6 8001   5.300   6.068   0.161
   19CHTO    H1 8002   5.219   6.032   0.130
   19CHTO    C3 8003   5.330   5.877   0.321
   19CHTO   H16 8004   5.405   5.838   0.250
   19CHTO    N1 8005   5.201   5.806   0.292
   19CHTO    H8 8006   5.124   5.875   0.261
   19CHTO    H9 8007   5.166   5.751   0.379
   19CHTO    C4 8008   5.386   5.845   0.464
   19CHTO   H17 8009   5.311   5.872   0.539
   19CHTO    O1 8010   5.507   5.918   0.487
   19CHTO    C5 8011   5.490   6.059   0.493
   19CHTO   H18 8012   5.412   6.085   0.566
   19CHTO   C16 8013   5.625   6.115   0.543
   19CHTO   O11 8014   5.622   6.256   0.567
   19CHTO    H5 8015   5.567   6.275   0.641
   19CHTO    O3 8016   5.422   5.706   0.480
   19CHTO    C6 8017   5.437   5.663   0.620
   19CHTO   H19 8018   5.440   5.747   0.690
   19CHTO    C8 8019   5.318   5.571   0.660
   19CHTO   H21 8020   5.314   5.487   0.591
   19CHTO    O7 8021   5.197   5.648   0.647
   19CHTO    H2 8022   5.196   5.720   0.707
   19CHTO   C12 8023   5.338   5.516   0.807
   19CHTO   H25 8024   5.333   5.605   0.874
   19CHTO    N3 8025   5.228   5.424   0.847
   19CHTO   H12 8026   5.223   5.340   0.780
   19CHTO   H13 8027   5.134   5.477   0.848
   19CHTO   C15 8028   5.481   5.452   0.820
   19CHTO   H28 8029   5.488   5.357   0.767
   19CHTO   O10 8030   5.521   5.433   0.967
   19CHTO    H4 8031   5.601   5.383   0.972
   19CHTO    O5 8032   5.583   5.542   0.774
   19CHTO   C10 8033   5.571   5.584   0.638
   19CHTO   H23 8034   5.573   5.497   0.573
   19CHTO   C17 8035   5.695   5.669   0.608
   19CHTO   O12 8036   5.709   5.699   0.469
   19CHTO    H6 8037   5.642   5.758   0.443
   20CHTO  H203 8038   5.158   1.208   2.242
   20CHTO   O82 8039   5.187   1.182   2.156
   20CHTO  C123 8040   5.211   1.299   2.075
   20CHTO  H227 8041   5.125   1.367   2.085
   20CHTO   O77 8042   5.329   1.359   2.137
   20CHTO  C118 8043   5.368   1.485   2.079
   20CHTO  H222 8044   5.285   1.557   2.086
   20CHTO  C125 8045   5.491   1.541   2.160
   20CHTO   O84 8046   5.455   1.567   2.297
   20CHTO  H205 8047   5.440   1.486   2.342
   20CHTO  C114 8048   5.405   1.464   1.931
   20CHTO  H218 8049   5.492   1.398   1.926
   20CHTO  C116 8050   5.290   1.396   1.851
   20CHTO  H220 8051   5.205   1.468   1.842
   20CHTO   O79 8052   5.336   1.371   1.717
   20CHTO  H201 8053   5.267   1.336   1.665
   20CHTO  C120 8054   5.242   1.265   1.925
   20CHTO  H224 8055   5.326   1.193   1.918
   20CHTO   N21 8056   5.126   1.203   1.855
   20CHTO  H211 8057   5.033   1.243   1.893
   20CHTO  H212 8058   5.128   1.096   1.869
   20CHTO   O75 8059   5.439   1.595   1.881
   20CHTO  C112 8060   5.568   1.596   1.785
   20CHTO  H216 8061   5.566   1.507   1.720
   20CHTO   O73 8062   5.684   1.596   1.870
   20CHTO  C113 8063   5.807   1.587   1.797
   20CHTO  H217 8064   5.804   1.498   1.731
   20CHTO  C124 8065   5.919   1.565   1.900
   20CHTO   O83 8066   6.044   1.529   1.841
   20CHTO  H204 8067   6.038   1.444   1.802
   20CHTO  C109 8068   5.827   1.716   1.713
   20CHTO  H213 8069   5.840   1.799   1.784
   20CHTO  C110 8070   5.704   1.741   1.621
   20CHTO  H214 8071   5.709   1.671   1.537
   20CHTO   O78 8072   5.715   1.873   1.565
   20CHTO  H200 8073   5.649   1.888   1.500
   20CHTO  C111 8074   5.568   1.726   1.696
   20CHTO  H215 8075   5.556   1.811   1.764
   20CHTO   N19 8076   5.451   1.727   1.603
   20CHTO  H207 8077   5.395   1.635   1.608
   20CHTO  H208 8078   5.386   1.810   1.627
   20CHTO   O74 8079   5.949   1.702   1.633
   20CHTO  C115 8080   6.035   1.835   1.616
   20CHTO  H219 8081   5.999   1.915   1.680
   20CHTO   O76 8082   6.182   1.813   1.658
   20CHTO  C122 8083   6.245   1.703   1.590
   20CHTO  H226 8084   6.211   1.612   1.638
   20CHTO  C126 8085   6.399   1.711   1.616
   20CHTO   O85 8086   6.458   1.832   1.569
   20CHTO  H206 8087   6.550   1.832   1.588
   20CHTO  C121 8088   6.212   1.696   1.434
   20CHTO  H225 8089   6.306   1.676   1.378
   20CHTO   O81 8090   6.124   1.585   1.408
   20CHTO  H202 8091   6.115   1.572   1.315
   20CHTO  C119 8092   6.151   1.830   1.382
   20CHTO  H223 8093   6.231   1.903   1.393
   20CHTO  C117 8094   6.026   1.879   1.464
   20CHTO  H221 8095   5.932   1.835   1.430
   20CHTO   N20 8096   6.007   2.027   1.449
   20CHTO  H209 8097   5.915   2.058   1.498
   20CHTO  H210 8098   6.091   2.079   1.492
   20CHTO   O80 8099   6.125   1.835   1.225
   20CHTO  C103 8100   6.243   1.829   1.126
   20CHTO  H190 8101   6.337   1.805   1.176
   20CHTO  C101 8102   6.219   1.727   1.006
   20CHTO  H188 8103   6.113   1.730   0.980
   20CHTO   O68 8104   6.251   1.584   1.058
   20CHTO  H168 8105   6.226   1.520   0.993
   20CHTO   C99 8106   6.304   1.764   0.875
   20CHTO  H186 8107   6.412   1.753   0.896
   20CHTO   N17 8108   6.273   1.677   0.756
   20CHTO  H174 8109   6.193   1.609   0.777
   20CHTO  H175 8110   6.251   1.736   0.668
   20CHTO   C97 8111   6.282   1.915   0.845
   20CHTO  H184 8112   6.174   1.932   0.834
   20CHTO   O64 8113   6.337   1.988   0.956
   20CHTO  C104 8114   6.254   1.978   1.073
   20CHTO  H191 8115   6.154   2.016   1.052
   20CHTO  C108 8116   6.312   2.072   1.180
   20CHTO   O71 8117   6.445   2.036   1.221
   20CHTO  H171 8118   6.443   1.955   1.268
   20CHTO   O62 8119   6.351   1.965   0.728
   20CHTO   C91 8120   6.317   2.099   0.687
   20CHTO  H178 8121   6.277   2.154   0.773
   20CHTO   C92 8122   6.202   2.099   0.579
   20CHTO  H179 8123   6.233   2.034   0.495
   20CHTO   O66 8124   6.085   2.037   0.636
   20CHTO  H166 8125   6.101   1.946   0.653
   20CHTO   C93 8126   6.168   2.244   0.528
   20CHTO  H180 8127   6.123   2.299   0.612
   20CHTO   N16 8128   6.069   2.248   0.417
   20CHTO  H172 8129   6.036   2.149   0.391
   20CHTO  H173 8130   5.984   2.309   0.445
   20CHTO   C94 8131   6.300   2.319   0.485
   20CHTO  H181 8132   6.348   2.272   0.399
   20CHTO   O61 8133   6.396   2.314   0.593
   20CHTO   C95 8134   6.438   2.182   0.630
   20CHTO  H182 8135   6.478   2.132   0.542
   20CHTO  C106 8136   6.554   2.192   0.735
   20CHTO   O69 8137   6.668   2.259   0.680
   20CHTO  H169 8138   6.734   2.266   0.746
   20CHTO   O63 8139   6.273   2.479   0.458
   20CHTO   C96 8140   6.285   2.526   0.304
   20CHTO  H183 8141   6.228   2.455   0.243
   20CHTO   C98 8142   6.430   2.533   0.247
   20CHTO  H185 8143   6.495   2.588   0.317
   20CHTO   O67 8144   6.484   2.399   0.243
   20CHTO  H167 8145   6.495   2.365   0.330
   20CHTO  C102 8146   6.436   2.600   0.101
   20CHTO  H189 8147   6.380   2.533   0.035
   20CHTO   N18 8148   6.572   2.612   0.041
   20CHTO  H176 8149   6.598   2.715   0.024
   20CHTO  H177 8150   6.646   2.566   0.106
   20CHTO  C105 8151   6.359   2.736   0.107
   20CHTO  H192 8152   6.412   2.804   0.174
   20CHTO   O65 8153   6.225   2.718   0.156
   20CHTO  C100 8154   6.217   2.667   0.291
   20CHTO  H187 8155   6.269   2.738   0.358
   20CHTO  C107 8156   6.068   2.662   0.334
   20CHTO   O70 8157   6.010   2.793   0.337
   20CHTO  H170 8158   5.920   2.786   0.361
   20CHTO   O57 8159   6.353   2.799   2.787
   20CHTO   C85 8160   6.355   2.942   2.772
   20CHTO  H157 8161   6.417   2.982   0.024
   20CHTO   C83 8162   6.211   3.001   2.793
   20CHTO  H155 8163   6.181   2.979   0.063
   20CHTO   O56 8164   6.119   2.931   2.707
   20CHTO  H135 8165   6.113   2.841   2.732
   20CHTO   C81 8166   6.212   3.155   2.773
   20CHTO  H153 8167   6.280   3.198   0.015
   20CHTO   N14 8168   6.082   3.220   2.804
   20CHTO  H141 8169   6.005   3.147   2.819
   20CHTO  H142 8170   6.052   3.287   2.725
   20CHTO   C79 8171   6.268   3.192   2.629
   20CHTO  H151 8172   6.279   3.301   2.626
   20CHTO   O52 8173   6.402   3.136   2.614
   20CHTO   C86 8174   6.410   2.992   2.632
   20CHTO  H158 8175   6.350   2.949   2.548
   20CHTO   C90 8176   6.556   2.948   2.606
   20CHTO   O60 8177   6.567   2.806   2.590
   20CHTO  H138 8178   6.548   2.763   2.671
   20CHTO   O50 8179   6.183   3.154   2.519
   20CHTO   C73 8180   6.215   3.152   2.378
   20CHTO  H145 8181   6.299   3.083   2.360
   20CHTO   C74 8182   6.255   3.294   2.327
   20CHTO  H146 8183   6.340   3.327   2.389
   20CHTO   O54 8184   6.307   3.280   2.193
   20CHTO  H133 8185   6.389   3.233   2.194
   20CHTO   C75 8186   6.132   3.392   2.337
   20CHTO  H147 8187   6.105   3.403   2.443
   20CHTO   N13 8188   6.160   3.529   2.287
   20CHTO  H139 8189   6.241   3.572   2.344
   20CHTO  H140 8190   6.073   3.591   2.299
   20CHTO   C76 8191   6.004   3.328   2.263
   20CHTO  H148 8192   6.026   3.325   2.156
   20CHTO   O49 8193   5.980   3.191   2.308
   20CHTO   C77 8194   6.093   3.103   2.295
   20CHTO  H149 8195   6.121   3.100   2.189
   20CHTO   C88 8196   6.050   2.959   2.328
   20CHTO   O58 8197   5.981   2.948   2.456
   20CHTO  H136 8198   5.958   2.858   2.473
   20CHTO   O51 8199   5.863   3.413   2.295
   20CHTO   C78 8200   5.806   3.415   2.452
   20CHTO  H150 8201   5.888   3.394   2.524
   20CHTO   C80 8202   5.694   3.309   2.471
   20CHTO  H152 8203   5.619   3.322   2.390
   20CHTO   O55 8204   5.754   3.179   2.457
   20CHTO  H134 8205   5.688   3.113   2.460
   20CHTO   C84 8206   5.622   3.323   2.612
   20CHTO  H156 8207   5.696   3.299   2.689
   20CHTO   N15 8208   5.508   3.226   2.626
   20CHTO  H143 8209   5.415   3.278   2.641
   20CHTO  H144 8210   5.525   3.161   2.710
   20CHTO   C87 8211   5.577   3.470   2.632
   20CHTO  H159 8212   5.501   3.495   2.558
   20CHTO   O53 8213   5.698   3.561   2.615
   20CHTO   C82 8214   5.751   3.555   2.481
   20CHTO  H154 8215   5.673   3.581   2.409
   20CHTO   C89 8216   5.861   3.662   2.467
   20CHTO   O59 8217   5.807   3.795   2.477
   20CHTO  H137 8218   5.876   3.857   2.468
   20CHTO   O45 8219   5.508   3.498   2.782
   20CHTO   C67 8220   5.589   3.478   0.068
   20CHTO  H124 8221   5.646   3.385   0.057
   20CHTO   C65 8222   5.690   3.596   0.092
   20CHTO  H122 8223   5.667   3.672   0.017
   20CHTO   O44 8224   5.823   3.546   0.069
   20CHTO  H102 8225   5.849   3.488   0.138
   20CHTO   C63 8226   5.666   3.669   0.230
   20CHTO  H120 8227   5.567   3.714   0.228
   20CHTO   N11 8228   5.752   3.788   0.258
   20CHTO  H108 8229   5.853   3.757   0.272
   20CHTO  H109 8230   5.717   3.838   0.346
   20CHTO   C61 8231   5.662   3.561   0.345
   20CHTO  H118 8232   5.623   3.612   0.435
   20CHTO   O40 8233   5.570   3.451   0.318
   20CHTO   C68 8234   5.494   3.455   0.193
   20CHTO  H125 8235   5.420   3.537   0.199
   20CHTO   C72 8236   5.414   3.323   0.180
   20CHTO   O48 8237   5.319   3.306   0.286
   20CHTO  H105 8238   5.251   3.370   0.278
   20CHTO   O38 8239   5.791   3.502   0.375
   20CHTO   C55 8240   5.798   3.437   0.503
   20CHTO  H112 8241   5.696   3.416   0.541
   20CHTO   C56 8242   5.881   3.525   0.606
   20CHTO  H113 8243   5.981   3.541   0.562
   20CHTO   O42 8244   5.820   3.654   0.619
   20CHTO  H100 8245   5.872   3.710   0.674
   20CHTO   C57 8246   5.892   3.451   0.746
   20CHTO  H114 8247   5.792   3.457   0.790
   20CHTO   N10 8248   5.984   3.518   0.841
   20CHTO  H106 8249   5.953   3.500   0.942
   20CHTO  H107 8250   6.086   3.483   0.828
   20CHTO   C58 8251   5.930   3.301   0.728
   20CHTO  H115 8252   6.039   3.293   0.707
   20CHTO   O37 8253   5.856   3.236   0.623
   20CHTO   C59 8254   5.866   3.298   0.494
   20CHTO  H116 8255   5.971   3.309   0.466
   20CHTO   C70 8256   5.797   3.209   0.390
   20CHTO   O46 8257   5.862   3.082   0.375
   20CHTO  H103 8258   5.946   3.094   0.335
   20CHTO   O39 8259   5.891   3.222   0.864
   20CHTO   C60 8260   5.949   3.091   0.875
   20CHTO  H117 8261   5.959   3.047   0.776
   20CHTO   C62 8262   6.090   3.096   0.941
   20CHTO  H119 8263   6.153   3.158   0.873
   20CHTO   O43 8264   6.082   3.164   1.068
   20CHTO  H101 8265   6.029   3.115   1.128
   20CHTO   C66 8266   6.151   2.948   0.951
   20CHTO  H123 8267   6.152   2.904   0.851
   20CHTO   N12 8268   6.292   2.947   0.997
   20CHTO  H110 8269   6.299   2.993   1.095
   20CHTO  H111 8270   6.355   2.999   0.926
   20CHTO   C69 8271   6.057   2.860   1.038
   20CHTO  H126 8272   6.051   2.903   1.141
   20CHTO   O41 8273   5.915   2.859   0.973
   20CHTO   C64 8274   5.854   2.998   0.956
   20CHTO  H121 8275   5.836   3.043   1.056
   20CHTO   C71 8276   5.717   2.984   0.884
   20CHTO   O47 8277   5.626   2.907   0.963
   20CHTO  H104 8278   5.544   2.899   0.918
   20CHTO   O34 8279   6.108   2.713   1.049
   20CHTO   C49 8280   6.038   2.583   1.090
   20CHTO   H91 8281   5.966   2.563   1.010
   20CHTO   C47 8282   5.960   2.602   1.222
   20CHTO   H89 8283   5.863   2.647   1.192
   20CHTO   O33 8284   6.026   2.692   1.312
   20CHTO   H70 8285   6.032   2.778   1.273
   20CHTO   C45 8286   5.937   2.462   1.300
   20CHTO   H87 8287   6.022   2.448   1.369
   20CHTO    N8 8288   5.813   2.465   1.382
   20CHTO   H75 8289   5.727   2.469   1.317
   20CHTO   H76 8290   5.808   2.378   1.445
   20CHTO   C43 8291   5.948   2.337   1.201
   20CHTO   H85 8292   5.930   2.248   1.261
   20CHTO   O29 8293   6.078   2.335   1.139
   20CHTO   C50 8294   6.135   2.461   1.098
   20CHTO   H92 8295   6.217   2.487   1.166
   20CHTO   C54 8296   6.205   2.441   0.961
   20CHTO   O36 8297   6.313   2.348   0.969
   20CHTO   H72 8298   6.383   2.384   1.020
   20CHTO   O27 8299   5.846   2.340   1.100
   20CHTO   C37 8300   5.765   2.284   0.996
   20CHTO   H79 8301   5.660   2.276   1.029
   20CHTO   C38 8302   5.768   2.376   0.870
   20CHTO   H80 8303   5.873   2.392   0.841
   20CHTO   O31 8304   5.710   2.503   0.906
   20CHTO   H68 8305   5.766   2.548   0.967
   20CHTO   C39 8306   5.690   2.311   0.748
   20CHTO   H81 8307   5.584   2.311   0.775
   20CHTO    N7 8308   5.703   2.389   0.621
   20CHTO   H73 8309   5.646   2.341   0.542
   20CHTO   H74 8310   5.668   2.490   0.635
   20CHTO   C40 8311   5.732   2.160   0.728
   20CHTO   H82 8312   5.832   2.155   0.683
   20CHTO   O26 8313   5.727   2.090   0.853
   20CHTO   C41 8314   5.815   2.142   0.955
   20CHTO   H83 8315   5.918   2.149   0.916
   20CHTO   C52 8316   5.815   2.042   1.073
   20CHTO   O35 8317   5.874   1.910   1.035
   20CHTO   H71 8318   5.819   1.868   0.972
   20CHTO   O28 8319   5.639   2.089   0.644
   20CHTO   C42 8320   5.676   1.964   0.577
   20CHTO   H84 8321   5.580   1.926   0.539
   20CHTO   C44 8322   5.733   1.850   0.669
   20CHTO   H86 8323   5.821   1.888   0.721
   20CHTO   O32 8324   5.632   1.820   0.767
   20CHTO   H69 8325   5.622   1.892   0.827
   20CHTO   C48 8326   5.777   1.722   0.587
   20CHTO   H90 8327   5.687   1.676   0.544
   20CHTO    N9 8328   5.838   1.616   0.675
   20CHTO   H77 8329   5.927   1.655   0.723
   20CHTO   H78 8330   5.862   1.528   0.617
   20CHTO   C51 8331   5.873   1.767   0.472
   20CHTO   H93 8332   5.959   1.815   0.518
   20CHTO   O30 8333   5.801   1.856   0.385
   20CHTO   C46 8334   5.767   1.988   0.453
   20CHTO   H88 8335   5.860   2.036   0.484
   20CHTO   C53 8336   5.695   2.076   0.348
   20CHTO   O72 8337   5.780   2.104   0.236
   20CHTO  H199 8338   5.794   2.026   0.186
   20CHTO   O22 8339   5.912   1.659   0.385
   20CHTO   C31 8340   6.042   1.648   0.314
   20CHTO   H59 8341   6.018   1.659   0.206
   20CHTO   C29 8342   6.150   1.754   0.347
   20CHTO   H57 8343   6.164   1.754   0.456
   20CHTO   O21 8344   6.099   1.884   0.311
   20CHTO   H37 8345   6.025   1.906   0.364
   20CHTO   C27 8346   6.290   1.727   0.277
   20CHTO   H55 8347   6.279   1.746   0.169
   20CHTO    N5 8348   6.399   1.814   0.329
   20CHTO   H43 8349   6.432   1.882   0.252
   20CHTO   H44 8350   6.367   1.869   0.416
   20CHTO   C25 8351   6.328   1.575   0.291
   20CHTO   H53 8352   6.350   1.553   0.396
   20CHTO   O17 8353   6.218   1.492   0.247
   20CHTO   C32 8354   6.101   1.504   0.330
   20CHTO   H60 8355   6.128   1.488   0.435
   20CHTO   C36 8356   6.003   1.394   0.285
   20CHTO   O25 8357   5.901   1.373   0.382
   20CHTO   H40 8358   5.842   1.306   0.352
   20CHTO   O15 8359   6.449   1.537   0.206
   20CHTO   C19 8360   6.565   1.502   0.127
   20CHTO   H47 8361   6.526   1.489   0.025
   20CHTO   C20 8362   6.675   1.614   0.124
   20CHTO   H48 8363   6.703   1.645   0.225
   20CHTO   O19 8364   6.616   1.729   0.060
   20CHTO   H35 8365   6.595   1.710   2.802
   20CHTO   C21 8366   6.806   1.568   0.049
   20CHTO   H49 8367   6.784   1.558   2.774
   20CHTO    N4 8368   6.917   1.667   0.060
   20CHTO   H41 8369   7.004   1.632   0.007
   20CHTO   H42 8370   6.886   1.762   0.019
   20CHTO   C22 8371   6.848   1.427   0.100
   20CHTO   H50 8372   6.878   1.435   0.205
   20CHTO   O14 8373   6.740   1.335   0.086
   20CHTO   C23 8374   6.626   1.364   0.168
   20CHTO   H51 8375   6.659   1.363   0.273
   20CHTO   C34 8376   6.527   1.248   0.148
   20CHTO   O23 8377   6.418   1.251   0.240
   20CHTO   H38 8378   6.449   1.231   0.327
   20CHTO   O16 8379   6.954   1.370   0.020
   20CHTO   C24 8380   7.043   1.266   0.100
   20CHTO   H52 8381   6.997   1.236   0.195
   20CHTO   C26 8382   7.181   1.329   0.128
   20CHTO   H54 8383   7.221   1.370   0.032
   20CHTO   O20 8384   7.162   1.440   0.218
   20CHTO   H36 8385   7.242   1.487   0.230
   20CHTO   C30 8386   7.283   1.225   0.184
   20CHTO   H58 8387   7.255   1.198   0.287
   20CHTO    N6 8388   7.420   1.282   0.193
   20CHTO   H45 8389   7.489   1.209   0.232
   20CHTO   H46 8390   7.420   1.369   0.257
   20CHTO   C33 8391   7.280   1.092   0.102
   20CHTO   H61 8392   7.319   1.110   0.000
   20CHTO   O18 8393   7.143   1.048   0.090
   20CHTO   C28 8394   7.059   1.138   0.016
   20CHTO   H56 8395   7.105   1.163   2.752
   20CHTO   C35 8396   6.923   1.069   2.822
   20CHTO   O24 8397   6.936   0.952   2.740
   20CHTO   H39 8398   6.962   0.977   2.653
   20CHTO    O9 8399   7.364   0.990   0.160
   20CHTO   C13 8400   7.322   0.822   0.170
   20CHTO   H26 8401   7.408   0.774   0.223
   20CHTO   C11 8402   7.296   0.754   0.028
   20CHTO   H24 8403   7.394   0.732   2.815
   20CHTO    O8 8404   7.227   0.843   2.770
   20CHTO    H3 8405   7.223   0.806   2.684
   20CHTO    C9 8406   7.218   0.621   0.049
   20CHTO   H22 8407   7.281   0.561   0.117
   20CHTO    N2 8408   7.211   0.538   2.758
   20CHTO   H10 8409   7.147   0.586   2.685
   20CHTO   H11 8410   7.173   0.439   2.782
   20CHTO    C7 8411   7.080   0.648   0.122
   20CHTO   H20 8412   7.072   0.564   0.195
   20CHTO    O4 8413   7.079   0.772   0.197
   20CHTO   C14 8414   7.201   0.795   0.270
   20CHTO   H27 8415   7.223   0.703   0.327
   20CHTO   C18 8416   7.184   0.909   0.374
   20CHTO   O13 8417   7.093   0.876   0.479
   20CHTO    H7 8418   7.005   0.871   0.445
   20CHTO    O2 8419   6.945   0.646   0.019
   20CHTO    C1 8420   6.839   0.558   0.060
   20CHTO   H14 8421   6.820   0.572   0.169
   20CHTO    C2 8422   6.866   0.403   0.033
   20CHTO   H15 8423   6.892   0.396   2.758
   20CHTO    O6 8424   6.977   0.357   0.111
   20CHTO    H1 8425   6.959   0.367   0.203
   20CHTO    C3 8426   6.736   0.313   0.064
   20CHTO   H16 8427   6.726   0.307   0.173
   20CHTO    N1 8428   6.750   0.172   0.014
   20CHTO    H8 8429   6.662   0.115   0.038
   20CHTO    H9 8430   6.837   0.126   0.059
   20CHTO    C4 8431   6.602   0.380   0.014
   20CHTO   H17 8432   6.591   0.362   2.738
   20CHTO    O1 8433   6.598   0.521   0.042
   20CHTO    C5 8434   6.707   0.596   2.819
   20CHTO   H18 8435   6.719   0.572   2.713
   20CHTO   C16 8436   6.672   0.747   2.830
   20CHTO   O11 8437   6.558   0.780   2.751
   20CHTO    H5 8438   6.481   0.741   2.788
   20CHTO    O3 8439   6.491   0.325   0.087
   20CHTO    C6 8440   6.360   0.327   0.020
   20CHTO   H19 8441   6.359   0.390   2.763
   20CHTO    C8 8442   6.320   0.182   2.810
   20CHTO   H21 8443   6.332   0.117   0.065
   20CHTO    O7 8444   6.412   0.141   2.706
   20CHTO    H2 8445   6.498   0.128   2.742
   20CHTO   C12 8446   6.170   0.176   2.761
   20CHTO   H25 8447   6.166   0.232   2.665
   20CHTO    N3 8448   6.128   0.035   2.730
   20CHTO   H12 8449   6.026   0.034   2.695
   20CHTO   H13 8450   6.137   9.974   2.819
   20CHTO   C15 8451   6.076   0.248   0.032
   20CHTO   H28 8452   6.068   0.192   0.126
   20CHTO   O10 8453   5.934   0.274   2.808
   20CHTO    H4 8454   5.878   0.306   0.043
   20CHTO    O5 8455   6.123   0.382   0.059
   20CHTO   C10 8456   6.254   0.385   0.118
   20CHTO   H23 8457   6.252   0.326   0.210
   20CHTO   C17 8458   6.284   0.530   0.160
   20CHTO   O12 8459   6.289   0.618   0.047
   20CHTO    H6 8460   6.308   0.705   0.077
   21GLOH   H03 8461   9.567   3.768   2.113
   21GLOH    O1 8462   9.645   3.722   2.071
   21GLOH    C1 8463   9.752   3.819   2.059
   21GLOH   H02 8464   9.711   3.914   2.024
   21GLOH   H08 8465   9.824   3.787   1.985
   21GLOH    C2 8466   9.828   3.842   2.192
   21GLOH   H04 8467   9.754   3.862   2.271
   21GLOH    O2 8468   9.904   3.724   2.226
   21GLOH   H05 8469   9.842   3.647   2.239
   21GLOH    C3 8470   9.921   3.964   2.181
   21GLOH   H06 8471   0.010   3.936   2.124
   21GLOH   H07 8472   9.954   3.991   2.281
   21GLOH    O3 8473   9.856   4.077   2.119
   21GLOH   H01 8474   9.821   4.140   2.188
   22GLOH   H03 8475   3.510   1.496   0.540
   22GLOH    O1 8476   3.572   1.418   0.533
   22GLOH    C1 8477   3.611   1.397   0.396
   22GLOH   H02 8478   3.596   1.487   0.336
   22GLOH   H08 8479   3.550   1.318   0.351
   22GLOH    C2 8480   3.759   1.356   0.386
   22GLOH   H04 8481   3.778   1.275   0.458
   22GLOH    O2 8482   3.788   1.309   0.253
   22GLOH   H05 8483   3.879   1.269   0.253
   22GLOH    C3 8484   3.849   1.476   0.423
   22GLOH   H06 8485   3.813   1.519   0.517
   22GLOH   H07 8486   3.836   1.553   0.347
   22GLOH    O3 8487   3.989   1.442   0.436
   22GLOH   H01 8488   4.039   1.527   0.451
   23GLOH   H03 8489   0.887   4.914   0.523
   23GLOH    O1 8490   0.962   4.889   0.583
   23GLOH    C1 8491   0.904   4.829   0.700
   23GLOH   H02 8492   0.906   4.720   0.691
   23GLOH   H08 8493   0.799   4.857   0.710
   23GLOH    C2 8494   0.976   4.867   0.831
   23GLOH   H04 8495   1.007   4.972   0.824
   23GLOH    O2 8496   0.885   4.852   0.942
   23GLOH   H05 8497   0.844   4.941   0.960
   23GLOH    C3 8498   1.102   4.781   0.855
   23GLOH   H06 8499   1.071   4.676   0.855
   23GLOH   H07 8500   1.139   4.802   0.955
   23GLOH    O3 8501   1.206   4.800   0.758
   23GLOH   H01 8502   1.217   4.897   0.740
   24GLOH   H03 8503   9.299   4.715   2.724
   24GLOH    O1 8504   9.321   4.775   2.799
   24GLOH    C1 8505   9.210   4.862   2.829
   24GLOH   H02 8506   9.117   4.825   2.785
   24GLOH   H08 8507   9.227   4.961   2.786
   24GLOH    C2 8508   9.189   4.878   0.149
   24GLOH   H04 8509   9.093   4.929   0.164
   24GLOH    O2 8510   9.184   4.750   0.214
   24GLOH   H05 8511   9.242   4.691   0.162
   24GLOH    C3 8512   9.299   4.967   0.212
   24GLOH   H06 8513   9.396   4.934   0.173
   24GLOH   H07 8514   9.301   4.949   0.320
   24GLOH    O3 8515   9.281   5.107   0.186
   24GLOH   H01 8516   9.335   5.156   0.254
   25GLOH   H03 8517   1.610   4.725   2.051
   25GLOH    O1 8518   1.707   4.743   2.068
   25GLOH    C1 8519   1.780   4.623   2.034
   25GLOH   H02 8520   1.715   4.535   2.042
   25GLOH   H08 8521   1.861   4.607   2.106
   25GLOH    C2 8522   1.840   4.626   1.893
   25GLOH   H04 8523   1.915   4.706   1.889
   25GLOH    O2 8524   1.905   4.500   1.865
   25GLOH   H05 8525   1.982   4.489   1.929
   25GLOH    C3 8526   1.730   4.659   1.789
   25GLOH   H06 8527   1.688   4.757   1.814
   25GLOH   H07 8528   1.650   4.587   1.800
   25GLOH    O3 8529   1.778   4.661   1.654
   25GLOH   H01 8530   1.762   4.570   1.616
   26GLOH   H03 8531   0.386   4.135   1.094
   26GLOH    O1 8532   0.324   4.206   1.062
   26GLOH    C1 8533   0.280   4.284   1.175
   26GLOH   H02 8534   0.364   4.338   1.219
   26GLOH   H08 8535   0.239   4.219   1.253
   26GLOH    C2 8536   0.172   4.386   1.133
   26GLOH   H04 8537   0.086   4.330   1.094
   26GLOH    O2 8538   0.126   4.464   1.246
   26GLOH   H05 8539   0.050   4.524   1.216
   26GLOH    C3 8540   0.227   4.476   1.020
   26GLOH   H06 8541   0.315   4.528   1.057
   26GLOH   H07 8542   0.152   4.551   0.995
   26GLOH    O3 8543   0.259   4.396   0.905
   26GLOH   H01 8544   0.299   4.313   0.943
   27GLOH   H03 8545   1.409   4.246   1.956
   27GLOH    O1 8546   1.341   4.208   2.018
   27GLOH    C1 8547   1.231   4.302   2.022
   27GLOH   H02 8548   1.137   4.248   2.035
   27GLOH   H08 8549   1.223   4.356   1.928
   27GLOH    C2 8550   1.244   4.404   2.137
   27GLOH   H04 8551   1.227   4.351   2.232
   27GLOH    O2 8552   1.375   4.464   2.139
   27GLOH   H05 8553   1.444   4.394   2.151
   27GLOH    C3 8554   1.136   4.514   2.124
   27GLOH   H06 8555   1.158   4.572   2.034
   27GLOH   H07 8556   1.147   4.582   2.209
   27GLOH    O3 8557   1.002   4.462   2.118
   27GLOH   H01 8558   0.939   4.536   2.138
   28GLOH   H03 8559   1.420   3.231   0.567
   28GLOH    O1 8560   1.406   3.260   0.661
   28GLOH    C1 8561   1.317   3.374   0.663
   28GLOH   H02 8562   1.364   3.457   0.610
   28GLOH   H08 8563   1.302   3.408   0.766
   28GLOH    C2 8564   1.179   3.346   0.600
   28GLOH   H04 8565   1.196   3.309   0.498
   28GLOH    O2 8566   1.107   3.246   0.675
   28GLOH   H05 8567   1.161   3.214   0.752
   28GLOH    C3 8568   1.096   3.476   0.590
   28GLOH   H06 8569   1.067   3.507   0.690
   28GLOH   H07 8570   1.004   3.453   0.536
   28GLOH    O3 8571   1.167   3.582   0.523
   28GLOH   H01 8572   1.104   3.635   0.467
   29GLOH   H03 8573   2.785   2.684   0.892
   29GLOH    O1 8574   2.778   2.596   0.935
   29GLOH    C1 8575   2.835   2.497   0.847
   29GLOH   H02 8576   2.820   2.525   0.743
   29GLOH   H08 8577   2.785   2.401   0.861
   29GLOH    C2 8578   2.986   2.478   0.870
   29GLOH   H04 8579   2.998   2.425   0.966
   29GLOH    O2 8580   3.044   2.397   0.766
   29GLOH   H05 8581   2.987   2.315   0.754
   29GLOH    C3 8582   3.059   2.613   0.884
   29GLOH   H06 8583   3.165   2.593   0.899
   29GLOH   H07 8584   3.024   2.662   0.975
   29GLOH    O3 8585   3.040   2.701   0.771
   29GLOH   H01 8586   2.947   2.733   0.770
   30GLOH   H03 8587   2.816   7.602   2.816
   30GLOH    O1 8588   2.845   7.655   0.060
   30GLOH    C1 8589   2.985   7.686   0.044
   30GLOH   H02 8590   3.040   7.597   0.012
   30GLOH   H08 8591   3.028   7.716   0.140
   30GLOH    C2 8592   3.011   7.799   2.775
   30GLOH   H04 8593   2.965   7.891   2.814
   30GLOH    O2 8594   3.152   7.819   2.759
   30GLOH   H05 8595   3.184   7.751   2.696
   30GLOH    C3 8596   2.947   7.766   2.639
   30GLOH   H06 8597   2.966   7.849   2.571
   30GLOH   H07 8598   2.839   7.759   2.651
   30GLOH    O3 8599   2.999   7.643   2.584
   30GLOH   H01 8600   2.952   7.625   2.498
   31GLOH   H03 8601   4.212   9.510   1.706
   31GLOH    O1 8602   4.160   9.488   1.788
   31GLOH    C1 8603   4.049   9.405   1.749
   31GLOH   H02 8604   4.041   9.404   1.641
   31GLOH   H08 8605   3.956   9.447   1.787
   31GLOH    C2 8606   4.061   9.260   1.799
   31GLOH   H04 8607   4.163   9.225   1.778
   31GLOH    O2 8608   4.037   9.249   1.941
   31GLOH   H05 8609   4.114   9.287   1.993
   31GLOH    C3 8610   3.963   9.169   1.724
   31GLOH   H06 8611   3.861   9.202   1.746
   31GLOH   H07 8612   3.972   9.067   1.763
   31GLOH    O3 8613   3.985   9.170   1.581
   31GLOH   H01 8614   3.936   9.093   1.540
   32GLOH   H03 8615   3.115   2.842   0.482
   32GLOH    O1 8616   3.054   2.920   0.494
   32GLOH    C1 8617   2.941   2.903   0.407
   32GLOH   H02 8618   2.893   2.806   0.426
   32GLOH   H08 8619   2.973   2.901   0.303
   32GLOH    C2 8620   2.834   3.013   0.423
   32GLOH   H04 8621   2.759   2.999   0.343
   32GLOH    O2 8622   2.766   3.006   0.550
   32GLOH   H05 8623   2.829   3.038   0.621
   32GLOH    C3 8624   2.897   3.152   0.403
   32GLOH   H06 8625   2.821   3.228   0.419
   32GLOH   H07 8626   2.930   3.161   0.299
   32GLOH    O3 8627   3.008   3.173   0.492
   32GLOH   H01 8628   3.048   3.083   0.506
   33GLOH   H03 8629   3.451   5.182   1.569
   33GLOH    O1 8630   3.410   5.094   1.547
   33GLOH    C1 8631   3.372   5.098   1.408
   33GLOH   H02 8632   3.449   5.148   1.349
   33GLOH   H08 8633   3.281   5.158   1.397
   33GLOH    C2 8634   3.347   4.960   1.345
   33GLOH   H04 8635   3.318   4.977   1.240
   33GLOH    O2 8636   3.465   4.877   1.347
   33GLOH   H05 8637   3.547   4.934   1.341
   33GLOH    C3 8638   3.229   4.888   1.414
   33GLOH   H06 8639   3.256   4.872   1.519
   33GLOH   H07 8640   3.218   4.789   1.369
   33GLOH    O3 8641   3.105   4.961   1.406
   33GLOH   H01 8642   3.077   4.966   1.311
   34GLOH   H03 8643   3.278   2.238   1.421
   34GLOH    O1 8644   3.193   2.285   1.445
   34GLOH    C1 8645   3.137   2.338   1.324
   34GLOH   H02 8646   3.122   2.260   1.250
   34GLOH   H08 8647   3.204   2.412   1.279
   34GLOH    C2 8648   3.002   2.407   1.351
   34GLOH   H04 8649   3.019   2.486   1.425
   34GLOH    O2 8650   2.950   2.465   1.229
   34GLOH   H05 8651   2.941   2.564   1.241
   34GLOH    C3 8652   2.902   2.305   1.411
   34GLOH   H06 8653   2.951   2.254   1.494
   34GLOH   H07 8654   2.882   2.228   1.336
   34GLOH    O3 8655   2.779   2.365   1.456
   34GLOH   H01 8656   2.708   2.340   1.391
   35GLOH   H03 8657   3.184   5.677   0.636
   35GLOH    O1 8658   3.132   5.626   0.568
   35GLOH    C1 8659   3.130   5.487   0.607
   35GLOH   H02 8660   3.066   5.431   0.538
   35GLOH   H08 8661   3.085   5.477   0.706
   35GLOH    C2 8662   3.269   5.420   0.609
   35GLOH   H04 8663   3.311   5.426   0.508
   35GLOH    O2 8664   3.360   5.483   0.702
   35GLOH   H05 8665   3.309   5.509   0.785
   35GLOH    C3 8666   3.256   5.271   0.645
   35GLOH   H06 8667   3.210   5.263   0.744
   35GLOH   H07 8668   3.356   5.228   0.654
   35GLOH    O3 8669   3.178   5.196   0.549
   35GLOH   H01 8670   3.226   5.195   0.464
   36GLOH   H03 8671   0.190   3.825   1.157
   36GLOH    O1 8672   0.115   3.834   1.092
   36GLOH    C1 8673   0.062   3.968   1.106
   36GLOH   H02 8674   0.141   4.038   1.132
   36GLOH   H08 8675   9.990   3.970   1.188
   36GLOH    C2 8676   9.992   4.018   0.978
   36GLOH   H04 8677   9.906   3.953   0.958
   36GLOH    O2 8678   9.947   4.154   0.995
   36GLOH   H05 8679   9.899   4.160   1.083
   36GLOH    C3 8680   0.090   4.007   0.860
   36GLOH   H06 8681   0.177   4.070   0.881
   36GLOH   H07 8682   0.044   4.047   0.770
   36GLOH    O3 8683   0.130   3.871   0.841
   36GLOH   H01 8684   0.130   3.831   0.931
   37GLOH   H03 8685   4.136   5.306   2.187
   37GLOH    O1 8686   4.065   5.345   2.245
   37GLOH    C1 8687   4.089   5.302   2.381
   37GLOH   H02 8688   4.135   5.383   2.438
   37GLOH   H08 8689   4.158   5.219   2.383
   37GLOH    C2 8690   3.960   5.259   2.453
   37GLOH   H04 8691   3.916   5.174   2.398
   37GLOH    O2 8692   3.993   5.216   2.587
   37GLOH   H05 8693   3.916   5.172   2.629
   37GLOH    C3 8694   3.858   5.374   2.456
   37GLOH   H06 8695   3.898   5.456   2.516
   37GLOH   H07 8696   3.767   5.339   2.507
   37GLOH    O3 8697   3.827   5.418   2.323
   37GLOH   H01 8698   3.906   5.393   2.269
   38GLOH   H03 8699   0.577   4.320   0.875
   38GLOH    O1 8700   0.559   4.222   0.874
   38GLOH    C1 8701   0.657   4.164   0.961
   38GLOH   H02 8702   0.645   4.202   1.063
   38GLOH   H08 8703   0.758   4.192   0.929
   38GLOH    C2 8704   0.651   4.010   0.966
   38GLOH   H04 8705   0.667   3.972   0.864
   38GLOH    O2 8706   0.755   3.960   1.052
   38GLOH   H05 8707   0.758   3.859   1.044
   38GLOH    C3 8708   0.512   3.962   1.014
   38GLOH   H06 8709   0.514   3.853   1.018
   38GLOH   H07 8710   0.439   3.988   0.938
   38GLOH    O3 8711   0.474   4.016   1.142
   38GLOH   H01 8712   0.546   3.994   1.208
   39GLOH   H03 8713   9.471   3.573   1.503
   39GLOH    O1 8714   9.379   3.564   1.465
   39GLOH    C1 8715   9.370   3.658   1.355
   39GLOH   H02 8716   9.276   3.644   1.301
   39GLOH   H08 8717   9.450   3.640   1.283
   39GLOH    C2 8718   9.378   3.803   1.404
   39GLOH   H04 8719   9.471   3.815   1.462
   39GLOH    O2 8720   9.381   3.896   1.293
   39GLOH   H05 8721   9.434   3.976   1.324
   39GLOH    C3 8722   9.259   3.836   1.496
   39GLOH   H06 8723   9.167   3.820   1.440
   39GLOH   H07 8724   9.263   3.941   1.522
   39GLOH    O3 8725   9.261   3.755   1.615
   39GLOH   H01 8726   9.288   3.664   1.586
   40GLOH   H03 8727   4.907   3.397   2.618
   40GLOH    O1 8728   4.931   3.483   2.576
   40GLOH    C1 8729   4.837   3.580   2.626
   40GLOH   H02 8730   4.858   3.678   2.584
   40GLOH   H08 8731   4.848   3.589   2.734
   40GLOH    C2 8732   4.689   3.544   2.596
   40GLOH   H04 8733   4.627   3.582   2.678
   40GLOH    O2 8734   4.646   3.603   2.472
   40GLOH   H05 8735   4.710   3.575   2.399
   40GLOH    C3 8736   4.670   3.391   2.588
   40GLOH   H06 8737   4.708   3.356   2.492
   40GLOH   H07 8738   4.563   3.370   2.590
   40GLOH    O3 8739   4.736   3.321   2.695
   40GLOH   H01 8740   4.702   3.230   2.700
   41GLOH   H03 8741   2.634   7.358   2.302
   41GLOH    O1 8742   2.650   7.443   2.348
   41GLOH    C1 8743   2.534   7.481   2.425
   41GLOH   H02 8744   2.554   7.574   2.478
   41GLOH   H08 8745   2.512   7.405   2.500
   41GLOH    C2 8746   2.409   7.501   2.337
   41GLOH   H04 8747   2.390   7.406   2.284
   41GLOH    O2 8748   2.294   7.533   2.418
   41GLOH   H05 8749   2.244   7.603   2.372
   41GLOH    C3 8750   2.432   7.611   2.232
   41GLOH   H06 8751   2.514   7.582   2.167
   41GLOH   H07 8752   2.462   7.703   2.283
   41GLOH    O3 8753   2.312   7.633   2.155
   41GLOH   H01 8754   2.323   7.711   2.095
   42GLOH   H03 8755   1.930   8.083   0.074
   42GLOH    O1 8756   1.978   8.103   0.156
   42GLOH    C1 8757   1.907   8.205   0.229
   42GLOH   H02 8758   1.804   8.173   0.249
   42GLOH   H08 8759   1.901   8.297   0.171
   42GLOH    C2 8760   1.974   8.237   0.364
   42GLOH   H04 8761   2.074   8.278   0.343
   42GLOH    O2 8762   1.899   8.336   0.437
   42GLOH   H05 8763   1.924   8.427   0.404
   42GLOH    C3 8764   1.992   8.108   0.445
   42GLOH   H06 8765   1.894   8.063   0.460
   42GLOH   H07 8766   2.030   8.132   0.544
   42GLOH    O3 8767   2.079   8.017   0.375
   42GLOH   H01 8768   2.055   8.030   0.280
   43GLOH   H03 8769   5.184   4.576   0.609
   43GLOH    O1 8770   5.245   4.561   0.532
   43GLOH    C1 8771   5.275   4.421   0.525
   43GLOH   H02 8772   5.189   4.365   0.490
   43GLOH   H08 8773   5.300   4.382   0.624
   43GLOH    C2 8774   5.394   4.391   0.431
   43GLOH   H04 8775   5.481   4.446   0.470
   43GLOH    O2 8776   5.424   4.250   0.434
   43GLOH   H05 8777   5.343   4.197   0.410
   43GLOH    C3 8778   5.368   4.441   0.288
   43GLOH   H06 8779   5.459   4.425   0.230
   43GLOH   H07 8780   5.352   4.548   0.292
   43GLOH    O3 8781   5.257   4.377   0.223
   43GLOH   H01 8782   5.174   4.421   0.251
   44GLOH   H03 8783   4.922   4.893   1.066
   44GLOH    O1 8784   4.939   4.828   1.138
   44GLOH    C1 8785   4.856   4.863   1.250
   44GLOH   H02 8786   4.901   4.946   1.305
   44GLOH   H08 8787   4.849   4.779   1.319
   44GLOH    C2 8788   4.713   4.902   1.208
   44GLOH   H04 8789   4.668   4.816   1.157
   44GLOH    O2 8790   4.633   4.936   1.323
   44GLOH   H05 8791   4.539   4.904   1.309
   44GLOH    C3 8792   4.718   5.022   1.111
   44GLOH   H06 8793   4.760   5.107   1.163
   44GLOH   H07 8794   4.615   5.049   1.084
   44GLOH    O3 8795   4.794   4.993   0.992
   44GLOH   H01 8796   4.743   4.924   0.941
   45GLOH   H03 8797   0.949   6.221   0.373
   45GLOH    O1 8798   0.901   6.134   0.371
   45GLOH    C1 8799   0.931   6.061   0.491
   45GLOH   H02 8800   0.873   5.968   0.495
   45GLOH   H08 8801   0.904   6.118   0.580
   45GLOH    C2 8802   1.081   6.025   0.501
   45GLOH   H04 8803   1.138   6.118   0.501
   45GLOH    O2 8804   1.108   5.955   0.624
   45GLOH   H05 8805   1.206   5.959   0.644
   45GLOH    C3 8806   1.122   5.940   0.380
   45GLOH   H06 8807   1.062   5.848   0.379
   45GLOH   H07 8808   1.226   5.909   0.391
   45GLOH    O3 8809   1.103   6.013   0.257
   45GLOH   H01 8810   1.012   6.049   0.261
   46GLOH   H03 8811   4.300   0.074   0.659
   46GLOH    O1 8812   4.289   0.053   0.756
   46GLOH    C1 8813   4.232   0.169   0.818
   46GLOH   H02 8814   4.125   0.173   0.798
   46GLOH   H08 8815   4.276   0.260   0.777
   46GLOH    C2 8816   4.252   0.171   0.971
   46GLOH   H04 8817   4.360   0.171   0.992
   46GLOH    O2 8818   4.192   0.290   1.027
   46GLOH   H05 8819   4.197   0.284   1.128
   46GLOH    C3 8820   4.191   0.043   1.032
   46GLOH   H06 8821   4.083   0.045   1.020
   46GLOH   H07 8822   4.212   0.042   1.139
   46GLOH    O3 8823   4.246   9.926   0.968
   46GLOH   H01 8824   4.270   9.957   0.877
   47GLOH   H03 8825   3.763   8.692   1.331
   47GLOH    O1 8826   3.775   8.721   1.425
   47GLOH    C1 8827   3.871   8.629   1.482
   47GLOH   H02 8828   3.965   8.637   1.427
   47GLOH   H08 8829   3.836   8.527   1.469
   47GLOH    C2 8830   3.900   8.648   1.632
   47GLOH   H04 8831   3.922   8.755   1.650
   47GLOH    O2 8832   3.787   8.609   1.713
   47GLOH   H05 8833   3.733   8.690   1.734
   47GLOH    C3 8834   4.024   8.566   1.671
   47GLOH   H06 8835   4.002   8.460   1.654
   47GLOH   H07 8836   4.040   8.578   1.779
   47GLOH    O3 8837   4.142   8.604   1.599
   47GLOH   H01 8838   4.166   8.698   1.625
   48GLOH   H03 8839   1.670   2.928   2.202
   48GLOH    O1 8840   1.733   3.002   2.183
   48GLOH    C1 8841   1.653   3.111   2.134
   48GLOH   H02 8842   1.563   3.122   2.195
   48GLOH   H08 8843   1.620   3.091   2.033
   48GLOH    C2 8844   1.726   3.247   2.132
   48GLOH   H04 8845   1.810   3.240   2.061
   48GLOH    O2 8846   1.634   3.349   2.089
   48GLOH   H05 8847   1.662   3.384   2.000
   48GLOH    C3 8848   1.783   3.281   2.271
   48GLOH   H06 8849   1.843   3.197   2.305
   48GLOH   H07 8850   1.699   3.289   2.341
   48GLOH    O3 8851   1.862   3.402   2.273
   48GLOH   H01 8852   1.855   3.441   2.362
   49GLOH   H03 8853   3.574   2.860   1.688
   49GLOH    O1 8854   3.638   2.800   1.641
   49GLOH    C1 8855   3.761   2.786   1.715
   49GLOH   H02 8856   3.826   2.714   1.664
   49GLOH   H08 8857   3.741   2.745   1.814
   49GLOH    C2 8858   3.840   2.918   1.733
   49GLOH   H04 8859   3.800   2.968   1.822
   49GLOH    O2 8860   3.980   2.888   1.757
   49GLOH   H05 8861   4.031   2.975   1.763
   49GLOH    C3 8862   3.818   3.012   1.613
   49GLOH   H06 8863   3.713   3.042   1.614
   49GLOH   H07 8864   3.834   2.956   1.521
   49GLOH    O3 8865   3.901   3.129   1.617
   49GLOH   H01 8866   3.975   3.113   1.553
   50GLOH   H03 8867   2.241   0.166   0.333
   50GLOH    O1 8868   2.207   0.250   0.290
   50GLOH    C1 8869   2.159   0.336   0.395
   50GLOH   H02 8870   2.167   0.440   0.364
   50GLOH   H08 8871   2.219   0.324   0.485
   50GLOH    C2 8872   2.012   0.306   0.429
   50GLOH   H04 8873   2.001   0.198   0.447
   50GLOH    O2 8874   1.970   0.378   0.546
   50GLOH   H05 8875   2.011   0.336   0.627
   50GLOH    C3 8876   1.924   0.342   0.308
   50GLOH   H06 8877   1.929   0.450   0.291
   50GLOH   H07 8878   1.820   0.318   0.330
   50GLOH    O3 8879   1.968   0.272   0.190
   50GLOH   H01 8880   2.065   0.259   0.201
   51GLOH   H03 8881   2.368   9.134   2.026
   51GLOH    O1 8882   2.297   9.128   1.956
   51GLOH    C1 8883   2.351   9.061   1.840
   51GLOH   H02 8884   2.422   8.984   1.870
   51GLOH   H08 8885   2.405   9.131   1.777
   51GLOH    C2 8886   2.240   8.995   1.756
   51GLOH   H04 8887   2.159   9.068   1.740
   51GLOH    O2 8888   2.295   8.954   1.629
   51GLOH   H05 8889   2.223   8.909   1.576
   51GLOH    C3 8890   2.183   8.873   1.831
   51GLOH   H06 8891   2.161   8.903   1.934
   51GLOH   H07 8892   2.261   8.797   1.838
   51GLOH    O3 8893   2.065   8.818   1.769
   51GLOH   H01 8894   2.072   8.832   1.671
   52GLOH   H03 8895   3.852   5.196   1.941
   52GLOH    O1 8896   3.789   5.272   1.935
   52GLOH    C1 8897   3.714   5.273   2.058
   52GLOH   H02 8898   3.727   5.368   2.109
   52GLOH   H08 8899   3.748   5.195   2.127
   52GLOH    C2 8900   3.563   5.254   2.032
   52GLOH   H04 8901   3.549   5.167   1.967
   52GLOH    O2 8902   3.494   5.233   2.156
   52GLOH   H05 8903   3.511   5.139   2.187
   52GLOH    C3 8904   3.510   5.379   1.960
   52GLOH   H06 8905   3.514   5.464   2.030
   52GLOH   H07 8906   3.405   5.363   1.934
   52GLOH    O3 8907   3.588   5.407   1.842
   52GLOH   H01 8908   3.677   5.368   1.860
   53GLOH   H03 8909   9.772   4.019   0.697
   53GLOH    O1 8910   9.815   4.108   0.702
   53GLOH    C1 8911   9.718   4.209   0.670
   53GLOH   H02 8912   9.741   4.301   0.725
   53GLOH   H08 8913   9.618   4.178   0.701
   53GLOH    C2 8914   9.716   4.242   0.520
   53GLOH   H04 8915   9.692   4.151   0.464
   53GLOH    O2 8916   9.614   4.342   0.494
   53GLOH   H05 8917   9.645   4.404   0.422
   53GLOH    C3 8918   9.855   4.291   0.475
   53GLOH   H06 8919   9.871   4.392   0.513
   53GLOH   H07 8920   9.856   4.298   0.366
   53GLOH    O3 8921   9.960   4.204   0.519
   53GLOH   H01 8922   9.923   4.160   0.601
   54GLOH   H03 8923   4.016   3.427   1.737
   54GLOH    O1 8924   4.088   3.481   1.693
   54GLOH    C1 8925   4.114   3.420   1.565
   54GLOH   H02 8926   4.086   3.488   1.484
   54GLOH   H08 8927   4.053   3.331   1.551
   54GLOH    C2 8928   4.262   3.380   1.544
   54GLOH   H04 8929   4.324   3.462   1.582
   54GLOH    O2 8930   4.295   3.260   1.618
   54GLOH   H05 8931   4.394   3.246   1.615
   54GLOH    C3 8932   4.292   3.366   1.394
   54GLOH   H06 8933   4.392   3.325   1.382
   54GLOH   H07 8934   4.293   3.465   1.349
   54GLOH    O3 8935   4.196   3.282   1.327
   54GLOH   H01 8936   4.214   3.279   1.229
   55GLOH   H03 8937   4.196   8.541   0.218
   55GLOH    O1 8938   4.275   8.518   0.162
   55GLOH    C1 8939   4.232   8.449   0.043
   55GLOH   H02 8940   4.175   8.517   2.811
   55GLOH   H08 8941   4.166   8.367   0.069
   55GLOH    C2 8942   4.351   8.393   2.794
   55GLOH   H04 8943   4.406   8.324   0.028
   55GLOH    O2 8944   4.304   8.320   2.679
   55GLOH   H05 8945   4.296   8.379   2.598
   55GLOH    C3 8946   4.446   8.507   2.753
   55GLOH   H06 8947   4.396   8.570   2.679
   55GLOH   H07 8948   4.534   8.464   2.705
   55GLOH    O3 8949   4.485   8.585   0.035
   55GLOH   H01 8950   4.412   8.570   0.102
   56GLOH   H03 8951   9.441   5.279   1.034
   56GLOH    O1 8952   9.344   5.302   1.041
   56GLOH    C1 8953   9.261   5.184   1.030
   56GLOH   H02 8954   9.192   5.194   0.946
   56GLOH   H08 8955   9.198   5.175   1.119
   56GLOH    C2 8956   9.336   5.050   1.011
   56GLOH   H04 8957   9.261   4.972   0.994
   56GLOH    O2 8958   9.422   5.059   0.895
   56GLOH   H05 8959   9.481   4.979   0.892
   56GLOH    C3 8960   9.415   5.011   1.137
   56GLOH   H06 8961   9.488   5.089   1.157
   56GLOH   H07 8962   9.473   4.921   1.116
   56GLOH    O3 8963   9.334   4.992   1.255
   56GLOH   H01 8964   9.320   5.081   1.294
   57GLOH   H03 8965   3.670   7.505   1.256
   57GLOH    O1 8966   3.658   7.442   1.180
   57GLOH    C1 8967   3.649   7.516   1.057
   57GLOH   H02 8968   3.680   7.453   0.973
   57GLOH   H08 8969   3.716   7.602   1.058
   57GLOH    C2 8970   3.506   7.566   1.029
   57GLOH   H04 8971   3.476   7.633   1.112
   57GLOH    O2 8972   3.498   7.640   0.906
   57GLOH   H05 8973   3.407   7.682   0.900
   57GLOH    C3 8974   3.408   7.448   1.025
   57GLOH   H06 8975   3.431   7.386   0.939
   57GLOH   H07 8976   3.307   7.486   1.011
   57GLOH    O3 8977   3.416   7.370   1.146
   57GLOH   H01 8978   3.511   7.372   1.172
   58GLOH   H03 8979   4.323   4.856   2.171
   58GLOH    O1 8980   4.340   4.771   2.218
   58GLOH    C1 8981   4.432   4.800   2.325
   58GLOH   H02 8982   4.533   4.817   2.285
   58GLOH   H08 8983   4.438   4.716   2.394
   58GLOH    C2 8984   4.389   4.925   2.404
   58GLOH   H04 8985   4.290   4.905   2.448
   58GLOH    O2 8986   4.483   4.955   2.509
   58GLOH   H05 8987   4.468   4.898   2.587
   58GLOH    C3 8988   4.377   5.045   2.309
   58GLOH   H06 8989   4.473   5.059   2.260
   58GLOH   H07 8990   4.358   5.135   2.367
   58GLOH    O3 8991   4.273   5.025   2.210
   58GLOH   H01 8992   4.263   5.110   2.159
   59GLOH   H03 8993   3.614   5.039   0.517
   59GLOH    O1 8994   3.656   5.127   0.501
   59GLOH    C1 8995   3.705   5.181   0.625
   59GLOH   H02 8996   3.767   5.107   0.677
   59GLOH   H08 8997   3.623   5.205   0.692
   59GLOH    C2 8998   3.789   5.308   0.602
   59GLOH   H04 8999   3.728   5.376   0.541
   59GLOH    O2 9000   3.822   5.374   0.725
   59GLOH   H05 9001   3.738   5.404   0.771
   59GLOH    C3 9002   3.917   5.276   0.522
   59GLOH   H06 9003   3.974   5.368   0.511
   59GLOH   H07 9004   3.887   5.246   0.422
   59GLOH    O3 9005   4.000   5.174   0.582
   59GLOH   H01 9006   3.996   5.184   0.681
   60GLOH   H03 9007   4.714   4.506   1.255
   60GLOH    O1 9008   4.617   4.497   1.273
   60GLOH    C1 9009   4.555   4.455   1.150
   60GLOH   H02 9010   4.581   4.351   1.129
   60GLOH   H08 9011   4.592   4.515   1.067
   60GLOH    C2 9012   4.402   4.467   1.153
   60GLOH   H04 9013   4.375   4.570   1.181
   60GLOH    O2 9014   4.352   4.439   1.020
   60GLOH   H05 9015   4.376   4.344   0.998
   60GLOH    C3 9016   4.340   4.371   1.257
   60GLOH   H06 9017   4.239   4.406   1.280
   60GLOH   H07 9018   4.398   4.378   1.349
   60GLOH    O3 9019   4.335   4.234   1.212
   60GLOH   H01 9020   4.356   4.171   1.286
   61GLOH   H03 9021   4.636   4.861   2.043
   61GLOH    O1 9022   4.628   4.960   2.033
   61GLOH    C1 9023   4.686   4.996   1.906
   61GLOH   H02 9024   4.628   4.950   1.826
   61GLOH   H08 9025   4.788   4.958   1.898
   61GLOH    C2 9026   4.689   5.148   1.882
   61GLOH   H04 9027   4.752   5.194   1.959
   61GLOH    O2 9028   4.745   5.180   1.752
   61GLOH   H05 9029   4.712   5.115   1.683
   61GLOH    C3 9030   4.547   5.207   1.895
   61GLOH   H06 9031   4.485   5.170   1.814
   61GLOH   H07 9032   4.554   5.315   1.885
   61GLOH    O3 9033   4.491   5.172   2.023
   61GLOH   H01 9034   4.536   5.087   2.047
   62GLOH   H03 9035   4.852   1.762   0.525
   62GLOH    O1 9036   4.881   1.676   0.567
   62GLOH    C1 9037   4.992   1.627   0.490
   62GLOH   H02 9038   5.086   1.653   0.538
   62GLOH   H08 9039   4.993   1.675   0.392
   62GLOH    C2 9040   4.990   1.474   0.468
   62GLOH   H04 9041   4.886   1.441   0.453
   62GLOH    O2 9042   5.068   1.440   0.351
   62GLOH   H05 9043   5.011   1.394   0.286
   62GLOH    C3 9044   5.049   1.399   0.589
   62GLOH   H06 9045   5.154   1.426   0.599
   62GLOH   H07 9046   5.046   1.292   0.567
   62GLOH    O3 9047   4.980   1.424   0.712
   62GLOH   H01 9048   4.907   1.358   0.726
   63GLOH   H03 9049   1.552   3.476   1.831
   63GLOH    O1 9050   1.456   3.467   1.809
   63GLOH    C1 9051   1.421   3.570   1.714
   63GLOH   H02 9052   1.495   3.575   1.634
   63GLOH   H08 9053   1.422   3.668   1.763
   63GLOH    C2 9054   1.282   3.550   1.650
   63GLOH   H04 9055   1.281   3.450   1.603
   63GLOH    O2 9056   1.174   3.559   1.745
   63GLOH   H05 9057   1.167   3.654   1.776
   63GLOH    C3 9058   1.260   3.655   1.540
   63GLOH   H06 9059   1.281   3.753   1.582
   63GLOH   H07 9060   1.155   3.655   1.512
   63GLOH    O3 9061   1.342   3.635   1.423
   63GLOH   H01 9062   1.297   3.687   1.351
   64GLOH   H03 9063   0.577   3.223   1.027
   64GLOH    O1 9064   0.604   3.315   1.052
   64GLOH    C1 9065   0.744   3.314   1.087
   64GLOH   H02 9066   0.758   3.267   1.184
   64GLOH   H08 9067   0.781   3.416   1.095
   64GLOH    C2 9068   0.828   3.239   0.982
   64GLOH   H04 9069   0.810   3.284   0.883
   64GLOH    O2 9070   0.969   3.245   1.013
   64GLOH   H05 9071   0.991   3.337   1.046
   64GLOH    C3 9072   0.784   3.092   0.977
   64GLOH   H06 9073   0.809   3.047   1.072
   64GLOH   H07 9074   0.843   3.041   0.901
   64GLOH    O3 9075   0.643   3.075   0.949
   64GLOH   H01 9076   0.631   3.086   0.850
   65GLOH   H03 9077   3.262   6.638   2.617
   65GLOH    O1 9078   3.282   6.545   2.590
   65GLOH    C1 9079   3.305   6.474   2.713
   65GLOH   H02 9080   3.411   6.478   2.740
   65GLOH   H08 9081   3.280   6.368   2.702
   65GLOH    C2 9082   3.222   6.531   2.831
   65GLOH   H04 9083   3.116   6.518   2.808
   65GLOH    O2 9084   3.253   6.461   0.122
   65GLOH   H05 9085   3.177   6.465   0.186
   65GLOH    C3 9086   3.251   6.681   0.015
   65GLOH   H06 9087   3.353   6.693   0.053
   65GLOH   H07 9088   3.185   6.720   0.093
   65GLOH    O3 9089   3.235   6.756   2.725
   65GLOH   H01 9090   3.234   6.852   2.748
   66GLOH   H03 9091   4.283   8.264   2.088
   66GLOH    O1 9092   4.355   8.329   2.105
   66GLOH    C1 9093   4.311   8.417   2.210
   66GLOH   H02 9094   4.205   8.439   2.199
   66GLOH   H08 9095   4.364   8.513   2.202
   66GLOH    C2 9096   4.336   8.360   2.351
   66GLOH   H04 9097   4.444   8.355   2.366
   66GLOH    O2 9098   4.278   8.445   2.453
   66GLOH   H05 9099   4.232   8.522   2.411
   66GLOH    C3 9100   4.282   8.215   2.362
   66GLOH   H06 9101   4.305   8.178   2.462
   66GLOH   H07 9102   4.338   8.153   2.293
   66GLOH    O3 9103   4.141   8.205   2.336
   66GLOH   H01 9104   4.094   8.242   2.414
   67GLOH   H03 9105   4.087   5.446   1.945
   67GLOH    O1 9106   4.132   5.378   1.887
   67GLOH    C1 9107   4.096   5.406   1.750
   67GLOH   H02 9108   4.094   5.513   1.734
   67GLOH   H08 9109   3.997   5.366   1.728
   67GLOH    C2 9110   4.197   5.346   1.651
   67GLOH   H04 9111   4.200   5.237   1.665
   67GLOH    O2 9112   4.160   5.376   1.515
   67GLOH   H05 9113   4.244   5.398   1.468
   67GLOH    C3 9114   4.337   5.403   1.681
   67GLOH   H06 9115   4.365   5.374   1.782
   67GLOH   H07 9116   4.331   5.512   1.680
   67GLOH    O3 9117   4.436   5.358   1.587
   67GLOH   H01 9118   4.522   5.401   1.610
   68GLOH   H03 9119   1.819   5.074   2.006
   68GLOH    O1 9120   1.779   5.164   1.997
   68GLOH    C1 9121   1.698   5.189   2.114
   68GLOH   H02 9122   1.683   5.296   2.128
   68GLOH   H08 9123   1.750   5.153   2.203
   68GLOH    C2 9124   1.560   5.121   2.108
   68GLOH   H04 9125   1.576   5.012   2.095
   68GLOH    O2 9126   1.491   5.143   2.233
   68GLOH   H05 9127   1.474   5.241   2.245
   68GLOH    C3 9128   1.480   5.171   1.986
   68GLOH   H06 9129   1.537   5.148   1.896
   68GLOH   H07 9130   1.473   5.279   1.992
   68GLOH    O3 9131   1.348   5.113   1.974
   68GLOH   H01 9132   1.321   5.123   1.879
   69GLOH   H03 9133   3.965   5.010   2.052
   69GLOH    O1 9134   3.932   5.067   1.978
   69GLOH    C1 9135   4.017   5.048   1.863
   69GLOH   H02 9136   4.084   4.963   1.878
   69GLOH   H08 9137   4.081   5.135   1.848
   69GLOH    C2 9138   3.935   5.024   1.735
   69GLOH   H04 9139   3.866   5.109   1.721
   69GLOH    O2 9140   4.027   5.017   1.624
   69GLOH   H05 9141   3.975   4.993   1.542
   69GLOH    C3 9142   3.854   4.894   1.748
   69GLOH   H06 9143   3.806   4.892   1.846
   69GLOH   H07 9144   3.924   4.810   1.746
   69GLOH    O3 9145   3.756   4.879   1.644
   69GLOH   H01 9146   3.782   4.805   1.584
   70GLOH   H03 9147   5.282   3.444   1.041
   70GLOH    O1 9148   5.290   3.455   0.942
   70GLOH    C1 9149   5.390   3.555   0.916
   70GLOH   H02 9150   5.485   3.530   0.964
   70GLOH   H08 9151   5.359   3.652   0.957
   70GLOH    C2 9152   5.416   3.572   0.765
   70GLOH   H04 9153   5.320   3.594   0.715
   70GLOH    O2 9154   5.506   3.682   0.741
   70GLOH   H05 9155   5.496   3.712   0.646
   70GLOH    C3 9156   5.472   3.442   0.706
   70GLOH   H06 9157   5.572   3.426   0.746
   70GLOH   H07 9158   5.481   3.453   0.598
   70GLOH    O3 9159   5.386   3.331   0.738
   70GLOH   H01 9160   5.345   3.354   0.825
   71GLOH   H03 9161   2.328   4.568   1.912
   71GLOH    O1 9162   2.400   4.502   1.930
   71GLOH    C1 9163   2.339   4.372   1.938
   71GLOH   H02 9164   2.411   4.295   1.911
   71GLOH   H08 9165   2.256   4.364   1.867
   71GLOH    C2 9166   2.285   4.337   2.078
   71GLOH   H04 9167   2.230   4.242   2.068
   71GLOH    O2 9168   2.391   4.316   2.174
   71GLOH   H05 9169   2.459   4.390   2.170
   71GLOH    C3 9170   2.184   4.442   2.128
   71GLOH   H06 9171   2.229   4.541   2.118
   71GLOH   H07 9172   2.166   4.426   2.234
   71GLOH    O3 9173   2.060   4.436   2.056
   71GLOH   H01 9174   2.007   4.358   2.087
   72GLOH   H03 9175   2.184   1.143   0.774
   72GLOH    O1 9176   2.127   1.222   0.759
   72GLOH    C1 9177   2.101   1.287   0.886
   72GLOH   H02 9178   2.064   1.213   0.957
   72GLOH   H08 9179   2.021   1.360   0.874
   72GLOH    C2 9180   2.223   1.359   0.947
   72GLOH   H04 9181   2.310   1.293   0.936
   72GLOH    O2 9182   2.252   1.484   0.881
   72GLOH   H05 9183   2.345   1.483   0.846
   72GLOH    C3 9184   2.197   1.381   1.097
   72GLOH   H06 9185   2.106   1.441   1.107
   72GLOH   H07 9186   2.278   1.439   1.139
   72GLOH    O3 9187   2.182   1.257   1.168
   72GLOH   H01 9188   2.253   1.194   1.139
   73GLOH   H03 9189   4.866   2.632   1.486
   73GLOH    O1 9190   4.882   2.672   1.575
   73GLOH    C1 9191   5.015   2.728   1.580
   73GLOH   H02 9192   5.038   2.757   1.682
   73GLOH   H08 9193   5.020   2.818   1.519
   73GLOH    C2 9194   5.123   2.629   1.532
   73GLOH   H04 9195   5.120   2.540   1.597
   73GLOH    O2 9196   5.101   2.591   1.395
   73GLOH   H05 9197   5.009   2.556   1.383
   73GLOH    C3 9198   5.262   2.693   1.545
   73GLOH   H06 9199   5.268   2.774   1.472
   73GLOH   H07 9200   5.336   2.619   1.515
   73GLOH    O3 9201   5.293   2.745   1.676
   73GLOH   H01 9202   5.262   2.680   1.746
   74GLOH   H03 9203   9.567   4.174   0.030
   74GLOH    O1 9204   9.592   4.207   2.774
   74GLOH    C1 9205   9.489   4.293   2.721
   74GLOH   H02 9206   9.457   4.366   2.795
   74GLOH   H08 9207   9.401   4.234   2.694
   74GLOH    C2 9208   9.538   4.368   2.595
   74GLOH   H04 9209   9.624   4.429   2.624
   74GLOH    O2 9210   9.580   4.273   2.494
   74GLOH   H05 9211   9.632   4.205   2.543
   74GLOH    C3 9212   9.428   4.462   2.542
   74GLOH   H06 9213   9.341   4.402   2.516
   74GLOH   H07 9214   9.463   4.507   2.448
   74GLOH    O3 9215   9.393   4.564   2.637
   74GLOH   H01 9216   9.472   4.621   2.653
   75GLOH   H03 9217   9.407   5.349   2.103
   75GLOH    O1 9218   9.392   5.275   2.167
   75GLOH    C1 9219   9.256   5.231   2.155
   75GLOH   H02 9220   9.191   5.313   2.122
   75GLOH   H08 9221   9.218   5.198   2.252
   75GLOH    C2 9222   9.240   5.114   2.055
   75GLOH   H04 9223   9.317   5.039   2.076
   75GLOH    O2 9224   9.109   5.056   2.073
   75GLOH   H05 9225   9.118   4.956   2.078
   75GLOH    C3 9226   9.253   5.161   1.909
   75GLOH   H06 9227   9.166   5.222   1.885
   75GLOH   H07 9228   9.248   5.072   1.845
   75GLOH    O3 9229   9.374   5.234   1.880
   75GLOH   H01 9230   9.454   5.177   1.886
   76GLOH   H03 9231   4.940   4.117   2.006
   76GLOH    O1 9232   4.876   4.185   1.974
   76GLOH    C1 9233   4.813   4.129   1.857
   76GLOH   H02 9234   4.874   4.147   1.768
   76GLOH   H08 9235   4.718   4.178   1.839
   76GLOH    C2 9236   4.789   3.978   1.870
   76GLOH   H04 9237   4.718   3.963   1.953
   76GLOH    O2 9238   4.730   3.927   1.749
   76GLOH   H05 9239   4.761   3.833   1.732
   76GLOH    C3 9240   4.920   3.906   1.906
   76GLOH   H06 9241   4.988   3.913   1.821
   76GLOH   H07 9242   4.898   3.800   1.921
   76GLOH    O3 9243   4.983   3.960   2.025
   76GLOH   H01 9244   5.064   3.906   2.045
   77GLOH   H03 9245   2.924   8.156   0.668
   77GLOH    O1 9246   2.915   8.195   0.759
   77GLOH    C1 9247   2.783   8.254   0.764
   77GLOH   H02 9248   2.708   8.176   0.775
   77GLOH   H08 9249   2.762   8.306   0.671
   77GLOH    C2 9250   2.766   8.355   0.879
   77GLOH   H04 9251   2.838   8.437   0.863
   77GLOH    O2 9252   2.633   8.410   0.877
   77GLOH   H05 9253   2.577   8.364   0.945
   77GLOH    C3 9254   2.799   8.291   1.016
   77GLOH   H06 9255   2.793   8.369   1.092
   77GLOH   H07 9256   2.903   8.259   1.014
   77GLOH    O3 9257   2.714   8.180   1.051
   77GLOH   H01 9258   2.622   8.217   1.064
   78GLOH   H03 9259   5.670   2.869   1.680
   78GLOH    O1 9260   5.765   2.886   1.658
   78GLOH    C1 9261   5.783   2.866   1.516
   78GLOH   H02 9262   5.797   2.760   1.495
   78GLOH   H08 9263   5.872   2.918   1.482
   78GLOH    C2 9264   5.661   2.916   1.435
   78GLOH   H04 9265   5.646   3.022   1.460
   78GLOH    O2 9266   5.685   2.906   1.293
   78GLOH   H05 9267   5.735   2.988   1.268
   78GLOH    C3 9268   5.534   2.843   1.480
   78GLOH   H06 9269   5.547   2.736   1.464
   78GLOH   H07 9270   5.452   2.876   1.417
   78GLOH    O3 9271   5.504   2.869   1.619
   78GLOH   H01 9272   5.423   2.818   1.645
   79GLOH   H03 9273   4.391   8.867   0.076
   79GLOH    O1 9274   4.310   8.888   0.024
   79GLOH    C1 9275   4.352   8.960   2.739
   79GLOH   H02 9276   4.379   9.063   2.765
   79GLOH   H08 9277   4.270   8.966   2.668
   79GLOH    C2 9278   4.472   8.894   2.670
   79GLOH   H04 9279   4.445   8.791   2.642
   79GLOH    O2 9280   4.508   8.968   2.551
   79GLOH   H05 9281   4.428   8.978   2.492
   79GLOH    C3 9282   4.592   8.888   2.767
   79GLOH   H06 9283   4.627   8.989   2.785
   79GLOH   H07 9284   4.674   8.835   2.717
   79GLOH    O3 9285   4.562   8.824   0.060
   79GLOH   H01 9286   4.543   8.727   0.045
   80GLOH   H03 9287   3.873   1.578   1.241
   80GLOH    O1 9288   3.809   1.501   1.242
   80GLOH    C1 9289   3.825   1.430   1.118
   80GLOH   H02 9290   3.925   1.386   1.112
   80GLOH   H08 9291   3.818   1.500   1.034
   80GLOH    C2 9292   3.721   1.319   1.095
   80GLOH   H04 9293   3.624   1.369   1.079
   80GLOH    O2 9294   3.756   1.244   0.977
   80GLOH   H05 9295   3.723   1.293   0.897
   80GLOH    C3 9296   3.707   1.227   1.218
   80GLOH   H06 9297   3.682   1.288   1.304
   80GLOH   H07 9298   3.804   1.182   1.238
   80GLOH    O3 9299   3.608   1.123   1.200
   80GLOH   H01 9300   3.547   1.150   1.126
   81GLOH   H03 9301   2.245   5.656   2.797
   81GLOH    O1 9302   2.268   5.695   0.052
   81GLOH    C1 9303   2.411   5.721   0.056
   81GLOH   H02 9304   2.437   5.794   2.812
   81GLOH   H08 9305   2.466   5.630   0.033
   81GLOH    C2 9306   2.458   5.773   0.193
   81GLOH   H04 9307   2.441   5.694   0.268
   81GLOH    O2 9308   2.598   5.806   0.190
   81GLOH   H05 9309   2.633   5.818   0.282
   81GLOH    C3 9310   2.374   5.896   0.233
   81GLOH   H06 9311   2.386   5.973   0.156
   81GLOH   H07 9312   2.414   5.937   0.326
   81GLOH    O3 9313   2.236   5.860   0.247
   81GLOH   H01 9314   2.220   5.794   0.175
   82GLOH   H03 9315   2.997   0.248   0.197
   82GLOH    O1 9316   3.043   0.225   0.282
   82GLOH    C1 9317   3.019   0.086   0.310
   82GLOH   H02 9318   3.083   0.023   0.248
   82GLOH   H08 9319   2.916   0.059   0.286
   82GLOH    C2 9320   3.045   0.050   0.458
   82GLOH   H04 9321   3.150   0.076   0.481
   82GLOH    O2 9322   2.958   0.125   0.545
   82GLOH   H05 9323   2.967   0.221   0.523
   82GLOH    C3 9324   3.027   9.899   0.480
   82GLOH   H06 9325   2.925   9.871   0.451
   82GLOH   H07 9326   3.036   9.878   0.586
   82GLOH    O3 9327   3.122   9.821   0.405
   82GLOH   H01 9328   3.201   9.804   0.464
   83GLOH   H03 9329   3.640   8.052   0.403
   83GLOH    O1 9330   3.676   8.139   0.371
   83GLOH    C1 9331   3.805   8.160   0.432
   83GLOH   H02 9332   3.812   8.106   0.526
   83GLOH   H08 9333   3.818   8.266   0.455
   83GLOH    C2 9334   3.920   8.116   0.340
   83GLOH   H04 9335   3.917   8.180   0.250
   83GLOH    O2 9336   4.048   8.134   0.404
   83GLOH   H05 9337   4.119   8.105   0.343
   83GLOH    C3 9338   3.900   7.971   0.291
   83GLOH   H06 9339   3.987   7.943   0.231
   83GLOH   H07 9340   3.814   7.969   0.224
   83GLOH    O3 9341   3.881   7.874   0.397
   83GLOH   H01 9342   3.924   7.905   0.481
   84GLOH   H03 9343   1.093   4.529   2.809
   84GLOH    O1 9344   1.061   4.483   0.057
   84GLOH    C1 9345   1.171   4.413   0.120
   84GLOH   H02 9346   1.240   4.484   0.165
   84GLOH   H08 9347   1.227   4.356   0.046
   84GLOH    C2 9348   1.122   4.317   0.230
   84GLOH   H04 9349   1.057   4.242   0.183
   84GLOH    O2 9350   1.234   4.249   0.291
   84GLOH   H05 9351   1.201   4.166   0.336
   84GLOH    C3 9352   1.040   4.394   0.335
   84GLOH   H06 9353   1.103   4.470   0.380
   84GLOH   H07 9354   1.010   4.325   0.414
   84GLOH    O3 9355   0.924   4.454   0.275
   84GLOH   H01 9356   0.952   4.478   0.183
   85GLOH   H03 9357   3.298   1.565   2.745
   85GLOH    O1 9358   3.223   1.616   2.707
   85GLOH    C1 9359   3.147   1.674   2.814
   85GLOH   H02 9360   3.049   1.704   2.777
   85GLOH   H08 9361   3.196   1.764   0.018
   85GLOH    C2 9362   3.126   1.578   0.101
   85GLOH   H04 9363   3.083   1.485   0.063
   85GLOH    O2 9364   3.252   1.549   0.165
   85GLOH   H05 9365   3.274   1.625   0.223
   85GLOH    C3 9366   3.028   1.640   0.202
   85GLOH   H06 9367   3.009   1.566   0.281
   85GLOH   H07 9368   2.933   1.656   0.151
   85GLOH    O3 9369   3.077   1.762   0.258
   85GLOH   H01 9370   3.003   1.813   0.299
   86GLOH   H03 9371   3.361   7.278   1.697
   86GLOH    O1 9372   3.347   7.185   1.666
   86GLOH    C1 9373   3.345   7.184   1.522
   86GLOH   H02 9374   3.445   7.162   1.483
   86GLOH   H08 9375   3.316   7.281   1.482
   86GLOH    C2 9376   3.247   7.078   1.467
   86GLOH   H04 9377   3.146   7.106   1.501
   86GLOH    O2 9378   3.249   7.075   1.323
   86GLOH   H05 9379   3.212   7.160   1.285
   86GLOH    C3 9380   3.280   6.939   1.523
   86GLOH   H06 9381   3.379   6.909   1.487
   86GLOH   H07 9382   3.208   6.867   1.484
   86GLOH    O3 9383   3.278   6.938   1.667
   86GLOH   H01 9384   3.318   7.025   1.693
   87GLOH   H03 9385   3.489   1.327   1.774
   87GLOH    O1 9386   3.564   1.381   1.810
   87GLOH    C1 9387   3.682   1.342   1.737
   87GLOH   H02 9388   3.666   1.355   1.630
   87GLOH   H08 9389   3.701   1.236   1.754
   87GLOH    C2 9390   3.807   1.422   1.779
   87GLOH   H04 9391   3.827   1.400   1.885
   87GLOH    O2 9392   3.921   1.381   1.701
   87GLOH   H05 9393   4.004   1.387   1.757
   87GLOH    C3 9394   3.779   1.573   1.765
   87GLOH   H06 9395   3.761   1.595   1.659
   87GLOH   H07 9396   3.867   1.628   1.796
   87GLOH    O3 9397   3.664   1.610   1.844
   87GLOH   H01 9398   3.602   1.532   1.837
   88GLOH   H03 9399   5.501   3.869   2.338
   88GLOH    O1 9400   5.503   3.898   2.243
   88GLOH    C1 9401   5.478   3.784   2.159
   88GLOH   H02 9402   5.400   3.721   2.203
   88GLOH   H08 9403   5.568   3.723   2.152
   88GLOH    C2 9404   5.434   3.824   2.017
   88GLOH   H04 9405   5.512   3.891   1.976
   88GLOH    O2 9406   5.422   3.709   1.930
   88GLOH   H05 9407   5.469   3.631   1.970
   88GLOH    C3 9408   5.302   3.904   2.019
   88GLOH   H06 9409   5.274   3.925   1.915
   88GLOH   H07 9410   5.320   4.000   2.066
   88GLOH    O3 9411   5.194   3.835   2.085
   88GLOH   H01 9412   5.202   3.853   2.183
   89GLOH   H03 9413   0.020   3.257   2.347
   89GLOH    O1 9414   0.020   3.236   2.250
   89GLOH    C1 9415   0.116   3.322   2.187
   89GLOH   H02 9416   0.065   3.404   2.135
   89GLOH   H08 9417   0.171   3.267   2.111
   89GLOH    C2 9418   0.218   3.383   2.285
   89GLOH   H04 9419   0.282   3.302   2.323
   89GLOH    O2 9420   0.301   3.481   2.218
   89GLOH   H05 9421   0.253   3.570   2.219
   89GLOH    C3 9422   0.144   3.446   2.405
   89GLOH   H06 9423   0.081   3.527   2.368
   89GLOH   H07 9424   0.218   3.491   2.471
   89GLOH    O3 9425   0.063   3.350   2.476
   89GLOH   H01 9426   0.043   3.386   2.565
   90GLOH   H03 9427   1.059   4.161   1.644
   90GLOH    O1 9428   1.097   4.085   1.695
   90GLOH    C1 9429   1.048   3.962   1.639
   90GLOH   H02 9430   1.116   3.925   1.563
   90GLOH   H08 9431   0.952   3.977   1.590
   90GLOH    C2 9432   1.030   3.852   1.746
   90GLOH   H04 9433   0.979   3.769   1.696
   90GLOH    O2 9434   1.156   3.803   1.796
   90GLOH   H05 9435   1.205   3.874   1.847
   90GLOH    C3 9436   0.938   3.901   1.859
   90GLOH   H06 9437   0.982   3.990   1.905
   90GLOH   H07 9438   0.935   3.824   1.936
   90GLOH    O3 9439   0.805   3.929   1.810
   90GLOH   H01 9440   0.805   4.018   1.766
   91GLOH   H03 9441   3.303   0.836   0.603
   91GLOH    O1 9442   3.264   0.925   0.581
   91GLOH    C1 9443   3.143   0.938   0.656
   91GLOH   H02 9444   3.141   1.033   0.710
   91GLOH   H08 9445   3.135   0.860   0.731
   91GLOH    C2 9446   3.019   0.931   0.564
   91GLOH   H04 9447   3.033   0.845   0.497
   91GLOH    O2 9448   2.899   0.909   0.641
   91GLOH   H05 9449   2.906   0.819   0.684
   91GLOH    C3 9450   3.009   1.057   0.476
   91GLOH   H06 9451   2.915   1.052   0.420
   91GLOH   H07 9452   3.089   1.052   0.402
   91GLOH    O3 9453   3.016   1.182   0.547
   91GLOH   H01 9454   3.110   1.212   0.550
   92GLOH   H03 9455   2.484   6.679   2.673
   92GLOH    O1 9456   2.550   6.701   2.742
   92GLOH    C1 9457   2.602   6.581   2.802
   92GLOH   H02 9458   2.634   6.510   2.726
   92GLOH   H08 9459   2.524   6.532   0.028
   92GLOH    C2 9460   2.721   6.610   0.063
   92GLOH   H04 9461   2.689   6.685   0.137
   92GLOH    O2 9462   2.763   6.490   0.132
   92GLOH   H05 9463   2.835   6.512   0.195
   92GLOH    C3 9464   2.837   6.670   2.813
   92GLOH   H06 9465   2.917   6.699   0.050
   92GLOH   H07 9466   2.802   6.762   2.766
   92GLOH    O3 9467   2.887   6.579   2.714
   92GLOH   H01 9468   2.881   6.488   2.751
   93GLOH   H03 9469   4.041   5.299   1.446
   93GLOH    O1 9470   3.971   5.249   1.396
   93GLOH    C1 9471   4.020   5.212   1.266
   93GLOH   H02 9472   4.012   5.298   1.199
   93GLOH   H08 9473   3.956   5.135   1.223
   93GLOH    C2 9474   4.166   5.162   1.261
   93GLOH   H04 9475   4.229   5.244   1.299
   93GLOH    O2 9476   4.191   5.046   1.344
   93GLOH   H05 9477   4.250   5.074   1.419
   93GLOH    C3 9478   4.210   5.137   1.116
   93GLOH   H06 9479   4.309   5.090   1.117
   93GLOH   H07 9480   4.223   5.234   1.067
   93GLOH    O3 9481   4.118   5.057   1.040
   93GLOH   H01 9482   4.100   4.970   1.083
   94GLOH   H03 9483   0.900   4.080   2.670
   94GLOH    O1 9484   0.817   4.096   2.719
   94GLOH    C1 9485   0.724   3.989   2.694
   94GLOH   H02 9486   0.634   4.003   2.754
   94GLOH   H08 9487   0.768   3.893   2.725
   94GLOH    C2 9488   0.683   3.979   2.546
   94GLOH   H04 9489   0.775   3.972   2.485
   94GLOH    O2 9490   0.605   3.859   2.528
   94GLOH   H05 9491   0.616   3.827   2.435
   94GLOH    C3 9492   0.605   4.105   2.506
   94GLOH   H06 9493   0.662   4.193   2.538
   94GLOH   H07 9494   0.512   4.107   2.562
   94GLOH    O3 9495   0.578   4.114   2.365
   94GLOH   H01 9496   0.662   4.098   2.315
   95GLOH   H03 9497   3.267   9.475   1.823
   95GLOH    O1 9498   3.202   9.534   1.778
   95GLOH    C1 9499   3.221   9.536   1.635
   95GLOH   H02 9500   3.183   9.631   1.596
   95GLOH   H08 9501   3.161   9.458   1.588
   95GLOH    C2 9502   3.367   9.520   1.590
   95GLOH   H04 9503   3.412   9.441   1.651
   95GLOH    O2 9504   3.374   9.480   1.451
   95GLOH   H05 9505   3.470   9.489   1.420
   95GLOH    C3 9506   3.448   9.649   1.616
   95GLOH   H06 9507   3.553   9.628   1.598
   95GLOH   H07 9508   3.439   9.672   1.722
   95GLOH    O3 9509   3.407   9.764   1.538
   95GLOH   H01 9510   3.482   9.829   1.539
   96GLOH   H03 9511   4.590   0.731   2.463
   96GLOH    O1 9512   4.546   0.676   2.533
   96GLOH    C1 9513   4.474   0.566   2.473
   96GLOH   H02 9514   4.537   0.477   2.472
   96GLOH   H08 9515   4.447   0.588   2.370
   96GLOH    C2 9516   4.344   0.533   2.549
   96GLOH   H04 9517   4.279   0.622   2.546
   96GLOH    O2 9518   4.276   0.422   2.486
   96GLOH   H05 9519   4.315   0.336   2.515
   96GLOH    C3 9520   4.375   0.501   2.697
   96GLOH   H06 9521   4.430   0.407   2.703
   96GLOH   H07 9522   4.280   0.485   2.749
   96GLOH    O3 9523   4.448   0.606   2.760
   96GLOH   H01 9524   4.498   0.652   2.688
   97GLOH   H03 9525   4.368   4.500   2.171
   97GLOH    O1 9526   4.343   4.451   2.089
   97GLOH    C1 9527   4.289   4.324   2.132
   97GLOH   H02 9528   4.268   4.261   2.045
   97GLOH   H08 9529   4.195   4.339   2.184
   97GLOH    C2 9530   4.384   4.246   2.224
   97GLOH   H04 9531   4.332   4.152   2.250
   97GLOH    O2 9532   4.506   4.210   2.157
   97GLOH   H05 9533   4.484   4.142   2.087
   97GLOH    C3 9534   4.406   4.319   2.358
   97GLOH   H06 9535   4.499   4.283   2.403
   97GLOH   H07 9536   4.326   4.291   2.426
   97GLOH    O3 9537   4.410   4.463   2.345
   97GLOH   H01 9538   4.503   4.489   2.320
   98GLOH   H03 9539   9.306   4.372   0.743
   98GLOH    O1 9540   9.255   4.311   0.803
   98GLOH    C1 9541   9.171   4.386   0.894
   98GLOH   H02 9542   9.066   4.366   0.873
   98GLOH   H08 9543   9.187   4.493   0.882
   98GLOH    C2 9544   9.199   4.348   1.041
   98GLOH   H04 9545   9.302   4.378   1.066
   98GLOH    O2 9546   9.108   4.415   1.131
   98GLOH   H05 9547   9.103   4.513   1.110
   98GLOH    C3 9548   9.186   4.196   1.061
   98GLOH   H06 9549   9.082   4.168   1.050
   98GLOH   H07 9550   9.216   4.172   1.163
   98GLOH    O3 9551   9.266   4.124   0.966
   98GLOH   H01 9552   9.263   4.181   0.884
   99GLOH   H03 9553   2.257   0.525   2.191
   99GLOH    O1 9554   2.275   0.542   2.095
   99GLOH    C1 9555   2.398   0.617   2.085
   99GLOH   H02 9556   2.459   0.580   2.003
   99GLOH   H08 9557   2.456   0.606   2.177
   99GLOH    C2 9558   2.370   0.767   2.062
   99GLOH   H04 9559   2.294   0.799   2.135
   99GLOH    O2 9560   2.489   0.846   2.080
   99GLOH   H05 9561   2.554   0.801   2.142
   99GLOH    C3 9562   2.312   0.787   1.920
   99GLOH   H06 9563   2.264   0.884   1.917
   99GLOH   H07 9564   2.234   0.713   1.903
   99GLOH    O3 9565   2.411   0.776   1.815
   99GLOH   H01 9566   2.448   0.868   1.809
  100GLOH   H03 9567   3.743   8.464   1.742
  100GLOH    O1 9568   3.708   8.371   1.751
  100GLOH    C1 9569   3.644   8.357   1.879
  100GLOH   H02 9570   3.547   8.407   1.878
  100GLOH   H08 9571   3.704   8.406   1.957
  100GLOH    C2 9572   3.622   8.210   1.920
  100GLOH   H04 9573   3.720   8.162   1.928
  100GLOH    O2 9574   3.557   8.206   2.050
  100GLOH   H05 9575   3.577   8.116   2.090
  100GLOH    C3 9576   3.539   8.135   1.814
  100GLOH   H06 9577   3.595   8.138   1.720
  100GLOH   H07 9578   3.447   8.191   1.797
  100GLOH    O3 9579   3.508   7.999   1.848
  100GLOH   H01 9580   3.460   7.960   1.769
  101GLOH   H03 9581   1.388   7.287   1.786
  101GLOH    O1 9582   1.416   7.210   1.730
  101GLOH    C1 9583   1.557   7.185   1.750
  101GLOH   H02 9584   1.603   7.265   1.807
  101GLOH   H08 9585   1.608   7.182   1.653
  101GLOH    C2 9586   1.586   7.052   1.822
  101GLOH   H04 9587   1.695   7.047   1.838
  101GLOH    O2 9588   1.524   7.044   1.952
  101GLOH   H05 9589   1.563   6.964   2.000
  101GLOH    C3 9590   1.547   6.931   1.734
  101GLOH   H06 9591   1.451   6.951   1.688
  101GLOH   H07 9592   1.534   6.843   1.798
  101GLOH    O3 9593   1.647   6.905   1.634
  101GLOH   H01 9594   1.716   6.847   1.676
  102GLOH   H03 9595   5.546   3.476   1.662
  102GLOH    O1 9596   5.616   3.494   1.595
  102GLOH    C1 9597   5.549   3.516   1.469
  102GLOH   H02 9598   5.507   3.616   1.466
  102GLOH   H08 9599   5.465   3.447   1.458
  102GLOH    C2 9600   5.643   3.498   1.349
  102GLOH   H04 9601   5.683   3.395   1.353
  102GLOH    O2 9602   5.572   3.514   1.224
  102GLOH   H05 9603   5.507   3.589   1.232
  102GLOH    C3 9604   5.762   3.595   1.359
  102GLOH   H06 9605   5.724   3.697   1.354
  102GLOH   H07 9606   5.827   3.580   1.273
  102GLOH    O3 9607   5.832   3.573   1.482
  102GLOH   H01 9608   5.762   3.543   1.546
  103GLOH   H03 9609   1.921   3.707   1.786
  103GLOH    O1 9610   1.993   3.639   1.780
  103GLOH    C1 9611   2.117   3.702   1.818
  103GLOH   H02 9612   2.115   3.808   1.794
  103GLOH   H08 9613   2.200   3.659   1.763
  103GLOH    C2 9614   2.147   3.688   1.969
  103GLOH   H04 9615   2.244   3.737   1.988
  103GLOH    O2 9616   2.046   3.754   2.049
  103GLOH   H05 9617   1.965   3.696   2.054
  103GLOH    C3 9618   2.160   3.540   2.008
  103GLOH   H06 9619   2.062   3.493   1.997
  103GLOH   H07 9620   2.186   3.534   2.113
  103GLOH    O3 9621   2.257   3.470   1.928
  103GLOH   H01 9622   2.344   3.518   1.935
  104GLOH   H03 9623   2.717   9.112   2.230
  104GLOH    O1 9624   2.774   9.192   2.228
  104GLOH    C1 9625   2.713   9.293   2.144
  104GLOH   H02 9626   2.690   9.251   2.046
  104GLOH   H08 9627   2.783   9.375   2.127
  104GLOH    C2 9628   2.584   9.352   2.204
  104GLOH   H04 9629   2.612   9.402   2.298
  104GLOH    O2 9630   2.524   9.450   2.117
  104GLOH   H05 9631   2.509   9.408   2.026
  104GLOH    C3 9632   2.484   9.240   2.240
  104GLOH   H06 9633   2.388   9.286   2.264
  104GLOH   H07 9634   2.518   9.191   2.332
  104GLOH    O3 9635   2.468   9.143   2.135
  104GLOH   H01 9636   2.530   9.068   2.155
  105GLOH   H03 9637   1.243   5.596   1.432
  105GLOH    O1 9638   1.186   5.572   1.354
  105GLOH    C1 9639   1.093   5.677   1.325
  105GLOH   H02 9640   1.027   5.693   1.409
  105GLOH   H08 9641   1.030   5.649   1.241
  105GLOH    C2 9642   1.163   5.811   1.291
  105GLOH   H04 9643   1.241   5.828   1.367
  105GLOH    O2 9644   1.226   5.808   1.161
  105GLOH   H05 9645   1.176   5.746   1.099
  105GLOH    C3 9646   1.063   5.927   1.303
  105GLOH   H06 9647   0.981   5.909   1.233
  105GLOH   H07 9648   1.112   6.020   1.272
  105GLOH    O3 9649   1.012   5.940   1.437
  105GLOH   H01 9650   1.018   6.036   1.463
  106GLOH   H03 9651   3.179   6.864   2.370
  106GLOH    O1 9652   3.168   6.827   2.280
  106GLOH    C1 9653   3.239   6.701   2.272
  106GLOH   H02 9654   3.209   6.637   2.354
  106GLOH   H08 9655   3.347   6.717   2.281
  106GLOH    C2 9656   3.211   6.627   2.140
  106GLOH   H04 9657   3.232   6.696   2.056
  106GLOH    O2 9658   3.293   6.510   2.126
  106GLOH   H05 9659   3.311   6.471   2.216
  106GLOH    C3 9660   3.062   6.588   2.133
  106GLOH   H06 9661   3.042   6.512   2.208
  106GLOH   H07 9662   3.041   6.544   2.036
  106GLOH    O3 9663   2.978   6.703   2.155
  106GLOH   H01 9664   3.035   6.770   2.201
  107GLOH   H03 9665   4.259   3.768   1.263
  107GLOH    O1 9666   4.344   3.813   1.237
  107GLOH    C1 9667   4.350   3.814   1.092
  107GLOH   H02 9668   4.434   3.874   1.058
  107GLOH   H08 9669   4.260   3.859   1.051
  107GLOH    C2 9670   4.364   3.671   1.034
  107GLOH   H04 9671   4.280   3.611   1.072
  107GLOH    O2 9672   4.360   3.673   0.890
  107GLOH   H05 9673   4.263   3.660   0.864
  107GLOH    C3 9674   4.495   3.607   1.084
  107GLOH   H06 9675   4.580   3.661   1.043
  107GLOH   H07 9676   4.500   3.505   1.046
  107GLOH    O3 9677   4.499   3.606   1.228
  107GLOH   H01 9678   4.453   3.689   1.256
  108GLOH   H03 9679   4.504   1.840   0.040
  108GLOH    O1 9680   4.528   1.802   2.785
  108GLOH    C1 9681   4.519   1.659   2.791
  108GLOH   H02 9682   4.505   1.618   2.690
  108GLOH   H08 9683   4.432   1.628   0.017
  108GLOH    C2 9684   4.644   1.594   0.020
  108GLOH   H04 9685   4.626   1.485   0.028
  108GLOH    O2 9686   4.759   1.616   2.768
  108GLOH   H05 9687   4.749   1.703   2.724
  108GLOH    C3 9688   4.671   1.648   0.162
  108GLOH   H06 9689   4.692   1.755   0.154
  108GLOH   H07 9690   4.762   1.601   0.200
  108GLOH    O3 9691   4.561   1.626   0.252
  108GLOH   H01 9692   4.571   1.536   0.293
  109GLOH   H03 9693   5.478   3.739   2.530
  109GLOH    O1 9694   5.495   3.824   2.484
  109GLOH    C1 9695   5.517   3.921   2.589
  109GLOH   H02 9696   5.512   4.022   2.548
  109GLOH   H08 9697   5.617   3.909   2.631
  109GLOH    C2 9698   5.414   3.909   2.703
  109GLOH   H04 9699   5.316   3.938   2.664
  109GLOH    O2 9700   5.409   3.773   2.751
  109GLOH   H05 9701   5.348   3.766   2.827
  109GLOH    C3 9702   5.450   4.005   2.818
  109GLOH   H06 9703   5.548   3.977   0.026
  109GLOH   H07 9704   5.378   3.990   0.067
  109GLOH    O3 9705   5.450   4.142   2.776
  109GLOH   H01 9706   5.429   4.200   0.020
  110GLOH   H03 9707   2.939   0.376   0.022
  110GLOH    O1 9708   2.922   0.289   0.067
  110GLOH    C1 9709   2.792   0.245   0.023
  110GLOH   H02 9710   2.715   0.281   0.090
  110GLOH   H08 9711   2.787   0.136   0.024
  110GLOH    C2 9712   2.760   0.294   2.712
  110GLOH   H04 9713   2.833   0.250   2.642
  110GLOH    O2 9714   2.627   0.253   2.673
  110GLOH   H05 9715   2.631   0.173   2.618
  110GLOH    C3 9716   2.772   0.447   2.704
  110GLOH   H06 9717   2.695   0.491   2.768
  110GLOH   H07 9718   2.751   0.479   2.602
  110GLOH    O3 9719   2.903   0.494   2.745
  110GLOH   H01 9720   2.920   0.579   2.701
  111GLOH   H03 9721   2.525   5.517   2.099
  111GLOH    O1 9722   2.449   5.581   2.111
  111GLOH    C1 9723   2.447   5.672   2.000
  111GLOH   H02 9724   2.546   5.678   1.954
  111GLOH   H08 9725   2.423   5.772   2.034
  111GLOH    C2 9726   2.346   5.634   1.890
  111GLOH   H04 9727   2.351   5.711   1.812
  111GLOH    O2 9728   2.380   5.506   1.830
  111GLOH   H05 9729   2.378   5.434   1.901
  111GLOH    C3 9730   2.203   5.632   1.947
  111GLOH   H06 9731   2.191   5.718   2.013
  111GLOH   H07 9732   2.192   5.543   2.009
  111GLOH    O3 9733   2.102   5.633   1.845
  111GLOH   H01 9734   2.113   5.552   1.790
  112GLOH   H03 9735   4.569   4.809   0.927
  112GLOH    O1 9736   4.657   4.808   0.880
  112GLOH    C1 9737   4.640   4.870   0.751
  112GLOH   H02 9738   4.643   4.978   0.760
  112GLOH   H08 9739   4.543   4.844   0.709
  112GLOH    C2 9740   4.748   4.827   0.648
  112GLOH   H04 9741   4.729   4.722   0.622
  112GLOH    O2 9742   4.738   4.908   0.529
  112GLOH   H05 9743   4.755   5.003   0.553
  112GLOH    C3 9744   4.889   4.837   0.708
  112GLOH   H06 9745   4.908   4.940   0.738
  112GLOH   H07 9746   4.962   4.811   0.631
  112GLOH    O3 9747   4.903   4.749   0.822
  112GLOH   H01 9748   4.813   4.743   0.862
  113GLOH   H03 9749   3.768   0.387   1.975
  113GLOH    O1 9750   3.775   0.433   1.887
  113GLOH    C1 9751   3.888   0.522   1.892
  113GLOH   H02 9752   3.966   0.486   1.825
  113GLOH   H08 9753   3.931   0.523   1.993
  113GLOH    C2 9754   3.855   0.667   1.852
  113GLOH   H04 9755   3.807   0.664   1.753
  113GLOH    O2 9756   3.766   0.734   1.944
  113GLOH   H05 9757   3.740   0.671   2.018
  113GLOH    C3 9758   3.986   0.747   1.837
  113GLOH   H06 9759   3.961   0.852   1.825
  113GLOH   H07 9760   4.034   0.715   1.744
  113GLOH    O3 9761   4.077   0.729   1.947
  113GLOH   H01 9762   4.027   0.736   2.033
  114GLOH   H03 9763   9.374   4.003   1.923
  114GLOH    O1 9764   9.417   4.036   2.005
  114GLOH    C1 9765   9.443   4.177   1.989
  114GLOH   H02 9766   9.375   4.220   1.915
  114GLOH   H08 9767   9.544   4.193   1.953
  114GLOH    C2 9768   9.427   4.257   2.120
  114GLOH   H04 9769   9.503   4.220   2.191
  114GLOH    O2 9770   9.450   4.397   2.098
  114GLOH   H05 9771   9.548   4.416   2.091
  114GLOH    C3 9772   9.289   4.236   2.185
  114GLOH   H06 9773   9.214   4.233   2.105
  114GLOH   H07 9774   9.265   4.322   2.247
  114GLOH    O3 9775   9.283   4.115   2.263
  114GLOH   H01 9776   9.358   4.118   2.326
  115GLOH   H03 9777   0.468   4.155   0.776
  115GLOH    O1 9778   0.406   4.112   0.711
  115GLOH    C1 9779   0.319   4.213   0.656
  115GLOH   H02 9780   0.363   4.312   0.667
  115GLOH   H08 9781   0.224   4.213   0.709
  115GLOH    C2 9782   0.292   4.188   0.506
  115GLOH   H04 9783   0.252   4.086   0.495
  115GLOH    O2 9784   0.194   4.283   0.457
  115GLOH   H05 9785   0.102   4.252   0.482
  115GLOH    C3 9786   0.423   4.199   0.427
  115GLOH   H06 9787   0.495   4.129   0.470
  115GLOH   H07 9788   0.464   4.299   0.441
  115GLOH    O3 9789   0.405   4.171   0.288
  115GLOH   H01 9790   0.323   4.216   0.259
  116GLOH   H03 9791   4.944   3.881   0.987
  116GLOH    O1 9792   4.920   3.975   1.006
  116GLOH    C1 9793   4.936   3.999   1.147
  116GLOH   H02 9794   4.983   4.095   1.164
  116GLOH   H08 9795   5.001   3.924   1.192
  116GLOH    C2 9796   4.801   3.997   1.224
  116GLOH   H04 9797   4.756   3.897   1.210
  116GLOH    O2 9798   4.823   4.019   1.365
  116GLOH   H05 9799   4.840   4.117   1.381
  116GLOH    C3 9800   4.705   4.102   1.166
  116GLOH   H06 9801   4.751   4.200   1.174
  116GLOH   H07 9802   4.614   4.104   1.227
  116GLOH    O3 9803   4.672   4.074   1.029
  116GLOH   H01 9804   4.747   4.024   0.990
  117GLOH   H03 9805   3.385   7.837   2.510
  117GLOH    O1 9806   3.461   7.885   2.549
  117GLOH    C1 9807   3.424   8.023   2.568
  117GLOH   H02 9808   3.470   8.061   2.660
  117GLOH   H08 9809   3.316   8.033   2.580
  117GLOH    C2 9810   3.469   8.111   2.450
  117GLOH   H04 9811   3.421   8.072   2.359
  117GLOH    O2 9812   3.429   8.248   2.470
  117GLOH   H05 9813   3.497   8.289   2.528
  117GLOH    C3 9814   3.622   8.102   2.433
  117GLOH   H06 9815   3.651   8.163   2.348
  117GLOH   H07 9816   3.649   7.999   2.409
  117GLOH    O3 9817   3.692   8.145   2.551
  117GLOH   H01 9818   3.697   8.070   2.614
  118GLOH   H03 9819   2.247   8.349   2.224
  118GLOH    O1 9820   2.196   8.338   2.139
  118GLOH    C1 9821   2.126   8.212   2.141
  118GLOH   H02 9822   2.072   8.198   2.048
  118GLOH   H08 9823   2.053   8.211   2.222
  118GLOH    C2 9824   2.222   8.092   2.160
  118GLOH   H04 9825   2.270   8.102   2.258
  118GLOH    O2 9826   2.147   7.969   2.157
  118GLOH   H05 9827   2.093   7.963   2.074
  118GLOH    C3 9828   2.332   8.095   2.052
  118GLOH   H06 9829   2.376   8.195   2.049
  118GLOH   H07 9830   2.285   8.079   1.955
  118GLOH    O3 9831   2.436   7.997   2.073
  118GLOH   H01 9832   2.403   7.914   2.031
  119GLOH   H03 9833   4.250   9.940   0.169
  119GLOH    O1 9834   4.244   0.037   0.165
  119GLOH    C1 9835   4.309   0.096   0.279
  119GLOH   H02 9836   4.327   0.202   0.260
  119GLOH   H08 9837   4.407   0.050   0.295
  119GLOH    C2 9838   4.228   0.083   0.409
  119GLOH   H04 9839   4.211   9.976   0.428
  119GLOH    O2 9840   4.304   0.140   0.518
  119GLOH   H05 9841   4.316   0.238   0.504
  119GLOH    C3 9842   4.091   0.152   0.393
  119GLOH   H06 9843   4.042   0.111   0.304
  119GLOH   H07 9844   4.108   0.258   0.374
  119GLOH    O3 9845   4.006   0.135   0.508
  119GLOH   H01 9846   3.972   0.041   0.508
  120GLOH   H03 9847   3.345   0.248   2.571
  120GLOH    O1 9848   3.303   0.309   2.508
  120GLOH    C1 9849   3.359   0.441   2.525
  120GLOH   H02 9850   3.462   0.443   2.488
  120GLOH   H08 9851   3.363   0.467   2.631
  120GLOH    C2 9852   3.280   0.550   2.451
  120GLOH   H04 9853   3.182   0.561   2.501
  120GLOH    O2 9854   3.351   0.675   2.462
  120GLOH   H05 9855   3.305   0.749   2.412
  120GLOH    C3 9856   3.254   0.507   2.306
  120GLOH   H06 9857   3.185   0.422   2.308
  120GLOH   H07 9858   3.348   0.469   2.265
  120GLOH    O3 9859   3.201   0.610   2.221
  120GLOH   H01 9860   3.136   0.665   2.270
  121ACOH    H4 9861   2.512   1.083   1.931
  121ACOH    O2 9862   2.527   1.121   2.022
  121ACOH    C2 9863   2.655   1.092   2.051
  121ACOH    O1 9864   2.744   1.070   1.970
  121ACOH    C1 9865   2.681   1.118   2.195
  121ACOH    H1 9866   2.788   1.114   2.215
  121ACOH    H2 9867   2.631   1.043   2.254
  121ACOH    H3 9868   2.643   1.216   2.221
  122ACOH    H4 9869   3.085   6.998   1.097
  122ACOH    O2 9870   3.151   6.983   1.024
  122ACOH    C2 9871   3.215   6.866   1.047
  122ACOH    O1 9872   3.279   6.806   0.963
  122ACOH    C1 9873   3.189   6.802   1.179
  122ACOH    H1 9874   3.283   6.780   1.228
  122ACOH    H2 9875   3.134   6.709   1.164
  122ACOH    H3 9876   3.131   6.867   1.244
  123ACOH    H4 9877   2.520   6.731   0.552
  123ACOH    O2 9878   2.435   6.748   0.501
  123ACOH    C2 9879   2.406   6.634   0.436
  123ACOH    O1 9880   2.453   6.523   0.456
  123ACOH    C1 9881   2.291   6.654   0.344
  123ACOH    H1 9882   2.315   6.616   0.246
  123ACOH    H2 9883   2.266   6.760   0.335
  123ACOH    H3 9884   2.204   6.601   0.382
  124ACOH    H4 9885   9.688   3.542   0.316
  124ACOH    O2 9886   9.598   3.501   0.309
  124ACOH    C2 9887   9.569   3.443   0.427
  124ACOH    O1 9888   9.643   3.435   0.523
  124ACOH    C1 9889   9.432   3.388   0.425
  124ACOH    H1 9890   9.408   3.343   0.521
  124ACOH    H2 9891   9.425   3.312   0.348
  124ACOH    H3 9892   9.361   3.467   0.403
  125ACOH    H4 9893   0.588   3.001   1.068
  125ACOH    O2 9894   0.557   2.960   1.153
  125ACOH    C2 9895   0.435   3.011   1.179
  125ACOH    O1 9896   0.381   3.104   1.122
  125ACOH    C1 9897   0.376   2.951   1.301
  125ACOH    H1 9898   0.436   2.867   1.335
  125ACOH    H2 9899   0.275   2.916   1.280
  125ACOH    H3 9900   0.372   3.025   1.380
  126ACOH    H4 9901   1.628   0.069   1.650
  126ACOH    O2 9902   1.588   0.047   1.738
  126ACOH    C2 9903   1.668   9.956   1.797
  126ACOH    O1 9904   1.767   9.904   1.749
  126ACOH    C1 9905   1.622   9.924   1.934
  126ACOH    H1 9906   1.532   9.980   1.958
  126ACOH    H2 9907   1.699   9.949   2.005
  126ACOH    H3 9908   1.599   9.817   1.941
  127ACOH    H4 9909   4.657   0.424   1.378
  127ACOH    O2 9910   4.710   0.429   1.463
  127ACOH    C2 9911   4.626   0.406   1.565
  127ACOH    O1 9912   4.509   0.372   1.559
  127ACOH    C1 9913   4.697   0.418   1.695
  127ACOH    H1 9914   4.643   0.486   1.760
  127ACOH    H2 9915   4.797   0.457   1.680
  127ACOH    H3 9916   4.704   0.321   1.743
  128ACOH    H4 9917   3.859   7.739   0.343
  128ACOH    O2 9918   3.853   7.647   0.305
  128ACOH    C2 9919   3.758   7.582   0.374
  128ACOH    O1 9920   3.681   7.629   0.455
  128ACOH    C1 9921   3.753   7.440   0.330
  128ACOH    H1 9922   3.670   7.388   0.378
  128ACOH    H2 9923   3.846   7.391   0.356
  128ACOH    H3 9924   3.740   7.436   0.222
  129ACOH    H4 9925   5.263   9.619   1.724
  129ACOH    O2 9926   5.342   9.564   1.714
  129ACOH    C2 9927   5.396   9.553   1.836
  129ACOH    O1 9928   5.352   9.601   1.939
  129ACOH    C1 9929   5.520   9.471   1.835
  129ACOH    H1 9930   5.546   9.442   1.734
  129ACOH    H2 9931   5.504   9.382   1.895
  129ACOH    H3 9932   5.601   9.529   1.878
  130ACOH    H4 9933   4.738   0.912   2.365
  130ACOH    O2 9934   4.680   0.832   2.348
  130ACOH    C2 9935   4.707   0.798   2.221
  130ACOH    O1 9936   4.814   0.810   2.164
  130ACOH    C1 9937   4.599   0.714   2.164
  130ACOH    H1 9938   4.506   0.728   2.218
  130ACOH    H2 9939   4.628   0.610   2.166
  130ACOH    H3 9940   4.583   0.743   2.060
  131ACOH    H4 9941   9.753   5.882   1.411
  131ACOH    O2 9942   9.665   5.901   1.453
  131ACOH    C2 9943   9.573   5.826   1.390
  131ACOH    O1 9944   9.594   5.741   1.305
  131ACOH    C1 9945   9.436   5.856   1.439
  131ACOH    H1 9946   9.373   5.884   1.355
  131ACOH    H2 9947   9.439   5.938   1.510
  131ACOH    H3 9948   9.395   5.768   1.487
  132ACOH    H4 9949   9.261   5.394   0.952
  132ACOH    O2 9950   9.200   5.450   0.896
  132ACOH    C2 9951   9.248   5.575   0.899
  132ACOH    O1 9952   9.360   5.608   0.934
  132ACOH    C1 9953   9.157   5.669   0.830
  132ACOH    H1 9954   9.202   5.701   0.736
  132ACOH    H2 9955   9.139   5.756   0.892
  132ACOH    H3 9956   9.062   5.621   0.808
  133ACOH    H4 9957   9.355   3.418   1.428
  133ACOH    O2 9958   9.343   3.320   1.415
  133ACOH    C2 9959   9.437   3.280   1.327
  133ACOH    O1 9960   9.514   3.350   1.264
  133ACOH    C1 9961   9.434   3.133   1.309
  133ACOH    H1 9962   9.408   3.109   1.206
  133ACOH    H2 9963   9.361   3.087   1.376
  133ACOH    H3 9964   9.532   3.091   1.331
  134ACOH    H4 9965   5.318   2.743   2.275
  134ACOH    O2 9966   5.348   2.651   2.248
  134ACOH    C2 9967   5.240   2.571   2.247
  134ACOH    O1 9968   5.127   2.597   2.286
  134ACOH    C1 9969   5.277   2.435   2.203
  134ACOH    H1 9970   5.212   2.404   2.121
  134ACOH    H2 9971   5.266   2.365   2.285
  134ACOH    H3 9972   5.380   2.433   2.167
  135ACOH    H4 9973   0.154   3.565   1.600
  135ACOH    O2 9974   0.224   3.496   1.604
  135ACOH    C2 9975   0.166   3.379   1.635
  135ACOH    O1 9976   0.046   3.357   1.645
  135ACOH    C1 9977   0.267   3.271   1.647
  135ACOH    H1 9978   0.323   3.264   1.554
  135ACOH    H2 9979   0.219   3.175   1.667
  135ACOH    H3 9980   0.334   3.295   1.729
  136ACOH    H4 9981   1.644   1.178   2.366
  136ACOH    O2 9982   1.565   1.119   2.363
  136ACOH    C2 9983   1.602   1.006   2.300
  136ACOH    O1 9984   1.714   0.981   2.258
  136ACOH    C1 9985   1.489   0.911   2.285
  136ACOH    H1 9986   1.514   0.818   2.334
  136ACOH    H2 9987   1.472   0.892   2.179
  136ACOH    H3 9988   1.399   0.952   2.329
  137ACOH    H4 9989   8.992   4.653   1.234
  137ACOH    O2 9990   8.937   4.620   1.310
  137ACOH    C2 9991   9.004   4.649   1.423
  137ACOH    O1 9992   9.103   4.719   1.435
  137ACOH    C1 9993   8.937   4.585   1.538
  137ACOH    H1 9994   8.935   4.478   1.523
  137ACOH    H2 9995   8.835   4.622   1.545
  137ACOH    H3 9996   8.990   4.607   1.631
  138ACOH    H4 9997   1.388   2.196   1.839
  138ACOH    O2 9998   1.311   2.191   1.775
  138ACOH    C2 9999   1.318   2.299   1.696
  138ACOH    O110000   1.402   2.387   1.698
  138ACOH    C110001   1.203   2.302   1.602
  138ACOH    H110002   1.206   2.214   1.539
  138ACOH    H210003   1.207   2.391   1.539
  138ACOH    H310004   1.110   2.302   1.658
  139ACOH    H410005   5.543   4.247   0.527
  139ACOH    O210006   5.614   4.253   0.597
  139ACOH    C210007   5.640   4.127   0.635
  139ACOH    O110008   5.599   4.025   0.582
  139ACOH    C110009   5.736   4.125   0.748
  139ACOH    H110010   5.690   4.172   0.834
  139ACOH    H210011   5.825   4.181   0.720
  139ACOH    H310012   5.764   4.023   0.773
  140ACOH    H410013   4.704   8.784   0.969
  140ACOH    O210014   4.795   8.823   0.979
  140ACOH    C210015   4.783   8.939   1.047
  140ACOH    O110016   4.680   8.993   1.082
  140ACOH    C110017   4.916   9.001   1.067
  140ACOH    H110018   4.995   8.932   1.040
  140ACOH    H210019   4.928   9.030   1.171
  140ACOH    H310020   4.924   9.089   1.004
  141ACOH    H410021   3.398   6.428   0.138
  141ACOH    O210022   3.494   6.402   0.135
  141ACOH    C210023   3.507   6.298   0.219
  141ACOH    O110024   3.432   6.269   0.311
  141ACOH    C110025   3.638   6.232   0.197
  141ACOH    H110026   3.718   6.303   0.216
  141ACOH    H210027   3.645   6.199   0.094
  141ACOH    H310028   3.649   6.146   0.263
  142ACOH    H410029   5.976   3.561   1.444
  142ACOH    O210030   6.072   3.558   1.417
  142ACOH    C210031   6.088   3.452   1.337
  142ACOH    O110032   6.007   3.364   1.314
  142ACOH    C110033   6.227   3.445   1.284
  142ACOH    H110034   6.276   3.357   1.323
  142ACOH    H210035   6.283   3.533   1.312
  142ACOH    H310036   6.224   3.438   1.175
  143ACOH    H410037   1.929   7.788   0.513
  143ACOH    O210038   1.858   7.815   0.576
  143ACOH    C210039   1.749   7.842   0.501
  143ACOH    O110040   1.746   7.852   0.380
  143ACOH    C110041   1.633   7.876   0.586
  143ACOH    H110042   1.608   7.981   0.570
  143ACOH    H210043   1.655   7.860   0.691
  143ACOH    H310044   1.548   7.815   0.558
  144ACOH    H410045   5.253   1.848   1.174
  144ACOH    O210046   5.344   1.821   1.205
  144ACOH    C210047   5.407   1.772   1.097
  144ACOH    O110048   5.356   1.726   0.996
  144ACOH    C110049   5.552   1.757   1.125
  144ACOH    H110050   5.602   1.707   1.043
  144ACOH    H210051   5.565   1.700   1.216
  144ACOH    H310052   5.594   1.856   1.139
  145ACOH    H410053   4.257   8.537   1.524
  145ACOH    O210054   4.347   8.512   1.489
  145ACOH    C210055   4.329   8.449   1.372
  145ACOH    O110056   4.223   8.416   1.321
  145ACOH    C110057   4.460   8.413   1.313
  145ACOH    H110058   4.448   8.360   1.219
  145ACOH    H210059   4.515   8.350   1.382
  145ACOH    H310060   4.517   8.504   1.295
  146ACOH    H410061   3.662   7.847   1.367
  146ACOH    O210062   3.712   7.832   1.451
  146ACOH    C210063   3.715   7.699   1.471
  146ACOH    O110064   3.677   7.613   1.394
  146ACOH    C110065   3.782   7.666   1.600
  146ACOH    H110066   3.803   7.757   1.656
  146ACOH    H210067   3.876   7.615   1.579
  146ACOH    H310068   3.718   7.601   1.659
  147ACOH    H410069   3.390   2.348   0.253
  147ACOH    O210070   3.346   2.280   0.306
  147ACOH    C210071   3.236   2.338   0.358
  147ACOH    O110072   3.198   2.452   0.334
  147ACOH    C110073   3.159   2.245   0.444
  147ACOH    H110074   3.146   2.289   0.543
  147ACOH    H210075   3.210   2.150   0.455
  147ACOH    H310076   3.061   2.228   0.401
  148ACOH    H410077   4.122   8.188   2.189
  148ACOH    O210078   4.134   8.196   2.089
  148ACOH    C210079   4.020   8.251   2.042
  148ACOH    O110080   3.922   8.281   2.107
  148ACOH    C110081   4.033   8.277   1.897
  148ACOH    H110082   4.054   8.184   1.845
  148ACOH    H210083   4.114   8.347   1.879
  148ACOH    H310084   3.940   8.319   1.858
  149ACOH    H410085   9.093   4.362   1.272
  149ACOH    O210086   9.089   4.321   1.362
  149ACOH    C210087   9.197   4.365   1.430
  149ACOH    O110088   9.282   4.442   1.390
  149ACOH    C110089   9.201   4.306   1.566
  149ACOH    H110090   9.287   4.342   1.622
  149ACOH    H210091   9.207   4.198   1.559
  149ACOH    H310092   9.110   4.332   1.619
  150ACOH    H410093   9.151   5.154   0.125
  150ACOH    O210094   9.059   5.174   0.094
  150ACOH    C210095   9.055   5.306   0.066
  150ACOH    O110096   9.150   5.381   0.058
  150ACOH    C110097   8.916   5.348   0.035
  150ACOH    H110098   8.856   5.340   0.124
  150ACOH    H210099   8.875   5.283   2.791
  150ACOH    H310100   8.915   5.450   2.831
  151ACOH    H410101   9.378   5.371   1.826
  151ACOH    O210102   9.392   5.464   1.793
  151ACOH    C210103   9.446   5.533   1.896
  151ACOH    O110104   9.452   5.497   2.012
  151ACOH    C110105   9.488   5.668   1.851
  151ACOH    H110106   9.405   5.718   1.802
  151ACOH    H210107   9.571   5.658   1.781
  151ACOH    H310108   9.521   5.727   1.936
  152ACOH    H410109   0.870   4.040   1.096
  152ACOH    O210110   0.955   4.089   1.115
  152ACOH    C210111   0.986   4.062   1.244
  152ACOH    O110112   0.912   4.012   1.326
  152ACOH    C110113   1.122   4.109   1.278
  152ACOH    H110114   1.180   4.026   1.318
  152ACOH    H210115   1.117   4.187   1.353
  152ACOH    H310116   1.173   4.149   1.190
  153ACOH    H410117   2.261   5.501   0.630
  153ACOH    O210118   2.264   5.514   0.728
  153ACOH    C210119   2.204   5.632   0.754
  153ACOH    O110120   2.174   5.718   0.673
  153ACOH    C110121   2.184   5.648   0.899
  153ACOH    H110122   2.116   5.571   0.936
  153ACOH    H210123   2.142   5.745   0.922
  153ACOH    H310124   2.279   5.638   0.951
  154ACOH    H410125   2.144   0.672   0.389
  154ACOH    O210126   2.044   0.667   0.384
  154ACOH    C210127   1.997   0.677   0.510
  154ACOH    O110128   2.059   0.719   0.606
  154ACOH    C110129   1.850   0.664   0.513
  154ACOH    H110130   1.804   0.760   0.532
  154ACOH    H210131   1.822   0.595   0.592
  154ACOH    H310132   1.813   0.625   0.419
  155ACOH    H410133   8.886   5.062   0.706
  155ACOH    O210134   8.925   5.152   0.705
  155ACOH    C210135   9.041   5.143   0.636
  155ACOH    O110136   9.088   5.043   0.585
  155ACOH    C110137   9.109   5.275   0.630
  155ACOH    H110138   9.128   5.301   0.526
  155ACOH    H210139   9.203   5.269   0.684
  155ACOH    H310140   9.048   5.352   0.676
  156ACOH    H410141   5.182   1.534   0.314
  156ACOH    O210142   5.258   1.594   0.295
  156ACOH    C210143   5.215   1.685   0.206
  156ACOH    O110144   5.102   1.697   0.164
  156ACOH    C110145   5.323   1.780   0.169
  156ACOH    H110146   5.418   1.749   0.211
  156ACOH    H210147   5.298   1.879   0.208
  156ACOH    H310148   5.331   1.786   0.061
  157ACOH    H410149   5.635   2.776   1.234
  157ACOH    O210150   5.608   2.683   1.211
  157ACOH    C210151   5.481   2.685   1.168
  157ACOH    O110152   5.408   2.782   1.159
  157ACOH    C110153   5.434   2.547   1.139
  157ACOH    H110154   5.491   2.506   1.056
  157ACOH    H210155   5.329   2.545   1.114
  157ACOH    H310156   5.450   2.484   1.226
  158ACOH    H410157   1.597   8.221   0.623
  158ACOH    O210158   1.498   8.206   0.611
  158ACOH    C210159   1.451   8.160   0.728
  158ACOH    O110160   1.511   8.153   0.834
  158ACOH    C110161   1.308   8.122   0.714
  158ACOH    H110162   1.300   8.042   0.641
  158ACOH    H210163   1.252   8.208   0.679
  158ACOH    H310164   1.268   8.089   0.809
  159ACOH    H410165   2.119   2.262   1.755
  159ACOH    O210166   2.216   2.257   1.734
  159ACOH    C210167   2.260   2.383   1.716
  159ACOH    O110168   2.200   2.486   1.741
  159ACOH    C110169   2.402   2.381   1.672
  159ACOH    H110170   2.443   2.482   1.671
  159ACOH    H210171   2.409   2.338   1.573
  159ACOH    H310172   2.460   2.320   1.741
  160ACOH    H410173   4.337   8.732   1.932
  160ACOH    O210174   4.306   8.826   1.921
  160ACOH    C210175   4.282   8.876   2.044
  160ACOH    O110176   4.295   8.818   2.151
  160ACOH    C110177   4.237   9.016   2.036
  160ACOH    H110178   4.231   9.050   1.932
  160ACOH    H210179   4.306   9.081   2.089
  160ACOH    H310180   4.138   9.026   2.080
  161ACOH    H410181   4.916   0.873   1.230
  161ACOH    O210182   4.958   0.820   1.303
  161ACOH    C210183   4.961   0.692   1.262
  161ACOH    O110184   4.936   0.651   1.150
  161ACOH    C110185   5.003   0.603   1.373
  161ACOH    H110186   5.005   0.500   1.340
  161ACOH    H210187   4.933   0.614   1.455
  161ACOH    H310188   5.102   0.633   1.406
  162ACOH    H410189   4.225   0.455   1.791
  162ACOH    O210190   4.191   0.419   1.878
  162ACOH    C210191   4.275   0.466   1.973
  162ACOH    O110192   4.394   0.487   1.956
  162ACOH    C110193   4.217   0.452   2.108
  162ACOH    H110194   4.110   0.435   2.103
  162ACOH    H210195   4.235   0.544   2.165
  162ACOH    H310196   4.264   0.369   2.160
  163ACOH    H410197   5.858   2.995   1.699
  163ACOH    O210198   5.922   3.068   1.719
  163ACOH    C210199   5.870   3.182   1.671
  163ACOH    O110200   5.772   3.194   1.600
  163ACOH    C110201   5.959   3.296   1.704
  163ACOH    H110202   6.060   3.274   1.670
  163ACOH    H210203   5.960   3.311   1.812
  163ACOH    H310204   5.924   3.387   1.655
  164ACOH    H410205   5.331   3.683   1.813
  164ACOH    O210206   5.271   3.656   1.739
  164ACOH    C210207   5.286   3.522   1.728
  164ACOH    O110208   5.391   3.464   1.749
  164ACOH    C110209   5.180   3.463   1.643
  164ACOH    H110210   5.217   3.447   1.542
  164ACOH    H210211   5.093   3.528   1.640
  164ACOH    H310212   5.149   3.367   1.685
  165ACOH    H410213   3.050   2.921   1.644
  165ACOH    O210214   3.093   3.006   1.613
  165ACOH    C210215   3.061   3.018   1.483
  165ACOH    O110216   2.972   2.956   1.425
  165ACOH    C110217   3.126   3.136   1.421
  165ACOH    H110218   3.166   3.109   1.324
  165ACOH    H210219   3.207   3.171   1.484
  165ACOH    H310220   3.053   3.216   1.408
  166ACOH    H410221   4.504   0.371   0.827
  166ACOH    O210222   4.559   0.328   0.756
  166ACOH    C210223   4.651   0.418   0.718
  166ACOH    O110224   4.671   0.528   0.766
  166ACOH    C110225   4.733   0.364   0.607
  166ACOH    H110226   4.781   0.272   0.640
  166ACOH    H210227   4.809   0.435   0.576
  166ACOH    H310228   4.668   0.341   0.523
  167ACOH    H410229   0.517   3.002   2.347
  167ACOH    O210230   0.506   2.929   2.414
  167ACOH    C210231   0.621   2.859   2.415
  167ACOH    O110232   0.719   2.875   2.345
  167ACOH    C110233   0.613   2.751   2.517
  167ACOH    H110234   0.706   2.695   2.520
  167ACOH    H210235   0.531   2.684   2.492
  167ACOH    H310236   0.594   2.795   2.614
  168ACOH    H410237   9.349   5.389   1.167
  168ACOH    O210238   9.360   5.446   1.247
  168ACOH    C210239   9.363   5.363   1.354
  168ACOH    O110240   9.335   5.245   1.354
  168ACOH    C110241   9.392   5.438   1.478
  168ACOH    H110242   9.303   5.440   1.541
  168ACOH    H210243   9.422   5.540   1.455
  168ACOH    H310244   9.472   5.389   1.532
  169ACOH    H410245   4.645   8.888   0.399
  169ACOH    O210246   4.631   8.868   0.493
  169ACOH    C210247   4.642   8.985   0.559
  169ACOH    O110248   4.652   9.095   0.508
  169ACOH    C110249   4.623   8.968   0.705
  169ACOH    H110250   4.625   8.863   0.732
  169ACOH    H210251   4.528   9.010   0.734
  169ACOH    H310252   4.702   9.020   0.759
  170ACOH    H410253   4.995   4.692   1.103
  170ACOH    O210254   5.031   4.607   1.066
  170ACOH    C210255   4.962   4.505   1.120
  170ACOH    O110256   4.881   4.511   1.210
  170ACOH    C110257   5.002   4.376   1.061
  170ACOH    H110258   5.077   4.391   0.983
  170ACOH    H210259   4.915   4.327   1.018
  170ACOH    H310260   5.045   4.312   1.138
  171ACOH    H410261   4.452   8.363   1.994
  171ACOH    O210262   4.510   8.378   1.915
  171ACOH    C210263   4.475   8.495   1.861
  171ACOH    O110264   4.394   8.575   1.906
  171ACOH    C110265   4.556   8.523   1.740
  171ACOH    H110266   4.661   8.520   1.765
  171ACOH    H210267   4.531   8.620   1.698
  171ACOH    H310268   4.536   8.446   1.665
  172ACOH    H410269   9.187   4.005   2.227
  172ACOH    O210270   9.133   3.922   2.224
  172ACOH    C210271   9.063   3.923   2.110
  172ACOH    O110272   9.087   3.989   2.010
  172ACOH    C110273   8.966   3.811   2.105
  172ACOH    H110274   9.002   3.734   2.038
  172ACOH    H210275   8.870   3.847   2.069
  172ACOH    H310276   8.952   3.768   2.205
  173ACOH    H410277   4.965   4.502   1.920
  173ACOH    O210278   5.055   4.546   1.929
  173ACOH    C210279   5.033   4.678   1.917
  173ACOH    O110280   4.926   4.733   1.900
  173ACOH    C110281   5.160   4.752   1.932
  173ACOH    H110282   5.226   4.726   1.850
  173ACOH    H210283   5.207   4.724   2.026
  173ACOH    H310284   5.142   4.859   1.931
  174ACOH    H410285   5.022   1.391   1.497
  174ACOH    O210286   5.031   1.490   1.508
  174ACOH    C210287   4.974   1.520   1.627
  174ACOH    O110288   4.890   1.454   1.685
  174ACOH    C110289   5.011   1.658   1.668
  174ACOH    H110290   4.954   1.688   1.756
  174ACOH    H210291   4.989   1.727   1.587
  174ACOH    H310292   5.117   1.662   1.691
  175ACOH    H410293   1.517   1.804   2.072
  175ACOH    O210294   1.456   1.842   2.004
  175ACOH    C210295   1.506   1.810   1.884
  175ACOH    O110296   1.592   1.726   1.862
  175ACOH    C110297   1.433   1.879   1.775
  175ACOH    H110298   1.462   1.984   1.774
  175ACOH    H210299   1.326   1.874   1.794
  175ACOH    H310300   1.455   1.834   1.679
  176ACOH    H410301   3.571   3.108   1.362
  176ACOH    O210302   3.625   3.166   1.421
  176ACOH    C210303   3.552   3.276   1.447
  176ACOH    O110304   3.436   3.296   1.417
  176ACOH    C110305   3.632   3.374   1.524
  176ACOH    H110306   3.723   3.329   1.561
  176ACOH    H210307   3.573   3.413   1.607
  176ACOH    H310308   3.659   3.456   1.458
  177ACOH    H410309   3.048   7.709   1.491
  177ACOH    O210310   3.098   7.693   1.407
  177ACOH    C210311   3.223   7.654   1.441
  177ACOH    O110312   3.268   7.641   1.553
  177ACOH    C110313   3.303   7.631   1.319
  177ACOH    H110314   3.313   7.723   1.263
  177ACOH    H210315   3.254   7.557   1.257
  177ACOH    H310316   3.403   7.595   1.345
  178ACOH    H410317   5.419   4.263   0.903
  178ACOH    O210318   5.492   4.327   0.882
  178ACOH    C210319   5.431   4.444   0.851
  178ACOH    O110320   5.318   4.476   0.881
  178ACOH    C110321   5.526   4.539   0.789
  178ACOH    H110322   5.618   4.489   0.761
  178ACOH    H210323   5.548   4.619   0.859
  178ACOH    H310324   5.481   4.582   0.699
  179ACOH    H410325   2.159   9.156   2.007
  179ACOH    O210326   2.070   9.192   2.037
  179ACOH    C210327   2.009   9.093   2.105
  179ACOH    O110328   2.063   8.995   2.153
  179ACOH    C110329   1.869   9.130   2.136
  179ACOH    H110330   1.824   9.055   2.201
  179ACOH    H210331   1.812   9.134   2.043
  179ACOH    H310332   1.866   9.226   2.184
  180ACOH    H410333   4.447   5.201   0.777
  180ACOH    O210334   4.469   5.274   0.712
  180ACOH    C210335   4.367   5.362   0.717
  180ACOH    O110336   4.282   5.370   0.803
  180ACOH    C110337   4.377   5.464   0.610
  180ACOH    H110338   4.399   5.561   0.654
  180ACOH    H210339   4.283   5.470   0.556
  180ACOH    H310340   4.456   5.439   0.539
  181ACOH    H410341   5.639   3.143   1.958
  181ACOH    O210342   5.633   3.045   1.950
  181ACOH    C210343   5.560   3.000   2.054
  181ACOH    O110344   5.497   3.068   2.133
  181ACOH    C110345   5.554   2.852   2.055
  181ACOH    H110346   5.583   2.815   2.153
  181ACOH    H210347   5.620   2.810   1.980
  181ACOH    H310348   5.452   2.819   2.035
  182ACOH    H410349   4.543   9.856   2.436
  182ACOH    O210350   4.567   9.762   2.417
  182ACOH    C210351   4.452   9.698   2.389
  182ACOH    O110352   4.341   9.747   2.377
  182ACOH    C110353   4.474   9.552   2.370
  182ACOH    H110354   4.439   9.522   2.273
  182ACOH    H210355   4.420   9.497   2.446
  182ACOH    H310356   4.580   9.529   2.378
  183ACOH    H410357   5.002   4.392   0.364
  183ACOH    O210358   5.038   4.472   0.318
  183ACOH    C210359   4.978   4.578   0.376
  183ACOH    O110360   4.879   4.571   0.447
  183ACOH    C110361   5.033   4.706   0.328
  183ACOH    H110362   4.977   4.790   0.368
  183ACOH    H210363   5.029   4.710   0.219
  183ACOH    H310364   5.137   4.715   0.359
  184ACOH    H410365   8.865   4.750   0.537
  184ACOH    O210366   8.781   4.720   0.582
  184ACOH    C210367   8.753   4.807   0.681
  184ACOH    O110368   8.821   4.902   0.716
  184ACOH    C110369   8.628   4.772   0.752
  184ACOH    H110370   8.649   4.750   0.856
  184ACOH    H210371   8.581   4.685   0.706
  184ACOH    H310372   8.559   4.856   0.747
  185ACOH    H410373   3.497   7.882   1.947
  185ACOH    O210374   3.485   7.804   2.008
  185ACOH    C210375   3.522   7.845   2.130
  185ACOH    O110376   3.560   7.957   2.160
  185ACOH    C110377   3.510   7.736   2.229
  185ACOH    H110378   3.406   7.705   2.237
  185ACOH    H210379   3.546   7.768   2.326
  185ACOH    H310380   3.569   7.650   2.196
  186ACOH    H410381   3.332   6.474   2.465
  186ACOH    O210382   3.359   6.441   2.374
  186ACOH    C210383   3.470   6.368   2.393
  186ACOH    O110384   3.530   6.352   2.497
  186ACOH    C110385   3.517   6.311   2.264
  186ACOH    H110386   3.536   6.391   2.193
  186ACOH    H210387   3.442   6.244   2.224
  186ACOH    H310388   3.610   6.255   2.279
  187ACOH    H410389   9.166   3.752   1.049
  187ACOH    O210390   9.146   3.659   1.018
  187ACOH    C210391   9.262   3.608   0.971
  187ACOH    O110392   9.370   3.664   0.968
  187ACOH    C110393   9.242   3.473   0.915
  187ACOH    H110394   9.261   3.475   0.808
  187ACOH    H210395   9.140   3.438   0.932
  187ACOH    H310396   9.311   3.403   0.961
  188ACOH    H410397   2.247   8.180   0.874
  188ACOH    O210398   2.287   8.142   0.958
  188ACOH    C210399   2.339   8.022   0.924
  188ACOH    O110400   2.375   7.989   0.813
  188ACOH    C110401   2.381   7.947   1.045
  188ACOH    H110402   2.352   7.843   1.035
  188ACOH    H210403   2.334   7.988   1.134
  188ACOH    H310404   2.489   7.953   1.056
  189ACOH    H410405   5.519   4.039   2.199
  189ACOH    O210406   5.525   4.133   2.167
  189ACOH    C210407   5.427   4.201   2.229
  189ACOH    O110408   5.338   4.154   2.297
  189ACOH    C110409   5.428   4.345   2.192
  189ACOH    H110410   5.428   4.405   2.282
  189ACOH    H210411   5.340   4.368   2.134
  189ACOH    H310412   5.517   4.368   2.134
  190ACOH    H410413   4.147   5.477   0.804
  190ACOH    O210414   4.081   5.551   0.797
  190ACOH    C210415   3.994   5.533   0.898
  190ACOH    O110416   3.997   5.444   0.982
  190ACOH    C110417   3.895   5.643   0.902
  190ACOH    H110418   3.835   5.640   0.812
  190ACOH    H210419   3.947   5.739   0.908
  190ACOH    H310420   3.829   5.632   0.988
  191ACOH    H410421   1.827   3.598   1.094
  191ACOH    O210422   1.868   3.506   1.091
  191ACOH    C210423   1.782   3.427   1.159
  191ACOH    O110424   1.702   3.463   1.242
  191ACOH    C110425   1.817   3.284   1.141
  191ACOH    H110426   1.889   3.271   1.061
  191ACOH    H210427   1.728   3.227   1.118
  191ACOH    H310428   1.860   3.245   1.233
  192ACOH    H410429   3.794   5.751   2.160
  192ACOH    O210430   3.885   5.726   2.192
  192ACOH    C210431   3.884   5.737   2.326
  192ACOH    O110432   3.791   5.772   2.396
  192ACOH    C110433   4.014   5.693   2.383
  192ACOH    H110434   4.013   5.703   2.492
  192ACOH    H210435   4.095   5.752   2.343
  192ACOH    H310436   4.031   5.589   2.358
  193ACOH    H410437   4.813   5.315   1.765
  193ACOH    O210438   4.852   5.405   1.785
  193ACOH    C210439   4.763   5.497   1.744
  193ACOH    O110440   4.660   5.477   1.682
  193ACOH    C110441   4.807   5.633   1.785
  193ACOH    H110442   4.902   5.656   1.739
  193ACOH    H210443   4.819   5.636   1.893
  193ACOH    H310444   4.733   5.707   1.755
  194ACOH    H410445   0.459   3.906   1.760
  194ACOH    O210446   0.412   3.871   1.678
  194ACOH    C210447   0.350   3.973   1.616
  194ACOH    O110448   0.299   3.961   1.506
  194ACOH    C110449   0.361   4.105   1.682
  194ACOH    H110450   0.317   4.183   1.620
  194ACOH    H210451   0.466   4.130   1.700
  194ACOH    H310452   0.309   4.103   1.778
  195ACOH    H410453   4.384   0.140   2.638
  195ACOH    O210454   4.381   0.194   2.557
  195ACOH    C210455   4.442   0.120   2.462
  195ACOH    O110456   4.504   0.017   2.480
  195ACOH    C110457   4.432   0.186   2.329
  195ACOH    H110458   4.484   0.128   2.254
  195ACOH    H210459   4.476   0.286   2.334
  195ACOH    H310460   4.328   0.194   2.301
  196ACOH    H410461   1.626   1.091   1.811
  196ACOH    O210462   1.565   1.107   1.888
  196ACOH    C210463   1.609   1.215   1.954
  196ACOH    O110464   1.711   1.280   1.931
  196ACOH    C110465   1.515   1.255   2.061
  196ACOH    H110466   1.568   1.263   2.155
  196ACOH    H210467   1.435   1.182   2.071
  196ACOH    H310468   1.472   1.352   2.037
  197ACOH    H410469   3.391   8.027   1.206
  197ACOH    O210470   3.444   8.039   1.122
  197ACOH    C210471   3.543   7.947   1.126
  197ACOH    O110472   3.576   7.879   1.221
  197ACOH    C110473   3.618   7.947   0.998
  197ACOH    H110474   3.656   8.047   0.978
  197ACOH    H210475   3.553   7.917   0.917
  197ACOH    H310476   3.702   7.878   1.003
  198ACOH    H410477   5.469   3.426   2.048
  198ACOH    O210478   5.534   3.498   2.023
  198ACOH    C210479   5.639   3.436   1.965
  198ACOH    O110480   5.658   3.316   1.959
  198ACOH    C110481   5.739   3.534   1.917
  198ACOH    H110482   5.830   3.525   1.975
  198ACOH    H210483   5.702   3.636   1.925
  198ACOH    H310484   5.761   3.514   1.812
  199ACOH    H410485   5.414   2.131   0.981
  199ACOH    O210486   5.446   2.106   1.073
  199ACOH    C210487   5.359   2.162   1.160
  199ACOH    O110488   5.273   2.245   1.136
  199ACOH    C110489   5.390   2.120   1.299
  199ACOH    H110490   5.471   2.048   1.300
  199ACOH    H210491   5.302   2.074   1.342
  199ACOH    H310492   5.418   2.206   1.358
  200ACOH    H410493   3.704   5.667   0.567
  200ACOH    O210494   3.795   5.706   0.575
  200ACOH    C210495   3.870   5.651   0.477
  200ACOH    O110496   3.831   5.578   0.388
  200ACOH    C110497   4.009   5.701   0.486
  200ACOH    H110498   4.009   5.809   0.478
  200ACOH    H210499   4.070   5.659   0.406
  200ACOH    H310500   4.051   5.672   0.582
  201ACOH    H410501   4.923   5.285   0.773
  201ACOH    O210502   4.942   5.326   0.683
  201ACOH    C210503   4.865   5.261   0.595
  201ACOH    O110504   4.797   5.162   0.615
  201ACOH    C110505   4.881   5.320   0.460
  201ACOH    H110506   4.984   5.307   0.427
  201ACOH    H210507   4.858   5.426   0.464
  201ACOH    H310508   4.814   5.272   0.388
  202ACOH    H410509   5.365   1.597   0.876
  202ACOH    O210510   5.388   1.516   0.824
  202ACOH    C210511   5.399   1.552   0.695
  202ACOH    O110512   5.374   1.662   0.648
  202ACOH    C110513   5.446   1.440   0.611
  202ACOH    H110514   5.376   1.424   0.529
  202ACOH    H210515   5.454   1.349   0.670
  202ACOH    H310516   5.544   1.464   0.570
  203ACOH    H410517   4.212   9.802   1.038
  203ACOH    O210518   4.181   9.721   1.088
  203ACOH    C210519   4.231   9.611   1.028
  203ACOH    O110520   4.201   9.500   1.064
  203ACOH    C110521   4.326   9.636   0.916
  203ACOH    H110522   4.368   9.543   0.879
  203ACOH    H210523   4.408   9.700   0.951
  203ACOH    H310524   4.275   9.686   0.835
  204SOL     OW10525   2.711   7.442   0.552
  204SOL    HW110526   2.790   7.499   0.529
  204SOL    HW210527   2.741   7.347   0.564
  205SOL     OW10528   2.439   0.600   1.011
  205SOL    HW110529   2.454   0.645   1.100
  205SOL    HW210530   2.372   0.650   0.958
  206SOL     OW10531   2.974   0.432   0.599
  206SOL    HW110532   3.066   0.445   0.562
  206SOL    HW210533   2.941   0.518   0.637
  207SOL     OW10534   4.030   0.361   0.643
  207SOL    HW110535   3.996   0.350   0.737
  207SOL    HW210536   4.022   0.274   0.595
  208SOL     OW10537   3.985   1.906   1.641
  208SOL    HW110538   3.972   1.965   1.721
  208SOL    HW210539   3.896   1.879   1.605
  209SOL     OW10540   2.513   8.578   2.049
  209SOL    HW110541   2.552   8.640   1.981
  209SOL    HW210542   2.541   8.606   2.141
  210SOL     OW10543   3.235   5.225   2.206
  210SOL    HW110544   3.192   5.202   2.119
  210SOL    HW210545   3.334   5.230   2.194
  211SOL     OW10546   2.240   3.914   1.559
  211SOL    HW110547   2.297   3.834   1.544
  211SOL    HW210548   2.193   3.938   1.473
  212SOL     OW10549   2.314   1.701   0.451
  212SOL    HW110550   2.342   1.788   0.489
  212SOL    HW210551   2.252   1.655   0.514
  213SOL     OW10552   2.837   5.996   1.543
  213SOL    HW110553   2.740   5.987   1.517
  213SOL    HW210554   2.894   5.949   1.476
  214SOL     OW10555   3.178   3.846   0.723
  214SOL    HW110556   3.228   3.868   0.807
  214SOL    HW210557   3.133   3.757   0.734
  215SOL     OW10558   5.020   2.640   0.943
  215SOL    HW110559   4.970   2.702   1.003
  215SOL    HW210560   5.023   2.549   0.983
  216SOL     OW10561   3.774   2.845   0.943
  216SOL    HW110562   3.686   2.835   0.898
  216SOL    HW210563   3.824   2.922   0.904
  217SOL     OW10564   0.041   3.687   1.603
  217SOL    HW110565   0.049   3.783   1.630
  217SOL    HW210566   9.970   3.678   1.534
  218SOL     OW10567   2.028   5.320   1.500
  218SOL    HW110568   1.945   5.372   1.481
  218SOL    HW210569   2.073   5.358   1.582
  219SOL     OW10570   1.492   3.706   1.034
  219SOL    HW110571   1.582   3.722   1.074
  219SOL    HW210572   1.502   3.662   0.945
  220SOL     OW10573   3.291   6.535   0.485
  220SOL    HW110574   3.377   6.487   0.469
  220SOL    HW210575   3.304   6.604   0.557
  221SOL     OW10576   4.206   1.653   1.413
  221SOL    HW110577   4.189   1.690   1.504
  221SOL    HW210578   4.267   1.574   1.420
  222SOL     OW10579   2.263   2.847   1.770
  222SOL    HW110580   2.244   2.758   1.730
  222SOL    HW210581   2.262   2.917   1.699
  223SOL     OW10582   2.665   5.153   2.170
  223SOL    HW110583   2.572   5.180   2.196
  223SOL    HW210584   2.686   5.064   2.211
  224SOL     OW10585   0.411   3.598   1.152
  224SOL    HW110586   0.399   3.609   1.053
  224SOL    HW210587   0.372   3.677   1.199
  225SOL     OW10588   2.935   4.076   0.483
  225SOL    HW110589   2.877   4.037   0.554
  225SOL    HW210590   3.011   4.014   0.465
  226SOL     OW10591   2.751   0.111   0.947
  226SOL    HW110592   2.795   0.175   1.010
  226SOL    HW210593   2.742   0.021   0.991
  227SOL     OW10594   2.026   2.784   0.547
  227SOL    HW110595   1.934   2.748   0.562
  227SOL    HW210596   2.092   2.708   0.548
  228SOL     OW10597   2.713   4.399   0.933
  228SOL    HW110598   2.649   4.383   1.008
  228SOL    HW210599   2.777   4.472   0.958
  229SOL     OW10600   3.313   4.129   1.830
  229SOL    HW110601   3.308   4.215   1.779
  229SOL    HW210602   3.221   4.097   1.850
  230SOL     OW10603   1.489   3.934   1.408
  230SOL    HW110604   1.518   3.960   1.500
  230SOL    HW210605   1.391   3.952   1.398
  231SOL     OW10606   0.738   5.430   2.298
  231SOL    HW110607   0.818   5.390   2.252
  231SOL    HW210608   0.758   5.524   2.324
  232SOL     OW10609   3.357   1.518   1.631
  232SOL    HW110610   3.390   1.605   1.594
  232SOL    HW210611   3.336   1.529   1.728
  233SOL     OW10612   3.976   9.245   0.758
  233SOL    HW110613   3.963   9.185   0.680
  233SOL    HW210614   4.037   9.321   0.733
  234SOL     OW10615   3.692   0.594   2.148
  234SOL    HW110616   3.707   0.495   2.154
  234SOL    HW210617   3.594   0.612   2.144
  235SOL     OW10618   3.955   3.826   2.116
  235SOL    HW110619   4.025   3.890   2.147
  235SOL    HW210620   3.866   3.853   2.152
  236SOL     OW10621   2.316   1.197   2.180
  236SOL    HW110622   2.385   1.144   2.132
  236SOL    HW210623   2.225   1.162   2.157
  237SOL     OW10624   3.781   8.901   0.664
  237SOL    HW110625   3.843   8.966   0.620
  237SOL    HW210626   3.716   8.950   0.722
  238SOL     OW10627   2.527   1.334   1.188
  238SOL    HW110628   2.550   1.269   1.115
  238SOL    HW210629   2.606   1.344   1.249
  239SOL     OW10630   2.043   3.632   1.516
  239SOL    HW110631   2.073   3.545   1.476
  239SOL    HW210632   2.034   3.621   1.615
  240SOL     OW10633   2.455   3.257   1.244
  240SOL    HW110634   2.405   3.181   1.200
  240SOL    HW210635   2.480   3.231   1.337
  241SOL     OW10636   1.915   5.657   1.180
  241SOL    HW110637   1.833   5.616   1.140
  241SOL    HW210638   1.979   5.585   1.206
  242SOL     OW10639   0.240   5.304   1.978
  242SOL    HW110640   0.173   5.268   1.912
  242SOL    HW210641   0.212   5.280   2.070
  243SOL     OW10642   5.303   2.903   2.293
  243SOL    HW110643   5.373   2.968   2.261
  243SOL    HW210644   5.212   2.938   2.269
  244SOL     OW10645   3.744   4.117   1.499
  244SOL    HW110646   3.751   4.198   1.558
  244SOL    HW210647   3.766   4.143   1.405
  245SOL     OW10648   5.379   3.691   1.255
  245SOL    HW110649   5.329   3.715   1.339
  245SOL    HW210650   5.373   3.766   1.190
  246SOL     OW10651   2.783   4.526   0.514
  246SOL    HW110652   2.716   4.484   0.576
  246SOL    HW210653   2.839   4.455   0.472
  247SOL     OW10654   4.270   3.243   0.614
  247SOL    HW110655   4.304   3.245   0.708
  247SOL    HW210656   4.250   3.149   0.587
  248SOL     OW10657   2.200   8.511   0.802
  248SOL    HW110658   2.177   8.416   0.782
  248SOL    HW210659   2.295   8.528   0.779
  249SOL     OW10660   0.441   4.805   1.909
  249SOL    HW110661   0.419   4.872   1.980
  249SOL    HW210662   0.472   4.852   1.826
  250SOL     OW10663   5.024   1.636   2.138
  250SOL    HW110664   5.071   1.578   2.205
  250SOL    HW210665   4.967   1.579   2.078
  251SOL     OW10666   3.193   9.031   0.699
  251SOL    HW110667   3.187   8.937   0.731
  251SOL    HW210668   3.101   9.072   0.700
  252SOL     OW10669   1.571   7.548   1.777
  252SOL    HW110670   1.562   7.647   1.791
  252SOL    HW210671   1.488   7.503   1.810
  253SOL     OW10672   2.711   5.610   0.829
  253SOL    HW110673   2.633   5.672   0.822
  253SOL    HW210674   2.779   5.650   0.890
  254SOL     OW10675   2.291   0.851   1.204
  254SOL    HW110676   2.236   0.886   1.280
  254SOL    HW210677   2.357   0.785   1.238
  255SOL     OW10678   2.902   8.634   1.970
  255SOL    HW110679   2.923   8.616   1.874
  255SOL    HW210680   2.954   8.570   2.028
  256SOL     OW10681   4.181   1.949   1.995
  256SOL    HW110682   4.123   1.994   1.927
  256SOL    HW210683   4.149   1.974   2.087
  257SOL     OW10684   4.053   1.572   2.131
  257SOL    HW110685   3.996   1.490   2.131
  257SOL    HW210686   3.998   1.650   2.162
  258SOL     OW10687   1.913   7.487   1.410
  258SOL    HW110688   1.879   7.525   1.496
  258SOL    HW210689   2.013   7.488   1.411
  259SOL     OW10690   1.100   6.817   0.556
  259SOL    HW110691   1.090   6.916   0.550
  259SOL    HW210692   1.163   6.794   0.630
  260SOL     OW10693   2.547   2.981   1.027
  260SOL    HW110694   2.480   2.995   1.100
  260SOL    HW210695   2.633   2.949   1.067
  261SOL     OW10696   4.956   3.402   0.483
  261SOL    HW110697   4.870   3.384   0.437
  261SOL    HW210698   4.982   3.324   0.540
  262SOL     OW10699   2.101   7.401   0.984
  262SOL    HW110700   2.042   7.358   1.052
  262SOL    HW210701   2.191   7.357   0.986
  263SOL     OW10702   2.397   1.219   1.417
  263SOL    HW110703   2.317   1.266   1.454
  263SOL    HW210704   2.422   1.260   1.329
  264SOL     OW10705   1.930   8.280   1.305
  264SOL    HW110706   1.922   8.182   1.286
  264SOL    HW210707   2.016   8.298   1.353
  265SOL     OW10708   0.909   5.189   1.435
  265SOL    HW110709   0.979   5.255   1.463
  265SOL    HW210710   0.840   5.180   1.507
  266SOL     OW10711   3.702   5.277   1.362
  266SOL    HW110712   3.656   5.309   1.445
  266SOL    HW210713   3.801   5.276   1.377
  267SOL     OW10714   1.763   1.086   0.525
  267SOL    HW110715   1.757   1.185   0.511
  267SOL    HW210716   1.690   1.041   0.473
  268SOL     OW10717   3.912   9.632   1.552
  268SOL    HW110718   3.887   9.718   1.596
  268SOL    HW210719   3.988   9.648   1.489
  269SOL     OW10720   3.684   4.368   0.879
  269SOL    HW110721   3.617   4.422   0.828
  269SOL    HW210722   3.699   4.409   0.969
  270SOL     OW10723   9.829   3.620   0.325
  270SOL    HW110724   9.892   3.602   0.400
  270SOL    HW210725   9.881   3.647   0.244
  271SOL     OW10726   3.164   5.998   1.692
  271SOL    HW110727   3.118   6.072   1.642
  271SOL    HW210728   3.252   5.978   1.648
  272SOL     OW10729   1.694   4.890   2.299
  272SOL    HW110730   1.688   4.828   2.221
  272SOL    HW210731   1.612   4.945   2.305
  273SOL     OW10732   3.643   0.638   1.511
  273SOL    HW110733   3.726   0.665   1.463
  273SOL    HW210734   3.577   0.712   1.508
  274SOL     OW10735   1.437   5.405   2.275
  274SOL    HW110736   1.418   5.497   2.243
  274SOL    HW210737   1.483   5.409   2.364
  275SOL     OW10738   0.761   4.471   0.493
  275SOL    HW110739   0.669   4.507   0.477
  275SOL    HW210740   0.811   4.469   0.406
  276SOL     OW10741   2.408   5.849   1.074
  276SOL    HW110742   2.499   5.853   1.114
  276SOL    HW210743   2.352   5.784   1.125
  277SOL     OW10744   4.199   2.976   0.581
  277SOL    HW110745   4.196   2.966   0.681
  277SOL    HW210746   4.119   2.932   0.541
  278SOL     OW10747   3.523   8.656   1.989
  278SOL    HW110748   3.503   8.582   2.053
  278SOL    HW210749   3.498   8.744   2.031
  279SOL     OW10750   1.279   5.147   1.727
  279SOL    HW110751   1.182   5.169   1.736
  279SOL    HW210752   1.315   5.188   1.643
  280SOL     OW10753   3.896   1.579   0.775
  280SOL    HW110754   3.982   1.545   0.813
  280SOL    HW210755   3.832   1.503   0.765
  281SOL     OW10756   0.420   3.291   0.630
  281SOL    HW110757   0.495   3.230   0.656
  281SOL    HW210758   0.380   3.332   0.712
  282SOL     OW10759   2.660   3.564   0.925
  282SOL    HW110760   2.720   3.643   0.915
  282SOL    HW210761   2.652   3.541   1.023
  283SOL     OW10762   1.752   6.690   1.438
  283SOL    HW110763   1.796   6.615   1.487
  283SOL    HW210764   1.752   6.772   1.495
  284SOL     OW10765   3.611   8.851   1.025
  284SOL    HW110766   3.549   8.776   1.050
  284SOL    HW210767   3.698   8.813   0.994
  285SOL     OW10768   3.484   2.370   0.600
  285SOL    HW110769   3.403   2.425   0.621
  285SOL    HW210770   3.561   2.431   0.581
  286SOL     OW10771   0.224   6.017   0.574
  286SOL    HW110772   0.306   6.069   0.596
  286SOL    HW210773   0.187   6.049   0.487
  287SOL     OW10774   1.375   2.588   0.401
  287SOL    HW110775   1.289   2.635   0.384
  287SOL    HW210776   1.451   2.652   0.388
  288SOL     OW10777   2.999   0.740   2.005
  288SOL    HW110778   3.085   0.771   1.966
  288SOL    HW210779   2.987   0.643   1.986
  289SOL     OW10780   0.992   5.064   1.207
  289SOL    HW110781   0.997   4.965   1.222
  289SOL    HW210782   0.957   5.109   1.288
  290SOL     OW10783   1.908   9.807   0.586
  290SOL    HW110784   1.964   9.890   0.593
  290SOL    HW210785   1.814   9.833   0.565
  291SOL     OW10786   3.870   0.626   0.776
  291SOL    HW110787   3.906   0.556   0.839
  291SOL    HW210788   3.928   0.630   0.694
  292SOL     OW10789   2.366   6.025   1.650
  292SOL    HW110790   2.357   6.035   1.749
  292SOL    HW210791   2.280   6.050   1.605
  293SOL     OW10792   4.801   2.830   2.416
  293SOL    HW110793   4.767   2.820   2.322
  293SOL    HW210794   4.885   2.776   2.427
  294SOL     OW10795   2.604   3.942   1.442
  294SOL    HW110796   2.549   3.877   1.495
  294SOL    HW210797   2.687   3.898   1.409
  295SOL     OW10798   3.140   5.717   1.663
  295SOL    HW110799   3.132   5.816   1.655
  295SOL    HW210800   3.176   5.693   1.753
  296SOL     OW10801   5.148   2.946   1.803
  296SOL    HW110802   5.209   2.883   1.755
  296SOL    HW210803   5.195   3.032   1.820
  297SOL     OW10804   3.160   8.881   1.234
  297SOL    HW110805   3.200   8.824   1.161
  297SOL    HW210806   3.205   8.860   1.321
  298SOL     OW10807   2.466   7.872   1.511
  298SOL    HW110808   2.436   7.783   1.479
  298SOL    HW210809   2.438   7.942   1.445
  299SOL     OW10810   1.941   8.010   1.271
  299SOL    HW110811   1.981   7.956   1.197
  299SOL    HW210812   1.998   8.002   1.353
  300SOL     OW10813   2.308   3.378   0.993
  300SOL    HW110814   2.408   3.380   1.003
  300SOL    HW210815   2.266   3.435   1.063
  301SOL     OW10816   1.617   6.474   1.763
  301SOL    HW110817   1.701   6.480   1.709
  301SOL    HW210818   1.622   6.393   1.822
  302SOL     OW10819   2.051   1.145   2.094
  302SOL    HW110820   2.035   1.244   2.100
  302SOL    HW210821   2.040   1.116   1.999
  303SOL     OW10822   3.744   1.602   2.098
  303SOL    HW110823   3.784   1.511   2.112
  303SOL    HW210824   3.715   1.611   2.003
  304SOL     OW10825   9.736   3.630   0.953
  304SOL    HW110826   9.714   3.536   0.979
  304SOL    HW210827   9.758   3.633   0.856
  305SOL     OW10828   0.229   4.826   1.562
  305SOL    HW110829   0.270   4.907   1.519
  305SOL    HW210830   0.245   4.746   1.504
  306SOL     OW10831   3.529   2.270   2.259
  306SOL    HW110832   3.469   2.223   2.195
  306SOL    HW210833   3.566   2.204   2.325
  307SOL     OW10834   3.985   8.024   1.089
  307SOL    HW110835   4.059   8.090   1.103
  307SOL    HW210836   4.019   7.931   1.106
  308SOL     OW10837   1.679   5.361   1.846
  308SOL    HW110838   1.700   5.451   1.884
  308SOL    HW210839   1.721   5.290   1.903
  309SOL     OW10840   4.257   4.892   1.621
  309SOL    HW110841   4.322   4.964   1.597
  309SOL    HW210842   4.165   4.931   1.630
  310SOL     OW10843   9.890   5.851   1.340
  310SOL    HW110844   9.892   5.854   1.240
  310SOL    HW210845   9.973   5.807   1.373
  311SOL     OW10846   0.736   3.117   2.062
  311SOL    HW110847   0.808   3.060   2.102
  311SOL    HW210848   0.725   3.093   1.966
  312SOL     OW10849   3.108   7.979   1.646
  312SOL    HW110850   3.040   7.910   1.623
  312SOL    HW210851   3.119   7.983   1.745
  313SOL     OW10852   0.107   5.782   0.654
  313SOL    HW110853   0.102   5.765   0.753
  313SOL    HW210854   0.153   5.869   0.638
  314SOL     OW10855   2.571   5.943   1.487
  314SOL    HW110856   2.496   5.961   1.550
  314SOL    HW210857   2.584   5.845   1.477
  315SOL     OW10858   3.084   8.443   0.506
  315SOL    HW110859   3.154   8.495   0.556
  315SOL    HW210860   2.993   8.477   0.531
  316SOL     OW10861   2.895   4.474   1.461
  316SOL    HW110862   2.838   4.393   1.473
  316SOL    HW210863   2.945   4.467   1.375
  317SOL     OW10864   0.589   3.739   1.515
  317SOL    HW110865   0.652   3.710   1.587
  317SOL    HW210866   0.503   3.771   1.556
  318SOL     OW10867   1.507   6.581   1.529
  318SOL    HW110868   1.585   6.623   1.481
  318SOL    HW210869   1.538   6.545   1.617
  319SOL     OW10870   1.679   8.937   0.750
  319SOL    HW110871   1.609   8.938   0.679
  319SOL    HW210872   1.683   9.025   0.795
  320SOL     OW10873   2.708   4.775   1.083
  320SOL    HW110874   2.719   4.795   1.181
  320SOL    HW210875   2.611   4.784   1.058
  321SOL     OW10876   0.104   5.136   1.090
  321SOL    HW110877   0.085   5.153   1.187
  321SOL    HW210878   0.062   5.208   1.035
  322SOL     OW10879   4.843   1.964   1.918
  322SOL    HW110880   4.839   2.063   1.923
  322SOL    HW210881   4.886   1.928   2.001
  323SOL     OW10882   2.240   7.704   0.658
  323SOL    HW110883   2.214   7.692   0.754
  323SOL    HW210884   2.336   7.678   0.646
  324SOL     OW10885   2.508   1.658   1.455
  324SOL    HW110886   2.500   1.634   1.358
  324SOL    HW210887   2.430   1.712   1.483
  325SOL     OW10888   9.829   4.162   1.230
  325SOL    HW110889   9.747   4.219   1.227
  325SOL    HW210890   9.806   4.074   1.270
  326SOL     OW10891   2.477   5.138   1.767
  326SOL    HW110892   2.430   5.164   1.682
  326SOL    HW210893   2.567   5.101   1.744
  327SOL     OW10894   4.977   3.718   0.953
  327SOL    HW110895   5.019   3.678   0.872
  327SOL    HW210896   4.981   3.653   1.029
  328SOL     OW10897   2.545   9.542   1.449
  328SOL    HW110898   2.564   9.490   1.366
  328SOL    HW210899   2.630   9.584   1.482
  329SOL     OW10900   4.093   8.846   0.963
  329SOL    HW110901   4.168   8.819   1.023
  329SOL    HW210902   4.078   8.945   0.971
  330SOL     OW10903   2.951   0.535   1.499
  330SOL    HW110904   3.000   0.563   1.417
  330SOL    HW210905   2.892   0.609   1.531
  331SOL     OW10906   5.360   3.319   2.093
  331SOL    HW110907   5.287   3.349   2.154
  331SOL    HW210908   5.398   3.233   2.125
  332SOL     OW10909   3.013   5.895   1.351
  332SOL    HW110910   2.983   5.967   1.289
  332SOL    HW210911   3.112   5.899   1.363
  333SOL     OW10912   2.758   1.421   0.797
  333SOL    HW110913   2.659   1.425   0.787
  333SOL    HW210914   2.788   1.326   0.800
  334SOL     OW10915   1.390   6.181   1.946
  334SOL    HW110916   1.378   6.117   1.870
  334SOL    HW210917   1.481   6.223   1.940
  335SOL     OW10918   2.941   6.113   1.999
  335SOL    HW110919   2.892   6.197   1.975
  335SOL    HW210920   3.022   6.136   2.052
  336SOL     OW10921   2.983   4.904   2.188
  336SOL    HW110922   2.899   4.898   2.242
  336SOL    HW210923   2.976   4.979   2.122
  337SOL     OW10924   2.139   9.722   1.580
  337SOL    HW110925   2.216   9.750   1.523
  337SOL    HW210926   2.056   9.768   1.548
  338SOL     OW10927   2.300   9.476   0.907
  338SOL    HW110928   2.300   9.378   0.924
  338SOL    HW210929   2.224   9.519   0.955
  339SOL     OW10930   3.015   6.384   1.153
  339SOL    HW110931   3.080   6.420   1.086
  339SOL    HW210932   2.970   6.461   1.200
  340SOL     OW10933   4.425   1.216   1.883
  340SOL    HW110934   4.459   1.163   1.805
  340SOL    HW210935   4.421   1.313   1.857
  341SOL     OW10936   0.226   5.357   1.499
  341SOL    HW110937   0.319   5.340   1.533
  341SOL    HW210938   0.182   5.424   1.559
  342SOL     OW10939   4.113   1.669   0.470
  342SOL    HW110940   4.211   1.680   0.453
  342SOL    HW210941   4.075   1.755   0.503
  343SOL     OW10942   4.340   8.893   0.530
  343SOL    HW110943   4.423   8.837   0.519
  343SOL    HW210944   4.279   8.850   0.596
  344SOL     OW10945   3.361   0.693   0.636
  344SOL    HW110946   3.459   0.692   0.651
  344SOL    HW210947   3.336   0.616   0.576
  345SOL     OW10948   3.979   0.533   1.546
  345SOL    HW110949   4.078   0.533   1.554
  345SOL    HW210950   3.951   0.591   1.470
  346SOL     OW10951   9.828   4.903   1.007
  346SOL    HW110952   9.824   4.905   1.107
  346SOL    HW210953   9.921   4.884   0.978
  347SOL     OW10954   1.358   5.933   0.688
  347SOL    HW110955   1.350   5.840   0.722
  347SOL    HW210956   1.406   5.989   0.756
  348SOL     OW10957   1.891   3.848   1.474
  348SOL    HW110958   1.808   3.813   1.430
  348SOL    HW210959   1.955   3.773   1.488
  349SOL     OW10960   2.033   7.030   1.646
  349SOL    HW110961   1.976   7.104   1.610
  349SOL    HW210962   2.025   7.026   1.746
  350SOL     OW10963   1.541   6.793   0.815
  350SOL    HW110964   1.576   6.865   0.875
  350SOL    HW210965   1.615   6.731   0.790
  351SOL     OW10966   1.517   2.838   2.228
  351SOL    HW110967   1.499   2.755   2.175
  351SOL    HW210968   1.431   2.870   2.268
  352SOL     OW10969   1.164   2.560   0.881
  352SOL    HW110970   1.067   2.577   0.862
  352SOL    HW210971   1.218   2.576   0.799
  353SOL     OW10972   2.965   9.622   1.414
  353SOL    HW110973   3.038   9.690   1.422
  353SOL    HW210974   2.887   9.651   1.470
  354SOL     OW10975   1.890   4.281   0.823
  354SOL    HW110976   1.888   4.329   0.911
  354SOL    HW210977   1.846   4.338   0.754
  355SOL     OW10978   2.383   4.584   0.645
  355SOL    HW110979   2.397   4.666   0.588
  355SOL    HW210980   2.469   4.534   0.652
  356SOL     OW10981   3.671   8.300   1.056
  356SOL    HW110982   3.728   8.266   1.131
  356SOL    HW210983   3.578   8.315   1.089
  357SOL     OW10984   1.906   6.234   0.784
  357SOL    HW110985   1.850   6.237   0.866
  357SOL    HW210986   1.935   6.326   0.759
  358SOL     OW10987   0.631   3.100   0.693
  358SOL    HW110988   0.712   3.146   0.659
  358SOL    HW210989   0.591   3.043   0.621
  359SOL     OW10990   3.547   9.618   0.533
  359SOL    HW110991   3.528   9.532   0.580
  359SOL    HW210992   3.462   9.670   0.525
  360SOL     OW10993   3.250   0.885   2.326
  360SOL    HW110994   3.331   0.906   2.271
  360SOL    HW210995   3.178   0.952   2.306
  361SOL     OW10996   3.227   0.818   1.870
  361SOL    HW110997   3.303   0.882   1.867
  361SOL    HW210998   3.263   0.724   1.861
  362SOL     OW10999   3.238   5.016   0.989
  362SOL    HW111000   3.202   5.008   0.896
  362SOL    HW211001   3.280   5.106   1.001
  363SOL     OW11002   3.505   3.520   1.198
  363SOL    HW111003   3.491   3.562   1.288
  363SOL    HW211004   3.584   3.459   1.202
  364SOL     OW11005   3.236   7.151   2.203
  364SOL    HW111006   3.152   7.166   2.150
  364SOL    HW211007   3.258   7.053   2.203
  365SOL     OW11008   5.480   2.980   0.464
  365SOL    HW111009   5.508   2.972   0.368
  365SOL    HW211010   5.512   2.900   0.515
  366SOL     OW11011   1.009   2.885   0.781
  366SOL    HW111012   0.981   2.789   0.788
  366SOL    HW211013   1.109   2.891   0.787
  367SOL     OW11014   9.465   4.697   1.690
  367SOL    HW111015   9.426   4.768   1.632
  367SOL    HW211016   9.489   4.618   1.634
  368SOL     OW11017   1.208   2.907   2.193
  368SOL    HW111018   1.243   2.997   2.166
  368SOL    HW211019   1.209   2.846   2.114
  369SOL     OW11020   3.631   9.080   1.188
  369SOL    HW111021   3.616   8.997   1.135
  369SOL    HW211022   3.584   9.072   1.276
  370SOL     OW11023   3.902   9.684   1.073
  370SOL    HW111024   4.000   9.665   1.077
  370SOL    HW211025   3.873   9.729   1.158
  371SOL     OW11026   3.502   9.066   1.431
  371SOL    HW111027   3.501   8.972   1.466
  371SOL    HW211028   3.413   9.108   1.449
  372SOL     OW11029   4.693   3.241   0.624
  372SOL    HW111030   4.611   3.276   0.579
  372SOL    HW211031   4.737   3.315   0.675
  373SOL     OW11032   2.448   3.219   0.388
  373SOL    HW111033   2.361   3.267   0.400
  373SOL    HW211034   2.477   3.226   0.293
  374SOL     OW11035   0.484   5.523   1.710
  374SOL    HW111036   0.573   5.526   1.756
  374SOL    HW211037   0.411   5.538   1.776
  375SOL     OW11038   4.725   1.296   1.038
  375SOL    HW111039   4.704   1.388   1.072
  375SOL    HW211040   4.640   1.248   1.019
  376SOL     OW11041   2.416   4.694   1.398
  376SOL    HW111042   2.399   4.652   1.309
  376SOL    HW211043   2.504   4.663   1.433
  377SOL     OW11044   3.615   9.482   1.348
  377SOL    HW111045   3.608   9.434   1.261
  377SOL    HW211046   3.692   9.445   1.400
  378SOL     OW11047   3.495   2.488   1.697
  378SOL    HW111048   3.550   2.533   1.626
  378SOL    HW211049   3.528   2.515   1.787
  379SOL     OW11050   4.274   3.801   0.572
  379SOL    HW111051   4.200   3.811   0.506
  379SOL    HW211052   4.351   3.756   0.528
  380SOL     OW11053   2.467   7.130   0.842
  380SOL    HW111054   2.496   7.213   0.794
  380SOL    HW211055   2.545   7.090   0.890
  381SOL     OW11056   2.609   1.137   1.008
  381SOL    HW111057   2.697   1.092   1.025
  381SOL    HW211058   2.589   1.136   0.910
  382SOL     OW11059   1.114   5.264   0.631
  382SOL    HW111060   1.167   5.347   0.617
  382SOL    HW211061   1.069   5.238   0.546
  383SOL     OW11062   2.801   2.815   0.794
  383SOL    HW111063   2.726   2.797   0.732
  383SOL    HW211064   2.836   2.908   0.778
  384SOL     OW11065   1.424   5.467   1.783
  384SOL    HW111066   1.432   5.549   1.840
  384SOL    HW211067   1.510   5.416   1.787
  385SOL     OW11068   2.416   8.909   1.234
  385SOL    HW111069   2.426   9.007   1.248
  385SOL    HW211070   2.337   8.891   1.176
  386SOL     OW11071   3.722   4.150   2.122
  386SOL    HW111072   3.816   4.181   2.139
  386SOL    HW211073   3.708   4.060   2.163
  387SOL     OW11074   2.669   2.489   1.885
  387SOL    HW111075   2.601   2.430   1.929
  387SOL    HW211076   2.718   2.438   1.815
  388SOL     OW11077   2.400   4.028   1.836
  388SOL    HW111078   2.417   4.043   1.934
  388SOL    HW211079   2.309   4.061   1.813
  389SOL     OW11080   3.703   1.828   0.947
  389SOL    HW111081   3.733   1.832   0.852
  389SOL    HW211082   3.777   1.857   1.007
  390SOL     OW11083   3.696   3.657   0.551
  390SOL    HW111084   3.770   3.595   0.525
  390SOL    HW211085   3.718   3.750   0.521
  391SOL     OW11086   0.768   5.815   1.743
  391SOL    HW111087   0.739   5.723   1.771
  391SOL    HW211088   0.864   5.812   1.715
  392SOL     OW11089   1.104   4.995   1.503
  392SOL    HW111090   1.035   5.058   1.468
  392SOL    HW211091   1.081   4.969   1.596
  393SOL     OW11092   2.516   3.383   1.763
  393SOL    HW111093   2.514   3.457   1.831
  393SOL    HW211094   2.453   3.405   1.689
  394SOL     OW11095   1.139   6.292   1.918
  394SOL    HW111096   1.136   6.318   1.822
  394SOL    HW211097   1.229   6.252   1.939
  395SOL     OW11098   0.317   5.121   0.468
  395SOL    HW111099   0.251   5.074   0.527
  395SOL    HW211100   0.366   5.053   0.413
  396SOL     OW11101   2.147   9.262   1.331
  396SOL    HW111102   2.240   9.240   1.301
  396SOL    HW211103   2.151   9.330   1.404
  397SOL     OW11104   3.223   0.728   1.558
  397SOL    HW111105   3.216   0.642   1.608
  397SOL    HW211106   3.163   0.797   1.601
  398SOL     OW11107   2.843   4.366   2.234
  398SOL    HW111108   2.913   4.430   2.266
  398SOL    HW211109   2.883   4.305   2.166
  399SOL     OW11110   4.600   1.403   0.387
  399SOL    HW111111   4.651   1.318   0.375
  399SOL    HW211112   4.623   1.443   0.476
  400SOL     OW11113   3.501   2.116   0.487
  400SOL    HW111114   3.450   2.130   0.403
  400SOL    HW211115   3.514   2.203   0.534
  401SOL     OW11116   3.565   0.143   2.099
  401SOL    HW111117   3.510   0.065   2.127
  401SOL    HW211118   3.521   0.189   2.023
  402SOL     OW11119   0.524   5.930   0.685
  402SOL    HW111120   0.615   5.918   0.725
  402SOL    HW211121   0.507   6.027   0.670
  403SOL     OW11122   1.554   6.821   1.199
  403SOL    HW111123   1.457   6.819   1.174
  403SOL    HW211124   1.566   6.879   1.280
  404SOL     OW11125   1.648   2.646   1.210
  404SOL    HW111126   1.591   2.724   1.184
  404SOL    HW211127   1.599   2.591   1.278
  405SOL     OW11128   3.407   8.320   1.130
  405SOL    HW111129   3.413   8.225   1.102
  405SOL    HW211130   3.318   8.337   1.173
  406SOL     OW11131   0.502   5.606   1.230
  406SOL    HW111132   0.432   5.536   1.247
  406SOL    HW211133   0.580   5.589   1.289
  407SOL     OW11134   1.451   5.682   1.947
  407SOL    HW111135   1.550   5.670   1.949
  407SOL    HW211136   1.414   5.680   2.040
  408SOL     OW11137   1.137   5.790   2.237
  408SOL    HW111138   1.092   5.798   2.149
  408SOL    HW211139   1.078   5.827   2.309
  409SOL     OW11140   2.293   3.945   0.951
  409SOL    HW111141   2.376   3.999   0.964
  409SOL    HW211142   2.218   4.005   0.923
  410SOL     OW11143   2.765   7.658   1.242
  410SOL    HW111144   2.680   7.610   1.223
  410SOL    HW211145   2.749   7.732   1.307
  411SOL     OW11146   2.826   3.800   1.313
  411SOL    HW111147   2.900   3.867   1.303
  411SOL    HW211148   2.864   3.708   1.316
  412SOL     OW11149   1.901   4.230   2.106
  412SOL    HW111150   1.858   4.211   2.017
  412SOL    HW211151   1.958   4.153   2.132
  413SOL     OW11152   4.048   3.369   0.920
  413SOL    HW111153   4.113   3.329   0.985
  413SOL    HW211154   4.076   3.463   0.898
  414SOL     OW11155   9.693   3.881   0.683
  414SOL    HW111156   9.732   3.790   0.692
  414SOL    HW211157   9.608   3.886   0.735
  415SOL     OW11158   2.127   8.614   1.044
  415SOL    HW111159   2.145   8.567   0.958
  415SOL    HW211160   2.029   8.629   1.054
  416SOL     OW11161   9.777   5.143   0.883
  416SOL    HW111162   9.792   5.056   0.928
  416SOL    HW211163   9.853   5.205   0.903
  417SOL     OW11164   2.426   0.066   1.925
  417SOL    HW111165   2.399   0.058   2.021
  417SOL    HW211166   2.498   0.135   1.917
  418SOL     OW11167   4.875   2.489   1.770
  418SOL    HW111168   4.817   2.408   1.757
  418SOL    HW211169   4.868   2.548   1.690
  419SOL     OW11170   9.602   5.434   0.359
  419SOL    HW111171   9.582   5.481   0.273
  419SOL    HW211172   9.596   5.500   0.435
  420SOL     OW11173   3.916   3.915   1.578
  420SOL    HW111174   3.979   3.956   1.643
  420SOL    HW211175   3.848   3.983   1.550
  421SOL     OW11176   1.529   1.916   0.959
  421SOL    HW111177   1.624   1.943   0.943
  421SOL    HW211178   1.527   1.823   0.998
  422SOL     OW11179   1.906   0.864   1.725
  422SOL    HW111180   1.965   0.842   1.647
  422SOL    HW211181   1.876   0.780   1.770
  423SOL     OW11182   4.667   4.697   2.026
  423SOL    HW111183   4.615   4.627   1.976
  423SOL    HW211184   4.759   4.705   1.988
  424SOL     OW11185   2.409   5.987   0.669
  424SOL    HW111186   2.488   6.035   0.629
  424SOL    HW211187   2.338   5.977   0.599
  425SOL     OW11188   2.527   5.480   1.143
  425SOL    HW111189   2.575   5.403   1.186
  425SOL    HW211190   2.509   5.459   1.047
  426SOL     OW11191   3.373   3.118   2.287
  426SOL    HW111192   3.371   3.209   2.328
  426SOL    HW211193   3.347   3.124   2.191
  427SOL     OW11194   1.988   5.054   0.557
  427SOL    HW111195   1.899   5.036   0.599
  427SOL    HW211196   1.995   5.151   0.533
  428SOL     OW11197   1.840   6.486   1.609
  428SOL    HW111198   1.935   6.486   1.639
  428SOL    HW211199   1.822   6.406   1.553
  429SOL     OW11200   2.286   1.099   0.506
  429SOL    HW111201   2.190   1.077   0.519
  429SOL    HW211202   2.333   1.020   0.465
  430SOL     OW11203   2.830   7.015   1.911
  430SOL    HW111204   2.903   7.009   1.843
  430SOL    HW211205   2.768   7.089   1.886
  431SOL     OW11206   3.144   7.973   0.830
  431SOL    HW111207   3.074   7.934   0.772
  431SOL    HW211208   3.198   8.040   0.779
  432SOL     OW11209   2.167   4.457   0.733
  432SOL    HW111210   2.245   4.510   0.701
  432SOL    HW211211   2.180   4.360   0.710
  433SOL     OW11212   1.495   7.708   0.887
  433SOL    HW111213   1.557   7.639   0.850
  433SOL    HW211214   1.404   7.668   0.899
  434SOL     OW11215   0.977   2.833   1.640
  434SOL    HW111216   0.979   2.867   1.734
  434SOL    HW211217   0.931   2.900   1.582
  435SOL     OW11218   1.902   5.090   1.161
  435SOL    HW111219   1.844   5.170   1.144
  435SOL    HW211220   1.851   5.023   1.215
  436SOL     OW11221   2.099   2.188   2.293
  436SOL    HW111222   2.137   2.096   2.291
  436SOL    HW211223   1.999   2.182   2.291
  437SOL     OW11224   5.464   3.145   1.618
  437SOL    HW111225   5.554   3.189   1.622
  437SOL    HW211226   5.475   3.046   1.626
  438SOL     OW11227   5.257   2.610   0.458
  438SOL    HW111228   5.211   2.697   0.444
  438SOL    HW211229   5.305   2.611   0.546
  439SOL     OW11230   1.090   7.093   0.834
  439SOL    HW111231   1.184   7.094   0.869
  439SOL    HW211232   1.091   7.099   0.734
  440SOL     OW11233   3.746   2.710   2.088
  440SOL    HW111234   3.739   2.634   2.152
  440SOL    HW211235   3.715   2.794   2.134
  441SOL     OW11236   3.017   3.583   2.137
  441SOL    HW111237   2.960   3.547   2.064
  441SOL    HW211238   3.008   3.525   2.218
  442SOL     OW11239   1.300   6.681   0.905
  442SOL    HW111240   1.326   6.597   0.953
  442SOL    HW211241   1.381   6.721   0.863
  443SOL     OW11242   4.853   3.617   1.315
  443SOL    HW111243   4.910   3.576   1.243
  443SOL    HW211244   4.774   3.558   1.333
  444SOL     OW11245   3.257   8.698   1.052
  444SOL    HW111246   3.192   8.622   1.050
  444SOL    HW211247   3.348   8.662   1.073
  445SOL     OW11248   2.873   1.606   0.959
  445SOL    HW111249   2.841   1.525   0.909
  445SOL    HW211250   2.892   1.679   0.895
  446SOL     OW11251   2.435   6.530   1.090
  446SOL    HW111252   2.370   6.494   1.023
  446SOL    HW211253   2.465   6.621   1.062
  447SOL     OW11254   3.964   1.082   1.026
  447SOL    HW111255   4.005   1.121   1.108
  447SOL    HW211256   3.876   1.127   1.008
  448SOL     OW11257   3.930   4.729   2.342
  448SOL    HW111258   3.877   4.707   2.423
  448SOL    HW211259   4.012   4.671   2.339
  449SOL     OW11260   2.471   3.519   0.734
  449SOL    HW111261   2.546   3.531   0.799
  449SOL    HW211262   2.399   3.585   0.754
  450SOL     OW11263   2.073   0.790   1.523
  450SOL    HW111264   2.106   0.870   1.474
  450SOL    HW211265   2.150   0.736   1.555
  451SOL     OW11266   2.471   6.371   2.173
  451SOL    HW111267   2.552   6.321   2.205
  451SOL    HW211268   2.475   6.379   2.073
  452SOL     OW11269   2.345   2.582   2.284
  452SOL    HW111270   2.372   2.553   2.375
  452SOL    HW211271   2.279   2.657   2.291
  453SOL     OW11272   1.619   7.269   1.107
  453SOL    HW111273   1.553   7.282   1.181
  453SOL    HW211274   1.680   7.348   1.103
  454SOL     OW11275   1.293   5.469   0.542
  454SOL    HW111276   1.324   5.557   0.506
  454SOL    HW211277   1.296   5.400   0.470
  455SOL     OW11278   4.737   3.805   0.847
  455SOL    HW111279   4.777   3.851   0.768
  455SOL    HW211280   4.808   3.754   0.896
  456SOL     OW11281   2.632   6.107   0.557
  456SOL    HW111282   2.697   6.131   0.628
  456SOL    HW211283   2.628   6.179   0.489
  457SOL     OW11284   4.426   2.623   2.202
  457SOL    HW111285   4.450   2.662   2.291
  457SOL    HW211286   4.417   2.696   2.135
  458SOL     OW11287   5.124   2.801   1.235
  458SOL    HW111288   5.220   2.817   1.213
  458SOL    HW211289   5.116   2.720   1.293
  459SOL     OW11290   2.375   5.295   1.973
  459SOL    HW111291   2.389   5.263   2.067
  459SOL    HW211292   2.419   5.232   1.909
  460SOL     OW11293   4.638   4.528   2.252
  460SOL    HW111294   4.700   4.451   2.240
  460SOL    HW211295   4.658   4.598   2.182
  461SOL     OW11296   4.704   2.820   2.166
  461SOL    HW111297   4.656   2.897   2.125
  461SOL    HW211298   4.739   2.760   2.095
  462SOL     OW11299   2.031   4.796   0.473
  462SOL    HW111300   2.125   4.783   0.440
  462SOL    HW211301   2.017   4.893   0.496
  463SOL     OW11302   0.508   5.778   1.603
  463SOL    HW111303   0.604   5.804   1.613
  463SOL    HW211304   0.495   5.683   1.630
  464SOL     OW11305   1.944   3.378   1.759
  464SOL    HW111306   1.972   3.474   1.771
  464SOL    HW211307   2.021   3.318   1.779
  465SOL     OW11308   2.007   7.953   1.938
  465SOL    HW111309   1.936   7.883   1.934
  465SOL    HW211310   2.071   7.939   1.863
  466SOL     OW11311   4.290   1.670   0.864
  466SOL    HW111312   4.229   1.591   0.867
  466SOL    HW211313   4.339   1.678   0.950
  467SOL     OW11314   4.138   4.223   1.028
  467SOL    HW111315   4.208   4.229   1.099
  467SOL    HW211316   4.182   4.205   0.940
  468SOL     OW11317   3.559   2.552   1.955
  468SOL    HW111318   3.634   2.606   1.991
  468SOL    HW211319   3.473   2.579   1.999
  469SOL     OW11320   1.658   4.338   2.222
  469SOL    HW111321   1.739   4.297   2.181
  469SOL    HW211322   1.686   4.393   2.301
  470SOL     OW11323   0.470   5.413   2.253
  470SOL    HW111324   0.566   5.404   2.279
  470SOL    HW211325   0.446   5.509   2.246
  471SOL     OW11326   4.258   2.242   1.634
  471SOL    HW111327   4.283   2.272   1.727
  471SOL    HW211328   4.220   2.319   1.584
  472SOL     OW11329   2.721   3.409   2.203
  472SOL    HW111330   2.793   3.427   2.271
  472SOL    HW211331   2.647   3.475   2.214
  473SOL     OW11332   3.275   3.456   0.456
  473SOL    HW111333   3.327   3.532   0.495
  473SOL    HW211334   3.189   3.446   0.504
  474SOL     OW11335   2.704   6.916   1.246
  474SOL    HW111336   2.675   6.822   1.265
  474SOL    HW211337   2.680   6.974   1.323
  475SOL     OW11338   1.935   8.116   0.805
  475SOL    HW111339   1.920   8.166   0.890
  475SOL    HW211340   1.935   8.018   0.824
  476SOL     OW11341   1.845   7.088   1.350
  476SOL    HW111342   1.751   7.055   1.347
  476SOL    HW211343   1.859   7.144   1.432
  477SOL     OW11344   3.018   8.129   2.299
  477SOL    HW111345   3.072   8.048   2.279
  477SOL    HW211346   2.975   8.162   2.215
  478SOL     OW11347   2.308   5.900   2.355
  478SOL    HW111348   2.339   5.993   2.373
  478SOL    HW211349   2.388   5.840   2.348
  479SOL     OW11350   4.563   1.986   1.252
  479SOL    HW111351   4.647   1.964   1.302
  479SOL    HW211352   4.485   1.943   1.299
  480SOL     OW11353   0.311   5.913   1.481
  480SOL    HW111354   0.329   6.012   1.487
  480SOL    HW211355   0.380   5.863   1.533
  481SOL     OW11356   3.450   4.075   2.060
  481SOL    HW111357   3.541   4.116   2.066
  481SOL    HW211358   3.408   4.100   1.973
  482SOL     OW11359   2.888   4.602   0.989
  482SOL    HW111360   2.967   4.623   1.046
  482SOL    HW211361   2.814   4.667   1.009
  483SOL     OW11362   1.090   3.314   1.336
  483SOL    HW111363   1.076   3.361   1.249
  483SOL    HW211364   1.004   3.309   1.386
  484SOL     OW11365   5.078   3.503   0.777
  484SOL    HW111366   5.153   3.494   0.843
  484SOL    HW211367   5.067   3.416   0.729
  485SOL     OW11368   3.683   2.556   0.534
  485SOL    HW111369   3.711   2.645   0.570
  485SOL    HW211370   3.763   2.505   0.505
  486SOL     OW11371   3.125   7.734   2.051
  486SOL    HW111372   3.031   7.703   2.065
  486SOL    HW211373   3.181   7.659   2.016
  487SOL     OW11374   3.253   7.732   0.892
  487SOL    HW111375   3.176   7.683   0.932
  487SOL    HW211376   3.228   7.828   0.880
  488SOL     OW11377   2.880   4.902   0.436
  488SOL    HW111378   2.924   4.838   0.499
  488SOL    HW211379   2.794   4.862   0.404
  489SOL     OW11380   1.220   6.932   2.188
  489SOL    HW111381   1.236   6.838   2.217
  489SOL    HW211382   1.227   6.938   2.089
  490SOL     OW11383   9.951   5.832   0.430
  490SOL    HW111384   0.004   5.819   0.514
  490SOL    HW211385   9.855   5.848   0.453
  491SOL     OW11386   2.249   5.455   0.475
  491SOL    HW111387   2.345   5.429   0.481
  491SOL    HW211388   2.197   5.382   0.430
  492SOL     OW11389   3.783   4.148   1.851
  492SOL    HW111390   3.881   4.161   1.860
  492SOL    HW211391   3.739   4.154   1.941
  493SOL     OW11392   3.088   9.913   1.681
  493SOL    HW111393   3.158   9.865   1.629
  493SOL    HW211394   3.034   9.970   1.619
  494SOL     OW11395   4.177   3.725   2.370
  494SOL    HW111396   4.125   3.688   2.446
  494SOL    HW211397   4.157   3.673   2.287
  495SOL     OW11398   4.352   8.534   1.019
  495SOL    HW111399   4.357   8.562   0.923
  495SOL    HW211400   4.316   8.609   1.074
  496SOL     OW11401   9.614   5.596   0.577
  496SOL    HW111402   9.708   5.620   0.601
  496SOL    HW211403   9.574   5.542   0.651
  497SOL     OW11404   1.504   4.309   1.850
  497SOL    HW111405   1.471   4.356   1.768
  497SOL    HW211406   1.602   4.291   1.841
  498SOL     OW11407   2.699   9.046   0.472
  498SOL    HW111408   2.794   9.052   0.443
  498SOL    HW211409   2.658   9.137   0.471
  499SOL     OW11410   3.127   6.121   0.918
  499SOL    HW111411   3.169   6.094   1.005
  499SOL    HW211412   3.058   6.053   0.891
  500SOL     OW11413   2.414   1.946   1.814
  500SOL    HW111414   2.355   1.997   1.878
  500SOL    HW211415   2.490   2.004   1.786
  501SOL     OW11416   3.316   9.104   0.463
  501SOL    HW111417   3.272   9.072   0.547
  501SOL    HW211418   3.380   9.035   0.431
  502SOL     OW11419   3.020   6.202   1.570
  502SOL    HW111420   2.940   6.142   1.558
  502SOL    HW211421   2.996   6.277   1.631
  503SOL     OW11422   0.312   5.087   1.712
  503SOL    HW111423   0.228   5.130   1.746
  503SOL    HW211424   0.315   5.095   1.613
  504SOL     OW11425   1.216   7.616   2.038
  504SOL    HW111426   1.175   7.562   2.111
  504SOL    HW211427   1.145   7.672   1.995
  505SOL     OW11428   3.259   0.389   1.274
  505SOL    HW111429   3.337   0.414   1.218
  505SOL    HW211430   3.201   0.469   1.288
  506SOL     OW11431   3.579   4.750   0.921
  506SOL    HW111432   3.528   4.772   0.837
  506SOL    HW211433   3.665   4.706   0.896
  507SOL     OW11434   3.307   1.419   2.138
  507SOL    HW111435   3.379   1.473   2.182
  507SOL    HW211436   3.342   1.328   2.118
  508SOL     OW11437   1.670   5.650   0.584
  508SOL    HW111438   1.744   5.712   0.609
  508SOL    HW211439   1.686   5.613   0.492
  509SOL     OW11440   2.659   1.936   1.301
  509SOL    HW111441   2.568   1.977   1.298
  509SOL    HW211442   2.696   1.946   1.394
  510SOL     OW11443   1.863   1.877   1.276
  510SOL    HW111444   1.856   1.809   1.203
  510SOL    HW211445   1.858   1.969   1.236
  511SOL     OW11446   1.885   7.255   1.567
  511SOL    HW111447   1.881   7.297   1.658
  511SOL    HW211448   1.889   7.327   1.498
  512SOL     OW11449   1.371   4.695   1.772
  512SOL    HW111450   1.406   4.697   1.866
  512SOL    HW211451   1.396   4.779   1.725
  513SOL     OW11452   2.285   9.810   2.266
  513SOL    HW111453   2.277   9.725   2.214
  513SOL    HW211454   2.253   9.795   2.360
  514SOL     OW11455   1.586   8.485   1.751
  514SOL    HW111456   1.587   8.420   1.827
  514SOL    HW211457   1.530   8.448   1.677
  515SOL     OW11458   4.413   3.035   0.413
  515SOL    HW111459   4.471   2.956   0.393
  515SOL    HW211460   4.336   3.006   0.469
  516SOL     OW11461   2.154   4.879   2.100
  516SOL    HW111462   2.232   4.880   2.037
  516SOL    HW211463   2.171   4.944   2.175
  517SOL     OW11464   3.361   4.352   1.656
  517SOL    HW111465   3.373   4.439   1.609
  517SOL    HW211466   3.404   4.279   1.602
  518SOL     OW11467   3.751   5.133   0.955
  518SOL    HW111468   3.832   5.155   0.901
  518SOL    HW211469   3.760   5.041   0.993
  519SOL     OW11470   4.171   4.595   2.306
  519SOL    HW111471   4.228   4.527   2.352
  519SOL    HW211472   4.229   4.669   2.272
  520SOL     OW11473   4.384   4.854   1.293
  520SOL    HW111474   4.309   4.921   1.301
  520SOL    HW211475   4.362   4.774   1.350
  521SOL     OW11476   0.902   6.399   0.635
  521SOL    HW111477   0.988   6.364   0.672
  521SOL    HW211478   0.828   6.384   0.701
  522SOL     OW11479   3.527   8.378   1.558
  522SOL    HW111480   3.556   8.447   1.492
  522SOL    HW211481   3.596   8.368   1.630
  523SOL     OW11482   3.681   3.485   2.115
  523SOL    HW111483   3.765   3.482   2.170
  523SOL    HW211484   3.656   3.580   2.098
  524SOL     OW11485   3.760   0.328   2.124
  524SOL    HW111486   3.693   0.254   2.125
  524SOL    HW211487   3.838   0.304   2.183
  525SOL     OW11488   4.737   2.083   0.977
  525SOL    HW111489   4.665   2.145   1.005
  525SOL    HW211490   4.697   1.994   0.953
  526SOL     OW11491   3.939   9.089   0.537
  526SOL    HW111492   4.033   9.096   0.504
  526SOL    HW211493   3.877   9.099   0.459
  527SOL     OW11494   4.850   4.272   1.410
  527SOL    HW111495   4.787   4.289   1.485
  527SOL    HW211496   4.877   4.358   1.368
  528SOL     OW11497   0.741   5.545   1.800
  528SOL    HW111498   0.797   5.523   1.720
  528SOL    HW211499   0.797   5.538   1.883
  529SOL     OW11500   0.622   4.203   1.456
  529SOL    HW111501   0.611   4.114   1.411
  529SOL    HW211502   0.695   4.254   1.411
  530SOL     OW11503   2.958   1.778   2.041
  530SOL    HW111504   2.972   1.736   2.130
  530SOL    HW211505   2.870   1.749   2.003
  531SOL     OW11506   0.459   3.904   2.132
  531SOL    HW111507   0.417   3.978   2.184
  531SOL    HW211508   0.388   3.856   2.079
  532SOL     OW11509   2.889   2.185   0.741
  532SOL    HW111510   2.937   2.119   0.800
  532SOL    HW211511   2.792   2.186   0.764
  533SOL     OW11512   3.102   7.310   1.815
  533SOL    HW111513   3.103   7.227   1.759
  533SOL    HW211514   3.185   7.362   1.799
  534SOL     OW11515   1.707   2.021   2.054
  534SOL    HW111516   1.687   1.932   2.096
  534SOL    HW211517   1.759   2.007   1.969
  535SOL     OW11518   2.948   7.036   1.191
  535SOL    HW111519   2.867   6.977   1.195
  535SOL    HW211520   2.919   7.131   1.190
  536SOL     OW11521   3.264   1.275   0.548
  536SOL    HW111522   3.333   1.210   0.514
  536SOL    HW211523   3.287   1.367   0.516
  537SOL     OW11524   4.550   4.453   1.920
  537SOL    HW111525   4.480   4.456   1.991
  537SOL    HW211526   4.528   4.380   1.855
  538SOL     OW11527   2.900   8.087   0.524
  538SOL    HW111528   2.813   8.131   0.501
  538SOL    HW211529   2.894   7.989   0.501
  539SOL     OW11530   2.662   6.725   0.624
  539SOL    HW111531   2.738   6.745   0.562
  539SOL    HW211532   2.694   6.664   0.697
  540SOL     OW11533   2.278   1.809   1.482
  540SOL    HW111534   2.270   1.824   1.383
  540SOL    HW211535   2.230   1.882   1.531
  541SOL     OW11536   3.992   4.181   2.197
  541SOL    HW111537   3.974   4.233   2.281
  541SOL    HW211538   4.051   4.103   2.217
  542SOL     OW11539   2.847   3.765   0.861
  542SOL    HW111540   2.907   3.707   0.806
  542SOL    HW211541   2.901   3.809   0.933
  543SOL     OW11542   1.790   5.464   1.480
  543SOL    HW111543   1.730   5.392   1.514
  543SOL    HW211544   1.734   5.536   1.437
  544SOL     OW11545   3.081   4.117   1.487
  544SOL    HW111546   3.006   4.128   1.552
  544SOL    HW211547   3.119   4.207   1.465
  545SOL     OW11548   4.207   0.295   1.286
  545SOL    HW111549   4.243   0.388   1.295
  545SOL    HW211550   4.231   0.242   1.367
  546SOL     OW11551   0.177   3.919   2.386
  546SOL    HW111552   0.196   3.836   2.332
  546SOL    HW211553   0.231   3.995   2.350
  547SOL     OW11554   4.085   2.459   1.952
  547SOL    HW111555   4.057   2.554   1.960
  547SOL    HW211556   4.018   2.409   1.897
  548SOL     OW11557   2.785   6.334   1.922
  548SOL    HW111558   2.853   6.370   1.858
  548SOL    HW211559   2.708   6.397   1.928
  549SOL     OW11560   2.021   1.098   1.827
  549SOL    HW111561   1.980   1.170   1.771
  549SOL    HW211562   1.985   1.009   1.800
  550SOL     OW11563   0.978   2.459   0.582
  550SOL    HW111564   1.020   2.371   0.561
  550SOL    HW211565   1.031   2.533   0.540
  551SOL     OW11566   2.908   5.155   0.527
  551SOL    HW111567   2.898   5.065   0.485
  551SOL    HW211568   3.005   5.180   0.531
  552SOL     OW11569   2.643   7.534   0.938
  552SOL    HW111570   2.650   7.627   0.901
  552SOL    HW211571   2.734   7.494   0.946
  553SOL     OW11572   2.679   0.588   0.876
  553SOL    HW111573   2.708   0.495   0.852
  553SOL    HW211574   2.595   0.582   0.930
  554SOL     OW11575   2.645   7.204   1.864
  554SOL    HW111576   2.623   7.288   1.814
  554SOL    HW211577   2.563   7.148   1.873
  555SOL     OW11578   3.965   0.413   0.944
  555SOL    HW111579   4.055   0.378   0.970
  555SOL    HW211580   3.915   0.442   1.026
  556SOL     OW11581   3.308   4.217   2.251
  556SOL    HW111582   3.219   4.175   2.270
  556SOL    HW211583   3.359   4.159   2.187
  557SOL     OW11584   9.875   5.376   1.430
  557SOL    HW111585   9.941   5.312   1.390
  557SOL    HW211586   9.841   5.438   1.360
  558SOL     OW11587   3.220   0.264   2.051
  558SOL    HW111588   3.166   0.203   1.993
  558SOL    HW211589   3.305   0.289   2.004
  559SOL     OW11590   2.282   8.468   1.931
  559SOL    HW111591   2.364   8.516   1.962
  559SOL    HW211592   2.241   8.418   2.008
  560SOL     OW11593   3.223   4.530   1.813
  560SOL    HW111594   3.283   4.461   1.773
  560SOL    HW211595   3.171   4.575   1.741
  561SOL     OW11596   3.746   1.842   1.530
  561SOL    HW111597   3.752   1.901   1.450
  561SOL    HW211598   3.654   1.801   1.534
  562SOL     OW11599   2.146   7.666   0.916
  562SOL    HW111600   2.133   7.567   0.930
  562SOL    HW211601   2.133   7.714   1.002
  563SOL     OW11602   1.747   8.682   0.848
  563SOL    HW111603   1.817   8.653   0.783
  563SOL    HW211604   1.713   8.772   0.822
  564SOL     OW11605   2.741   4.824   1.352
  564SOL    HW111606   2.806   4.880   1.402
  564SOL    HW211607   2.706   4.752   1.412
  565SOL     OW11608   4.286   4.902   0.671
  565SOL    HW111609   4.187   4.905   0.680
  565SOL    HW211610   4.311   4.860   0.584
  566SOL     OW11611   1.497   2.149   0.563
  566SOL    HW111612   1.433   2.202   0.507
  566SOL    HW211613   1.446   2.089   0.624
  567SOL     OW11614   2.074   0.023   0.633
  567SOL    HW111615   2.072   0.118   0.666
  567SOL    HW211616   2.112   9.964   0.704
  568SOL     OW11617   0.346   5.835   0.873
  568SOL    HW111618   0.404   5.852   0.794
  568SOL    HW211619   0.343   5.916   0.931
  569SOL     OW11620   1.370   4.095   2.259
  569SOL    HW111621   1.432   4.151   2.314
  569SOL    HW211622   1.358   4.138   2.169
  570SOL     OW11623   3.708   3.641   1.720
  570SOL    HW111624   3.695   3.732   1.759
  570SOL    HW211625   3.735   3.650   1.624
  571SOL     OW11626   2.848   1.008   1.070
  571SOL    HW111627   2.850   0.908   1.067
  571SOL    HW211628   2.929   1.044   1.024
  572SOL     OW11629   1.752   8.233   0.632
  572SOL    HW111630   1.815   8.193   0.699
  572SOL    HW211631   1.805   8.278   0.560
  573SOL     OW11632   2.092   6.184   0.564
  573SOL    HW111633   2.124   6.093   0.539
  573SOL    HW211634   2.021   6.177   0.633
  574SOL     OW11635   3.660   0.143   1.362
  574SOL    HW111636   3.647   0.239   1.386
  574SOL    HW211637   3.618   0.125   1.273
  575SOL     OW11638   2.531   6.245   1.699
  575SOL    HW111639   2.582   6.198   1.772
  575SOL    HW211640   2.467   6.182   1.656
  576SOL     OW11641   4.031   1.215   0.308
  576SOL    HW111642   4.106   1.160   0.345
  576SOL    HW211643   4.026   1.301   0.358
  577SOL     OW11644   2.815   9.204   1.519
  577SOL    HW111645   2.789   9.112   1.491
  577SOL    HW211646   2.767   9.228   1.603
  578SOL     OW11647   1.667   8.834   1.551
  578SOL    HW111648   1.571   8.808   1.561
  578SOL    HW211649   1.725   8.762   1.590
  579SOL     OW11650   2.255   1.962   2.249
  579SOL    HW111651   2.267   1.863   2.252
  579SOL    HW211652   2.339   2.006   2.283
  580SOL     OW11653   3.865   9.879   1.675
  580SOL    HW111654   3.913   9.957   1.634
  580SOL    HW211655   3.904   9.860   1.764
  581SOL     OW11656   1.293   3.148   2.089
  581SOL    HW111657   1.313   3.179   1.997
  581SOL    HW211658   1.202   3.180   2.116
  582SOL     OW11659   2.936   2.729   1.252
  582SOL    HW111660   2.957   2.798   1.321
  582SOL    HW211661   2.876   2.769   1.183
  583SOL     OW11662   0.004   4.355   0.827
  583SOL    HW111663   9.972   4.272   0.871
  583SOL    HW211664   0.100   4.370   0.847
  584SOL     OW11665   3.687   1.387   0.765
  584SOL    HW111666   3.643   1.456   0.822
  584SOL    HW211667   3.646   1.388   0.674
  585SOL     OW11668   4.033   4.909   0.535
  585SOL    HW111669   4.009   5.005   0.548
  585SOL    HW211670   4.105   4.901   0.467
  586SOL     OW11671   2.778   2.877   2.299
  586SOL    HW111672   2.767   2.975   2.280
  586SOL    HW211673   2.697   2.828   2.267
  587SOL     OW11674   1.666   8.678   1.945
  587SOL    HW111675   1.619   8.632   1.870
  587SOL    HW211676   1.710   8.762   1.911
  588SOL     OW11677   1.725   5.931   0.948
  588SOL    HW111678   1.677   5.851   0.913
  588SOL    HW211679   1.816   5.937   0.906
  589SOL     OW11680   2.267   9.223   0.992
  589SOL    HW111681   2.297   9.170   1.072
  589SOL    HW211682   2.179   9.189   0.960
  590SOL     OW11683   2.380   7.212   2.088
  590SOL    HW111684   2.418   7.163   2.166
  590SOL    HW211685   2.386   7.155   2.006
  591SOL     OW11686   3.344   0.302   1.524
  591SOL    HW111687   3.440   0.329   1.531
  591SOL    HW211688   3.311   0.320   1.431
  592SOL     OW11689   2.182   1.325   1.543
  592SOL    HW111690   2.090   1.295   1.567
  592SOL    HW211691   2.188   1.425   1.548
  593SOL     OW11692   1.321   6.669   2.238
  593SOL    HW111693   1.272   6.632   2.158
  593SOL    HW211694   1.392   6.605   2.266
  594SOL     OW11695   1.324   4.112   1.570
  594SOL    HW111696   1.244   4.098   1.627
  594SOL    HW211697   1.406   4.081   1.618
  595SOL     OW11698   2.803   5.258   1.217
  595SOL    HW111699   2.725   5.215   1.263
  595SOL    HW211700   2.825   5.206   1.134
  596SOL     OW11701   1.716   1.063   1.682
  596SOL    HW111702   1.727   1.105   1.592
  596SOL    HW211703   1.779   0.986   1.691
  597SOL     OW11704   1.612   4.078   0.477
  597SOL    HW111705   1.664   4.152   0.435
  597SOL    HW211706   1.626   3.993   0.426
  598SOL     OW11707   3.673   0.997   0.521
  598SOL    HW111708   3.732   1.012   0.442
  598SOL    HW211709   3.581   1.031   0.501
  599SOL     OW11710   1.736   2.353   1.710
  599SOL    HW111711   1.717   2.277   1.648
  599SOL    HW211712   1.707   2.438   1.667
  600SOL     OW11713   4.797   3.078   1.869
  600SOL    HW111714   4.786   3.163   1.817
  600SOL    HW211715   4.788   3.000   1.807
  601SOL     OW11716   1.799   7.757   1.056
  601SOL    HW111717   1.717   7.815   1.059
  601SOL    HW211718   1.849   7.776   0.971
  602SOL     OW11719   2.714   6.660   1.588
  602SOL    HW111720   2.701   6.696   1.680
  602SOL    HW211721   2.810   6.669   1.562
  603SOL     OW11722   4.620   1.872   1.794
  603SOL    HW111723   4.551   1.899   1.861
  603SOL    HW211724   4.711   1.888   1.833
  604SOL     OW11725   0.732   5.584   1.400
  604SOL    HW111726   0.791   5.551   1.474
  604SOL    HW211727   0.732   5.684   1.400
  605SOL     OW11728   2.424   3.707   1.509
  605SOL    HW111729   2.447   3.719   1.413
  605SOL    HW211730   2.405   3.610   1.527
  606SOL     OW11731   4.791   3.525   2.272
  606SOL    HW111732   4.852   3.446   2.262
  606SOL    HW211733   4.763   3.557   2.181
  607SOL     OW11734   1.789   1.114   1.040
  607SOL    HW111735   1.720   1.042   1.049
  607SOL    HW211736   1.818   1.122   0.944
  608SOL     OW11737   3.976   2.076   1.857
  608SOL    HW111738   3.923   2.070   1.941
  608SOL    HW211739   3.968   2.168   1.818
  609SOL     OW11740   2.936   4.329   0.394
  609SOL    HW111741   2.931   4.325   0.294
  609SOL    HW211742   2.928   4.237   0.432
  610SOL     OW11743   4.512   1.772   2.175
  610SOL    HW111744   4.498   1.843   2.106
  610SOL    HW211745   4.438   1.776   2.243
  611SOL     OW11746   9.444   3.843   2.179
  611SOL    HW111747   9.438   3.923   2.119
  611SOL    HW211748   9.358   3.832   2.228
  612SOL     OW11749   3.209   2.712   1.181
  612SOL    HW111750   3.257   2.690   1.265
  612SOL    HW211751   3.111   2.708   1.196
  613SOL     OW11752   0.582   4.617   2.044
  613SOL    HW111753   0.680   4.625   2.025
  613SOL    HW211754   0.531   4.682   1.987
  614SOL     OW11755   3.517   4.981   2.213
  614SOL    HW111756   3.540   4.933   2.128
  614SOL    HW211757   3.449   4.929   2.264
  615SOL     OW11758   1.706   6.123   1.674
  615SOL    HW111759   1.798   6.097   1.704
  615SOL    HW211760   1.713   6.174   1.588
  616SOL     OW11761   2.605   1.336   1.593
  616SOL    HW111762   2.525   1.294   1.548
  616SOL    HW211763   2.579   1.367   1.684
  617SOL     OW11764   1.774   4.279   1.811
  617SOL    HW111765   1.832   4.358   1.830
  617SOL    HW211766   1.831   4.200   1.789
  618SOL     OW11767   3.315   3.615   1.632
  618SOL    HW111768   3.342   3.547   1.700
  618SOL    HW211769   3.393   3.634   1.572
  619SOL     OW11770   3.322   9.787   0.568
  619SOL    HW111771   3.371   9.874   0.575
  619SOL    HW211772   3.305   9.751   0.660
  620SOL     OW11773   9.744   4.258   2.270
  620SOL    HW111774   9.738   4.334   2.205
  620SOL    HW211775   9.683   4.275   2.347
  621SOL     OW11776   4.755   2.873   1.692
  621SOL    HW111777   4.667   2.830   1.715
  621SOL    HW211778   4.817   2.804   1.655
  622SOL     OW11779   0.852   3.237   0.610
  622SOL    HW111780   0.946   3.231   0.645
  622SOL    HW211781   0.816   3.328   0.626
  623SOL     OW11782   1.142   4.025   0.405
  623SOL    HW111783   1.172   3.941   0.360
  623SOL    HW211784   1.044   4.019   0.424
  624SOL     OW11785   2.112   1.838   0.740
  624SOL    HW111786   2.189   1.898   0.765
  624SOL    HW211787   2.053   1.885   0.674
  625SOL     OW11788   3.423   0.654   2.088
  625SOL    HW111789   3.342   0.640   2.146
  625SOL    HW211790   3.402   0.623   1.995
  626SOL     OW11791   2.933   7.762   1.596
  626SOL    HW111792   2.855   7.798   1.545
  626SOL    HW211793   2.904   7.684   1.652
  627SOL     OW11794   2.169   4.119   1.721
  627SOL    HW111795   2.192   4.044   1.658
  627SOL    HW211796   2.190   4.206   1.677
  628SOL     OW11797   3.113   5.206   1.959
  628SOL    HW111798   3.023   5.165   1.969
  628SOL    HW211799   3.151   5.182   1.869
  629SOL     OW11800   2.239   2.757   1.080
  629SOL    HW111801   2.147   2.759   1.041
  629SOL    HW211802   2.306   2.753   1.006
  630SOL     OW11803   0.912   5.907   2.358
  630SOL    HW111804   0.836   5.872   2.302
  630SOL    HW211805   0.889   5.998   2.392
  631SOL     OW11806   0.597   3.685   0.343
  631SOL    HW111807   0.539   3.613   0.380
  631SOL    HW211808   0.546   3.736   0.273
  632SOL     OW11809   1.871   8.709   1.104
  632SOL    HW111810   1.811   8.687   1.027
  632SOL    HW211811   1.892   8.807   1.104
  633SOL     OW11812   9.939   5.738   1.910
  633SOL    HW111813   0.025   5.738   1.962
  633SOL    HW211814   9.948   5.800   1.832
  634SOL     OW11815   3.366   1.904   1.306
  634SOL    HW111816   3.268   1.923   1.298
  634SOL    HW211817   3.404   1.886   1.216
  635SOL     OW11818   4.351   8.280   0.917
  635SOL    HW111819   4.354   8.294   0.818
  635SOL    HW211820   4.356   8.369   0.963
  636SOL     OW11821   1.891   8.265   1.027
  636SOL    HW111822   1.815   8.322   0.995
  636SOL    HW211823   1.909   8.285   1.124
  637SOL     OW11824   4.313   9.247   0.986
  637SOL    HW111825   4.277   9.334   1.021
  637SOL    HW211826   4.341   9.259   0.891
  638SOL     OW11827   3.418   1.616   0.589
  638SOL    HW111828   3.464   1.704   0.579
  638SOL    HW211829   3.386   1.606   0.683
  639SOL     OW11830   1.637   5.269   1.593
  639SOL    HW111831   1.658   5.173   1.574
  639SOL    HW211832   1.661   5.291   1.688
  640SOL     OW11833   3.241   6.427   1.872
  640SOL    HW111834   3.264   6.463   1.962
  640SOL    HW211835   3.270   6.331   1.866
  641SOL     OW11836   5.385   2.586   0.704
  641SOL    HW111837   5.346   2.494   0.707
  641SOL    HW211838   5.345   2.642   0.776
  642SOL     OW11839   4.681   0.603   1.042
  642SOL    HW111840   4.777   0.614   1.071
  642SOL    HW211841   4.679   0.570   0.948
  643SOL     OW11842   3.600   3.741   2.043
  643SOL    HW111843   3.628   3.786   1.958
  643SOL    HW211844   3.502   3.757   2.058
  644SOL     OW11845   4.113   0.794   1.350
  644SOL    HW111846   4.157   0.771   1.263
  644SOL    HW211847   4.172   0.767   1.426
  645SOL     OW11848   3.236   4.120   0.687
  645SOL    HW111849   3.200   4.026   0.683
  645SOL    HW211850   3.336   4.116   0.690
  646SOL     OW11851   3.335   4.756   1.053
  646SOL    HW111852   3.305   4.850   1.034
  646SOL    HW211853   3.427   4.743   1.017
  647SOL     OW11854   2.871   1.178   0.786
  647SOL    HW111855   2.902   1.144   0.698
  647SOL    HW211856   2.941   1.160   0.855
  648SOL     OW11857   2.857   8.569   0.605
  648SOL    HW111858   2.876   8.606   0.696
  648SOL    HW211859   2.804   8.636   0.552
  649SOL     OW11860   1.178   5.429   1.900
  649SOL    HW111861   1.263   5.441   1.847
  649SOL    HW211862   1.199   5.386   1.987
  650SOL     OW11863   1.548   4.435   0.813
  650SOL    HW111864   1.475   4.387   0.764
  650SOL    HW211865   1.628   4.444   0.753
  651SOL     OW11866   2.768   9.896   2.161
  651SOL    HW111867   2.696   9.837   2.124
  651SOL    HW211868   2.844   9.838   2.193
  652SOL     OW11869   4.774   1.275   0.761
  652SOL    HW111870   4.763   1.276   0.861
  652SOL    HW211871   4.734   1.192   0.723
  653SOL     OW11872   1.566   3.241   1.437
  653SOL    HW111873   1.655   3.286   1.451
  653SOL    HW211874   1.504   3.304   1.392
  654SOL     OW11875   2.111   6.700   0.851
  654SOL    HW111876   2.181   6.769   0.836
  654SOL    HW211877   2.025   6.745   0.876
  655SOL     OW11878   0.422   3.506   0.448
  655SOL    HW111879   0.428   3.427   0.509
  655SOL    HW211880   0.335   3.554   0.464
  656SOL     OW11881   2.614   1.739   0.626
  656SOL    HW111882   2.548   1.811   0.602
  656SOL    HW211883   2.658   1.706   0.543
  657SOL     OW11884   4.438   4.571   0.531
  657SOL    HW111885   4.514   4.514   0.501
  657SOL    HW211886   4.433   4.571   0.631
  658SOL     OW11887   1.962   1.981   0.558
  658SOL    HW111888   1.876   2.018   0.592
  658SOL    HW211889   1.944   1.895   0.509
  659SOL     OW11890   3.931   8.109   0.823
  659SOL    HW111891   3.852   8.170   0.816
  659SOL    HW211892   3.945   8.084   0.919
  660SOL     OW11893   9.162   4.800   2.080
  660SOL    HW111894   9.182   4.734   2.153
  660SOL    HW211895   9.238   4.800   2.015
  661SOL     OW11896   0.853   4.629   1.078
  661SOL    HW111897   0.847   4.709   1.018
  661SOL    HW211898   0.761   4.602   1.106
  662SOL     OW11899   2.091   5.449   1.232
  662SOL    HW111900   2.111   5.392   1.152
  662SOL    HW211901   2.078   5.390   1.312
  663SOL     OW11902   1.965   2.248   1.807
  663SOL    HW111903   1.974   2.278   1.902
  663SOL    HW211904   1.886   2.291   1.765
  664SOL     OW11905   2.411   4.813   0.495
  664SOL    HW111906   2.504   4.809   0.457
  664SOL    HW211907   2.399   4.899   0.545
  665SOL     OW11908   4.034   5.540   2.060
  665SOL    HW111909   4.046   5.478   2.138
  665SOL    HW211910   3.981   5.620   2.088
  666SOL     OW11911   1.978   2.496   0.913
  666SOL    HW111912   1.933   2.471   0.828
  666SOL    HW211913   1.982   2.595   0.922
  667SOL     OW11914   2.259   6.005   0.898
  667SOL    HW111915   2.315   6.006   0.815
  667SOL    HW211916   2.306   5.954   0.970
  668SOL     OW11917   2.801   6.347   0.971
  668SOL    HW111918   2.882   6.355   1.030
  668SOL    HW211919   2.721   6.328   1.028
  669SOL     OW11920   1.826   3.839   1.761
  669SOL    HW111921   1.829   3.847   1.662
  669SOL    HW211922   1.867   3.920   1.803
  670SOL     OW11923   0.780   4.154   1.677
  670SOL    HW111924   0.707   4.160   1.609
  670SOL    HW211925   0.865   4.186   1.638
  671SOL     OW11926   3.632   4.461   0.346
  671SOL    HW111927   3.661   4.540   0.400
  671SOL    HW211928   3.573   4.402   0.402
  672SOL     OW11929   3.467   0.844   1.507
  672SOL    HW111930   3.454   0.937   1.473
  672SOL    HW211931   3.378   0.803   1.526
  673SOL     OW11932   3.340   5.271   1.007
  673SOL    HW111933   3.433   5.278   1.042
  673SOL    HW211934   3.306   5.363   0.983
  674SOL     OW11935   3.838   0.475   1.179
  674SOL    HW111936   3.763   0.425   1.222
  674SOL    HW211937   3.854   0.560   1.228
  675SOL     OW11938   2.924   0.668   0.749
  675SOL    HW111939   2.844   0.641   0.803
  675SOL    HW211940   3.008   0.641   0.797
  676SOL     OW11941   3.736   4.460   1.136
  676SOL    HW111942   3.685   4.531   1.186
  676SOL    HW211943   3.733   4.374   1.187
  677SOL     OW11944   4.824   4.434   1.911
  677SOL    HW111945   4.846   4.338   1.927
  677SOL    HW211946   4.725   4.446   1.909
  678SOL     OW11947   2.170   8.306   1.442
  678SOL    HW111948   2.184   8.390   1.390
  678SOL    HW211949   2.200   8.320   1.536
  679SOL     OW11950   2.201   2.417   0.752
  679SOL    HW111951   2.171   2.336   0.704
  679SOL    HW211952   2.132   2.444   0.819
  680SOL     OW11953   4.606   3.957   1.514
  680SOL    HW111954   4.682   3.972   1.451
  680SOL    HW211955   4.639   3.955   1.608
  681SOL     OW11956   1.974   0.885   2.179
  681SOL    HW111957   2.019   0.971   2.156
  681SOL    HW211958   1.879   0.903   2.205
  682SOL     OW11959   3.331   2.655   2.079
  682SOL    HW111960   3.339   2.725   2.151
  682SOL    HW211961   3.243   2.608   2.088
  683SOL     OW11962   2.117   4.562   0.981
  683SOL    HW111963   2.140   4.519   0.894
  683SOL    HW211964   2.037   4.518   1.021
  684SOL     OW11965   2.489   1.519   0.750
  684SOL    HW111966   2.461   1.447   0.687
  684SOL    HW211967   2.525   1.597   0.699
  685SOL     OW11968   5.595   3.254   1.140
  685SOL    HW111969   5.677   3.220   1.186
  685SOL    HW211970   5.586   3.352   1.156
  686SOL     OW11971   1.046   3.222   1.846
  686SOL    HW111972   1.145   3.232   1.839
  686SOL    HW211973   1.001   3.289   1.787
  687SOL     OW11974   3.780   3.908   0.492
  687SOL    HW111975   3.829   3.962   0.561
  687SOL    HW211976   3.722   3.969   0.438
  688SOL     OW11977   2.372   3.432   1.533
  688SOL    HW111978   2.281   3.424   1.492
  688SOL    HW211979   2.426   3.351   1.508
  689SOL     OW11980   0.024   3.961   0.408
  689SOL    HW111981   9.930   3.927   0.400
  689SOL    HW211982   0.022   4.058   0.432
  690SOL     OW11983   1.367   7.078   0.855
  690SOL    HW111984   1.444   7.054   0.916
  690SOL    HW211985   1.369   7.019   0.775
  691SOL     OW11986   3.938   1.359   1.432
  691SOL    HW111987   3.917   1.380   1.527
  691SOL    HW211988   3.884   1.418   1.372
  692SOL     OW11989   4.043   3.856   0.427
  692SOL    HW111990   3.944   3.856   0.430
  692SOL    HW211991   4.077   3.949   0.420
  693SOL     OW11992   4.441   4.014   1.988
  693SOL    HW111993   4.383   3.956   1.931
  693SOL    HW211994   4.504   3.956   2.040
  694SOL     OW11995   2.734   4.993   1.756
  694SOL    HW111996   2.804   4.957   1.696
  694SOL    HW211997   2.672   4.919   1.783
  695SOL     OW11998   4.317   8.793   1.118
  695SOL    HW111999   4.309   8.815   1.215
  695SOL    HW212000   4.400   8.835   1.080
  696SOL     OW12001   3.994   2.715   1.969
  696SOL    HW112002   3.904   2.716   2.013
  696SOL    HW212003   3.995   2.782   1.895
  697SOL     OW12004   2.829   1.105   1.324
  697SOL    HW112005   2.835   1.082   1.227
  697SOL    HW212006   2.785   1.195   1.334
  698SOL     OW12007   3.940   3.112   0.944
  698SOL    HW112008   3.975   3.203   0.922
  698SOL    HW212009   3.915   3.109   1.041
  699SOL     OW12010   3.767   8.615   1.188
  699SOL    HW112011   3.826   8.539   1.212
  699SOL    HW212012   3.797   8.655   1.101
  700SOL     OW12013   3.284   9.220   1.495
  700SOL    HW112014   3.199   9.221   1.548
  700SOL    HW212015   3.312   9.313   1.475
  701SOL     OW12016   4.095   2.513   0.971
  701SOL    HW112017   3.998   2.525   0.993
  701SOL    HW212018   4.116   2.416   0.961
  702SOL     OW12019   0.571   4.974   0.751
  702SOL    HW112020   0.629   5.050   0.721
  702SOL    HW212021   0.481   5.009   0.774
  703SOL     OW12022   9.606   5.278   1.060
  703SOL    HW112023   9.657   5.238   0.984
  703SOL    HW212024   9.638   5.240   1.147
  704SOL     OW12025   2.791   7.829   0.480
  704SOL    HW112026   2.704   7.861   0.518
  704SOL    HW212027   2.777   7.797   0.387
  705SOL     OW12028   3.173   3.211   1.790
  705SOL    HW112029   3.177   3.144   1.715
  705SOL    HW212030   3.239   3.284   1.772
  706SOL     OW12031   0.747   5.205   1.903
  706SOL    HW112032   0.791   5.146   1.971
  706SOL    HW212033   0.655   5.229   1.935
  707SOL     OW12034   4.449   2.531   0.703
  707SOL    HW112035   4.415   2.503   0.613
  707SOL    HW212036   4.487   2.623   0.697
  708SOL     OW12037   9.723   4.749   1.458
  708SOL    HW112038   9.698   4.669   1.403
  708SOL    HW212039   9.779   4.720   1.535
  709SOL     OW12040   2.326   4.947   1.886
  709SOL    HW112041   2.231   4.965   1.859
  709SOL    HW212042   2.386   5.019   1.851
  710SOL     OW12043   9.208   3.896   1.096
  710SOL    HW112044   9.269   3.896   1.175
  710SOL    HW212045   9.222   3.980   1.043
  711SOL     OW12046   0.534   2.943   0.497
  711SOL    HW112047   0.458   2.960   0.434
  711SOL    HW212048   0.600   2.882   0.454
  712SOL     OW12049   3.230   0.482   0.481
  712SOL    HW112050   3.190   0.466   0.390
  712SOL    HW212051   3.277   0.399   0.512
  713SOL     OW12052   2.112   0.146   2.088
  713SOL    HW112053   2.047   0.151   2.164
  713SOL    HW212054   2.071   0.093   2.013
  714SOL     OW12055   5.387   3.084   1.167
  714SOL    HW112056   5.412   2.990   1.147
  714SOL    HW212057   5.462   3.145   1.142
  715SOL     OW12058   1.872   8.096   1.610
  715SOL    HW112059   1.901   8.172   1.667
  715SOL    HW212060   1.778   8.112   1.577
  716SOL     OW12061   4.380   2.439   0.450
  716SOL    HW112062   4.469   2.396   0.434
  716SOL    HW212063   4.364   2.509   0.380
  717SOL     OW12064   1.372   5.400   1.146
  717SOL    HW112065   1.426   5.330   1.193
  717SOL    HW212066   1.280   5.365   1.127
  718SOL     OW12067   4.329   2.377   1.861
  718SOL    HW112068   4.241   2.402   1.900
  718SOL    HW212069   4.388   2.458   1.857
  719SOL     OW12070   3.268   4.294   1.346
  719SOL    HW112071   3.312   4.377   1.309
  719SOL    HW212072   3.335   4.241   1.397
  720SOL     OW12073   2.343   5.031   0.669
  720SOL    HW112074   2.353   5.095   0.745
  720SOL    HW212075   2.248   5.032   0.638
  721SOL     OW12076   0.930   4.119   0.690
  721SOL    HW112077   0.985   4.089   0.768
  721SOL    HW212078   0.897   4.212   0.706
  722SOL     OW12079   2.974   2.251   2.325
  722SOL    HW112080   2.957   2.295   2.413
  722SOL    HW212081   3.065   2.277   2.292
  723SOL     OW12082   3.997   3.630   0.589
  723SOL    HW112083   4.035   3.548   0.545
  723SOL    HW212084   4.021   3.710   0.535
  724SOL     OW12085   4.593   2.663   1.394
  724SOL    HW112086   4.533   2.647   1.316
  724SOL    HW212087   4.551   2.627   1.477
  725SOL     OW12088   2.903   5.621   1.549
  725SOL    HW112089   2.991   5.658   1.580
  725SOL    HW212090   2.920   5.551   1.480
  726SOL     OW12091   2.352   1.081   1.086
  726SOL    HW112092   2.450   1.091   1.069
  726SOL    HW212093   2.334   0.993   1.130
  727SOL     OW12094   3.515   5.676   1.867
  727SOL    HW112095   3.416   5.683   1.877
  727SOL    HW212096   3.540   5.583   1.841
  728SOL     OW12097   2.115   7.038   1.019
  728SOL    HW112098   2.091   7.005   1.110
  728SOL    HW212099   2.032   7.064   0.970
  729SOL     OW12100   5.034   2.785   2.000
  729SOL    HW112101   5.049   2.849   1.924
  729SOL    HW212102   4.942   2.744   1.992
  730SOL     OW12103   1.234   6.550   2.005
  730SOL    HW112104   1.204   6.617   1.936
  730SOL    HW212105   1.185   6.464   1.990
  731SOL     OW12106   1.851   5.591   2.195
  731SOL    HW112107   1.842   5.508   2.251
  731SOL    HW212108   1.926   5.646   2.230
  732SOL     OW12109   1.025   6.182   1.523
  732SOL    HW112110   1.122   6.201   1.541
  732SOL    HW212111   0.989   6.249   1.459
  733SOL     OW12112   4.329   1.129   0.778
  733SOL    HW112113   4.375   1.160   0.694
  733SOL    HW212114   4.238   1.169   0.781
  734SOL     OW12115   4.143   2.857   2.165
  734SOL    HW112116   4.069   2.920   2.186
  734SOL    HW212117   4.109   2.784   2.105
  735SOL     OW12118   3.857   0.707   1.340
  735SOL    HW112119   3.947   0.751   1.343
  735SOL    HW212120   3.795   0.764   1.285
  736SOL     OW12121   0.067   5.187   1.356
  736SOL    HW112122   0.132   5.242   1.408
  736SOL    HW212123   0.015   5.130   1.420
  737SOL     OW12124   4.772   3.040   0.444
  737SOL    HW112125   4.742   3.121   0.494
  737SOL    HW212126   4.847   2.997   0.493
  738SOL     OW12127   2.023   2.584   1.948
  738SOL    HW112128   2.089   2.572   1.874
  738SOL    HW212129   1.999   2.494   1.986
  739SOL     OW12130   4.824   3.696   1.677
  739SOL    HW112131   4.869   3.631   1.739
  739SOL    HW212132   4.888   3.724   1.606
  740SOL     OW12133   4.664   4.326   1.603
  740SOL    HW112134   4.628   4.417   1.583
  740SOL    HW212135   4.602   4.279   1.665
  741SOL     OW12136   1.322   5.675   0.797
  741SOL    HW112137   1.258   5.668   0.873
  741SOL    HW212138   1.289   5.619   0.720
  742SOL     OW12139   4.234   1.356   2.115
  742SOL    HW112140   4.332   1.355   2.135
  742SOL    HW212141   4.195   1.443   2.144
  743SOL     OW12142   5.121   3.159   1.159
  743SOL    HW112143   5.217   3.131   1.151
  743SOL    HW212144   5.104   3.194   1.251
  744SOL     OW12145   5.453   3.788   0.514
  744SOL    HW112146   5.381   3.796   0.445
  744SOL    HW212147   5.504   3.874   0.518
  745SOL     OW12148   2.793   1.616   1.232
  745SOL    HW112149   2.740   1.698   1.256
  745SOL    HW212150   2.816   1.618   1.135
  746SOL     OW12151   1.577   9.465   1.197
  746SOL    HW112152   1.478   9.467   1.212
  746SOL    HW212153   1.605   9.372   1.174
  747SOL     OW12154   0.399   3.354   1.281
  747SOL    HW112155   0.400   3.280   1.214
  747SOL    HW212156   0.398   3.442   1.234
  748SOL     OW12157   3.464   4.324   0.521
  748SOL    HW112158   3.488   4.239   0.569
  748SOL    HW212159   3.366   4.325   0.503
  749SOL     OW12160   1.428   4.303   1.407
  749SOL    HW112161   1.432   4.376   1.474
  749SOL    HW212162   1.382   4.223   1.446
  750SOL     OW12163   2.247   6.464   0.904
  750SOL    HW112164   2.262   6.430   0.811
  750SOL    HW212165   2.197   6.550   0.900
  751SOL     OW12166   4.203   9.121   0.471
  751SOL    HW112167   4.247   9.033   0.484
  751SOL    HW212168   4.273   9.193   0.466
  752SOL     OW12169   1.947   8.746   2.285
  752SOL    HW112170   1.926   8.685   2.209
  752SOL    HW212171   1.993   8.828   2.251
  753SOL     OW12172   2.563   8.710   1.110
  753SOL    HW112173   2.524   8.791   1.155
  753SOL    HW212174   2.517   8.628   1.143
  754SOL     OW12175   1.458   4.692   2.034
  754SOL    HW112176   1.390   4.762   2.056
  754SOL    HW212177   1.428   4.604   2.073
  755SOL     OW12178   2.699   6.776   1.840
  755SOL    HW112179   2.747   6.861   1.860
  755SOL    HW212180   2.601   6.787   1.860
  756SOL     OW12181   0.818   6.109   1.687
  756SOL    HW112182   0.787   6.016   1.667
  756SOL    HW212183   0.892   6.133   1.624
  757SOL     OW12184   0.098   5.730   0.934
  757SOL    HW112185   0.191   5.764   0.921
  757SOL    HW212186   0.095   5.671   1.015
  758SOL     OW12187   4.106   4.122   0.433
  758SOL    HW112188   4.070   4.200   0.381
  758SOL    HW212189   4.200   4.141   0.460
  759SOL     OW12190   0.010   3.590   0.525
  759SOL    HW112191   0.081   3.659   0.507
  759SOL    HW212192   0.053   3.501   0.542
  760SOL     OW12193   3.259   5.485   1.558
  760SOL    HW112194   3.228   5.572   1.597
  760SOL    HW212195   3.187   5.416   1.568
  761SOL     OW12196   0.211   4.548   0.457
  761SOL    HW112197   0.211   4.449   0.446
  761SOL    HW212198   0.138   4.575   0.519
  762SOL     OW12199   2.906   8.879   1.675
  762SOL    HW112200   2.856   8.904   1.592
  762SOL    HW212201   2.916   8.780   1.680
  763SOL     OW12202   0.512   4.460   1.418
  763SOL    HW112203   0.585   4.518   1.454
  763SOL    HW212204   0.527   4.366   1.447
  764SOL     OW12205   0.370   5.189   1.153
  764SOL    HW112206   0.354   5.281   1.190
  764SOL    HW212207   0.284   5.151   1.118
  765SOL     OW12208   3.664   4.662   0.545
  765SOL    HW112209   3.624   4.753   0.536
  765SOL    HW212210   3.614   4.610   0.613
  766SOL     OW12211   2.277   0.051   0.446
  766SOL    HW112212   2.344   0.085   0.511
  766SOL    HW212213   2.193   0.026   0.494
  767SOL     OW12214   3.804   9.612   0.617
  767SOL    HW112215   3.716   9.625   0.571
  767SOL    HW212216   3.788   9.591   0.714
  768SOL     OW12217   1.382   5.254   1.495
  768SOL    HW112218   1.467   5.278   1.542
  768SOL    HW212219   1.401   5.227   1.401
  769SOL     OW12220   0.820   5.378   1.238
  769SOL    HW112221   0.837   5.304   1.302
  769SOL    HW212222   0.780   5.456   1.286
  770SOL     OW12223   4.087   9.318   1.280
  770SOL    HW112224   4.093   9.375   1.199
  770SOL    HW212225   4.018   9.247   1.266
  771SOL     OW12226   4.069   1.201   0.803
  771SOL    HW112227   4.045   1.154   0.888
  771SOL    HW212228   3.992   1.196   0.740
  772SOL     OW12229   1.287   3.893   1.039
  772SOL    HW112230   1.358   3.824   1.025
  772SOL    HW212231   1.326   3.973   1.086
  773SOL     OW12232   3.234   8.228   0.439
  773SOL    HW112233   3.183   8.160   0.386
  773SOL    HW212234   3.176   8.308   0.455
  774SOL     OW12235   0.327   5.906   2.203
  774SOL    HW112236   0.256   5.952   2.257
  774SOL    HW212237   0.372   5.973   2.144
  775SOL     OW12238   9.450   4.644   0.988
  775SOL    HW112239   9.492   4.554   0.981
  775SOL    HW212240   9.416   4.658   1.081
  776SOL     OW12241   0.714   5.816   2.185
  776SOL    HW112242   0.636   5.764   2.220
  776SOL    HW212243   0.685   5.872   2.108
  777SOL     OW12244   5.021   3.182   1.991
  777SOL    HW112245   5.100   3.189   1.930
  777SOL    HW212246   4.945   3.138   1.943
  778SOL     OW12247   2.049   2.114   0.851
  778SOL    HW112248   2.062   2.143   0.756
  778SOL    HW212249   1.964   2.063   0.860
  779SOL     OW12250   2.335   3.044   0.757
  779SOL    HW112251   2.402   3.110   0.723
  779SOL    HW212252   2.377   2.954   0.764
  780SOL     OW12253   1.207   3.163   0.910
  780SOL    HW112254   1.115   3.174   0.949
  780SOL    HW212255   1.272   3.217   0.964
  781SOL     OW12256   1.295   6.839   1.130
  781SOL    HW112257   1.279   6.786   1.047
  781SOL    HW212258   1.240   6.922   1.128
  782SOL     OW12259   3.911   0.117   1.255
  782SOL    HW112260   3.823   0.128   1.302
  782SOL    HW212261   3.975   0.187   1.286
  783SOL     OW12262   3.929   1.939   1.085
  783SOL    HW112263   3.923   2.038   1.095
  783SOL    HW212264   3.995   1.916   1.014
  784SOL     OW12265   9.760   5.279   2.285
  784SOL    HW112266   9.678   5.228   2.311
  784SOL    HW212267   9.841   5.226   2.311
  785SOL     OW12268   2.142   1.712   0.981
  785SOL    HW112269   2.126   1.763   0.897
  785SOL    HW212270   2.182   1.623   0.958
  786SOL     OW12271   0.527   3.588   1.911
  786SOL    HW112272   0.449   3.527   1.900
  786SOL    HW212273   0.565   3.577   2.003
  787SOL     OW12274   9.336   4.720   1.223
  787SOL    HW112275   9.318   4.671   1.308
  787SOL    HW212276   9.335   4.819   1.242
  788SOL     OW12277   1.650   2.379   0.545
  788SOL    HW112278   1.670   2.417   0.454
  788SOL    HW212279   1.604   2.291   0.535
  789SOL     OW12280   2.354   6.087   1.914
  789SOL    HW112281   2.451   6.096   1.933
  789SOL    HW212282   2.309   6.036   1.987
  790SOL     OW12283   3.367   0.923   1.022
  790SOL    HW112284   3.367   1.022   1.036
  790SOL    HW212285   3.278   0.885   1.050
  791SOL     OW12286   2.176   8.540   1.299
  791SOL    HW112287   2.096   8.577   1.347
  791SOL    HW212288   2.168   8.559   1.201
  792SOL     OW12289   1.945   5.921   2.098
  792SOL    HW112290   1.930   5.886   2.006
  792SOL    HW212291   1.877   5.991   2.119
  793SOL     OW12292   4.126   9.685   1.384
  793SOL    HW112293   4.185   9.632   1.446
  793SOL    HW212294   4.158   9.675   1.290
  794SOL     OW12295   1.748   2.091   0.673
  794SOL    HW112296   1.744   2.068   0.770
  794SOL    HW212297   1.655   2.112   0.641
  795SOL     OW12298   3.245   2.094   1.013
  795SOL    HW112299   3.277   2.157   0.942
  795SOL    HW212300   3.317   2.029   1.035
  796SOL     OW12301   3.374   7.900   1.654
  796SOL    HW112302   3.372   7.805   1.622
  796SOL    HW212303   3.283   7.941   1.640
  797SOL     OW12304   4.033   4.913   2.161
  797SOL    HW112305   3.988   4.862   2.235
  797SOL    HW212306   4.118   4.953   2.196
  798SOL     OW12307   0.654   3.775   2.277
  798SOL    HW112308   0.591   3.833   2.224
  798SOL    HW212309   0.748   3.801   2.256
  799SOL     OW12310   9.386   4.705   0.564
  799SOL    HW112311   9.328   4.731   0.487
  799SOL    HW212312   9.462   4.770   0.572
  800SOL     OW12313   4.694   3.616   2.025
  800SOL    HW112314   4.617   3.558   1.999
  800SOL    HW212315   4.660   3.705   2.057
  801SOL     OW12316   3.172   6.160   2.133
  801SOL    HW112317   3.226   6.172   2.050
  801SOL    HW212318   3.206   6.081   2.184
  802SOL     OW12319   1.192   6.445   1.226
  802SOL    HW112320   1.273   6.446   1.168
  802SOL    HW212321   1.217   6.475   1.318
  803SOL     OW12322   4.434   3.020   1.276
  803SOL    HW112323   4.463   3.111   1.246
  803SOL    HW212324   4.345   2.998   1.236
  804SOL     OW12325   2.108   6.376   1.467
  804SOL    HW112326   2.166   6.420   1.399
  804SOL    HW212327   2.109   6.429   1.552
  805SOL     OW12328   3.765   4.339   1.654
  805SOL    HW112329   3.707   4.417   1.677
  805SOL    HW212330   3.768   4.276   1.731
  806SOL     OW12331   3.494   4.858   1.648
  806SOL    HW112332   3.593   4.863   1.645
  806SOL    HW212333   3.455   4.939   1.604
  807SOL     OW12334   4.591   3.566   1.610
  807SOL    HW112335   4.518   3.634   1.605
  807SOL    HW212336   4.677   3.611   1.632
  808SOL     OW12337   2.645   5.726   1.182
  808SOL    HW112338   2.652   5.734   1.281
  808SOL    HW212339   2.602   5.639   1.158
  809SOL     OW12340   3.975   9.480   0.446
  809SOL    HW112341   3.933   9.413   0.384
  809SOL    HW212342   3.904   9.524   0.501
  810SOL     OW12343   2.231   2.569   1.287
  810SOL    HW112344   2.154   2.584   1.349
  810SOL    HW212345   2.228   2.637   1.213
  811SOL     OW12346   4.784   3.319   1.741
  811SOL    HW112347   4.827   3.391   1.796
  811SOL    HW212348   4.826   3.316   1.651
  812SOL     OW12349   2.139   3.200   0.640
  812SOL    HW112350   2.055   3.147   0.631
  812SOL    HW212351   2.212   3.140   0.674
  813SOL     OW12352   0.827   6.742   1.471
  813SOL    HW112353   0.773   6.804   1.527
  813SOL    HW212354   0.835   6.778   1.379
  814SOL     OW12355   3.516   1.827   1.773
  814SOL    HW112356   3.581   1.758   1.804
  814SOL    HW212357   3.494   1.812   1.677
  815SOL     OW12358   4.062   2.034   2.228
  815SOL    HW112359   4.037   2.014   2.323
  815SOL    HW212360   3.981   2.068   2.180
  816SOL     OW12361   1.357   3.387   1.329
  816SOL    HW112362   1.364   3.481   1.364
  816SOL    HW212363   1.263   3.355   1.340
  817SOL     OW12364   3.627   8.804   1.784
  817SOL    HW112365   3.632   8.900   1.813
  817SOL    HW212366   3.589   8.749   1.858
  818SOL     OW12367   2.855   2.026   1.138
  818SOL    HW112368   2.785   1.985   1.196
  818SOL    HW212369   2.833   2.122   1.121
  819SOL     OW12370   1.869   1.740   1.012
  819SOL    HW112371   1.968   1.726   1.018
  819SOL    HW212372   1.828   1.667   0.957
  820SOL     OW12373   0.137   3.354   0.569
  820SOL    HW112374   0.051   3.302   0.563
  820SOL    HW212375   0.213   3.294   0.546
  821SOL     OW12376   2.691   6.053   1.044
  821SOL    HW112377   2.640   6.136   1.069
  821SOL    HW212378   2.666   6.026   0.951
  822SOL     OW12379   3.929   3.017   2.190
  822SOL    HW112380   3.834   2.990   2.206
  822SOL    HW212381   3.931   3.100   2.135
  823SOL     OW12382   4.195   8.190   1.124
  823SOL    HW112383   4.252   8.209   1.044
  823SOL    HW212384   4.202   8.266   1.189
  824SOL     OW12385   9.532   4.085   1.400
  824SOL    HW112386   9.513   4.095   1.498
  824SOL    HW212387   9.615   4.031   1.387
  825SOL     OW12388   4.298   3.828   1.845
  825SOL    HW112389   4.348   3.813   1.760
  825SOL    HW212390   4.271   3.739   1.884
  826SOL     OW12391   1.877   8.575   2.076
  826SOL    HW112392   1.943   8.560   2.002
  826SOL    HW212393   1.792   8.612   2.039
  827SOL     OW12394   2.977   2.789   1.690
  827SOL    HW112395   2.969   2.764   1.787
  827SOL    HW212396   2.921   2.727   1.635
  828SOL     OW12397   3.302   2.855   2.264
  828SOL    HW112398   3.337   2.946   2.287
  828SOL    HW212399   3.203   2.859   2.256
  829SOL     OW12400   3.386   9.926   2.153
  829SOL    HW112401   3.347   9.998   2.210
  829SOL    HW212402   3.321   9.850   2.145
  830SOL     OW12403   3.378   6.195   1.527
  830SOL    HW112404   3.315   6.210   1.450
  830SOL    HW212405   3.393   6.280   1.576
  831SOL     OW12406   0.426   5.587   0.963
  831SOL    HW112407   0.460   5.595   1.056
  831SOL    HW212408   0.394   5.676   0.931
  832SOL     OW12409   3.553   5.607   0.545
  832SOL    HW112410   3.485   5.564   0.604
  832SOL    HW212411   3.568   5.550   0.464
  833SOL     OW12412   2.494   3.730   1.243
  833SOL    HW112413   2.539   3.643   1.222
  833SOL    HW212414   2.551   3.806   1.213
  834SOL     OW12415   2.536   2.565   1.033
  834SOL    HW112416   2.633   2.564   1.007
  834SOL    HW212417   2.528   2.565   1.133
  835SOL     OW12418   3.798   9.193   2.036
  835SOL    HW112419   3.889   9.211   1.999
  835SOL    HW212420   3.794   9.100   2.072
  836SOL     OW12421   2.510   4.109   0.983
  836SOL    HW112422   2.576   4.051   1.032
  836SOL    HW212423   2.507   4.199   1.027
  837SOL     OW12424   3.480   9.867   1.079
  837SOL    HW112425   3.494   9.818   0.994
  837SOL    HW212426   3.533   9.825   1.152
  838SOL     OW12427   4.787   2.460   1.102
  838SOL    HW112428   4.864   2.423   1.050
  838SOL    HW212429   4.729   2.515   1.042
  839SOL     OW12430   0.900   7.052   1.016
  839SOL    HW112431   0.830   7.123   1.010
  839SOL    HW212432   0.968   7.066   0.943
  840SOL     OW12433   2.158   9.455   1.534
  840SOL    HW112434   2.246   9.414   1.554
  840SOL    HW212435   2.159   9.552   1.560
  841SOL     OW12436   4.233   9.084   1.534
  841SOL    HW112437   4.288   9.159   1.495
  841SOL    HW212438   4.139   9.116   1.548
  842SOL     OW12439   0.792   4.068   2.229
  842SOL    HW112440   0.847   3.985   2.219
  842SOL    HW212441   0.817   4.133   2.157
  843SOL     OW12442   3.255   5.770   0.738
  843SOL    HW112443   3.252   5.802   0.833
  843SOL    HW212444   3.326   5.819   0.688
  844SOL     OW12445   2.692   6.225   2.254
  844SOL    HW112446   2.770   6.279   2.286
  844SOL    HW212447   2.726   6.148   2.200
  845SOL     OW12448   2.149   5.401   1.730
  845SOL    HW112449   2.244   5.424   1.750
  845SOL    HW212450   2.111   5.347   1.806
  846SOL     OW12451   3.667   2.283   1.942
  846SOL    HW112452   3.624   2.372   1.958
  846SOL    HW212453   3.599   2.220   1.904
  847SOL     OW12454   2.438   8.499   1.239
  847SOL    HW112455   2.344   8.517   1.269
  847SOL    HW212456   2.498   8.495   1.319
  848SOL     OW12457   1.854   0.369   2.122
  848SOL    HW112458   1.868   0.349   2.025
  848SOL    HW212459   1.869   0.285   2.175
  849SOL     OW12460   2.144   3.433   0.780
  849SOL    HW112461   2.211   3.421   0.853
  849SOL    HW212462   2.136   3.348   0.728
  850SOL     OW12463   3.937   8.421   1.262
  850SOL    HW112464   4.036   8.417   1.279
  850SOL    HW212465   3.899   8.329   1.265
  851SOL     OW12466   1.838   7.569   1.663
  851SOL    HW112467   1.838   7.666   1.640
  851SOL    HW212468   1.755   7.546   1.713
  852SOL     OW12469   4.292   9.527   1.556
  852SOL    HW112470   4.302   9.443   1.502
  852SOL    HW212471   4.382   9.565   1.576
  853SOL     OW12472   3.045   5.312   1.568
  853SOL    HW112473   2.964   5.295   1.624
  853SOL    HW212474   3.016   5.346   1.478
  854SOL     OW12475   2.108   0.278   0.753
  854SOL    HW112476   2.131   0.219   0.830
  854SOL    HW212477   2.157   0.365   0.762
  855SOL     OW12478   4.555   3.223   1.610
  855SOL    HW112479   4.597   3.150   1.557
  855SOL    HW212480   4.625   3.269   1.665
  856SOL     OW12481   3.749   9.122   0.340
  856SOL    HW112482   3.749   9.119   0.240
  856SOL    HW212483   3.674   9.180   0.371
  857SOL     OW12484   2.940   5.822   0.575
  857SOL    HW112485   2.996   5.740   0.571
  857SOL    HW212486   2.986   5.896   0.526
  858SOL     OW12487   1.533   2.481   1.397
  858SOL    HW112488   1.446   2.523   1.374
  858SOL    HW212489   1.566   2.516   1.485
  859SOL     OW12490   9.828   5.360   0.517
  859SOL    HW112491   9.769   5.391   0.443
  859SOL    HW212492   9.787   5.280   0.561
  860SOL     OW12493   9.343   4.873   1.508
  860SOL    HW112494   9.253   4.828   1.510
  860SOL    HW212495   9.352   4.926   1.424
  861SOL     OW12496   1.822   6.792   1.166
  861SOL    HW112497   1.724   6.806   1.176
  861SOL    HW212498   1.858   6.747   1.248
  862SOL     OW12499   2.083   5.314   2.192
  862SOL    HW112500   2.140   5.392   2.216
  862SOL    HW212501   2.078   5.305   2.093
  863SOL     OW12502   1.436   4.955   1.142
  863SOL    HW112503   1.507   4.891   1.112
  863SOL    HW212504   1.404   5.008   1.064
  864SOL     OW12505   3.300   3.923   0.964
  864SOL    HW112506   3.283   4.011   1.008
  864SOL    HW212507   3.398   3.909   0.953
  865SOL     OW12508   4.682   1.505   0.629
  865SOL    HW112509   4.710   1.427   0.685
  865SOL    HW212510   4.760   1.565   0.614
  866SOL     OW12511   1.392   3.111   1.611
  866SOL    HW112512   1.418   3.015   1.621
  866SOL    HW212513   1.462   3.159   1.558
  867SOL     OW12514   2.854   3.446   1.966
  867SOL    HW112515   2.793   3.426   2.043
  867SOL    HW212516   2.870   3.361   1.914
  868SOL     OW12517   3.967   2.746   1.315
  868SOL    HW112518   4.000   2.732   1.408
  868SOL    HW212519   4.040   2.724   1.250
  869SOL     OW12520   1.901   2.736   1.225
  869SOL    HW112521   1.946   2.691   1.302
  869SOL    HW212522   1.804   2.710   1.223
  870SOL     OW12523   0.584   4.723   0.835
  870SOL    HW112524   0.592   4.816   0.800
  870SOL    HW212525   0.501   4.681   0.800
  871SOL     OW12526   2.282   8.166   0.509
  871SOL    HW112527   2.227   8.107   0.449
  871SOL    HW212528   2.342   8.224   0.453
  872SOL     OW12529   4.435   1.715   1.093
  872SOL    HW112530   4.497   1.643   1.124
  872SOL    HW212531   4.406   1.769   1.172
  873SOL     OW12532   0.976   4.791   1.262
  873SOL    HW112533   1.059   4.748   1.299
  873SOL    HW212534   0.934   4.731   1.194
  874SOL     OW12535   2.470   1.606   1.185
  874SOL    HW112536   2.479   1.506   1.188
  874SOL    HW212537   2.519   1.641   1.105
  875SOL     OW12538   2.931   0.409   1.824
  875SOL    HW112539   3.022   0.422   1.783
  875SOL    HW212540   2.872   0.363   1.758
  876SOL     OW12541   2.279   1.803   1.203
  876SOL    HW112542   2.351   1.734   1.204
  876SOL    HW212543   2.221   1.789   1.123
  877SOL     OW12544   3.567   4.530   1.985
  877SOL    HW112545   3.499   4.505   2.053
  877SOL    HW212546   3.645   4.573   2.029
  878SOL     OW12547   3.508   4.097   0.674
  878SOL    HW112548   3.500   4.016   0.616
  878SOL    HW212549   3.591   4.089   0.729
  879SOL     OW12550   2.396   9.335   1.565
  879SOL    HW112551   2.459   9.405   1.532
  879SOL    HW212552   2.438   9.245   1.556
  880SOL     OW12553   1.604   6.285   1.236
  880SOL    HW112554   1.593   6.382   1.216
  880SOL    HW212555   1.515   6.245   1.258
  881SOL     OW12556   3.608   0.381   0.456
  881SOL    HW112557   3.604   0.428   0.367
  881SOL    HW212558   3.649   0.290   0.444
  882SOL     OW12559   3.302   6.152   1.888
  882SOL    HW112560   3.248   6.096   1.824
  882SOL    HW212561   3.371   6.095   1.931
  883SOL     OW12562   2.901   9.698   0.975
  883SOL    HW112563   2.839   9.762   1.020
  883SOL    HW212564   2.962   9.657   1.044
  884SOL     OW12565   3.236   5.524   0.933
  884SOL    HW112566   3.140   5.505   0.955
  884SOL    HW212567   3.256   5.621   0.952
  885SOL     OW12568   3.119   4.222   0.909
  885SOL    HW112569   3.160   4.187   0.825
  885SOL    HW212570   3.181   4.205   0.986
  886SOL     OW12571   4.461   2.060   0.702
  886SOL    HW112572   4.483   2.145   0.750
  886SOL    HW212573   4.504   1.983   0.750
  887SOL     OW12574   3.694   5.003   1.327
  887SOL    HW112575   3.691   5.102   1.334
  887SOL    HW212576   3.781   4.969   1.362
  888SOL     OW12577   1.286   2.913   0.820
  888SOL    HW112578   1.288   2.856   0.902
  888SOL    HW212579   1.268   3.008   0.846
  889SOL     OW12580   2.724   6.680   2.098
  889SOL    HW112581   2.719   6.692   1.999
  889SOL    HW212582   2.820   6.678   2.127
  890SOL     OW12583   3.370   2.917   1.467
  890SOL    HW112584   3.347   2.821   1.451
  890SOL    HW212585   3.415   2.955   1.386
  891SOL     OW12586   2.622   2.167   0.801
  891SOL    HW112587   2.563   2.243   0.828
  891SOL    HW212588   2.604   2.088   0.859
  892SOL     OW12589   2.672   0.734   2.230
  892SOL    HW112590   2.694   0.636   2.233
  892SOL    HW212591   2.756   0.787   2.238
  893SOL     OW12592   1.292   6.196   0.319
  893SOL    HW112593   1.235   6.271   0.352
  893SOL    HW212594   1.235   6.127   0.275
  894SOL     OW12595   1.155   2.093   0.829
  894SOL    HW112596   1.200   2.177   0.858
  894SOL    HW212597   1.060   2.094   0.860
  895SOL     OW12598   4.050   4.657   1.343
  895SOL    HW112599   4.004   4.570   1.359
  895SOL    HW212600   4.140   4.655   1.386
  896SOL     OW12601   3.959   8.691   0.562
  896SOL    HW112602   3.890   8.761   0.578
  896SOL    HW212603   3.932   8.606   0.608
  897SOL     OW12604   2.729   0.465   2.226
  897SOL    HW112605   2.812   0.428   2.186
  897SOL    HW212606   2.657   0.395   2.226
  898SOL     OW12607   4.987   1.670   0.814
  898SOL    HW112608   4.943   1.696   0.729
  898SOL    HW212609   5.012   1.573   0.810
  899SOL     OW12610   3.294   7.423   2.209
  899SOL    HW112611   3.290   7.323   2.202
  899SOL    HW212612   3.229   7.455   2.277
  900SOL     OW12613   1.644   2.730   1.881
  900SOL    HW112614   1.734   2.772   1.885
  900SOL    HW212615   1.574   2.799   1.898
  901SOL     OW12616   3.549   4.066   1.198
  901SOL    HW112617   3.570   4.017   1.113
  901SOL    HW212618   3.494   4.008   1.258
  902SOL     OW12619   0.775   4.403   1.789
  902SOL    HW112620   0.828   4.459   1.725
  902SOL    HW212621   0.774   4.308   1.756
  903SOL     OW12622   1.979   6.279   2.157
  903SOL    HW112623   2.023   6.352   2.210
  903SOL    HW212624   2.032   6.262   2.074
  904SOL     OW12625   1.102   4.036   0.893
  904SOL    HW112626   1.048   4.078   0.966
  904SOL    HW212627   1.170   3.974   0.933
  905SOL     OW12628   0.481   5.699   2.292
  905SOL    HW112629   0.421   5.770   2.255
  905SOL    HW212630   0.471   5.695   2.391
  906SOL     OW12631   1.713   5.287   1.082
  906SOL    HW112632   1.708   5.387   1.090
  906SOL    HW212633   1.706   5.261   0.986
  907SOL     OW12634   2.220   5.960   2.103
  907SOL    HW112635   2.253   5.941   2.195
  907SOL    HW212636   2.120   5.957   2.102
  908SOL     OW12637   4.999   3.500   1.120
  908SOL    HW112638   4.952   3.423   1.077
  908SOL    HW212639   5.090   3.471   1.149
  909SOL     OW12640   3.358   9.215   0.808
  909SOL    HW112641   3.303   9.276   0.864
  909SOL    HW212642   3.299   9.145   0.768
  910SOL     OW12643   9.463   3.897   0.828
  910SOL    HW112644   9.377   3.944   0.808
  910SOL    HW212645   9.443   3.812   0.877
  911SOL     OW12646   1.021   6.363   0.387
  911SOL    HW112647   0.987   6.385   0.478
  911SOL    HW212648   1.016   6.444   0.329
  912SOL     OW12649   3.040   5.847   2.043
  912SOL    HW112650   2.971   5.775   2.042
  912SOL    HW212651   2.998   5.935   2.025
  913SOL     OW12652   3.899   3.328   1.789
  913SOL    HW112653   3.804   3.357   1.804
  913SOL    HW212654   3.900   3.249   1.728
  914SOL     OW12655   1.381   6.138   1.304
  914SOL    HW112656   1.441   6.063   1.333
  914SOL    HW212657   1.340   6.115   1.215
  915SOL     OW12658   0.335   4.110   2.260
  915SOL    HW112659   0.318   4.185   2.196
  915SOL    HW212660   0.421   4.127   2.308
  916SOL     OW12661   2.244   2.066   1.997
  916SOL    HW112662   2.252   2.165   1.999
  916SOL    HW212663   2.249   2.030   2.091
  917SOL     OW12664   1.962   0.542   2.305
  917SOL    HW112665   1.917   0.486   2.235
  917SOL    HW212666   1.936   0.638   2.294
  918SOL     OW12667   1.961   2.653   2.209
  918SOL    HW112668   1.877   2.605   2.232
  918SOL    HW212669   1.985   2.635   2.114
  919SOL     OW12670   2.261   6.387   0.642
  919SOL    HW112671   2.329   6.418   0.575
  919SOL    HW212672   2.216   6.305   0.608
  920SOL     OW12673   0.298   4.424   1.713
  920SOL    HW112674   0.275   4.518   1.738
  920SOL    HW212675   0.374   4.392   1.769
  921SOL     OW12676   3.043   9.772   1.916
  921SOL    HW112677   3.060   9.823   1.831
  921SOL    HW212678   3.131   9.750   1.959
  922SOL     OW12679   9.421   5.217   0.383
  922SOL    HW112680   9.487   5.290   0.366
  922SOL    HW212681   9.411   5.204   0.482
  923SOL     OW12682   3.665   4.397   2.260
  923SOL    HW112683   3.669   4.313   2.207
  923SOL    HW212684   3.572   4.435   2.255
  924SOL     OW12685   0.364   4.595   0.753
  924SOL    HW112686   0.327   4.517   0.804
  924SOL    HW212687   0.292   4.663   0.739
  925SOL     OW12688   3.822   2.342   0.877
  925SOL    HW112689   3.824   2.435   0.913
  925SOL    HW212690   3.874   2.339   0.791
  926SOL     OW12691   3.685   0.979   1.980
  926SOL    HW112692   3.715   0.885   1.964
  926SOL    HW212693   3.764   1.040   1.979
  927SOL     OW12694   2.292   7.377   0.578
  927SOL    HW112695   2.298   7.454   0.514
  927SOL    HW212696   2.367   7.383   0.643
  928SOL     OW12697   4.899   2.847   1.088
  928SOL    HW112698   4.979   2.844   1.149
  928SOL    HW212699   4.816   2.859   1.143
  929SOL     OW12700   1.389   7.347   0.828
  929SOL    HW112701   1.346   7.365   0.740
  929SOL    HW212702   1.386   7.249   0.847
  930SOL     OW12703   1.565   8.313   2.252
  930SOL    HW112704   1.649   8.363   2.274
  930SOL    HW212705   1.490   8.349   2.309
  931SOL     OW12706   2.629   9.322   0.419
  931SOL    HW112707   2.684   9.312   0.336
  931SOL    HW212708   2.614   9.419   0.438
  932SOL     OW12709   3.451   0.968   1.835
  932SOL    HW112710   3.441   1.051   1.779
  932SOL    HW212711   3.541   0.968   1.878
  933SOL     OW12712   9.697   4.519   1.309
  933SOL    HW112713   9.655   4.439   1.267
  933SOL    HW212714   9.783   4.540   1.263
  934SOL     OW12715   4.610   1.845   0.917
  934SOL    HW112716   4.545   1.815   0.986
  934SOL    HW212717   4.590   1.799   0.830
  935SOL     OW12718   3.379   3.161   1.058
  935SOL    HW112719   3.304   3.095   1.059
  935SOL    HW212720   3.342   3.254   1.050
  936SOL     OW12721   4.408   0.440   0.931
  936SOL    HW112722   4.327   0.401   0.975
  936SOL    HW212723   4.402   0.540   0.933
  937SOL     OW12724   1.799   4.091   1.568
  937SOL    HW112725   1.769   4.151   1.493
  937SOL    HW212726   1.849   4.013   1.530
  938SOL     OW12727   2.084   7.757   0.446
  938SOL    HW112728   2.092   7.851   0.414
  938SOL    HW212729   2.141   7.744   0.527
  939SOL     OW12730   0.068   5.201   1.788
  939SOL    HW112731   9.996   5.237   1.729
  939SOL    HW212732   0.030   5.131   1.848
  940SOL     OW12733   0.960   5.429   1.010
  940SOL    HW112734   0.918   5.386   0.930
  940SOL    HW212735   0.899   5.417   1.089
  941SOL     OW12736   2.542   8.782   1.449
  941SOL    HW112737   2.481   8.815   1.378
  941SOL    HW212738   2.549   8.682   1.444
  942SOL     OW12739   0.597   4.537   1.163
  942SOL    HW112740   0.566   4.501   1.251
  942SOL    HW212741   0.561   4.629   1.150
  943SOL     OW12742   4.450   3.695   2.320
  943SOL    HW112743   4.515   3.665   2.390
  943SOL    HW212744   4.360   3.708   2.360
  944SOL     OW12745   1.664   9.206   1.133
  944SOL    HW112746   1.649   9.113   1.167
  944SOL    HW212747   1.749   9.242   1.171
  945SOL     OW12748   1.961   4.919   2.356
  945SOL    HW112749   1.994   4.825   2.364
  945SOL    HW212750   1.862   4.918   2.343
  946SOL     OW12751   1.293   2.315   0.910
  946SOL    HW112752   1.373   2.341   0.857
  946SOL    HW212753   1.234   2.395   0.922
  947SOL     OW12754   3.610   4.092   0.356
  947SOL    HW112755   3.572   4.144   0.281
  947SOL    HW212756   3.678   4.148   0.405
  948SOL     OW12757   3.189   6.966   0.640
  948SOL    HW112758   3.207   7.047   0.696
  948SOL    HW212759   3.126   6.905   0.689
  949SOL     OW12760   9.970   5.017   1.959
  949SOL    HW112761   9.969   4.955   1.881
  949SOL    HW212762   0.028   4.978   2.031
  950SOL     OW12763   1.408   6.322   0.802
  950SOL    HW112764   1.442   6.231   0.824
  950SOL    HW212765   1.473   6.367   0.740
  951SOL     OW12766   1.827   1.471   1.334
  951SOL    HW112767   1.921   1.500   1.314
  951SOL    HW212768   1.786   1.534   1.400
  952SOL     OW12769   3.478   8.428   2.171
  952SOL    HW112770   3.392   8.407   2.217
  952SOL    HW212771   3.510   8.346   2.123
  953SOL     OW12772   2.550   1.022   1.532
  953SOL    HW112773   2.585   0.956   1.466
  953SOL    HW212774   2.494   1.090   1.484
  954SOL     OW12775   1.872   0.598   1.821
  954SOL    HW112776   1.838   0.505   1.835
  954SOL    HW212777   1.929   0.624   1.898
  955SOL     OW12778   2.863   8.828   2.162
  955SOL    HW112779   2.932   8.898   2.180
  955SOL    HW212780   2.895   8.769   2.088
  956SOL     OW12781   1.446   2.153   1.081
  956SOL    HW112782   1.374   2.202   1.032
  956SOL    HW212783   1.456   2.061   1.042
  957SOL     OW12784   3.055   6.024   0.431
  957SOL    HW112785   3.129   6.079   0.471
  957SOL    HW212786   2.988   6.085   0.389
  958SOL     OW12787   2.024   3.157   0.342
  958SOL    HW112788   2.078   3.077   0.367
  958SOL    HW212789   2.085   3.236   0.332
  959SOL     OW12790   2.025   7.325   0.577
  959SOL    HW112791   2.011   7.227   0.565
  959SOL    HW212792   2.122   7.345   0.583
  960SOL     OW12793   1.210   2.776   1.949
  960SOL    HW112794   1.250   2.725   1.873
  960SOL    HW212795   1.129   2.825   1.918
  961SOL     OW12796   1.766   1.521   1.787
  961SOL    HW112797   1.703   1.593   1.816
  961SOL    HW212798   1.737   1.433   1.825
  962SOL     OW12799   2.660   2.513   0.531
  962SOL    HW112800   2.626   2.597   0.574
  962SOL    HW212801   2.748   2.532   0.487
  963SOL     OW12802   2.603   3.227   0.915
  963SOL    HW112803   2.563   3.237   0.824
  963SOL    HW212804   2.578   3.139   0.953
  964SOL     OW12805   2.472   6.395   1.471
  964SOL    HW112806   2.510   6.372   1.561
  964SOL    HW212807   2.470   6.313   1.414
  965SOL     OW12808   3.117   5.470   2.041
  965SOL    HW112809   3.133   5.468   2.139
  965SOL    HW212810   3.118   5.376   2.005
  966SOL     OW12811   3.617   3.316   0.699
  966SOL    HW112812   3.706   3.362   0.699
  966SOL    HW212813   3.546   3.380   0.728
  967SOL     OW12814   2.215   4.658   1.854
  967SOL    HW112815   2.213   4.642   1.755
  967SOL    HW212816   2.162   4.741   1.875
  968SOL     OW12817   4.436   4.837   1.022
  968SOL    HW112818   4.428   4.843   1.122
  968SOL    HW212819   4.358   4.787   0.985
  969SOL     OW12820   0.746   5.658   0.435
  969SOL    HW112821   0.677   5.597   0.472
  969SOL    HW212822   0.703   5.744   0.407
  970SOL     OW12823   1.568   2.974   1.371
  970SOL    HW112824   1.556   3.073   1.372
  970SOL    HW212825   1.545   2.939   1.280
  971SOL     OW12826   3.556   3.648   0.964
  971SOL    HW112827   3.512   3.588   0.897
  971SOL    HW212828   3.542   3.611   1.056
  972SOL     OW12829   2.821   5.943   1.811
  972SOL    HW112830   2.832   5.963   1.714
  972SOL    HW212831   2.883   6.000   1.864
  973SOL     OW12832   2.933   7.716   1.029
  973SOL    HW112833   2.876   7.695   1.108
  973SOL    HW212834   2.920   7.812   1.002
  974SOL     OW12835   2.530   5.749   2.304
  974SOL    HW112836   2.630   5.750   2.307
  974SOL    HW212837   2.499   5.684   2.235
  975SOL     OW12838   3.444   1.900   1.023
  975SOL    HW112839   3.541   1.880   1.014
  975SOL    HW212840   3.402   1.899   0.932
  976SOL     OW12841   2.461   1.035   1.784
  976SOL    HW112842   2.388   1.104   1.785
  976SOL    HW212843   2.498   1.028   1.691
  977SOL     OW12844   1.864   1.134   0.781
  977SOL    HW112845   1.959   1.156   0.761
  977SOL    HW212846   1.816   1.113   0.696
  978SOL     OW12847   4.501   0.718   1.433
  978SOL    HW112848   4.583   0.744   1.484
  978SOL    HW212849   4.420   0.743   1.485
  979SOL     OW12850   2.484   5.444   0.874
  979SOL    HW112851   2.567   5.492   0.846
  979SOL    HW212852   2.407   5.473   0.818
  980SOL     OW12853   3.236   8.300   2.292
  980SOL    HW112854   3.304   8.287   2.363
  980SOL    HW212855   3.153   8.249   2.314
  981SOL     OW12856   3.262   1.298   0.825
  981SOL    HW112857   3.269   1.397   0.840
  981SOL    HW212858   3.263   1.279   0.727
  982SOL     OW12859   0.985   5.590   0.546
  982SOL    HW112860   1.042   5.545   0.478
  982SOL    HW212861   0.897   5.614   0.506
  983SOL     OW12862   2.549   2.765   2.187
  983SOL    HW112863   2.494   2.683   2.206
  983SOL    HW212864   2.491   2.846   2.194
  984SOL     OW12865   1.851   3.663   0.406
  984SOL    HW112866   1.880   3.568   0.405
  984SOL    HW212867   1.929   3.722   0.428
  985SOL     OW12868   1.763   6.208   1.019
  985SOL    HW112869   1.751   6.109   1.010
  985SOL    HW212870   1.714   6.240   1.100
  986SOL     OW12871   3.696   0.859   1.183
  986SOL    HW112872   3.666   0.954   1.188
  986SOL    HW212873   3.644   0.811   1.113
  987SOL     OW12874   4.442   2.602   1.181
  987SOL    HW112875   4.428   2.507   1.206
  987SOL    HW212876   4.501   2.608   1.100
  988SOL     OW12877   2.693   5.856   0.445
  988SOL    HW112878   2.784   5.838   0.483
  988SOL    HW212879   2.660   5.944   0.480
  989SOL     OW12880   2.603   9.389   1.229
  989SOL    HW112881   2.589   9.429   1.138
  989SOL    HW212882   2.701   9.379   1.246
  990SOL     OW12883   4.825   1.043   1.975
  990SOL    HW112884   4.835   0.952   2.015
  990SOL    HW212885   4.840   1.039   1.877
  991SOL     OW12886   0.998   2.950   1.891
  991SOL    HW112887   1.016   3.047   1.872
  991SOL    HW212888   0.965   2.941   1.985
  992SOL     OW12889   3.529   2.798   0.823
  992SOL    HW112890   3.458   2.855   0.781
  992SOL    HW212891   3.487   2.737   0.890
  993SOL     OW12892   3.181   1.080   1.207
  993SOL    HW112893   3.264   1.119   1.246
  993SOL    HW212894   3.133   1.027   1.278
  994SOL     OW12895   1.369   5.149   0.954
  994SOL    HW112896   1.287   5.185   0.997
  994SOL    HW212897   1.440   5.220   0.952
  995SOL     OW12898   3.180   8.901   1.712
  995SOL    HW112899   3.215   8.984   1.754
  995SOL    HW212900   3.081   8.909   1.701
  996SOL     OW12901   2.953   4.893   1.611
  996SOL    HW112902   3.006   4.929   1.534
  996SOL    HW212903   3.010   4.894   1.694
  997SOL     OW12904   3.847   8.720   0.949
  997SOL    HW112905   3.848   8.658   0.871
  997SOL    HW212906   3.935   8.768   0.955
  998SOL     OW12907   9.872   4.354   1.823
  998SOL    HW112908   9.777   4.348   1.794
  998SOL    HW212909   9.930   4.376   1.744
  999SOL     OW12910   1.842   9.146   1.778
  999SOL    HW112911   1.893   9.231   1.774
  999SOL    HW212912   1.809   9.123   1.686
 1000SOL     OW12913   4.385   4.039   1.381
 1000SOL    HW112914   4.363   3.963   1.320
 1000SOL    HW212915   4.471   4.020   1.429
 1001SOL     OW12916   4.823   2.663   0.502
 1001SOL    HW112917   4.856   2.583   0.453
 1001SOL    HW212918   4.745   2.702   0.453
 1002SOL     OW12919   1.620   6.833   2.069
 1002SOL    HW112920   1.584   6.747   2.035
 1002SOL    HW212921   1.596   6.844   2.166
 1003SOL     OW12922   0.392   5.322   0.895
 1003SOL    HW112923   0.409   5.275   0.982
 1003SOL    HW212924   0.395   5.421   0.910
 1004SOL     OW12925   9.697   5.135   1.277
 1004SOL    HW112926   9.770   5.069   1.260
 1004SOL    HW212927   9.653   5.114   1.365
 1005SOL     OW12928   9.688   4.654   1.861
 1005SOL    HW112929   9.607   4.653   1.803
 1005SOL    HW212930   9.691   4.739   1.913
 1006SOL     OW12931   0.761   5.853   1.421
 1006SOL    HW112932   0.854   5.889   1.419
 1006SOL    HW212933   0.698   5.923   1.386
 1007SOL     OW12934   4.641   2.346   0.424
 1007SOL    HW112935   4.718   2.372   0.366
 1007SOL    HW212936   4.666   2.358   0.521
 1008SOL     OW12937   1.638   7.500   0.515
 1008SOL    HW112938   1.637   7.510   0.614
 1008SOL    HW212939   1.730   7.519   0.480
 1009SOL     OW12940   4.510   2.201   1.101
 1009SOL    HW112941   4.541   2.124   1.156
 1009SOL    HW212942   4.471   2.271   1.161
 1010SOL     OW12943   1.651   3.842   0.343
 1010SOL    HW112944   1.726   3.779   0.364
 1010SOL    HW212945   1.598   3.807   0.266
 1011SOL     OW12946   1.922   4.220   0.411
 1011SOL    HW112947   2.019   4.213   0.387
 1011SOL    HW212948   1.903   4.160   0.489
 1012SOL     OW12949   3.920   3.445   2.242
 1012SOL    HW112950   3.996   3.499   2.206
 1012SOL    HW212951   3.955   3.383   2.313
 1013SOL     OW12952   3.038   1.289   1.448
 1013SOL    HW112953   2.966   1.231   1.411
 1013SOL    HW212954   3.023   1.384   1.419
 1014SOL     OW12955   4.108   4.009   1.751
 1014SOL    HW112956   4.167   3.939   1.791
 1014SOL    HW212957   4.085   4.077   1.821
 1015SOL     OW12958   4.387   2.844   2.041
 1015SOL    HW112959   4.304   2.867   2.092
 1015SOL    HW212960   4.452   2.920   2.048
 1016SOL     OW12961   0.446   6.081   2.037
 1016SOL    HW112962   0.427   6.163   1.984
 1016SOL    HW212963   0.532   6.040   2.006
 1017SOL     OW12964   4.730   2.260   1.765
 1017SOL    HW112965   4.663   2.247   1.838
 1017SOL    HW212966   4.722   2.186   1.698
 1018SOL     OW12967   2.497   3.175   1.501
 1018SOL    HW112968   2.420   3.135   1.551
 1018SOL    HW212969   2.580   3.123   1.521
 1019SOL     OW12970   4.440   9.280   0.466
 1019SOL    HW112971   4.455   9.339   0.387
 1019SOL    HW212972   4.516   9.217   0.477
 1020SOL     OW12973   9.452   5.212   0.672
 1020SOL    HW112974   9.480   5.300   0.711
 1020SOL    HW212975   9.426   5.150   0.747
 1021SOL     OW12976   1.637   3.790   2.167
 1021SOL    HW112977   1.651   3.870   2.226
 1021SOL    HW212978   1.552   3.744   2.192
 1022SOL     OW12979   3.895   2.333   1.794
 1022SOL    HW112980   3.871   2.352   1.699
 1022SOL    HW212981   3.811   2.318   1.847
 1023SOL     OW12982   2.290   3.738   0.768
 1023SOL    HW112983   2.193   3.714   0.761
 1023SOL    HW212984   2.302   3.811   0.835
 1024SOL     OW12985   2.213   4.226   1.347
 1024SOL    HW112986   2.159   4.301   1.311
 1024SOL    HW212987   2.166   4.139   1.331
 1025SOL     OW12988   3.643   3.418   1.854
 1025SOL    HW112989   3.656   3.436   1.952
 1025SOL    HW212990   3.665   3.501   1.802
 1026SOL     OW12991   4.382   1.461   1.510
 1026SOL    HW112992   4.435   1.526   1.564
 1026SOL    HW212993   4.442   1.415   1.445
 1027SOL     OW12994   1.819   6.745   1.730
 1027SOL    HW112995   1.835   6.649   1.707
 1027SOL    HW212996   1.852   6.763   1.823
 1028SOL     OW12997   3.631   9.228   1.615
 1028SOL    HW112998   3.703   9.279   1.568
 1028SOL    HW212999   3.583   9.169   1.550
 1029SOL     OW13000   1.648   4.794   1.063
 1029SOL    HW113001   1.709   4.811   0.986
 1029SOL    HW213002   1.630   4.695   1.070
 1030SOL     OW13003   2.557   9.891   1.530
 1030SOL    HW113004   2.479   9.849   1.485
 1030SOL    HW213005   2.526   9.969   1.585
 1031SOL     OW13006   0.046   5.276   0.675
 1031SOL    HW113007   0.075   5.183   0.654
 1031SOL    HW213008   9.985   5.309   0.603
 1032SOL     OW13009   2.999   2.003   0.910
 1032SOL    HW113010   2.942   2.003   0.993
 1032SOL    HW213011   3.093   2.028   0.934
 1033SOL     OW13012   0.229   4.669   1.796
 1033SOL    HW113013   0.300   4.711   1.853
 1033SOL    HW213014   0.218   4.724   1.713
 1034SOL     OW13015   4.524   4.280   0.682
 1034SOL    HW113016   4.576   4.332   0.614
 1034SOL    HW213017   4.443   4.241   0.637
 1035SOL     OW13018   9.682   5.527   2.188
 1035SOL    HW113019   9.711   5.442   2.232
 1035SOL    HW213020   9.595   5.512   2.140
 1036SOL     OW13021   3.730   9.288   0.865
 1036SOL    HW113022   3.823   9.276   0.831
 1036SOL    HW213023   3.681   9.201   0.860
 1037SOL     OW13024   2.952   9.682   2.160
 1037SOL    HW113025   2.889   9.604   2.150
 1037SOL    HW213026   2.974   9.719   2.070
 1038SOL     OW13027   1.873   1.906   1.546
 1038SOL    HW113028   1.868   1.889   1.447
 1038SOL    HW213029   1.967   1.930   1.571
 1039SOL     OW13030   5.253   2.344   0.667
 1039SOL    HW113031   5.295   2.335   0.577
 1039SOL    HW213032   5.154   2.335   0.658
 1040SOL     OW13033   3.408   9.493   2.166
 1040SOL    HW113034   3.438   9.427   2.234
 1040SOL    HW213035   3.472   9.570   2.164
 1041SOL     OW13036   2.026   1.599   1.833
 1041SOL    HW113037   2.041   1.688   1.876
 1041SOL    HW213038   1.929   1.587   1.812
 1042SOL     OW13039   3.260   2.511   0.658
 1042SOL    HW113040   3.182   2.468   0.702
 1042SOL    HW213041   3.232   2.597   0.617
 1043SOL     OW13042   1.773   3.004   0.330
 1043SOL    HW113043   1.744   3.013   0.425
 1043SOL    HW213044   1.858   3.055   0.316
 1044SOL     OW13045   3.914   1.108   1.722
 1044SOL    HW113046   3.836   1.064   1.679
 1044SOL    HW213047   3.916   1.205   1.696
 1045SOL     OW13048   4.922   2.430   0.389
 1045SOL    HW113049   4.956   2.376   0.466
 1045SOL    HW213050   4.992   2.435   0.318
 1046SOL     OW13051   5.119   1.916   1.124
 1046SOL    HW113052   5.121   1.913   1.024
 1046SOL    HW213053   5.050   1.983   1.154
 1047SOL     OW13054   2.736   2.993   1.828
 1047SOL    HW113055   2.736   2.905   1.874
 1047SOL    HW213056   2.656   3.045   1.855
 1048SOL     OW13057   3.337   6.731   0.677
 1048SOL    HW113058   3.301   6.817   0.641
 1048SOL    HW213059   3.345   6.738   0.777
 1049SOL     OW13060   1.694   4.244   1.366
 1049SOL    HW113061   1.595   4.259   1.365
 1049SOL    HW213062   1.723   4.211   1.275
 1050SOL     OW13063   4.600   2.154   2.281
 1050SOL    HW113064   4.503   2.147   2.259
 1050SOL    HW213065   4.615   2.236   2.336
 1051SOL     OW13066   2.418   7.050   1.864
 1051SOL    HW113067   2.414   6.960   1.907
 1051SOL    HW213068   2.422   7.040   1.765
 1052SOL     OW13069   4.633   3.248   2.217
 1052SOL    HW113070   4.728   3.279   2.219
 1052SOL    HW213071   4.572   3.326   2.204
 1053SOL     OW13072   0.731   3.675   1.741
 1053SOL    HW113073   0.762   3.763   1.775
 1053SOL    HW213074   0.662   3.637   1.803
 1054SOL     OW13075   2.068   4.999   1.824
 1054SOL    HW113076   2.026   5.018   1.735
 1054SOL    HW213077   1.998   4.964   1.887
 1055SOL     OW13078   2.874   3.614   1.752
 1055SOL    HW113079   2.867   3.564   1.838
 1055SOL    HW213080   2.838   3.558   1.677
 1056SOL     OW13081   1.934   0.168   2.299
 1056SOL    HW113082   1.961   0.236   2.366
 1056SOL    HW213083   1.884   0.094   2.345
 1057SOL     OW13084   4.082   9.585   2.023
 1057SOL    HW113085   4.118   9.550   1.936
 1057SOL    HW213086   3.987   9.554   2.034
 1058SOL     OW13087   3.089   3.983   1.903
 1058SOL    HW113088   3.084   3.936   1.991
 1058SOL    HW213089   3.084   3.916   1.829
 1059SOL     OW13090   3.523   4.900   0.520
 1059SOL    HW113091   3.458   4.875   0.592
 1059SOL    HW213092   3.480   4.889   0.431
 1060SOL     OW13093   1.311   4.611   0.470
 1060SOL    HW113094   1.352   4.643   0.555
 1060SOL    HW213095   1.349   4.522   0.445
 1061SOL     OW13096   2.583   2.252   0.539
 1061SOL    HW113097   2.595   2.217   0.632
 1061SOL    HW213098   2.609   2.349   0.537
 1062SOL     OW13099   2.091   2.205   1.443
 1062SOL    HW113100   2.160   2.232   1.376
 1062SOL    HW213101   2.011   2.265   1.435
 1063SOL     OW13102   4.287   0.848   1.841
 1063SOL    HW113103   4.218   0.802   1.898
 1063SOL    HW213104   4.254   0.940   1.817
 1064SOL     OW13105   2.114   6.699   2.083
 1064SOL    HW113106   2.028   6.738   2.051
 1064SOL    HW213107   2.171   6.771   2.121
 1065SOL     OW13108   3.762   4.889   1.083
 1065SOL    HW113109   3.725   4.922   1.170
 1065SOL    HW213110   3.693   4.835   1.035
 1066SOL     OW13111   2.293   0.740   0.783
 1066SOL    HW113112   2.210   0.726   0.730
 1066SOL    HW213113   2.373   0.711   0.730
 1067SOL     OW13114   2.063   9.976   1.150
 1067SOL    HW113115   2.102   0.043   1.087
 1067SOL    HW213116   2.040   0.021   1.236
 1068SOL     OW13117   9.887   5.474   1.844
 1068SOL    HW113118   9.873   5.411   1.920
 1068SOL    HW213119   9.895   5.568   1.880
 1069SOL     OW13120   4.803   2.615   0.772
 1069SOL    HW113121   4.889   2.633   0.820
 1069SOL    HW213122   4.810   2.645   0.677
 1070SOL     OW13123   4.188   2.082   0.699
 1070SOL    HW113124   4.286   2.073   0.685
 1070SOL    HW213125   4.157   2.016   0.767
 1071SOL     OW13126   2.588   4.936   0.759
 1071SOL    HW113127   2.570   4.871   0.833
 1071SOL    HW213128   2.502   4.965   0.718
 1072SOL     OW13129   2.578   9.584   0.462
 1072SOL    HW113130   2.516   9.645   0.412
 1072SOL    HW213131   2.625   9.636   0.533
 1073SOL     OW13132   2.452   2.367   0.861
 1073SOL    HW113133   2.363   2.389   0.821
 1073SOL    HW213134   2.477   2.437   0.928
 1074SOL     OW13135   0.623   5.626   0.776
 1074SOL    HW113136   0.593   5.597   0.686
 1074SOL    HW213137   0.557   5.596   0.845
 1075SOL     OW13138   2.701   6.951   2.151
 1075SOL    HW113139   2.705   6.852   2.152
 1075SOL    HW213140   2.754   6.986   2.074
 1076SOL     OW13141   3.268   8.793   1.474
 1076SOL    HW113142   3.233   8.839   1.556
 1076SOL    HW213143   3.367   8.785   1.480
 1077SOL     OW13144   3.575   2.245   1.588
 1077SOL    HW113145   3.671   2.269   1.570
 1077SOL    HW213146   3.531   2.320   1.637
 1078SOL     OW13147   2.270   1.014   0.833
 1078SOL    HW113148   2.269   0.916   0.816
 1078SOL    HW213149   2.286   1.031   0.931
 1079SOL     OW13150   2.184   4.830   0.974
 1079SOL    HW113151   2.120   4.891   0.928
 1079SOL    HW213152   2.151   4.736   0.968
 1080SOL     OW13153   3.834   1.161   0.677
 1080SOL    HW113154   3.775   1.096   0.629
 1080SOL    HW213155   3.781   1.240   0.707
 1081SOL     OW13156   1.582   2.812   0.743
 1081SOL    HW113157   1.606   2.871   0.821
 1081SOL    HW213158   1.494   2.769   0.761
 1082SOL     OW13159   9.623   5.712   1.020
 1082SOL    HW113160   9.613   5.730   1.118
 1082SOL    HW213161   9.533   5.695   0.980
 1083SOL     OW13162   2.868   9.378   1.313
 1083SOL    HW113163   2.907   9.464   1.348
 1083SOL    HW213164   2.853   9.315   1.389
 1084SOL     OW13165   1.311   7.328   0.555
 1084SOL    HW113166   1.312   7.414   0.504
 1084SOL    HW213167   1.399   7.281   0.543
 1085SOL     OW13168   3.762   3.731   0.812
 1085SOL    HW113169   3.747   3.709   0.715
 1085SOL    HW213170   3.690   3.689   0.867
 1086SOL     OW13171   1.987   9.045   1.358
 1086SOL    HW113172   2.045   9.126   1.354
 1086SOL    HW213173   1.966   9.014   1.265
 1087SOL     OW13174   1.774   6.274   1.450
 1087SOL    HW113175   1.701   6.286   1.383
 1087SOL    HW213176   1.843   6.212   1.413
 1088SOL     OW13177   1.567   7.231   0.524
 1088SOL    HW113178   1.597   7.325   0.503
 1088SOL    HW213179   1.629   7.190   0.591
 1089SOL     OW13180   2.918   4.053   2.278
 1089SOL    HW113181   2.943   4.098   2.193
 1089SOL    HW213182   2.879   4.119   2.341
 1090SOL     OW13183   2.414   9.187   1.276
 1090SOL    HW113184   2.441   9.158   1.367
 1090SOL    HW213185   2.476   9.259   1.244
 1091SOL     OW13186   1.677   5.568   1.072
 1091SOL    HW113187   1.601   5.593   1.131
 1091SOL    HW213188   1.664   5.607   0.981
 1092SOL     OW13189   2.153   9.712   1.855
 1092SOL    HW113190   2.118   9.625   1.888
 1092SOL    HW213191   2.141   9.718   1.756
 1093SOL     OW13192   2.157   1.589   1.587
 1093SOL    HW113193   2.119   1.595   1.679
 1093SOL    HW213194   2.210   1.671   1.567
 1094SOL     OW13195   2.791   3.348   1.365
 1094SOL    HW113196   2.776   3.353   1.463
 1094SOL    HW213197   2.795   3.252   1.336
 1095SOL     OW13198   2.856   0.726   1.053
 1095SOL    HW113199   2.907   0.640   1.052
 1095SOL    HW213200   2.770   0.714   1.003
 1096SOL     OW13201   0.273   5.556   1.884
 1096SOL    HW113202   0.239   5.621   1.951
 1096SOL    HW213203   0.265   5.463   1.920
 1097SOL     OW13204   2.102   3.969   1.327
 1097SOL    HW113205   2.016   3.931   1.364
 1097SOL    HW213206   2.141   3.903   1.262
 1098SOL     OW13207   1.771   5.895   1.219
 1098SOL    HW113208   1.744   5.908   1.123
 1098SOL    HW213209   1.825   5.812   1.228
 1099SOL     OW13210   3.198   3.878   1.497
 1099SOL    HW113211   3.157   3.969   1.494
 1099SOL    HW213212   3.151   3.822   1.565
 1100SOL     OW13213   3.549   1.862   0.589
 1100SOL    HW113214   3.643   1.847   0.619
 1100SOL    HW213215   3.542   1.951   0.544
 1101SOL     OW13216   3.638   9.748   1.264
 1101SOL    HW113217   3.625   9.657   1.302
 1101SOL    HW213218   3.725   9.786   1.296
 1102SOL     OW13219   2.504   3.574   2.214
 1102SOL    HW113220   2.489   3.671   2.236
 1102SOL    HW213221   2.425   3.521   2.243
 1103SOL     OW13222   0.293   3.763   1.962
 1103SOL    HW113223   0.377   3.723   1.924
 1103SOL    HW213224   0.214   3.730   1.910
 1104SOL     OW13225   0.912   2.629   0.785
 1104SOL    HW113226   0.823   2.673   0.777
 1104SOL    HW213227   0.921   2.559   0.714
 1105SOL     OW13228   0.903   6.680   0.702
 1105SOL    HW113229   0.894   6.584   0.673
 1105SOL    HW213230   0.962   6.729   0.639
 1106SOL     OW13231   3.905   9.115   1.213
 1106SOL    HW113232   3.807   9.110   1.194
 1106SOL    HW213233   3.956   9.106   1.127
 1107SOL     OW13234   2.086   6.369   0.360
 1107SOL    HW113235   2.055   6.328   0.275
 1107SOL    HW213236   2.085   6.300   0.433
 1108SOL     OW13237   3.929   4.666   0.597
 1108SOL    HW113238   3.833   4.664   0.568
 1108SOL    HW213239   3.967   4.757   0.581
 1109SOL     OW13240   2.500   2.569   1.307
 1109SOL    HW113241   2.531   2.651   1.355
 1109SOL    HW213242   2.400   2.567   1.307
 1110SOL     OW13243   4.382   1.718   0.436
 1110SOL    HW113244   4.435   1.737   0.518
 1110SOL    HW213245   4.444   1.693   0.361
 1111SOL     OW13246   0.876   3.977   0.471
 1111SOL    HW113247   0.804   4.021   0.417
 1111SOL    HW213248   0.891   4.028   0.555
 1112SOL     OW13249   2.074   5.754   2.281
 1112SOL    HW113250   2.145   5.805   2.329
 1112SOL    HW213251   2.022   5.815   2.221
 1113SOL     OW13252   2.913   1.383   2.010
 1113SOL    HW113253   2.842   1.392   1.941
 1113SOL    HW213254   2.977   1.311   1.982
 1114SOL     OW13255   1.900   7.535   0.451
 1114SOL    HW113256   1.946   7.456   0.491
 1114SOL    HW213257   1.968   7.604   0.427
 1115SOL     OW13258   3.366   3.431   1.829
 1115SOL    HW113259   3.327   3.464   1.915
 1115SOL    HW213260   3.465   3.420   1.839
 1116SOL     OW13261   4.415   9.245   2.290
 1116SOL    HW113262   4.510   9.254   2.317
 1116SOL    HW213263   4.375   9.164   2.332
 1117SOL     OW13264   0.164   5.726   2.071
 1117SOL    HW113265   0.236   5.791   2.096
 1117SOL    HW213266   0.106   5.710   2.151
 1118SOL     OW13267   0.683   5.970   1.959
 1118SOL    HW113268   0.694   5.914   1.877
 1118SOL    HW213269   0.762   6.032   1.968
 1119SOL     OW13270   3.830   4.651   0.860
 1119SOL    HW113271   3.876   4.670   0.773
 1119SOL    HW213272   3.892   4.600   0.920
 1120SOL     OW13273   5.234   3.746   1.479
 1120SOL    HW113274   5.139   3.774   1.468
 1120SOL    HW213275   5.252   3.725   1.575
 1121SOL     OW13276   3.489   1.130   1.438
 1121SOL    HW113277   3.537   1.119   1.351
 1121SOL    HW213278   3.424   1.205   1.431
 1122SOL     OW13279   4.620   2.069   0.472
 1122SOL    HW113280   4.622   2.165   0.441
 1122SOL    HW213281   4.553   2.060   0.545
 1123SOL     OW13282   0.793   3.375   2.142
 1123SOL    HW113283   0.711   3.428   2.164
 1123SOL    HW213284   0.766   3.283   2.113
 1124SOL     OW13285   0.054   4.665   2.164
 1124SOL    HW113286   9.959   4.658   2.196
 1124SOL    HW213287   0.074   4.589   2.102
 1125SOL     OW13288   1.174   6.735   1.820
 1125SOL    HW113289   1.144   6.737   1.725
 1125SOL    HW213290   1.200   6.827   1.849
 1126SOL     OW13291   1.594   5.709   0.846
 1126SOL    HW113292   1.495   5.698   0.848
 1126SOL    HW213293   1.627   5.691   0.753
 1127SOL     OW13294   5.308   4.145   0.908
 1127SOL    HW113295   5.211   4.160   0.887
 1127SOL    HW213296   5.337   4.058   0.870
 1128SOL     OW13297   1.047   6.455   0.997
 1128SOL    HW113298   1.092   6.513   0.928
 1128SOL    HW213299   1.099   6.460   1.082
 1129SOL     OW13300   3.950   4.917   1.394
 1129SOL    HW113301   3.967   4.820   1.381
 1129SOL    HW213302   4.027   4.970   1.360
 1130SOL     OW13303   2.163   2.791   2.324
 1130SOL    HW113304   2.126   2.843   2.401
 1130SOL    HW213305   2.088   2.743   2.277
 1131SOL     OW13306   3.211   9.465   0.592
 1131SOL    HW113307   3.277   9.391   0.578
 1131SOL    HW213308   3.244   9.527   0.663
 1132SOL     OW13309   0.945   2.891   0.512
 1132SOL    HW113310   0.959   2.978   0.464
 1132SOL    HW213311   0.958   2.904   0.610
 1133SOL     OW13312   1.698   9.185   0.859
 1133SOL    HW113313   1.756   9.260   0.828
 1133SOL    HW213314   1.676   9.196   0.955
 1134SOL     OW13315   3.656   0.435   0.723
 1134SOL    HW113316   3.638   0.435   0.625
 1134SOL    HW213317   3.714   0.514   0.746
 1135SOL     OW13318   2.659   8.743   1.890
 1135SOL    HW113319   2.664   8.842   1.874
 1135SOL    HW213320   2.745   8.712   1.931
 1136SOL     OW13321   2.770   3.974   0.693
 1136SOL    HW113322   2.784   3.895   0.753
 1136SOL    HW213323   2.800   4.057   0.741
 1137SOL     OW13324   3.197   7.179   0.818
 1137SOL    HW113325   3.195   7.119   0.898
 1137SOL    HW213326   3.114   7.235   0.816
 1138SOL     OW13327   2.692   8.535   1.709
 1138SOL    HW113328   2.791   8.545   1.699
 1138SOL    HW213329   2.656   8.611   1.763
 1139SOL     OW13330   1.536   8.075   1.766
 1139SOL    HW113331   1.557   8.099   1.671
 1139SOL    HW213332   1.549   8.155   1.824
 1140SOL     OW13333   1.947   8.982   0.694
 1140SOL    HW113334   2.000   8.898   0.704
 1140SOL    HW213335   1.850   8.963   0.710
 1141SOL     OW13336   3.340   7.564   1.980
 1141SOL    HW113337   3.401   7.642   1.996
 1141SOL    HW213338   3.333   7.509   2.063
 1142SOL     OW13339   5.198   2.603   1.868
 1142SOL    HW113340   5.151   2.665   1.931
 1142SOL    HW213341   5.167   2.509   1.885
 1143SOL     OW13342   2.719   2.748   1.966
 1143SOL    HW113343   2.694   2.662   1.922
 1143SOL    HW213344   2.660   2.764   2.046
 1144SOL     OW13345   2.107   2.208   0.593
 1144SOL    HW113346   2.193   2.204   0.542
 1144SOL    HW213347   2.048   2.131   0.566
 1145SOL     OW13348   9.845   3.653   1.407
 1145SOL    HW113349   9.843   3.555   1.424
 1145SOL    HW213350   9.873   3.670   1.312
 1146SOL     OW13351   3.778   4.204   1.243
 1146SOL    HW113352   3.844   4.158   1.185
 1146SOL    HW213353   3.687   4.165   1.229
 1147SOL     OW13354   1.584   7.932   1.015
 1147SOL    HW113355   1.544   7.854   0.968
 1147SOL    HW213356   1.568   8.015   0.961
 1148SOL     OW13357   1.932   1.301   1.663
 1148SOL    HW113358   1.875   1.264   1.590
 1148SOL    HW213359   1.895   1.390   1.691
 1149SOL     OW13360   2.095   6.533   1.689
 1149SOL    HW113361   2.147   6.521   1.773
 1149SOL    HW213362   2.102   6.627   1.657
 1150SOL     OW13363   2.475   0.173   0.933
 1150SOL    HW113364   2.463   0.237   1.008
 1150SOL    HW213365   2.570   0.142   0.931
 1151SOL     OW13366   4.812   1.189   1.289
 1151SOL    HW113367   4.817   1.094   1.259
 1151SOL    HW213368   4.793   1.247   1.210
 1152SOL     OW13369   4.034   9.709   0.737
 1152SOL    HW113370   3.957   9.676   0.682
 1152SOL    HW213371   4.005   9.787   0.792
 1153SOL     OW13372   0.959   5.348   2.155
 1153SOL    HW113373   1.056   5.326   2.161
 1153SOL    HW213374   0.945   5.425   2.093
 1154SOL     OW13375   4.225   0.725   1.108
 1154SOL    HW113376   4.146   0.757   1.056
 1154SOL    HW213377   4.306   0.726   1.049
 1155SOL     OW13378   4.710   1.245   1.560
 1155SOL    HW113379   4.759   1.323   1.600
 1155SOL    HW213380   4.729   1.240   1.462
 1156SOL     OW13381   3.335   5.652   2.286
 1156SOL    HW113382   3.427   5.615   2.301
 1156SOL    HW213383   3.268   5.580   2.302
 1157SOL     OW13384   2.064   2.276   1.063
 1157SOL    HW113385   2.064   2.207   0.991
 1157SOL    HW213386   2.037   2.364   1.024
 1158SOL     OW13387   3.281   1.583   0.858
 1158SOL    HW113388   3.238   1.577   0.948
 1158SOL    HW213389   3.227   1.642   0.798
 1159SOL     OW13390   1.790   1.526   0.845
 1159SOL    HW113391   1.771   1.477   0.930
 1159SOL    HW213392   1.831   1.464   0.779
 1160SOL     OW13393   9.836   5.259   2.020
 1160SOL    HW113394   9.887   5.173   2.010
 1160SOL    HW213395   9.813   5.273   2.116
 1161SOL     OW13396   2.694   1.972   2.024
 1161SOL    HW113397   2.636   1.932   2.094
 1161SOL    HW213398   2.727   1.901   1.962
 1162SOL     OW13399   1.625   6.547   1.164
 1162SOL    HW113400   1.723   6.534   1.180
 1162SOL    HW213401   1.599   6.641   1.186
 1163SOL     OW13402   2.831   2.126   0.474
 1163SOL    HW113403   2.869   2.144   0.565
 1163SOL    HW213404   2.737   2.161   0.470
 1164SOL     OW13405   2.917   0.861   2.233
 1164SOL    HW113406   2.942   0.817   2.147
 1164SOL    HW213407   2.962   0.950   2.239
 1165SOL     OW13408   2.285   6.928   0.842
 1165SOL    HW113409   2.357   6.996   0.831
 1165SOL    HW213410   2.217   6.961   0.908
 1166SOL     OW13411   2.076   3.266   2.171
 1166SOL    HW113412   2.004   3.327   2.205
 1166SOL    HW213413   2.165   3.302   2.200
 1167SOL     OW13414   1.986   2.763   0.973
 1167SOL    HW113415   1.949   2.753   1.066
 1167SOL    HW213416   1.965   2.854   0.939
 1168SOL     OW13417   3.347   7.435   1.741
 1168SOL    HW113418   3.355   7.479   1.830
 1168SOL    HW213419   3.329   7.505   1.671
 1169SOL     OW13420   3.161   6.330   0.746
 1169SOL    HW113421   3.199   6.290   0.662
 1169SOL    HW213422   3.146   6.257   0.813
 1170SOL     OW13423   5.352   3.899   1.083
 1170SOL    HW113424   5.351   3.997   1.100
 1170SOL    HW213425   5.350   3.882   0.984
 1171SOL     OW13426   3.178   8.203   1.497
 1171SOL    HW113427   3.139   8.131   1.553
 1171SOL    HW213428   3.203   8.281   1.554
 1172SOL     OW13429   3.682   9.689   1.840
 1172SOL    HW113430   3.750   9.745   1.792
 1172SOL    HW213431   3.604   9.747   1.864
 1173SOL     OW13432   3.751   9.560   0.882
 1173SOL    HW113433   3.751   9.460   0.889
 1173SOL    HW213434   3.805   9.599   0.957
 1174SOL     OW13435   2.636   8.965   2.220
 1174SOL    HW113436   2.717   8.921   2.182
 1174SOL    HW213437   2.583   8.899   2.273
 1175SOL     OW13438   2.235   5.525   2.259
 1175SOL    HW113439   2.317   5.551   2.208
 1175SOL    HW213440   2.179   5.605   2.276
 1176SOL     OW13441   9.404   4.785   1.948
 1176SOL    HW113442   9.489   4.833   1.969
 1176SOL    HW213443   9.409   4.745   1.856
 1177SOL     OW13444   2.797   9.677   1.841
 1177SOL    HW113445   2.880   9.727   1.868
 1177SOL    HW213446   2.726   9.691   1.910
 1178SOL     OW13447   2.508   1.123   0.749
 1178SOL    HW113448   2.493   1.198   0.685
 1178SOL    HW213449   2.421   1.080   0.772
 1179SOL     OW13450   3.902   4.424   1.422
 1179SOL    HW113451   3.885   4.357   1.350
 1179SOL    HW213452   3.874   4.387   1.510
 1180SOL     OW13453   3.500   8.589   1.115
 1180SOL    HW113454   3.596   8.591   1.145
 1180SOL    HW213455   3.468   8.494   1.113
 1181SOL     OW13456   0.289   5.680   0.454
 1181SOL    HW113457   0.239   5.709   0.536
 1181SOL    HW213458   0.236   5.702   0.373
 1182SOL     OW13459   3.418   0.078   1.695
 1182SOL    HW113460   3.487   0.028   1.643
 1182SOL    HW213461   3.365   0.137   1.634
 1183SOL     OW13462   3.062   5.670   1.200
 1183SOL    HW113463   3.148   5.633   1.236
 1183SOL    HW213464   3.031   5.744   1.260
 1184SOL     OW13465   3.116   1.199   1.963
 1184SOL    HW113466   3.210   1.193   1.997
 1184SOL    HW213467   3.117   1.199   1.863
 1185SOL     OW13468   4.641   3.438   1.368
 1185SOL    HW113469   4.620   3.461   1.463
 1185SOL    HW213470   4.587   3.495   1.306
 1186SOL     OW13471   2.464   6.154   1.335
 1186SOL    HW113472   2.373   6.120   1.310
 1186SOL    HW213473   2.516   6.082   1.380
 1187SOL     OW13474   4.786   1.250   2.144
 1187SOL    HW113475   4.825   1.332   2.103
 1187SOL    HW213476   4.799   1.172   2.082
 1188SOL     OW13477   3.335   1.830   1.980
 1188SOL    HW113478   3.252   1.885   1.968
 1188SOL    HW213479   3.395   1.843   1.901
 1189SOL     OW13480   2.255   6.940   0.569
 1189SOL    HW113481   2.259   6.939   0.669
 1189SOL    HW213482   2.319   6.873   0.532
 1190SOL     OW13483   9.034   4.847   0.911
 1190SOL    HW113484   8.965   4.875   0.844
 1190SOL    HW213485   9.117   4.817   0.862
 1191SOL     OW13486   0.935   3.618   1.331
 1191SOL    HW113487   0.838   3.619   1.309
 1191SOL    HW213488   0.948   3.590   1.426
 1192SOL     OW13489   3.609   9.941   1.551
 1192SOL    HW113490   3.628   0.007   1.478
 1192SOL    HW213491   3.694   9.916   1.597
 1193SOL     OW13492   2.519   7.385   0.740
 1193SOL    HW113493   2.586   7.400   0.667
 1193SOL    HW213494   2.545   7.438   0.821
 1194SOL     OW13495   1.933   0.303   1.857
 1194SOL    HW113496   1.943   0.204   1.861
 1194SOL    HW213497   2.022   0.346   1.868
 1195SOL     OW13498   1.171   7.088   0.570
 1195SOL    HW113499   1.252   7.033   0.590
 1195SOL    HW213500   1.199   7.183   0.553
 1196SOL     OW13501   4.623   2.455   2.106
 1196SOL    HW113502   4.702   2.450   2.167
 1196SOL    HW213503   4.552   2.512   2.148
 1197SOL     OW13504   4.507   1.325   1.310
 1197SOL    HW113505   4.555   1.379   1.241
 1197SOL    HW213506   4.499   1.230   1.278
 1198SOL     OW13507   2.408   1.929   0.576
 1198SOL    HW113508   2.382   1.949   0.671
 1198SOL    HW213509   2.388   2.008   0.518
 1199SOL     OW13510   2.890   8.885   1.231
 1199SOL    HW113511   2.866   8.806   1.175
 1199SOL    HW213512   2.990   8.894   1.233
 1200SOL     OW13513   0.007   5.727   2.295
 1200SOL    HW113514   9.924   5.754   2.246
 1200SOL    HW213515   9.982   5.689   2.384
 1201SOL     OW13516   1.756   1.355   0.500
 1201SOL    HW113517   1.715   1.444   0.519
 1201SOL    HW213518   1.855   1.361   0.516
 1202SOL     OW13519   1.967   8.970   1.095
 1202SOL    HW113520   2.060   8.933   1.089
 1202SOL    HW213521   1.957   9.046   1.030
 1203SOL     OW13522   2.784   3.141   2.228
 1203SOL    HW113523   2.882   3.149   2.208
 1203SOL    HW213524   2.739   3.229   2.212
 1204SOL     OW13525   1.507   6.601   1.979
 1204SOL    HW113526   1.546   6.563   1.895
 1204SOL    HW213527   1.408   6.585   1.980
 1205SOL     OW13528   0.723   2.775   0.405
 1205SOL    HW113529   0.805   2.816   0.445
 1205SOL    HW213530   0.748   2.692   0.355
 1206SOL     OW13531   2.970   1.592   1.599
 1206SOL    HW113532   3.021   1.631   1.676
 1206SOL    HW213533   2.875   1.622   1.602
 1207SOL     OW13534   3.529   9.381   0.681
 1207SOL    HW113535   3.616   9.372   0.729
 1207SOL    HW213536   3.460   9.321   0.722
 1208SOL     OW13537   0.535   4.931   1.679
 1208SOL    HW113538   0.458   4.993   1.695
 1208SOL    HW213539   0.531   4.897   1.584
 1209SOL     OW13540   0.839   4.632   1.934
 1209SOL    HW113541   0.820   4.543   1.894
 1209SOL    HW213542   0.934   4.657   1.917
 1210SOL     OW13543   4.513   1.312   2.126
 1210SOL    HW113544   4.603   1.282   2.156
 1210SOL    HW213545   4.486   1.261   2.044
 1211SOL     OW13546   2.140   6.113   1.529
 1211SOL    HW113547   2.121   6.211   1.517
 1211SOL    HW213548   2.159   6.071   1.441
 1212SOL     OW13549   2.662   8.667   2.269
 1212SOL    HW113550   2.741   8.718   2.233
 1212SOL    HW213551   2.692   8.610   2.346
 1213SOL     OW13552   2.703   3.778   0.504
 1213SOL    HW113553   2.603   3.770   0.505
 1213SOL    HW213554   2.730   3.854   0.563
 1214SOL     OW13555   2.544   1.961   0.975
 1214SOL    HW113556   2.567   1.864   0.969
 1214SOL    HW213557   2.541   1.989   1.071
 1215SOL     OW13558   1.182   3.760   1.263
 1215SOL    HW113559   1.197   3.804   1.174
 1215SOL    HW213560   1.087   3.732   1.271
 1216SOL     OW13561   2.523   4.139   0.710
 1216SOL    HW113562   2.515   4.132   0.809
 1216SOL    HW213563   2.597   4.079   0.678
 1217SOL     OW13564   1.247   3.075   0.379
 1217SOL    HW113565   1.149   3.096   0.380
 1217SOL    HW213566   1.264   2.994   0.436
 1218SOL     OW13567   2.077   7.767   1.421
 1218SOL    HW113568   1.990   7.770   1.470
 1218SOL    HW213569   2.131   7.848   1.445
 1219SOL     OW13570   1.116   2.679   0.492
 1219SOL    HW113571   1.048   2.752   0.484
 1219SOL    HW213572   1.192   2.712   0.548
 1220SOL     OW13573   5.298   3.119   0.610
 1220SOL    HW113574   5.365   3.076   0.550
 1220SOL    HW213575   5.339   3.199   0.655
 1221SOL     OW13576   3.449   0.272   1.886
 1221SOL    HW113577   3.434   0.196   1.822
 1221SOL    HW213578   3.489   0.349   1.836
 1222SOL     OW13579   2.262   3.076   1.610
 1222SOL    HW113580   2.213   3.093   1.524
 1222SOL    HW213581   2.229   3.140   1.679
 1223SOL     OW13582   1.270   2.750   1.048
 1223SOL    HW113583   1.243   2.668   0.997
 1223SOL    HW213584   1.188   2.800   1.076
 1224SOL     OW13585   2.327   7.536   1.846
 1224SOL    HW113586   2.256   7.562   1.781
 1224SOL    HW213587   2.286   7.480   1.918
 1225SOL     OW13588   1.323   2.627   1.304
 1225SOL    HW113589   1.308   2.658   1.210
 1225SOL    HW213590   1.265   2.681   1.366
 1226SOL     OW13591   3.897   9.891   0.891
 1226SOL    HW113592   3.890   9.983   0.929
 1226SOL    HW213593   3.890   9.824   0.965
 1227SOL     OW13594   3.867   0.312   1.657
 1227SOL    HW113595   3.823   0.339   1.742
 1227SOL    HW213596   3.900   0.394   1.609
 1228SOL     OW13597   2.503   9.752   1.088
 1228SOL    HW113598   2.405   9.761   1.109
 1228SOL    HW213599   2.522   9.661   1.053
 1229SOL     OW13600   3.609   0.414   1.357
 1229SOL    HW113601   3.621   0.491   1.419
 1229SOL    HW213602   3.555   0.443   1.278
 1230SOL     OW13603   3.061   3.166   2.196
 1230SOL    HW113604   3.056   3.067   2.212
 1230SOL    HW213605   3.144   3.187   2.144
 1231SOL     OW13606   2.595   4.482   2.182
 1231SOL    HW113607   2.618   4.567   2.134
 1231SOL    HW213608   2.680   4.435   2.208
 1232SOL     OW13609   2.026   9.075   0.444
 1232SOL    HW113610   1.991   9.047   0.533
 1232SOL    HW213611   2.022   9.175   0.437
 1233SOL     OW13612   2.468   9.582   1.730
 1233SOL    HW113613   2.448   9.669   1.776
 1233SOL    HW213614   2.483   9.599   1.633
 1234SOL     OW13615   4.898   5.229   0.920
 1234SOL    HW113616   4.857   5.140   0.939
 1234SOL    HW213617   4.921   5.274   1.007
 1235SOL     OW13618   3.342   2.138   2.096
 1235SOL    HW113619   3.403   2.125   2.018
 1235SOL    HW213620   3.257   2.088   2.080
 1236SOL     OW13621   4.837   3.303   1.011
 1236SOL    HW113622   4.889   3.224   0.977
 1236SOL    HW213623   4.774   3.272   1.082
 1237SOL     OW13624   1.353   2.660   1.758
 1237SOL    HW113625   1.393   2.724   1.692
 1237SOL    HW213626   1.376   2.566   1.731
 1238SOL     OW13627   2.989   6.419   1.752
 1238SOL    HW113628   2.978   6.503   1.700
 1238SOL    HW213629   3.078   6.419   1.797
 1239SOL     OW13630   2.483   8.297   1.065
 1239SOL    HW113631   2.399   8.251   1.036
 1239SOL    HW213632   2.460   8.373   1.126
 1240SOL     OW13633   1.040   3.473   1.117
 1240SOL    HW113634   1.000   3.537   1.182
 1240SOL    HW213635   1.110   3.521   1.063
 1241SOL     OW13636   1.405   3.678   2.234
 1241SOL    HW113637   1.387   3.580   2.220
 1241SOL    HW213638   1.319   3.729   2.228
 1242SOL     OW13639   3.981   0.273   2.275
 1242SOL    HW113640   4.036   0.200   2.234
 1242SOL    HW213641   4.034   0.317   2.347
 1243SOL     OW13642   3.879   1.357   2.142
 1243SOL    HW113643   3.899   1.280   2.082
 1243SOL    HW213644   3.861   1.323   2.235
 1244SOL     OW13645   4.657   5.003   1.576
 1244SOL    HW113646   4.663   4.990   1.477
 1244SOL    HW213647   4.672   4.915   1.622
 1245SOL     OW13648   0.926   5.528   1.598
 1245SOL    HW113649   0.996   5.462   1.572
 1245SOL    HW213650   0.970   5.615   1.620
 1246SOL     OW13651   9.546   5.440   0.794
 1246SOL    HW113652   9.481   5.492   0.850
 1246SOL    HW213653   9.636   5.441   0.838
 1247SOL     OW13654   0.843   6.850   1.223
 1247SOL    HW113655   0.874   6.939   1.189
 1247SOL    HW213656   0.822   6.790   1.145
 1248SOL     OW13657   2.452   4.828   1.003
 1248SOL    HW113658   2.355   4.830   0.981
 1248SOL    HW213659   2.483   4.920   1.028
 1249SOL     OW13660   4.640   0.855   1.635
 1249SOL    HW113661   4.609   0.793   1.707
 1249SOL    HW213662   4.587   0.940   1.639
 1250SOL     OW13663   5.231   3.824   0.354
 1250SOL    HW113664   5.208   3.921   0.364
 1250SOL    HW213665   5.162   3.768   0.400
 1251SOL     OW13666   4.181   1.079   1.757
 1251SOL    HW113667   4.212   1.172   1.774
 1251SOL    HW213668   4.084   1.079   1.733
 1252SOL     OW13669   2.533   0.667   0.657
 1252SOL    HW113670   2.589   0.638   0.735
 1252SOL    HW213671   2.564   0.757   0.625
 1253SOL     OW13672   1.662   2.602   1.622
 1253SOL    HW113673   1.742   2.659   1.599
 1253SOL    HW213674   1.616   2.640   1.702
 1254SOL     OW13675   3.711   3.900   2.230
 1254SOL    HW113676   3.667   3.889   2.319
 1254SOL    HW213677   3.668   3.838   2.164
 1255SOL     OW13678   3.494   5.336   1.598
 1255SOL    HW113679   3.415   5.395   1.580
 1255SOL    HW213680   3.534   5.360   1.687
 1256SOL     OW13681   3.064   1.099   2.224
 1256SOL    HW113682   3.056   1.187   2.271
 1256SOL    HW213683   3.068   1.114   2.125
 1257SOL     OW13684   9.527   4.488   1.523
 1257SOL    HW113685   9.441   4.471   1.476
 1257SOL    HW213686   9.600   4.498   1.455
 1258SOL     OW13687   2.650   0.208   1.348
 1258SOL    HW113688   2.681   0.115   1.331
 1258SOL    HW213689   2.592   0.239   1.272
 1259SOL     OW13690   1.506   3.604   0.789
 1259SOL    HW113691   1.425   3.647   0.751
 1259SOL    HW213692   1.584   3.618   0.728
 1260SOL     OW13693   1.778   2.684   0.596
 1260SOL    HW113694   1.710   2.720   0.660
 1260SOL    HW213695   1.796   2.587   0.617
 1261SOL     OW13696   1.557   4.012   1.667
 1261SOL    HW113697   1.647   4.048   1.645
 1261SOL    HW213698   1.560   3.967   1.757
 1262SOL     OW13699   0.971   3.132   0.385
 1262SOL    HW113700   0.925   3.178   0.461
 1262SOL    HW213701   0.936   3.168   0.298
 1263SOL     OW13702   3.987   1.685   1.237
 1263SOL    HW113703   3.979   1.778   1.201
 1263SOL    HW213704   4.066   1.680   1.299
 1264SOL     OW13705   2.458   8.330   0.371
 1264SOL    HW113706   2.493   8.335   0.278
 1264SOL    HW213707   2.445   8.422   0.407
 1265SOL     OW13708   1.718   5.610   1.958
 1265SOL    HW113709   1.770   5.666   1.894
 1265SOL    HW213710   1.766   5.606   2.046
 1266SOL     OW13711   4.686   4.460   0.819
 1266SOL    HW113712   4.624   4.387   0.790
 1266SOL    HW213713   4.635   4.547   0.821
 1267SOL     OW13714   4.158   9.813   2.168
 1267SOL    HW113715   4.214   9.794   2.248
 1267SOL    HW213716   4.134   9.727   2.122
 1268SOL     OW13717   3.461   4.146   1.502
 1268SOL    HW113718   3.433   4.064   1.553
 1268SOL    HW213719   3.559   4.141   1.483
 1269SOL     OW13720   1.096   7.463   2.227
 1269SOL    HW113721   1.029   7.472   2.301
 1269SOL    HW213722   1.127   7.368   2.221
 1270SOL     OW13723   1.227   5.295   2.133
 1270SOL    HW113724   1.292   5.334   2.198
 1270SOL    HW213725   1.266   5.213   2.091
 1271SOL     OW13726   0.569   3.529   2.186
 1271SOL    HW113727   0.474   3.512   2.212
 1271SOL    HW213728   0.602   3.613   2.230
 1272SOL     OW13729   2.752   8.944   1.456
 1272SOL    HW113730   2.677   8.878   1.458
 1272SOL    HW213731   2.805   8.932   1.372
 1273SOL     OW13732   9.693   3.916   1.730
 1273SOL    HW113733   9.702   3.820   1.756
 1273SOL    HW213734   9.766   3.969   1.774
 1274SOL     OW13735   2.270   2.344   2.149
 1274SOL    HW113736   2.223   2.289   2.218
 1274SOL    HW213737   2.294   2.433   2.188
 1275SOL     OW13738   9.585   4.286   1.221
 1275SOL    HW113739   9.562   4.245   1.132
 1275SOL    HW213740   9.550   4.228   1.294
 1276SOL     OW13741   2.456   0.902   0.398
 1276SOL    HW113742   2.524   0.910   0.470
 1276SOL    HW213743   2.489   0.950   0.316
 1277SOL     OW13744   2.227   0.500   2.343
 1277SOL    HW113745   2.258   0.525   2.435
 1277SOL    HW213746   2.127   0.511   2.337
 1278SOL     OW13747   1.270   3.719   0.721
 1278SOL    HW113748   1.261   3.817   0.704
 1278SOL    HW213749   1.230   3.669   0.644
 1279SOL     OW13750   4.564   4.572   1.520
 1279SOL    HW113751   4.586   4.546   1.426
 1279SOL    HW213752   4.470   4.607   1.523
 1280SOL     OW13753   0.763   3.729   0.551
 1280SOL    HW113754   0.793   3.824   0.548
 1280SOL    HW213755   0.698   3.712   0.477
 1281SOL     OW13756   3.752   1.996   1.308
 1281SOL    HW113757   3.706   2.082   1.285
 1281SOL    HW213758   3.809   1.967   1.231
 1282SOL     OW13759   1.184   2.802   1.462
 1282SOL    HW113760   1.180   2.897   1.431
 1282SOL    HW213761   1.111   2.785   1.528
 1283SOL     OW13762   3.070   8.496   1.058
 1283SOL    HW113763   3.090   8.434   1.134
 1283SOL    HW213764   2.983   8.542   1.075
 1284SOL     OW13765   0.952   6.350   1.325
 1284SOL    HW113766   1.034   6.382   1.279
 1284SOL    HW213767   0.912   6.274   1.273
 1285SOL     OW13768   4.530   2.726   1.715
 1285SOL    HW113769   4.450   2.778   1.743
 1285SOL    HW213770   4.502   2.639   1.674
 1286SOL     OW13771   1.886   6.824   1.982
 1286SOL    HW113772   1.797   6.826   2.026
 1286SOL    HW213773   1.916   6.918   1.962
 1287SOL     OW13774   1.994   2.340   2.058
 1287SOL    HW113775   2.086   2.336   2.098
 1287SOL    HW213776   1.929   2.296   2.120
 1288SOL     OW13777   3.194   5.125   1.705
 1288SOL    HW113778   3.135   5.187   1.653
 1288SOL    HW213779   3.276   5.103   1.652
 1289SOL     OW13780   4.066   9.118   0.984
 1289SOL    HW113781   4.026   9.159   0.902
 1289SOL    HW213782   4.159   9.152   0.996
 1290SOL     OW13783   2.487   3.255   0.665
 1290SOL    HW113784   2.490   3.245   0.566
 1290SOL    HW213785   2.477   3.352   0.689
 1291SOL     OW13786   3.023   7.009   1.721
 1291SOL    HW113787   3.116   6.972   1.718
 1291SOL    HW213788   2.981   7.001   1.631
 1292SOL     OW13789   3.539   9.729   0.845
 1292SOL    HW113790   3.607   9.658   0.866
 1292SOL    HW213791   3.579   9.794   0.780
 1293SOL     OW13792   2.261   2.294   1.246
 1293SOL    HW113793   2.265   2.391   1.269
 1293SOL    HW213794   2.193   2.279   1.175
 1294SOL     OW13795   2.911   8.725   0.834
 1294SOL    HW113796   3.007   8.748   0.819
 1294SOL    HW213797   2.853   8.789   0.784
 1295SOL     OW13798   0.400   6.180   1.475
 1295SOL    HW113799   0.342   6.255   1.443
 1295SOL    HW213800   0.475   6.217   1.531
 1296SOL     OW13801   1.652   2.431   2.210
 1296SOL    HW113802   1.651   2.442   2.110
 1296SOL    HW213803   1.572   2.477   2.249
 1297SOL     OW13804   2.562   9.505   0.985
 1297SOL    HW113805   2.634   9.500   0.915
 1297SOL    HW213806   2.474   9.484   0.944
 1298SOL     OW13807   4.456   1.968   1.992
 1298SOL    HW113808   4.356   1.971   1.992
 1298SOL    HW213809   4.492   2.061   1.995
 1299SOL     OW13810   2.501   5.377   0.531
 1299SOL    HW113811   2.553   5.301   0.571
 1299SOL    HW213812   2.558   5.459   0.528
 1300SOL     OW13813   3.080   6.461   0.327
 1300SOL    HW113814   3.024   6.394   0.376
 1300SOL    HW213815   3.156   6.490   0.385
 1301SOL     OW13816   2.792   6.568   0.811
 1301SOL    HW113817   2.780   6.486   0.867
 1301SOL    HW213818   2.872   6.557   0.753
 1302SOL     OW13819   3.420   1.075   0.436
 1302SOL    HW113820   3.402   1.061   0.339
 1302SOL    HW213821   3.360   1.016   0.490
 1303SOL     OW13822   0.577   3.348   1.487
 1303SOL    HW113823   0.540   3.408   1.558
 1303SOL    HW213824   0.515   3.346   1.408
 1304SOL     OW13825   2.255   4.199   0.652
 1304SOL    HW113826   2.232   4.190   0.555
 1304SOL    HW213827   2.352   4.178   0.666
 1305SOL     OW13828   3.899   9.841   1.300
 1305SOL    HW113829   3.981   9.805   1.346
 1305SOL    HW213830   3.910   9.940   1.288
 1306SOL     OW13831   2.367   4.590   1.139
 1306SOL    HW113832   2.406   4.665   1.086
 1306SOL    HW213833   2.277   4.567   1.103
 1307SOL     OW13834   3.095   7.492   0.581
 1307SOL    HW113835   3.129   7.586   0.570
 1307SOL    HW213836   3.172   7.429   0.577
 1308SOL     OW13837   2.724   9.006   1.839
 1308SOL    HW113838   2.719   9.104   1.822
 1308SOL    HW213839   2.799   8.967   1.786
 1309SOL     OW13840   2.549   0.494   1.442
 1309SOL    HW113841   2.556   0.521   1.538
 1309SOL    HW213842   2.480   0.421   1.434
 1310SOL     OW13843   2.458   1.426   2.126
 1310SOL    HW113844   2.406   1.347   2.159
 1310SOL    HW213845   2.492   1.407   2.034
 1311SOL     OW13846   2.801   4.314   1.841
 1311SOL    HW113847   2.729   4.377   1.811
 1311SOL    HW213848   2.875   4.367   1.883
 1312SOL     OW13849   1.699   0.115   1.515
 1312SOL    HW113850   1.771   0.182   1.532
 1312SOL    HW213851   1.698   0.091   1.418
 1313SOL     OW13852   2.014   1.376   0.571
 1313SOL    HW113853   2.066   1.461   0.581
 1313SOL    HW213854   2.059   1.303   0.622
 1314SOL     OW13855   3.564   1.550   1.336
 1314SOL    HW113856   3.496   1.513   1.273
 1314SOL    HW213857   3.656   1.536   1.298
 1315SOL     OW13858   3.771   3.078   0.719
 1315SOL    HW113859   3.710   3.154   0.700
 1315SOL    HW213860   3.832   3.102   0.795
 1316SOL     OW13861   0.932   6.095   1.936
 1316SOL    HW113862   0.893   6.108   1.845
 1316SOL    HW213863   1.002   6.164   1.953
 1317SOL     OW13864   3.747   8.486   2.218
 1317SOL    HW113865   3.650   8.463   2.208
 1317SOL    HW213866   3.803   8.409   2.188
 1318SOL     OW13867   3.872   4.395   0.676
 1318SOL    HW113868   3.816   4.400   0.759
 1318SOL    HW213869   3.908   4.486   0.655
 1319SOL     OW13870   9.790   5.526   0.904
 1319SOL    HW113871   9.830   5.561   0.819
 1319SOL    HW213872   9.739   5.599   0.950
 1320SOL     OW13873   0.522   4.787   1.093
 1320SOL    HW113874   0.552   4.878   1.123
 1320SOL    HW213875   0.547   4.774   0.998
 1321SOL     OW13876   3.087   0.133   0.907
 1321SOL    HW113877   3.016   0.151   0.975
 1321SOL    HW213878   3.100   0.035   0.897
 1322SOL     OW13879   0.492   4.575   0.502
 1322SOL    HW113880   0.407   4.572   0.449
 1322SOL    HW213881   0.470   4.579   0.599
 1323SOL     OW13882   3.139   0.764   1.062
 1323SOL    HW113883   3.166   0.702   0.987
 1323SOL    HW213884   3.039   0.773   1.063
 1324SOL     OW13885   1.451   5.651   1.204
 1324SOL    HW113886   1.379   5.720   1.193
 1324SOL    HW213887   1.412   5.560   1.186
 1325SOL     OW13888   4.854   2.432   2.246
 1325SOL    HW113889   4.878   2.340   2.214
 1325SOL    HW213890   4.937   2.486   2.259
 1326SOL     OW13891   1.449   2.922   1.935
 1326SOL    HW113892   1.366   2.866   1.926
 1326SOL    HW213893   1.434   2.995   2.001
 1327SOL     OW13894   1.613   4.523   1.061
 1327SOL    HW113895   1.594   4.496   0.966
 1327SOL    HW213896   1.534   4.502   1.119
 1328SOL     OW13897   1.880   2.779   1.617
 1328SOL    HW113898   1.851   2.866   1.578
 1328SOL    HW213899   1.895   2.790   1.715
 1329SOL     OW13900   2.194   9.860   0.816
 1329SOL    HW113901   2.152   9.772   0.834
 1329SOL    HW213902   2.281   9.847   0.769
 1330SOL     OW13903   3.441   2.956   1.726
 1330SOL    HW113904   3.373   2.908   1.781
 1330SOL    HW213905   3.413   2.955   1.630
 1331SOL     OW13906   0.809   5.095   1.007
 1331SOL    HW113907   0.880   5.097   1.078
 1331SOL    HW213908   0.834   5.159   0.934
 1332SOL     OW13909   3.599   5.573   2.313
 1332SOL    HW113910   3.663   5.497   2.311
 1332SOL    HW213911   3.637   5.647   2.370
 1333SOL     OW13912   3.056   0.922   1.683
 1333SOL    HW113913   3.104   0.888   1.765
 1333SOL    HW213914   2.960   0.937   1.704
 1334SOL     OW13915   0.755   3.706   1.044
 1334SOL    HW113916   0.728   3.672   1.134
 1334SOL    HW213917   0.723   3.642   0.973
 1335SOL     OW13918   1.686   5.003   1.531
 1335SOL    HW113919   1.603   4.962   1.571
 1335SOL    HW213920   1.708   4.957   1.445
 1336SOL     OW13921   3.174   6.505   0.967
 1336SOL    HW113922   3.183   6.449   0.885
 1336SOL    HW213923   3.218   6.593   0.952
 1337SOL     OW13924   2.870   4.115   1.665
 1337SOL    HW113925   2.841   4.027   1.701
 1337SOL    HW213926   2.848   4.187   1.731
 1338SOL     OW13927   2.564   5.070   1.059
 1338SOL    HW113928   2.561   5.102   1.154
 1338SOL    HW213929   2.659   5.071   1.027
 1339SOL     OW13930   1.207   3.881   2.192
 1339SOL    HW113931   1.227   3.884   2.094
 1339SOL    HW213932   1.257   3.953   2.239
 1340SOL     OW13933   3.480   2.095   1.861
 1340SOL    HW113934   3.520   2.009   1.828
 1340SOL    HW213935   3.396   2.114   1.810
 1341SOL     OW13936   4.448   1.055   1.235
 1341SOL    HW113937   4.498   0.970   1.217
 1341SOL    HW213938   4.382   1.041   1.308
 1342SOL     OW13939   2.325   5.199   1.536
 1342SOL    HW113940   2.231   5.235   1.528
 1342SOL    HW213941   2.333   5.115   1.484
 1343SOL     OW13942   4.945   1.898   2.165
 1343SOL    HW113943   4.987   1.808   2.156
 1343SOL    HW213944   4.870   1.893   2.230
 1344SOL     OW13945   2.834   7.527   1.701
 1344SOL    HW113946   2.738   7.512   1.722
 1344SOL    HW213947   2.891   7.480   1.769
 1345SOL     OW13948   9.564   4.406   0.897
 1345SOL    HW113949   9.511   4.418   0.813
 1345SOL    HW213950   9.556   4.311   0.928
 1346SOL     OW13951   2.491   6.425   1.903
 1346SOL    HW113952   2.399   6.462   1.907
 1346SOL    HW213953   2.501   6.368   1.822
 1347SOL     OW13954   4.079   8.256   0.639
 1347SOL    HW113955   4.040   8.200   0.712
 1347SOL    HW213956   4.065   8.211   0.551
 1348SOL     OW13957   3.539   8.804   1.525
 1348SOL    HW113958   3.621   8.772   1.477
 1348SOL    HW213959   3.557   8.806   1.623
 1349SOL     OW13960   0.451   6.186   0.624
 1349SOL    HW113961   0.528   6.207   0.563
 1349SOL    HW213962   0.438   6.262   0.687
 1350SOL     OW13963   9.700   4.478   2.096
 1350SOL    HW113964   9.714   4.505   2.000
 1350SOL    HW213965   9.731   4.551   2.156
 1351SOL     OW13966   2.172   5.079   2.291
 1351SOL    HW113967   2.136   5.166   2.257
 1351SOL    HW213968   2.097   5.026   2.332
 1352SOL     OW13969   2.028   0.663   2.030
 1352SOL    HW113970   2.010   0.745   2.084
 1352SOL    HW213971   2.114   0.622   2.060
 1353SOL     OW13972   4.116   0.148   1.887
 1353SOL    HW113973   4.079   0.116   1.800
 1353SOL    HW213974   4.134   0.246   1.883
 1354SOL     OW13975   1.294   5.821   1.754
 1354SOL    HW113976   1.337   5.909   1.730
 1354SOL    HW213977   1.343   5.780   1.831
 1355SOL     OW13978   2.446   1.684   1.900
 1355SOL    HW113979   2.401   1.684   1.989
 1355SOL    HW213980   2.431   1.773   1.855
 1356SOL     OW13981   2.882   8.040   1.930
 1356SOL    HW113982   2.884   8.127   1.980
 1356SOL    HW213983   2.975   8.006   1.919
 1357SOL     OW13984   3.307   1.330   1.440
 1357SOL    HW113985   3.209   1.309   1.443
 1357SOL    HW213986   3.328   1.399   1.509
 1358SOL     OW13987   4.159   3.094   1.779
 1358SOL    HW113988   4.182   3.125   1.872
 1358SOL    HW213989   4.198   3.158   1.713
 1359SOL     OW13990   1.730   2.155   1.521
 1359SOL    HW113991   1.670   2.159   1.441
 1359SOL    HW213992   1.771   2.064   1.527
 1360SOL     OW13993   4.493   1.175   0.993
 1360SOL    HW113994   4.461   1.127   1.074
 1360SOL    HW213995   4.433   1.154   0.916
 1361SOL     OW13996   2.725   9.276   1.774
 1361SOL    HW113997   2.799   9.341   1.790
 1361SOL    HW213998   2.639   9.314   1.808
 1362SOL     OW13999   3.158   7.035   0.377
 1362SOL    HW114000   3.223   7.107   0.354
 1362SOL    HW214001   3.177   7.002   0.470
 1363SOL     OW14002   4.029   4.822   1.118
 1363SOL    HW114003   4.033   4.754   1.191
 1363SOL    HW214004   3.933   4.841   1.096
 1364SOL     OW14005   4.323   2.155   2.239
 1364SOL    HW114006   4.237   2.104   2.242
 1364SOL    HW214007   4.304   2.251   2.217
 1365SOL     OW14008   3.397   4.476   2.203
 1365SOL    HW114009   3.356   4.387   2.225
 1365SOL    HW214010   3.330   4.548   2.218
 1366SOL     OW14011   2.728   7.846   1.436
 1366SOL    HW114012   2.634   7.851   1.472
 1366SOL    HW214013   2.762   7.938   1.418
 1367SOL     OW14014   2.658   2.102   1.777
 1367SOL    HW114015   2.711   2.186   1.764
 1367SOL    HW214016   2.670   2.069   1.871
 1368SOL     OW14017   1.512   2.199   1.940
 1368SOL    HW114018   1.549   2.292   1.951
 1368SOL    HW214019   1.571   2.135   1.989
 1369SOL     OW14020   4.560   3.034   2.381
 1369SOL    HW114021   4.634   2.970   2.397
 1369SOL    HW214022   4.593   3.111   2.327
 1370SOL     OW14023   2.796   8.113   1.674
 1370SOL    HW114024   2.836   8.067   1.754
 1370SOL    HW214025   2.730   8.181   1.705
 1371SOL     OW14026   2.986   9.257   1.090
 1371SOL    HW114027   2.944   9.312   1.163
 1371SOL    HW214028   3.041   9.184   1.130
 1372SOL     OW14029   3.075   0.104   1.887
 1372SOL    HW114030   2.980   0.099   1.919
 1372SOL    HW214031   3.089   0.038   1.813
 1373SOL     OW14032   1.828   3.608   2.086
 1373SOL    HW114033   1.758   3.673   2.117
 1373SOL    HW214034   1.829   3.529   2.147
 1374SOL     OW14035   4.111   3.605   2.131
 1374SOL    HW114036   4.162   3.580   2.049
 1374SOL    HW214037   4.048   3.680   2.110
 1375SOL     OW14038   4.413   2.857   0.925
 1375SOL    HW114039   4.318   2.883   0.910
 1375SOL    HW214040   4.466   2.937   0.954
 1376SOL     OW14041   5.368   2.156   0.834
 1376SOL    HW114042   5.361   2.073   0.778
 1376SOL    HW214043   5.329   2.233   0.783
 1377SOL     OW14044   3.238   5.680   1.915
 1377SOL    HW114045   3.193   5.759   1.956
 1377SOL    HW214046   3.205   5.597   1.959
 1378SOL     OW14047   3.959   4.047   0.671
 1378SOL    HW114048   4.041   4.016   0.720
 1378SOL    HW214049   3.987   4.099   0.590
 1379SOL     OW14050   0.104   5.261   0.357
 1379SOL    HW114051   0.111   5.361   0.356
 1379SOL    HW214052   0.190   5.222   0.389
 1380SOL     OW14053   2.467   4.072   2.100
 1380SOL    HW114054   2.443   4.160   2.139
 1380SOL    HW214055   2.560   4.075   2.063
 1381SOL     OW14056   2.660   4.737   0.383
 1381SOL    HW114057   2.703   4.663   0.434
 1381SOL    HW214058   2.630   4.704   0.294
 1382SOL     OW14059   2.485   0.408   0.556
 1382SOL    HW114060   2.571   0.387   0.510
 1382SOL    HW214061   2.491   0.499   0.597
 1383SOL     OW14062   1.997   5.024   0.912
 1383SOL    HW114063   2.003   5.105   0.853
 1383SOL    HW214064   1.968   5.051   1.003
 1384SOL     OW14065   1.691   5.236   0.811
 1384SOL    HW114066   1.700   5.149   0.763
 1384SOL    HW214067   1.632   5.297   0.758
 1385SOL     OW14068   9.856   3.435   1.856
 1385SOL    HW114069   9.912   3.383   1.791
 1385SOL    HW214070   9.837   3.380   1.937
 1386SOL     OW14071   3.109   3.658   0.334
 1386SOL    HW114072   3.016   3.627   0.352
 1386SOL    HW214073   3.173   3.582   0.346
 1387SOL     OW14074   2.853   8.518   1.326
 1387SOL    HW114075   2.944   8.532   1.366
 1387SOL    HW214076   2.846   8.568   1.240
 1388SOL     OW14077   2.900   8.265   2.084
 1388SOL    HW114078   2.959   8.345   2.092
 1388SOL    HW214079   2.805   8.293   2.079
 1389SOL     OW14080   2.426   1.320   0.576
 1389SOL    HW114081   2.364   1.246   0.550
 1389SOL    HW214082   2.445   1.377   0.497
 1390SOL     OW14083   2.032   1.010   0.545
 1390SOL    HW114084   2.036   0.916   0.579
 1390SOL    HW214085   1.937   1.036   0.528
 1391SOL     OW14086   9.744   3.922   1.331
 1391SOL    HW114087   9.784   3.850   1.387
 1391SOL    HW214088   9.701   3.882   1.250
 1392SOL     OW14089   2.533   5.380   1.487
 1392SOL    HW114090   2.445   5.336   1.506
 1392SOL    HW214091   2.576   5.406   1.573
 1393SOL     OW14092   0.930   3.832   2.203
 1393SOL    HW114093   0.922   3.746   2.153
 1393SOL    HW214094   1.026   3.855   2.216
 1394SOL     OW14095   9.764   3.879   0.414
 1394SOL    HW114096   9.766   3.784   0.384
 1394SOL    HW214097   9.728   3.884   0.507
 1395SOL     OW14098   2.783   0.733   1.588
 1395SOL    HW114099   2.793   0.819   1.638
 1395SOL    HW214100   2.712   0.677   1.632
 1396SOL     OW14101   4.249   5.249   2.082
 1396SOL    HW114102   4.345   5.235   2.061
 1396SOL    HW214103   4.203   5.290   2.003
 1397SOL     OW14104   2.441   8.124   1.651
 1397SOL    HW114105   2.513   8.168   1.705
 1397SOL    HW214106   2.462   8.027   1.640
 1398SOL     OW14107   2.288   9.597   0.663
 1398SOL    HW114108   2.304   9.550   0.750
 1398SOL    HW214109   2.349   9.675   0.655
 1399SOL     OW14110   4.711   4.140   0.387
 1399SOL    HW114111   4.720   4.105   0.294
 1399SOL    HW214112   4.655   4.078   0.441
 1400SOL     OW14113   2.012   9.563   0.652
 1400SOL    HW114114   2.111   9.575   0.648
 1400SOL    HW214115   1.967   9.649   0.626
 1401SOL     OW14116   1.620   8.142   1.509
 1401SOL    HW114117   1.615   8.090   1.424
 1401SOL    HW214118   1.644   8.237   1.489
 1402SOL     OW14119   1.784   1.268   2.346
 1402SOL    HW114120   1.842   1.304   2.419
 1402SOL    HW214121   1.836   1.204   2.290
 1403SOL     OW14122   4.401   5.104   1.521
 1403SOL    HW114123   4.405   5.202   1.541
 1403SOL    HW214124   4.491   5.063   1.535
 1404SOL     OW14125   2.521   4.351   1.126
 1404SOL    HW114126   2.465   4.433   1.136
 1404SOL    HW214127   2.517   4.298   1.211
 1405SOL     OW14128   9.622   4.320   1.719
 1405SOL    HW114129   9.574   4.233   1.707
 1405SOL    HW214130   9.588   4.386   1.652
 1406SOL     OW14131   1.585   7.380   2.284
 1406SOL    HW114132   1.665   7.438   2.266
 1406SOL    HW214133   1.548   7.402   2.374
 1407SOL     OW14134   3.000   7.447   1.031
 1407SOL    HW114135   2.993   7.410   0.939
 1407SOL    HW214136   2.983   7.545   1.029
 1408SOL     OW14137   5.328   3.245   1.384
 1408SOL    HW114138   5.366   3.215   1.471
 1408SOL    HW214139   5.354   3.181   1.312
 1409SOL     OW14140   2.868   4.914   0.777
 1409SOL    HW114141   2.902   4.832   0.732
 1409SOL    HW214142   2.769   4.921   0.763
 1410SOL     OW14143   2.738   1.364   1.357
 1410SOL    HW114144   2.762   1.457   1.329
 1410SOL    HW214145   2.703   1.365   1.450
 1411SOL     OW14146   4.425   4.589   0.805
 1411SOL    HW114147   4.356   4.662   0.805
 1411SOL    HW214148   4.406   4.525   0.879
 1412SOL     OW14149   3.569   0.486   1.732
 1412SOL    HW114150   3.596   0.539   1.652
 1412SOL    HW214151   3.648   0.472   1.792
 1413SOL     OW14152   1.389   3.407   2.168
 1413SOL    HW114153   1.485   3.393   2.142
 1413SOL    HW214154   1.343   3.318   2.174
 1414SOL     OW14155   2.206   6.069   1.262
 1414SOL    HW114156   2.174   5.984   1.220
 1414SOL    HW214157   2.209   6.141   1.193
 1415SOL     OW14158   4.319   0.399   0.496
 1415SOL    HW114159   4.377   0.478   0.473
 1415SOL    HW214160   4.249   0.427   0.561
 1416SOL     OW14161   4.094   9.167   2.308
 1416SOL    HW114162   4.136   9.224   2.237
 1416SOL    HW214163   4.002   9.202   2.328
 1417SOL     OW14164   3.425   3.921   0.478
 1417SOL    HW114165   3.330   3.931   0.449
 1417SOL    HW214166   3.484   3.974   0.417
 1418SOL     OW14167   0.528   5.841   0.424
 1418SOL    HW114168   0.533   5.878   0.517
 1418SOL    HW214169   0.449   5.781   0.416
 1419SOL     OW14170   2.184   3.138   0.963
 1419SOL    HW114171   2.232   3.097   0.885
 1419SOL    HW214172   2.216   3.232   0.976
 1420SOL     OW14173   4.478   1.716   1.616
 1420SOL    HW114174   4.534   1.765   1.684
 1420SOL    HW214175   4.382   1.734   1.635
 1421SOL     OW14176   3.315   7.332   0.610
 1421SOL    HW114177   3.293   7.273   0.688
 1421SOL    HW214178   3.389   7.394   0.635
 1422SOL     OW14179   1.958   5.333   0.522
 1422SOL    HW114180   1.978   5.430   0.506
 1422SOL    HW214181   1.866   5.312   0.489
 1423SOL     OW14182   3.291   5.852   1.360
 1423SOL    HW114183   3.306   5.756   1.340
 1423SOL    HW214184   3.339   5.877   1.444
 1424SOL     OW14185   3.501   1.584   2.234
 1424SOL    HW114186   3.470   1.677   2.252
 1424SOL    HW214187   3.593   1.586   2.193
 1425SOL     OW14188   3.357   1.427   1.191
 1425SOL    HW114189   3.279   1.476   1.151
 1425SOL    HW214190   3.333   1.397   1.283
 1426SOL     OW14191   2.797   7.454   1.427
 1426SOL    HW114192   2.827   7.479   1.519
 1426SOL    HW214193   2.803   7.533   1.367
 1427SOL     OW14194   2.030   9.566   1.303
 1427SOL    HW114195   1.936   9.590   1.325
 1427SOL    HW214196   2.076   9.530   1.385
 1428SOL     OW14197   4.372   4.162   0.480
 1428SOL    HW114198   4.428   4.080   0.490
 1428SOL    HW214199   4.411   4.221   0.409
 1429SOL     OW14200   1.388   7.552   0.415
 1429SOL    HW114201   1.481   7.539   0.447
 1429SOL    HW214202   1.388   7.611   0.334
 1430SOL     OW14203   3.111   2.007   2.006
 1430SOL    HW114204   3.059   2.092   2.004
 1430SOL    HW214205   3.049   1.930   2.022
 1431SOL     OW14206   1.167   4.837   0.418
 1431SOL    HW114207   1.094   4.848   0.485
 1431SOL    HW214208   1.209   4.747   0.428
 1432SOL     OW14209   2.200   7.412   2.069
 1432SOL    HW114210   2.264   7.336   2.083
 1432SOL    HW214211   2.239   7.495   2.108
 1433SOL     OW14212   4.028   0.829   0.942
 1433SOL    HW114213   3.996   0.917   0.977
 1433SOL    HW214214   3.950   0.778   0.906
 1434SOL     OW14215   4.543   2.804   0.690
 1434SOL    HW114216   4.473   2.816   0.761
 1434SOL    HW214217   4.619   2.867   0.708
 1435SOL     OW14218   4.415   0.714   0.910
 1435SOL    HW114219   4.512   0.728   0.889
 1435SOL    HW214220   4.359   0.768   0.848
 1436SOL     OW14221   1.730   8.385   1.463
 1436SOL    HW114222   1.768   8.457   1.520
 1436SOL    HW214223   1.798   8.356   1.396
 1437SOL     OW14224   4.357   9.324   0.728
 1437SOL    HW114225   4.272   9.374   0.711
 1437SOL    HW214226   4.400   9.301   0.640
 1438SOL     OW14227   2.358   7.281   1.309
 1438SOL    HW114228   2.342   7.264   1.212
 1438SOL    HW214229   2.321   7.205   1.363
 1439SOL     OW14230   2.830   8.651   1.082
 1439SOL    HW114231   2.731   8.666   1.089
 1439SOL    HW214232   2.861   8.674   0.990
 1440SOL     OW14233   2.709   2.997   1.552
 1440SOL    HW114234   2.797   2.980   1.508
 1440SOL    HW214235   2.719   2.992   1.651
 1441SOL     OW14236   3.828   2.098   2.089
 1441SOL    HW114237   3.775   2.018   2.115
 1441SOL    HW214238   3.766   2.166   2.049
 1442SOL     OW14239   2.804   5.726   2.276
 1442SOL    HW114240   2.828   5.677   2.192
 1442SOL    HW214241   2.886   5.741   2.330
 1443SOL     OW14242   1.179   3.075   1.437
 1443SOL    HW114243   1.251   3.093   1.503
 1443SOL    HW214244   1.158   3.160   1.387
 1444SOL     OW14245   3.133   1.187   1.688
 1444SOL    HW114246   3.091   1.239   1.614
 1444SOL    HW214247   3.106   1.091   1.681
 1445SOL     OW14248   0.729   4.614   1.473
 1445SOL    HW114249   0.720   4.706   1.438
 1445SOL    HW214250   0.805   4.611   1.539
 1446SOL     OW14251   0.239   5.245   2.255
 1446SOL    HW114252   0.311   5.314   2.265
 1446SOL    HW214253   0.277   5.154   2.271
 1447SOL     OW14254   3.264   8.431   1.627
 1447SOL    HW114255   3.360   8.413   1.606
 1447SOL    HW214256   3.257   8.500   1.699
 1448SOL     OW14257   2.683   7.783   0.828
 1448SOL    HW114258   2.630   7.822   0.752
 1448SOL    HW214259   2.731   7.856   0.876
 1449SOL     OW14260   1.366   3.342   1.054
 1449SOL    HW114261   1.323   3.425   1.018
 1449SOL    HW214262   1.376   3.351   1.153
 1450SOL     OW14263   1.537   6.490   2.232
 1450SOL    HW114264   1.532   6.390   2.230
 1450SOL    HW214265   1.542   6.524   2.138
 1451SOL     OW14266   1.588   3.868   1.904
 1451SOL    HW114267   1.670   3.843   1.853
 1451SOL    HW214268   1.598   3.839   1.999
 1452SOL     OW14269   2.431   3.721   0.532
 1452SOL    HW114270   2.378   3.752   0.612
 1452SOL    HW214271   2.465   3.629   0.549
 1453SOL     OW14272   2.774   3.879   1.783
 1453SOL    HW114273   2.677   3.858   1.772
 1453SOL    HW214274   2.828   3.795   1.775
 1454SOL     OW14275   1.663   8.001   1.271
 1454SOL    HW114276   1.762   8.012   1.265
 1454SOL    HW214277   1.625   7.992   1.179
 1455SOL     OW14278   9.812   4.516   0.947
 1455SOL    HW114279   9.721   4.477   0.933
 1455SOL    HW214280   9.880   4.459   0.900
 1456SOL     OW14281   1.630   2.463   1.939
 1456SOL    HW114282   1.668   2.414   1.860
 1456SOL    HW214283   1.637   2.562   1.923
 1457SOL     OW14284   4.093   2.715   1.559
 1457SOL    HW114285   4.169   2.773   1.532
 1457SOL    HW214286   4.050   2.752   1.641
 1458SOL     OW14287   4.103   3.634   0.848
 1458SOL    HW114288   4.048   3.691   0.909
 1458SOL    HW214289   4.069   3.645   0.754
 1459SOL     OW14290   2.160   1.590   0.649
 1459SOL    HW114291   2.190   1.538   0.729
 1459SOL    HW214292   2.130   1.681   0.677
 1460SOL     OW14293   1.539   7.525   1.494
 1460SOL    HW114294   1.547   7.526   1.594
 1460SOL    HW214295   1.572   7.612   1.457
 1461SOL     OW14296   2.002   0.039   1.862
 1461SOL    HW114297   2.085   0.042   1.807
 1461SOL    HW214298   1.941   9.967   1.826
 1462SOL     OW14299   2.899   3.220   1.817
 1462SOL    HW114300   2.854   3.132   1.827
 1462SOL    HW214301   2.998   3.207   1.812
 1463SOL     OW14302   2.789   0.981   1.704
 1463SOL    HW114303   2.718   1.025   1.648
 1463SOL    HW214304   2.777   1.008   1.800
 1464SOL     OW14305   2.628   6.108   1.923
 1464SOL    HW114306   2.686   6.188   1.940
 1464SOL    HW214307   2.685   6.032   1.891
 1465SOL     OW14308   3.622   3.251   0.971
 1465SOL    HW114309   3.535   3.211   1.000
 1465SOL    HW214310   3.620   3.267   0.872
 1466SOL     OW14311   4.029   0.102   1.618
 1466SOL    HW114312   4.113   0.136   1.575
 1466SOL    HW214313   3.963   0.177   1.627
 1467SOL     OW14314   3.705   0.124   0.461
 1467SOL    HW114315   3.770   0.057   0.424
 1467SOL    HW214316   3.728   0.144   0.556
 1468SOL     OW14317   0.942   4.575   1.642
 1468SOL    HW114318   1.017   4.531   1.592
 1468SOL    HW214319   0.979   4.638   1.710
 1469SOL     OW14320   9.000   4.797   0.457
 1469SOL    HW114321   9.037   4.881   0.497
 1469SOL    HW214322   9.047   4.778   0.371
 1470SOL     OW14323   3.410   5.934   1.593
 1470SOL    HW114324   3.481   5.907   1.659
 1470SOL    HW214325   3.421   6.031   1.570
 1471SOL     OW14326   2.256   4.342   1.590
 1471SOL    HW114327   2.241   4.441   1.592
 1471SOL    HW214328   2.240   4.308   1.497
 1472SOL     OW14329   0.314   3.836   1.253
 1472SOL    HW114330   0.374   3.902   1.209
 1472SOL    HW214331   0.300   3.861   1.349
 1473SOL     OW14332   2.200   4.167   0.380
 1473SOL    HW114333   2.249   4.212   0.305
 1473SOL    HW214334   2.222   4.070   0.380
 1474SOL     OW14335   3.540   9.266   0.429
 1474SOL    HW114336   3.455   9.213   0.425
 1474SOL    HW214337   3.544   9.315   0.516
 1475SOL     OW14338   1.191   7.208   2.195
 1475SOL    HW114339   1.284   7.229   2.167
 1475SOL    HW214340   1.182   7.110   2.213
 1476SOL     OW14341   4.445   2.508   1.576
 1476SOL    HW114342   4.350   2.502   1.546
 1476SOL    HW214343   4.490   2.419   1.566
 1477SOL     OW14344   1.333   2.875   0.545
 1477SOL    HW114345   1.424   2.842   0.521
 1477SOL    HW214346   1.327   2.889   0.644
 1478SOL     OW14347   2.191   7.444   1.468
 1478SOL    HW114348   2.189   7.391   1.552
 1478SOL    HW214349   2.238   7.392   1.397
 1479SOL     OW14350   2.058   4.444   1.272
 1479SOL    HW114351   1.988   4.423   1.204
 1479SOL    HW214352   2.055   4.541   1.295
 1480SOL     OW14353   3.566   1.583   0.904
 1480SOL    HW114354   3.611   1.669   0.930
 1480SOL    HW214355   3.467   1.594   0.909
 1481SOL     OW14356   2.029   3.843   0.528
 1481SOL    HW114357   2.035   3.783   0.608
 1481SOL    HW214358   1.988   3.930   0.555
 1482SOL     OW14359   9.996   4.570   0.652
 1482SOL    HW114360   9.996   4.486   0.706
 1482SOL    HW214361   9.902   4.595   0.629
 1483SOL     OW14362   2.078   4.009   2.115
 1483SOL    HW114363   2.168   4.026   2.156
 1483SOL    HW214364   2.066   3.910   2.100
 1484SOL     OW14365   1.306   5.263   0.367
 1484SOL    HW114366   1.304   5.172   0.409
 1484SOL    HW214367   1.373   5.264   0.292
 1485SOL     OW14368   2.768   1.974   1.555
 1485SOL    HW114369   2.865   1.967   1.578
 1485SOL    HW214370   2.719   2.021   1.628
 1486SOL     OW14371   1.726   2.480   0.306
 1486SOL    HW114372   1.821   2.507   0.315
 1486SOL    HW214373   1.695   2.497   0.212
 1487SOL     OW14374   2.624   5.460   1.732
 1487SOL    HW114375   2.684   5.536   1.758
 1487SOL    HW214376   2.533   5.475   1.769
 1488SOL     OW14377   3.020   3.428   0.560
 1488SOL    HW114378   3.015   3.330   0.542
 1488SOL    HW214379   2.951   3.476   0.506
 1489SOL     OW14380   2.334   3.343   2.262
 1489SOL    HW114381   2.349   3.303   2.353
 1489SOL    HW214382   2.391   3.296   2.195
 1490SOL     OW14383   3.372   3.869   1.290
 1490SOL    HW114384   3.304   3.872   1.363
 1490SOL    HW214385   3.327   3.852   1.203
 1491SOL     OW14386   3.053   3.832   1.040
 1491SOL    HW114387   3.141   3.860   1.002
 1491SOL    HW214388   3.029   3.891   1.117
 1492SOL     OW14389   3.777   3.706   1.460
 1492SOL    HW114390   3.829   3.784   1.493
 1492SOL    HW214391   3.817   3.673   1.374
 1493SOL     OW14392   1.884   7.371   0.809
 1493SOL    HW114393   1.926   7.365   0.719
 1493SOL    HW214394   1.955   7.393   0.877
 1494SOL     OW14395   1.892   2.413   0.664
 1494SOL    HW114396   1.961   2.352   0.626
 1494SOL    HW214397   1.802   2.388   0.630
 1495SOL     OW14398   0.825   6.784   0.944
 1495SOL    HW114399   0.850   6.753   0.853
 1495SOL    HW214400   0.852   6.880   0.956
 1496SOL     OW14401   2.791   5.671   1.792
 1496SOL    HW114402   2.790   5.770   1.804
 1496SOL    HW214403   2.834   5.649   1.704
 1497SOL     OW14404   2.200   2.960   0.426
 1497SOL    HW114405   2.141   2.894   0.471
 1497SOL    HW214406   2.295   2.945   0.454
 1498SOL     OW14407   2.081   8.847   1.513
 1498SOL    HW114408   2.046   8.765   1.469
 1498SOL    HW214409   2.050   8.928   1.463
 1499SOL     OW14410   0.068   5.597   1.186
 1499SOL    HW114411   9.971   5.570   1.189
 1499SOL    HW214412   0.091   5.646   1.271
 1500SOL     OW14413   3.270   8.543   0.689
 1500SOL    HW114414   3.368   8.526   0.679
 1500SOL    HW214415   3.228   8.470   0.742
 1501SOL     OW14416   2.514   3.798   1.756
 1501SOL    HW114417   2.478   3.764   1.670
 1501SOL    HW214418   2.468   3.884   1.781
 1502SOL     OW14419   4.190   1.272   1.509
 1502SOL    HW114420   4.101   1.313   1.490
 1502SOL    HW214421   4.259   1.344   1.517
 1503SOL     OW14422   2.539   8.161   2.265
 1503SOL    HW114423   2.494   8.094   2.205
 1503SOL    HW214424   2.616   8.117   2.310
 1504SOL     OW14425   2.273   9.535   2.181
 1504SOL    HW114426   2.246   9.484   2.262
 1504SOL    HW214427   2.367   9.512   2.156
 1505SOL     OW14428   2.148   5.305   1.004
 1505SOL    HW114429   2.232   5.261   0.973
 1505SOL    HW214430   2.080   5.304   0.930
 1506SOL     OW14431   3.575   3.926   0.968
 1506SOL    HW114432   3.587   3.827   0.962
 1506SOL    HW214433   3.644   3.971   0.912
 1507SOL     OW14434   4.798   3.996   2.230
 1507SOL    HW114435   4.876   3.977   2.170
 1507SOL    HW214436   4.796   4.094   2.251
 1508SOL     OW14437   2.873   6.802   0.470
 1508SOL    HW114438   2.968   6.784   0.496
 1508SOL    HW214439   2.866   6.895   0.435
 1509SOL     OW14440   1.421   6.060   1.695
 1509SOL    HW114441   1.374   6.127   1.637
 1509SOL    HW214442   1.519   6.066   1.681
 1510SOL     OW14443   4.923   2.105   1.182
 1510SOL    HW114444   4.959   2.198   1.182
 1510SOL    HW214445   4.854   2.096   1.110
 1511SOL     OW14446   0.208   3.763   0.470
 1511SOL    HW114447   0.271   3.796   0.541
 1511SOL    HW214448   0.153   3.840   0.436
 1512SOL     OW14449   1.435   7.795   2.073
 1512SOL    HW114450   1.357   7.734   2.088
 1512SOL    HW214451   1.443   7.859   2.150
 1513SOL     OW14452   1.429   4.923   1.629
 1513SOL    HW114453   1.393   4.898   1.539
 1513SOL    HW214454   1.375   4.997   1.667
 1514SOL     OW14455   3.635   0.758   0.699
 1514SOL    HW114456   3.725   0.725   0.728
 1514SOL    HW214457   3.646   0.843   0.647
 1515SOL     OW14458   3.117   9.853   0.907
 1515SOL    HW114459   3.029   9.808   0.919
 1515SOL    HW214460   3.183   9.788   0.869
 1516SOL     OW14461   1.930   3.027   0.639
 1516SOL    HW114462   1.832   3.034   0.619
 1516SOL    HW214463   1.965   2.941   0.602
 1517SOL     OW14464   2.433   6.972   1.603
 1517SOL    HW114465   2.364   7.007   1.539
 1517SOL    HW214466   2.419   6.874   1.617
 1518SOL     OW14467   3.094   4.487   0.852
 1518SOL    HW114468   3.011   4.528   0.892
 1518SOL    HW214469   3.100   4.391   0.879
 1519SOL     OW14470   3.599   4.647   1.306
 1519SOL    HW114471   3.540   4.727   1.309
 1519SOL    HW214472   3.667   4.652   1.379
 1520SOL     OW14473   3.228   9.147   1.841
 1520SOL    HW114474   3.286   9.223   1.869
 1520SOL    HW214475   3.162   9.179   1.773
 1521SOL     OW14476   2.158   3.130   1.363
 1521SOL    HW114477   2.229   3.095   1.302
 1521SOL    HW214478   2.071   3.086   1.342
 1522SOL     OW14479   1.765   5.688   1.659
 1522SOL    HW114480   1.689   5.714   1.600
 1522SOL    HW214481   1.808   5.606   1.623
 1523SOL     OW14482   3.158   0.458   1.660
 1523SOL    HW114483   3.218   0.390   1.617
 1523SOL    HW214484   3.081   0.478   1.599
 1524SOL     OW14485   2.141   3.527   1.158
 1524SOL    HW114486   2.050   3.521   1.117
 1524SOL    HW214487   2.169   3.623   1.161
 1525SOL     OW14488   4.010   0.603   0.530
 1525SOL    HW114489   4.021   0.510   0.566
 1525SOL    HW214490   3.968   0.599   0.440
 1526SOL     OW14491   2.278   8.972   0.445
 1526SOL    HW114492   2.322   9.029   0.514
 1526SOL    HW214493   2.187   9.008   0.424
 1527SOL     OW14494   2.001   7.052   0.574
 1527SOL    HW114495   1.937   7.010   0.508
 1527SOL    HW214496   2.091   7.010   0.563
 1528SOL     OW14497   9.819   3.311   2.092
 1528SOL    HW114498   9.780   3.385   2.147
 1528SOL    HW214499   9.889   3.263   2.145
 1529SOL     OW14500   3.630   2.542   1.195
 1529SOL    HW114501   3.622   2.443   1.207
 1529SOL    HW214502   3.559   2.574   1.133
 1530SOL     OW14503   3.777   4.684   2.086
 1530SOL    HW114504   3.784   4.695   2.185
 1530SOL    HW214505   3.867   4.661   2.049
 1531SOL     OW14506   3.144   7.970   1.913
 1531SOL    HW114507   3.144   7.880   1.958
 1531SOL    HW214508   3.203   8.032   1.965
 1532SOL     OW14509   1.716   6.028   0.567
 1532SOL    HW114510   1.632   6.022   0.513
 1532SOL    HW214511   1.724   6.120   0.607
 1533SOL     OW14512   2.512   3.134   1.887
 1533SOL    HW114513   2.509   3.224   1.843
 1533SOL    HW214514   2.420   3.107   1.915
 1534SOL     OW14515   0.738   4.931   0.444
 1534SOL    HW114516   0.674   4.866   0.486
 1534SOL    HW214517   0.751   4.907   0.348
 1535SOL     OW14518   2.929   5.942   0.828
 1535SOL    HW114519   2.904   5.878   0.901
 1535SOL    HW214520   2.934   5.893   0.741
 1536SOL     OW14521   1.795   9.364   1.521
 1536SOL    HW114522   1.762   9.269   1.521
 1536SOL    HW214523   1.849   9.381   1.603
 1537SOL     OW14524   4.014   2.270   1.359
 1537SOL    HW114525   3.976   2.254   1.268
 1537SOL    HW214526   4.057   2.186   1.393
 1538SOL     OW14527   3.371   4.515   1.228
 1538SOL    HW114528   3.455   4.551   1.268
 1538SOL    HW214529   3.338   4.577   1.157
 1539SOL     OW14530   2.864   5.742   1.016
 1539SOL    HW114531   2.782   5.757   1.071
 1539SOL    HW214532   2.939   5.712   1.076
 1540SOL     OW14533   5.090   4.579   0.742
 1540SOL    HW114534   5.025   4.646   0.776
 1540SOL    HW214535   5.159   4.561   0.812
 1541SOL     OW14536   4.208   3.975   0.774
 1541SOL    HW114537   4.225   3.908   0.701
 1541SOL    HW214538   4.295   4.003   0.814
 1542SOL     OW14539   3.214   2.717   0.452
 1542SOL    HW114540   3.189   2.632   0.405
 1542SOL    HW214541   3.314   2.728   0.447
 1543SOL     OW14542   0.342   3.855   0.695
 1543SOL    HW114543   0.255   3.859   0.743
 1543SOL    HW214544   0.382   3.946   0.689
 1544SOL     OW14545   3.862   0.153   0.976
 1544SOL    HW114546   3.892   0.248   0.964
 1544SOL    HW214547   3.853   0.133   1.074
 1545SOL     OW14548   3.601   5.442   0.844
 1545SOL    HW114549   3.510   5.452   0.805
 1545SOL    HW214550   3.594   5.405   0.937
 1546SOL     OW14551   1.998   7.350   1.895
 1546SOL    HW114552   2.068   7.373   1.962
 1546SOL    HW214553   1.915   7.403   1.913
 1547SOL     OW14554   0.556   6.206   0.990
 1547SOL    HW114555   0.474   6.151   1.005
 1547SOL    HW214556   0.569   6.268   1.067
 1548SOL     OW14557   4.810   1.944   1.374
 1548SOL    HW114558   4.858   2.008   1.315
 1548SOL    HW214559   4.850   1.852   1.363
 1549SOL     OW14560   2.774   9.527   0.807
 1549SOL    HW114561   2.836   9.485   0.740
 1549SOL    HW214562   2.827   9.582   0.871
 1550SOL     OW14563   1.503   6.861   2.318
 1550SOL    HW114564   1.464   6.946   2.354
 1550SOL    HW214565   1.429   6.797   2.295
 1551SOL     OW14566   1.940   7.272   1.160
 1551SOL    HW114567   1.908   7.198   1.218
 1551SOL    HW214568   1.875   7.348   1.163
 1552SOL     OW14569   1.318   3.245   1.835
 1552SOL    HW114570   1.344   3.188   1.757
 1552SOL    HW214571   1.365   3.333   1.830
 1553SOL     OW14572   1.088   4.714   1.826
 1553SOL    HW114573   1.070   4.811   1.814
 1553SOL    HW214574   1.186   4.696   1.812
 1554SOL     OW14575   5.804   3.160   1.302
 1554SOL    HW114576   5.779   3.171   1.398
 1554SOL    HW214577   5.883   3.218   1.281
 1555SOL     OW14578   0.289   3.453   1.943
 1555SOL    HW114579   0.296   3.453   2.043
 1555SOL    HW214580   0.209   3.506   1.916
 1556SOL     OW14581   1.550   5.941   1.376
 1556SOL    HW114582   1.634   5.940   1.320
 1556SOL    HW214583   1.543   5.855   1.427
 1557SOL     OW14584   2.206   0.102   0.943
 1557SOL    HW114585   2.303   0.127   0.948
 1557SOL    HW214586   2.198   0.009   0.905
 1558SOL     OW14587   3.102   0.156   1.273
 1558SOL    HW114588   3.148   0.076   1.235
 1558SOL    HW214589   3.164   0.235   1.270
 1559SOL     OW14590   4.255   1.025   1.430
 1559SOL    HW114591   4.226   1.113   1.468
 1559SOL    HW214592   4.176   0.979   1.389
 1560SOL     OW14593   3.455   5.980   2.041
 1560SOL    HW114594   3.384   5.951   2.106
 1560SOL    HW214595   3.536   5.923   2.053
 1561SOL     OW14596   3.754   2.883   1.210
 1561SOL    HW114597   3.758   2.864   1.112
 1561SOL    HW214598   3.822   2.828   1.258
 1562SOL     OW14599   2.054   6.667   1.313
 1562SOL    HW114600   2.148   6.631   1.315
 1562SOL    HW214601   1.992   6.598   1.278
 1563SOL     OW14602   3.861   3.426   0.723
 1563SOL    HW114603   3.899   3.510   0.685
 1563SOL    HW214604   3.917   3.396   0.800
 1564SOL     OW14605   3.217   4.578   0.638
 1564SOL    HW114606   3.174   4.548   0.723
 1564SOL    HW214607   3.219   4.502   0.573
 1565SOL     OW14608   2.687   4.719   2.054
 1565SOL    HW114609   2.781   4.708   2.023
 1565SOL    HW214610   2.629   4.744   1.977
 1566SOL     OW14611   0.287   5.434   1.246
 1566SOL    HW114612   0.213   5.486   1.204
 1566SOL    HW214613   0.262   5.410   1.340
 1567SOL     OW14614   3.405   1.201   1.704
 1567SOL    HW114615   3.306   1.208   1.703
 1567SOL    HW214616   3.438   1.179   1.612
 1568SOL     OW14617   2.125   3.397   1.398
 1568SOL    HW114618   2.137   3.298   1.387
 1568SOL    HW214619   2.135   3.442   1.309
 1569SOL     OW14620   9.876   5.842   1.066
 1569SOL    HW114621   9.789   5.809   1.030
 1569SOL    HW214622   9.951   5.810   1.007
 1570SOL     OW14623   1.131   7.223   1.921
 1570SOL    HW114624   1.127   7.225   2.021
 1570SOL    HW214625   1.176   7.305   1.888
 1571SOL     OW14626   1.709   6.677   2.357
 1571SOL    HW114627   1.664   6.595   2.320
 1571SOL    HW214628   1.643   6.752   2.360
 1572SOL     OW14629   3.880   2.211   1.120
 1572SOL    HW114630   3.883   2.251   1.029
 1572SOL    HW214631   3.791   2.230   1.162
 1573SOL     OW14632   3.877   8.976   1.454
 1573SOL    HW114633   3.840   8.884   1.447
 1573SOL    HW214634   3.889   9.015   1.363
 1574SOL     OW14635   1.990   5.606   0.464
 1574SOL    HW114636   2.089   5.598   0.456
 1574SOL    HW214637   1.967   5.683   0.525
 1575SOL     OW14638   4.473   4.221   1.784
 1575SOL    HW114639   4.471   4.147   1.851
 1575SOL    HW214640   4.401   4.207   1.716
 1576SOL     OW14641   1.512   5.193   1.253
 1576SOL    HW114642   1.489   5.100   1.224
 1576SOL    HW214643   1.596   5.223   1.207
 1577SOL     OW14644   4.973   2.282   0.630
 1577SOL    HW114645   4.992   2.226   0.710
 1577SOL    HW214646   4.881   2.321   0.637
 1578SOL     OW14647   3.228   9.704   2.129
 1578SOL    HW114648   3.284   9.622   2.142
 1578SOL    HW214649   3.139   9.691   2.171
 1579SOL     OW14650   1.793   7.820   2.257
 1579SOL    HW114651   1.716   7.882   2.243
 1579SOL    HW214652   1.879   7.869   2.241
 1580SOL     OW14653   4.305   4.776   0.420
 1580SOL    HW114654   4.375   4.837   0.380
 1580SOL    HW214655   4.349   4.694   0.457
 1581SOL     OW14656   4.159   8.658   2.348
 1581SOL    HW114657   4.211   8.709   2.278
 1581SOL    HW214658   4.126   8.722   2.417
 1582SOL     OW14659   1.594   8.290   1.951
 1582SOL    HW114660   1.685   8.247   1.950
 1582SOL    HW214661   1.570   8.315   2.045
 1583SOL     OW14662   2.599   9.248   0.748
 1583SOL    HW114663   2.640   9.322   0.695
 1583SOL    HW214664   2.666   9.214   0.814
 1584SOL     OW14665   2.742   1.649   2.301
 1584SOL    HW114666   2.719   1.552   2.290
 1584SOL    HW214667   2.842   1.659   2.305
 1585SOL     OW14668   4.497   1.094   1.638
 1585SOL    HW114669   4.570   1.156   1.607
 1585SOL    HW214670   4.416   1.107   1.582
 1586SOL     OW14671   3.612   4.558   1.717
 1586SOL    HW114672   3.527   4.588   1.672
 1586SOL    HW214673   3.596   4.548   1.815
 1587SOL     OW14674   2.534   7.504   1.193
 1587SOL    HW114675   2.560   7.511   1.097
 1587SOL    HW214676   2.491   7.416   1.210
 1588SOL     OW14677   2.922   6.973   1.470
 1588SOL    HW114678   2.827   7.003   1.480
 1588SOL    HW214679   2.956   7.002   1.380
 1589SOL     OW14680   3.344   3.823   2.096
 1589SOL    HW114681   3.248   3.832   2.119
 1589SOL    HW214682   3.384   3.914   2.083
 1590SOL     OW14683   9.932   5.058   0.434
 1590SOL    HW114684   9.841   5.089   0.461
 1590SOL    HW214685   9.980   5.133   0.388
 1591SOL     OW14686   1.859   1.991   1.823
 1591SOL    HW114687   1.841   1.952   1.732
 1591SOL    HW214688   1.901   2.081   1.813
 1592SOL     OW14689   4.447   4.206   0.932
 1592SOL    HW114690   4.516   4.149   0.976
 1592SOL    HW214691   4.476   4.227   0.839
 1593SOL     OW14692   4.905   3.528   1.876
 1593SOL    HW114693   4.831   3.560   1.935
 1593SOL    HW214694   4.992   3.538   1.924
 1594SOL     OW14695   3.292   3.426   1.034
 1594SOL    HW114696   3.203   3.469   1.048
 1594SOL    HW214697   3.358   3.461   1.101
 1595SOL     OW14698   3.485   8.927   2.052
 1595SOL    HW114699   3.387   8.948   2.065
 1595SOL    HW214700   3.523   8.987   1.982
 1596SOL     OW14701   3.860   0.988   2.236
 1596SOL    HW114702   3.883   1.039   2.152
 1596SOL    HW214703   3.760   0.989   2.248
 1597SOL     OW14704   4.700   4.757   1.680
 1597SOL    HW114705   4.657   4.683   1.629
 1597SOL    HW214706   4.775   4.720   1.735
 1598SOL     OW14707   4.391   2.358   1.292
 1598SOL    HW114708   4.445   2.313   1.364
 1598SOL    HW214709   4.305   2.391   1.330
 1599SOL     OW14710   4.149   2.051   1.474
 1599SOL    HW114711   4.085   1.993   1.525
 1599SOL    HW214712   4.196   2.112   1.537
 1600SOL     OW14713   3.296   8.130   2.077
 1600SOL    HW114714   3.269   8.199   2.144
 1600SOL    HW214715   3.389   8.149   2.045
 1601SOL     OW14716   2.300   8.934   0.801
 1601SOL    HW114717   2.311   9.019   0.750
 1601SOL    HW214718   2.389   8.889   0.812
 1602SOL     OW14719   3.226   5.803   0.378
 1602SOL    HW114720   3.185   5.725   0.425
 1602SOL    HW214721   3.160   5.877   0.373
 1603SOL     OW14722   2.602   4.409   0.684
 1603SOL    HW114723   2.565   4.317   0.673
 1603SOL    HW214724   2.643   4.418   0.774
 1604SOL     OW14725   1.562   5.668   1.453
 1604SOL    HW114726   1.539   5.665   1.356
 1604SOL    HW214727   1.482   5.644   1.507
 1605SOL     OW14728   0.325   5.072   0.805
 1605SOL    HW114729   0.326   5.166   0.838
 1605SOL    HW214730   0.239   5.055   0.756
 1606SOL     OW14731   9.986   5.113   2.281
 1606SOL    HW114732   0.032   5.033   2.243
 1606SOL    HW214733   0.052   5.188   2.290
 1607SOL     OW14734   2.317   9.379   0.493
 1607SOL    HW114735   2.311   9.464   0.545
 1607SOL    HW214736   2.405   9.375   0.446
 1608SOL     OW14737   0.107   5.548   1.662
 1608SOL    HW114738   0.173   5.560   1.736
 1608SOL    HW214739   0.019   5.520   1.700
 1609SOL     OW14740   2.341   2.173   0.450
 1609SOL    HW114741   2.339   2.176   0.350
 1609SOL    HW214742   2.430   2.207   0.481
 1610SOL     OW14743   3.055   3.604   0.767
 1610SOL    HW114744   3.058   3.560   0.856
 1610SOL    HW214745   3.043   3.534   0.696
 1611SOL     OW14746   1.769   9.086   1.519
 1611SOL    HW114747   1.722   8.998   1.531
 1611SOL    HW214748   1.847   9.074   1.457
 1612SOL     OW14749   4.921   4.364   0.715
 1612SOL    HW114750   4.834   4.397   0.751
 1612SOL    HW214751   4.987   4.438   0.715
 1613SOL     OW14752   9.709   4.533   0.344
 1613SOL    HW114753   9.723   4.580   0.431
 1613SOL    HW214754   9.753   4.584   0.271
 1614SOL     OW14755   9.730   4.626   0.603
 1614SOL    HW114756   9.695   4.720   0.603
 1614SOL    HW214757   9.677   4.571   0.668
 1615SOL     OW14758   1.819   2.210   2.223
 1615SOL    HW114759   1.755   2.286   2.238
 1615SOL    HW214760   1.774   2.138   2.170
 1616SOL     OW14761   2.249   8.309   1.704
 1616SOL    HW114762   2.275   8.368   1.781
 1616SOL    HW214763   2.320   8.240   1.691
 1617SOL     OW14764   4.202   1.747   1.670
 1617SOL    HW114765   4.207   1.715   1.764
 1617SOL    HW214766   4.123   1.807   1.659
 1618SOL     OW14767   2.459   8.552   0.728
 1618SOL    HW114768   2.463   8.553   0.628
 1618SOL    HW214769   2.533   8.495   0.764
 1619SOL     OW14770   3.082   2.533   2.115
 1619SOL    HW114771   2.986   2.506   2.117
 1619SOL    HW214772   3.137   2.465   2.164
 1620SOL     OW14773   4.249   2.409   2.175
 1620SOL    HW114774   4.308   2.489   2.188
 1620SOL    HW214775   4.182   2.428   2.103
 1621SOL     OW14776   4.647   1.532   1.158
 1621SOL    HW114777   4.633   1.570   1.249
 1621SOL    HW214778   4.716   1.586   1.109
 1622SOL     OW14779   1.634   1.770   2.183
 1622SOL    HW114780   1.629   1.798   2.279
 1622SOL    HW214781   1.672   1.678   2.177
 1623SOL     OW14782   2.045   1.843   1.962
 1623SOL    HW114783   2.122   1.906   1.975
 1623SOL    HW214784   1.970   1.892   1.917
 1624SOL     OW14785   4.203   1.088   2.067
 1624SOL    HW114786   4.273   1.072   1.997
 1624SOL    HW214787   4.213   1.180   2.104
 1625SOL     OW14788   1.260   4.367   0.944
 1625SOL    HW114789   1.289   4.340   0.852
 1625SOL    HW214790   1.163   4.391   0.943
 1626SOL     OW14791   3.524   8.942   0.395
 1626SOL    HW114792   3.612   8.987   0.380
 1626SOL    HW214793   3.539   8.854   0.440
 1627SOL     OW14794   1.966   5.279   0.796
 1627SOL    HW114795   1.982   5.303   0.701
 1627SOL    HW214796   1.867   5.274   0.812
 1628SOL     OW14797   3.573   9.339   1.114
 1628SOL    HW114798   3.615   9.348   1.024
 1628SOL    HW214799   3.584   9.245   1.147
 1629SOL     OW14800   1.806   8.598   1.636
 1629SOL    HW114801   1.884   8.600   1.699
 1629SOL    HW214802   1.727   8.558   1.683
 1630SOL     OW14803   1.913   7.090   0.833
 1630SOL    HW114804   1.884   7.185   0.842
 1630SOL    HW214805   1.945   7.074   0.739
 1631SOL     OW14806   3.103   3.760   1.728
 1631SOL    HW114807   3.181   3.701   1.708
 1631SOL    HW214808   3.021   3.705   1.737
 1632SOL     OW14809   4.615   1.664   1.387
 1632SOL    HW114810   4.568   1.687   1.472
 1632SOL    HW214811   4.712   1.686   1.396
 1633SOL     OW14812   1.941   8.649   1.384
 1633SOL    HW114813   1.872   8.635   1.454
 1633SOL    HW214814   1.898   8.662   1.295
 1634SOL     OW14815   2.303   0.672   0.396
 1634SOL    HW114816   2.355   0.757   0.395
 1634SOL    HW214817   2.365   0.595   0.407
 1635SOL     OW14818   4.413   5.060   0.851
 1635SOL    HW114819   4.421   5.001   0.931
 1635SOL    HW214820   4.363   5.012   0.779
 1636SOL     OW14821   1.956   4.055   1.870
 1636SOL    HW114822   2.029   4.082   1.807
 1636SOL    HW214823   1.995   4.033   1.959
 1637SOL     OW14824   1.321   5.617   1.574
 1637SOL    HW114825   1.302   5.698   1.630
 1637SOL    HW214826   1.348   5.541   1.633
 1638SOL     OW14827   3.495   0.321   0.919
 1638SOL    HW114828   3.555   0.363   0.851
 1638SOL    HW214829   3.401   0.318   0.885
 1639SOL     OW14830   3.422   3.658   0.571
 1639SOL    HW114831   3.520   3.641   0.566
 1639SOL    HW214832   3.403   3.753   0.544
 1640SOL     OW14833   3.083   4.633   1.593
 1640SOL    HW114834   3.037   4.722   1.600
 1640SOL    HW214835   3.021   4.567   1.551
 1641SOL     OW14836   4.142   2.322   0.551
 1641SOL    HW114837   4.160   2.238   0.602
 1641SOL    HW214838   4.229   2.360   0.519
 1642SOL     OW14839   4.227   3.183   2.029
 1642SOL    HW114840   4.267   3.146   2.113
 1642SOL    HW214841   4.132   3.209   2.045
 1643SOL     OW14842   2.837   4.210   1.206
 1643SOL    HW114843   2.793   4.227   1.294
 1643SOL    HW214844   2.893   4.289   1.182
 1644SOL     OW14845   1.447   7.338   1.313
 1644SOL    HW114846   1.410   7.265   1.371
 1644SOL    HW214847   1.481   7.412   1.371
 1645SOL     OW14848   3.639   5.751   2.098
 1645SOL    HW114849   3.601   5.728   2.008
 1645SOL    HW214850   3.599   5.690   2.167
 1646SOL     OW14851   3.964   3.251   2.045
 1646SOL    HW114852   3.925   3.320   2.106
 1646SOL    HW214853   3.943   3.276   1.950
 1647SOL     OW14854   0.377   3.644   0.878
 1647SOL    HW114855   0.321   3.566   0.851
 1647SOL    HW214856   0.373   3.715   0.808
 1648SOL     OW14857   4.775   3.673   0.430
 1648SOL    HW114858   4.765   3.581   0.394
 1648SOL    HW214859   4.869   3.686   0.461
 1649SOL     OW14860   3.426   3.484   0.791
 1649SOL    HW114861   3.355   3.459   0.856
 1649SOL    HW214862   3.388   3.546   0.722
 1650SOL     OW14863   2.355   8.349   2.342
 1650SOL    HW114864   2.426   8.281   2.325
 1650SOL    HW214865   2.368   8.387   2.434
 1651SOL     OW14866   1.045   3.246   2.121
 1651SOL    HW114867   0.970   3.299   2.161
 1651SOL    HW214868   1.034   3.243   2.022
 1652SOL     OW14869   3.031   1.549   1.343
 1652SOL    HW114870   3.031   1.574   1.440
 1652SOL    HW214871   2.945   1.577   1.301
 1653SOL     OW14872   0.774   3.486   0.671
 1653SOL    HW114873   0.719   3.495   0.754
 1653SOL    HW214874   0.777   3.573   0.623
 1654SOL     OW14875   0.170   3.701   2.201
 1654SOL    HW114876   0.071   3.718   2.209
 1654SOL    HW214877   0.202   3.738   2.114
 1655SOL     OW14878   3.414   1.208   1.041
 1655SOL    HW114879   3.374   1.221   0.950
 1655SOL    HW214880   3.397   1.289   1.097
 1656SOL     OW14881   2.036   8.567   1.843
 1656SOL    HW114882   2.047   8.665   1.822
 1656SOL    HW214883   2.124   8.530   1.873
 1657SOL     OW14884   1.536   8.041   2.190
 1657SOL    HW114885   1.547   8.132   2.229
 1657SOL    HW214886   1.535   8.047   2.090
 1658SOL     OW14887   3.415   8.701   2.274
 1658SOL    HW114888   3.467   8.783   2.300
 1658SOL    HW214889   3.472   8.620   2.287
 1659SOL     OW14890   4.387   8.613   0.758
 1659SOL    HW114891   4.310   8.673   0.737
 1659SOL    HW214892   4.374   8.525   0.712
 1660SOL     OW14893   3.698   1.872   2.164
 1660SOL    HW114894   3.726   1.778   2.142
 1660SOL    HW214895   3.603   1.872   2.194
 1661SOL     OW14896   4.755   4.279   2.199
 1661SOL    HW114897   4.659   4.256   2.187
 1661SOL    HW214898   4.805   4.259   2.114
 1662SOL     OW14899   2.525   8.787   0.846
 1662SOL    HW114900   2.547   8.765   0.942
 1662SOL    HW214901   2.500   8.704   0.798
 1663SOL     OW14902   2.014   4.725   1.313
 1663SOL    HW114903   2.011   4.736   1.412
 1663SOL    HW214904   2.071   4.796   1.273
 1664SOL     OW14905   3.090   4.685   1.150
 1664SOL    HW114906   3.181   4.701   1.111
 1664SOL    HW214907   3.047   4.773   1.171
 1665SOL     OW14908   3.341   4.815   0.699
 1665SOL    HW114909   3.298   4.727   0.674
 1665SOL    HW214910   3.270   4.881   0.723
 1666SOL     OW14911   4.062   8.570   0.312
 1666SOL    HW114912   4.053   8.622   0.397
 1666SOL    HW214913   3.971   8.552   0.274
 1667SOL     OW14914   4.893   1.688   1.325
 1667SOL    HW114915   4.895   1.690   1.225
 1667SOL    HW214916   4.963   1.624   1.359
 1668SOL     OW14917   2.497   7.061   2.287
 1668SOL    HW114918   2.576   7.024   2.237
 1668SOL    HW214919   2.516   7.058   2.385
 1669SOL     OW14920   2.845   7.291   1.200
 1669SOL    HW114921   2.897   7.350   1.138
 1669SOL    HW214922   2.825   7.340   1.284
 1670SOL     OW14923   9.261   4.737   0.810
 1670SOL    HW114924   9.329   4.704   0.876
 1670SOL    HW214925   9.298   4.730   0.718
 1671SOL     OW14926   2.653   5.599   0.552
 1671SOL    HW114927   2.693   5.607   0.643
 1671SOL    HW214928   2.658   5.688   0.506
 1672SOL     OW14929   2.704   7.904   2.088
 1672SOL    HW114930   2.609   7.934   2.077
 1672SOL    HW214931   2.762   7.950   2.022
 1673SOL     OW14932   1.842   7.817   1.555
 1673SOL    HW114933   1.842   7.912   1.588
 1673SOL    HW214934   1.765   7.804   1.493
 1674SOL     OW14935   2.065   5.883   1.125
 1674SOL    HW114936   2.022   5.796   1.148
 1674SOL    HW214937   2.028   5.916   1.038
 1675SOL     OW14938   0.907   3.038   1.463
 1675SOL    HW114939   1.006   3.041   1.451
 1675SOL    HW214940   0.871   3.131   1.473
 1676SOL     OW14941   1.516   2.417   0.777
 1676SOL    HW114942   1.572   2.377   0.850
 1676SOL    HW214943   1.563   2.406   0.690
 1677SOL     OW14944   0.620   3.522   0.892
 1677SOL    HW114945   0.607   3.444   0.954
 1677SOL    HW214946   0.533   3.569   0.879
 1678SOL     OW14947   2.841   7.978   0.937
 1678SOL    HW114948   2.896   8.031   0.873
 1678SOL    HW214949   2.790   8.041   0.997
 1679SOL     OW14950   5.070   2.993   2.184
 1679SOL    HW114951   5.051   2.903   2.144
 1679SOL    HW214952   5.058   3.064   2.115
 1680SOL     OW14953   3.655   2.946   2.214
 1680SOL    HW114954   3.652   3.042   2.187
 1680SOL    HW214955   3.575   2.923   2.270
 1681SOL     OW14956   0.601   5.035   1.174
 1681SOL    HW114957   0.523   5.096   1.168
 1681SOL    HW214958   0.672   5.065   1.111
 1682SOL     OW14959   4.826   1.700   1.039
 1682SOL    HW114960   4.898   1.685   0.970
 1682SOL    HW214961   4.760   1.766   1.004
 1683SOL     OW14962   2.173   8.715   0.465
 1683SOL    HW114963   2.212   8.803   0.437
 1683SOL    HW214964   2.137   8.723   0.558
 1684SOL     OW14965   4.539   2.232   1.964
 1684SOL    HW114966   4.580   2.299   2.027
 1684SOL    HW214967   4.453   2.269   1.928
 1685SOL     OW14968   1.797   7.545   2.238
 1685SOL    HW114969   1.885   7.511   2.271
 1685SOL    HW214970   1.793   7.644   2.251
 1686SOL     OW14971   1.333   6.833   0.375
 1686SOL    HW114972   1.350   6.769   0.300
 1686SOL    HW214973   1.238   6.825   0.405
 1687SOL     OW14974   3.012   2.257   1.970
 1687SOL    HW114975   2.947   2.313   2.022
 1687SOL    HW214976   3.046   2.309   1.891
 1688SOL     OW14977   3.994   4.342   0.299
 1688SOL    HW114978   3.927   4.368   0.229
 1688SOL    HW214979   4.040   4.423   0.334
 1689SOL     OW14980   4.242   0.870   0.772
 1689SOL    HW114981   4.162   0.862   0.832
 1689SOL    HW214982   4.278   0.964   0.778
 1690SOL     OW14983   1.418   2.615   2.088
 1690SOL    HW114984   1.333   2.652   2.051
 1690SOL    HW214985   1.463   2.558   2.019
 1691SOL     OW14986   1.552   3.241   0.878
 1691SOL    HW114987   1.502   3.283   0.954
 1691SOL    HW214988   1.494   3.242   0.796
 1692SOL     OW14989   0.893   5.255   0.801
 1692SOL    HW114990   0.822   5.229   0.735
 1692SOL    HW214991   0.981   5.263   0.753
 1693SOL     OW14992   3.418   2.165   1.385
 1693SOL    HW114993   3.406   2.067   1.369
 1693SOL    HW214994   3.474   2.179   1.467
 1694SOL     OW14995   1.043   4.420   1.227
 1694SOL    HW114996   1.104   4.496   1.247
 1694SOL    HW214997   1.036   4.408   1.127
 1695SOL     OW14998   1.868   4.406   1.073
 1695SOL    HW114999   1.788   4.466   1.074
 1695SOL    HW215000   1.841   4.314   1.100
 1696SOL     OW15001   2.634   0.924   0.605
 1696SOL    HW115002   2.733   0.925   0.614
 1696SOL    HW215003   2.594   0.997   0.661
 1697SOL     OW15004   2.186   7.298   1.699
 1697SOL    HW115005   2.114   7.320   1.764
 1697SOL    HW215006   2.242   7.224   1.735
 1698SOL     OW15007   1.381   5.672   2.216
 1698SOL    HW115008   1.288   5.708   2.226
 1698SOL    HW215009   1.446   5.734   2.260
 1699SOL     OW15010   4.291   0.173   1.521
 1699SOL    HW115011   4.363   0.240   1.538
 1699SOL    HW215012   4.321   0.083   1.551
 1700SOL     OW15013   2.812   9.972   0.710
 1700SOL    HW115014   2.794   0.023   0.794
 1700SOL    HW215015   2.867   0.028   0.648
 1701SOL     OW15016   4.233   3.230   1.074
 1701SOL    HW115017   4.293   3.237   0.994
 1701SOL    HW215018   4.211   3.133   1.091
 1702SOL     OW15019   4.233   4.441   1.623
 1702SOL    HW115020   4.203   4.452   1.717
 1702SOL    HW215021   4.247   4.343   1.604
 1703SOL     OW15022   3.283   9.638   0.808
 1703SOL    HW115023   3.251   9.561   0.864
 1703SOL    HW215024   3.378   9.660   0.833
 1704SOL     OW15025   2.243   3.027   1.970
 1704SOL    HW115026   2.151   3.018   2.010
 1704SOL    HW215027   2.258   2.953   1.904
 1705SOL     OW15028   3.703   9.905   0.703
 1705SOL    HW115029   3.774   9.883   0.770
 1705SOL    HW215030   3.686   0.003   0.703
 1706SOL     OW15031   2.648   6.325   0.381
 1706SOL    HW115032   2.582   6.391   0.416
 1706SOL    HW215033   2.659   6.337   0.283
 1707SOL     OW15034   0.936   3.530   1.612
 1707SOL    HW115035   1.021   3.535   1.664
 1707SOL    HW215036   0.863   3.577   1.663
 1708SOL     OW15037   1.367   7.137   1.478
 1708SOL    HW115038   1.299   7.064   1.467
 1708SOL    HW215039   1.373   7.163   1.575
 1709SOL     OW15040   1.712   3.474   1.872
 1709SOL    HW115041   1.783   3.428   1.820
 1709SOL    HW215042   1.753   3.539   1.935
 1710SOL     OW15043   1.767   4.155   1.115
 1710SOL    HW115044   1.691   4.166   1.051
 1710SOL    HW215045   1.826   4.080   1.084
 1711SOL     OW15046   4.064   3.383   0.504
 1711SOL    HW115047   4.147   3.337   0.535
 1711SOL    HW215048   3.984   3.334   0.536
 1712SOL     OW15049   3.204   9.399   0.950
 1712SOL    HW115050   3.249   9.424   1.035
 1712SOL    HW215051   3.113   9.362   0.969
 1713SOL     OW15052   3.036   7.926   1.273
 1713SOL    HW115053   3.034   7.830   1.303
 1713SOL    HW215054   2.968   7.978   1.324
 1714SOL     OW15055   3.245   0.329   0.805
 1714SOL    HW115056   3.184   0.258   0.840
 1714SOL    HW215057   3.282   0.301   0.716
 1715SOL     OW15058   3.322   7.869   0.379
 1715SOL    HW115059   3.268   7.861   0.295
 1715SOL    HW215060   3.273   7.825   0.454
 1716SOL     OW15061   3.902   8.710   2.206
 1716SOL    HW115062   3.839   8.633   2.208
 1716SOL    HW215063   3.990   8.682   2.245
 1717SOL     OW15064   3.613   9.414   1.821
 1717SOL    HW115065   3.629   9.359   1.739
 1717SOL    HW215066   3.646   9.508   1.805
 1718SOL     OW15067   2.632   8.328   2.066
 1718SOL    HW115068   2.585   8.416   2.062
 1718SOL    HW215069   2.595   8.273   2.140
 1719SOL     OW15070   4.651   4.402   0.475
 1719SOL    HW115071   4.725   4.470   0.469
 1719SOL    HW215072   4.678   4.318   0.427
 1720SOL     OW15073   2.836   5.103   0.982
 1720SOL    HW115074   2.832   5.191   0.934
 1720SOL    HW215075   2.853   5.030   0.917
 1721SOL     OW15076   2.428   9.856   0.667
 1721SOL    HW115077   2.436   9.955   0.663
 1721SOL    HW215078   2.520   9.815   0.675
 1722SOL     OW15079   2.737   2.187   2.197
 1722SOL    HW115080   2.740   2.109   2.133
 1722SOL    HW215081   2.823   2.193   2.246
 1723SOL     OW15082   9.804   5.282   1.673
 1723SOL    HW115083   9.820   5.313   1.579
 1723SOL    HW215084   9.822   5.357   1.736
 1724SOL     OW15085   3.133   0.631   1.312
 1724SOL    HW115086   3.139   0.685   1.228
 1724SOL    HW215087   3.171   0.684   1.388
 1725SOL     OW15088   4.096   4.579   0.388
 1725SOL    HW115089   4.171   4.645   0.383
 1725SOL    HW215090   4.038   4.601   0.467
 1726SOL     OW15091   0.117   5.720   1.433
 1726SOL    HW115092   0.184   5.791   1.453
 1726SOL    HW215093   0.110   5.658   1.511
 1727SOL     OW15094   3.563   0.127   1.111
 1727SOL    HW115095   3.538   0.190   1.038
 1727SOL    HW215096   3.527   0.036   1.091
 1728SOL     OW15097   3.768   8.938   2.120
 1728SOL    HW115098   3.820   8.858   2.151
 1728SOL    HW215099   3.672   8.914   2.111
 1729SOL     OW15100   2.885   1.796   0.764
 1729SOL    HW115101   2.795   1.805   0.721
 1729SOL    HW215102   2.910   1.883   0.808
 1730SOL     OW15103   1.664   3.026   0.581
 1730SOL    HW115104   1.588   3.077   0.542
 1730SOL    HW215105   1.628   2.949   0.634
 1731SOL     OW15106   4.922   3.277   2.226
 1731SOL    HW115107   4.950   3.252   2.133
 1731SOL    HW215108   4.928   3.197   2.285
 1732SOL     OW15109   0.861   4.250   2.036
 1732SOL    HW115110   0.921   4.321   2.073
 1732SOL    HW215111   0.805   4.288   1.963
 1733SOL     OW15112   3.497   8.324   0.443
 1733SOL    HW115113   3.404   8.289   0.429
 1733SOL    HW215114   3.563   8.260   0.406
 1734SOL     OW15115   2.058   7.778   1.149
 1734SOL    HW115116   1.962   7.761   1.129
 1734SOL    HW215117   2.076   7.759   1.246
 1735SOL     OW15118   0.797   6.077   0.958
 1735SOL    HW115119   0.709   6.125   0.964
 1735SOL    HW215120   0.785   5.993   0.905
 1736SOL     OW15121   0.617   6.286   1.595
 1736SOL    HW115122   0.659   6.361   1.545
 1736SOL    HW215123   0.688   6.232   1.640
 1737SOL     OW15124   3.326   7.249   0.350
 1737SOL    HW115125   3.324   7.274   0.446
 1737SOL    HW215126   3.352   7.329   0.295
 1738SOL     OW15127   2.203   2.573   0.524
 1738SOL    HW115128   2.204   2.521   0.610
 1738SOL    HW215129   2.293   2.568   0.481
 1739SOL     OW15130   2.508   2.973   0.498
 1739SOL    HW115131   2.605   2.984   0.519
 1739SOL    HW215132   2.473   3.056   0.455
 1740SOL     OW15133   1.379   1.972   0.735
 1740SOL    HW115134   1.288   2.005   0.761
 1740SOL    HW215135   1.430   1.947   0.818
 1741SOL     OW15136   4.315   2.873   1.781
 1741SOL    HW115137   4.341   2.853   1.876
 1741SOL    HW215138   4.254   2.952   1.780
 1742SOL     OW15139   4.651   1.059   0.645
 1742SOL    HW115140   4.573   1.100   0.599
 1742SOL    HW215141   4.645   0.959   0.638
 1743SOL     OW15142   2.200   0.355   1.924
 1743SOL    HW115143   2.182   0.276   1.982
 1743SOL    HW215144   2.232   0.432   1.980
 1744SOL     OW15145   2.706   4.082   1.970
 1744SOL    HW115146   2.739   4.007   1.913
 1744SOL    HW215147   2.739   4.169   1.933
 1745SOL     OW15148   2.891   7.065   0.376
 1745SOL    HW115149   2.857   7.097   0.287
 1745SOL    HW215150   2.990   7.057   0.372
 1746SOL     OW15151   3.172   7.300   1.212
 1746SOL    HW115152   3.108   7.349   1.152
 1746SOL    HW215153   3.266   7.324   1.185
 1747SOL     OW15154   3.014   6.544   0.654
 1747SOL    HW115155   2.996   6.525   0.557
 1747SOL    HW215156   3.073   6.472   0.692
 1748SOL     OW15157   3.016   6.797   0.765
 1748SOL    HW115158   2.995   6.788   0.862
 1748SOL    HW215159   3.028   6.707   0.724
 1749SOL     OW15160   4.606   1.554   2.034
 1749SOL    HW115161   4.571   1.473   2.081
 1749SOL    HW215162   4.582   1.636   2.086
 1750SOL     OW15163   4.275   4.168   1.599
 1750SOL    HW115164   4.206   4.110   1.643
 1750SOL    HW215165   4.307   4.124   1.515
 1751SOL     OW15166   1.344   2.314   0.408
 1751SOL    HW115167   1.363   2.412   0.409
 1751SOL    HW215168   1.301   2.289   0.322
 1752SOL     OW15169   2.692   3.972   1.138
 1752SOL    HW115170   2.735   4.061   1.153
 1752SOL    HW215171   2.740   3.903   1.192
 1753SOL     OW15172   4.611   0.779   0.622
 1753SOL    HW115173   4.557   0.739   0.548
 1753SOL    HW215174   4.657   0.707   0.673
 1754SOL     OW15175   1.548   5.143   0.281
 1754SOL    HW115176   1.500   5.078   0.340
 1754SOL    HW215177   1.617   5.192   0.334
 1755SOL     OW15178   9.587   4.854   0.888
 1755SOL    HW115179   9.542   4.774   0.926
 1755SOL    HW215180   9.677   4.865   0.931
 1756SOL     OW15181   3.685   1.016   1.608
 1756SOL    HW115182   3.630   1.066   1.541
 1756SOL    HW215183   3.642   0.927   1.625
 1757SOL     OW15184   2.803   0.307   1.551
 1757SOL    HW115185   2.853   0.390   1.527
 1757SOL    HW215186   2.746   0.279   1.474
 1758SOL     OW15187   1.836   2.129   1.167
 1758SOL    HW115188   1.760   2.174   1.212
 1758SOL    HW215189   1.911   2.194   1.153
 1759SOL     OW15190   1.001   4.868   2.125
 1759SOL    HW115191   0.954   4.955   2.115
 1759SOL    HW215192   0.933   4.795   2.138
 1760SOL     OW15193   1.354   7.418   1.898
 1760SOL    HW115194   1.307   7.498   1.935
 1760SOL    HW215195   1.387   7.360   1.972
 1761SOL     OW15196   2.912   3.062   0.767
 1761SOL    HW115197   3.009   3.036   0.770
 1761SOL    HW215198   2.899   3.149   0.814
 1762SOL     OW15199   4.606   2.822   0.423
 1762SOL    HW115200   4.573   2.813   0.517
 1762SOL    HW215201   4.664   2.904   0.416
 1763SOL     OW15202   4.580   0.433   1.240
 1763SOL    HW115203   4.617   0.481   1.161
 1763SOL    HW215204   4.481   0.446   1.243
 1764SOL     OW15205   2.344   1.669   2.162
 1764SOL    HW115206   2.389   1.580   2.161
 1764SOL    HW215207   2.245   1.657   2.168
 1765SOL     OW15208   3.617   2.598   1.470
 1765SOL    HW115209   3.632   2.686   1.514
 1765SOL    HW215210   3.635   2.606   1.372
 1766SOL     OW15211   3.183   2.971   1.062
 1766SOL    HW115212   3.201   2.883   1.107
 1766SOL    HW215213   3.176   2.957   0.963
 1767SOL     OW15214   2.410   9.792   0.393
 1767SOL    HW115215   2.411   9.816   0.490
 1767SOL    HW215216   2.361   9.863   0.342
 1768SOL     OW15217   2.523   2.314   2.033
 1768SOL    HW115218   2.577   2.254   2.092
 1768SOL    HW215219   2.431   2.323   2.071
 1769SOL     OW15220   3.078   1.135   0.963
 1769SOL    HW115221   3.115   1.114   1.054
 1769SOL    HW215222   3.141   1.194   0.914
 1770SOL     OW15223   4.199   1.055   0.472
 1770SOL    HW115224   4.125   1.074   0.536
 1770SOL    HW215225   4.214   0.956   0.467
 1771SOL     OW15226   1.856   5.355   2.337
 1771SOL    HW115227   1.855   5.299   2.420
 1771SOL    HW215228   1.939   5.335   2.285
 1772SOL     OW15229   0.072   3.612   1.867
 1772SOL    HW115230   9.992   3.558   1.891
 1772SOL    HW215231   0.062   3.648   1.775
 1773SOL     OW15232   1.290   6.247   1.534
 1773SOL    HW115233   1.324   6.210   1.448
 1773SOL    HW215234   1.280   6.346   1.527
 1774SOL     OW15235   9.688   3.645   1.816
 1774SOL    HW115236   9.656   3.673   1.906
 1774SOL    HW215237   9.749   3.567   1.824
 1775SOL     OW15238   2.113   8.034   1.501
 1775SOL    HW115239   2.157   8.118   1.470
 1775SOL    HW215240   2.027   8.056   1.547
 1776SOL     OW15241   4.861   1.473   1.983
 1776SOL    HW115242   4.875   1.454   1.886
 1776SOL    HW215243   4.771   1.513   1.997
 1777SOL     OW15244   0.741   6.477   1.436
 1777SOL    HW115245   0.820   6.432   1.396
 1777SOL    HW215246   0.763   6.573   1.455
 1778SOL     OW15247   1.491   6.213   2.209
 1778SOL    HW115248   1.445   6.195   2.122
 1778SOL    HW215249   1.435   6.180   2.284
 1779SOL     OW15250   4.819   1.891   0.431
 1779SOL    HW115251   4.828   1.878   0.332
 1779SOL    HW215252   4.743   1.952   0.450
 1780SOL     OW15253   4.730   3.042   1.479
 1780SOL    HW115254   4.717   2.981   1.401
 1780SOL    HW215255   4.743   2.989   1.562
 1781SOL     OW15256   4.135   3.688   1.309
 1781SOL    HW115257   4.049   3.655   1.273
 1781SOL    HW215258   4.128   3.701   1.408
 1782SOL     OW15259   1.393   6.461   1.039
 1782SOL    HW115260   1.403   6.403   0.958
 1782SOL    HW215261   1.484   6.488   1.071
 1783SOL     OW15262   0.834   6.129   1.223
 1783SOL    HW115263   0.745   6.110   1.264
 1783SOL    HW215264   0.832   6.106   1.126
 1784SOL     OW15265   2.757   0.473   1.245
 1784SOL    HW115266   2.770   0.568   1.218
 1784SOL    HW215267   2.685   0.468   1.315
 1785SOL     OW15268   0.955   5.827   2.032
 1785SOL    HW115269   0.960   5.919   1.992
 1785SOL    HW215270   0.874   5.821   2.091
 1786SOL     OW15271   2.992   2.750   1.968
 1786SOL    HW115272   2.892   2.753   1.974
 1786SOL    HW215273   3.025   2.669   2.017
 1787SOL     OW15274   3.569   9.711   2.172
 1787SOL    HW115275   3.515   9.795   2.175
 1787SOL    HW215276   3.662   9.733   2.142
 1788SOL     OW15277   3.193   0.596   0.836
 1788SOL    HW115278   3.252   0.649   0.775
 1788SOL    HW215279   3.212   0.499   0.826
 1789SOL     OW15280   1.588   6.999   1.399
 1789SOL    HW115281   1.510   7.061   1.410
 1789SOL    HW215282   1.612   6.960   1.488
 1790SOL     OW15283   3.264   6.175   0.528
 1790SOL    HW115284   3.324   6.108   0.571
 1790SOL    HW215285   3.310   6.216   0.450
 1791SOL     OW15286   1.604   2.234   1.290
 1791SOL    HW115287   1.535   2.201   1.226
 1791SOL    HW215288   1.575   2.322   1.327
 1792SOL     OW15289   3.023   1.942   1.651
 1792SOL    HW115290   3.043   1.855   1.697
 1792SOL    HW215291   3.103   2.002   1.657
 1793SOL     OW15292   3.553   8.091   0.693
 1793SOL    HW115293   3.564   8.028   0.616
 1793SOL    HW215294   3.457   8.117   0.701
 1794SOL     OW15295   2.854   8.085   1.410
 1794SOL    HW115296   2.841   8.100   1.508
 1794SOL    HW215297   2.846   8.172   1.362
 1795SOL     OW15298   4.159   4.457   1.891
 1795SOL    HW115299   4.242   4.454   1.947
 1795SOL    HW215300   4.103   4.535   1.919
 1796SOL     OW15301   3.010   4.452   1.958
 1796SOL    HW115302   3.095   4.468   1.909
 1796SOL    HW215303   2.971   4.539   1.988
 1797SOL     OW15304   1.053   6.178   0.962
 1797SOL    HW115305   1.045   6.276   0.981
 1797SOL    HW215306   0.961   6.138   0.956
 1798SOL     OW15307   3.962   0.741   2.183
 1798SOL    HW115308   3.890   0.675   2.199
 1798SOL    HW215309   3.933   0.831   2.215
 1799SOL     OW15310   2.371   6.707   1.646
 1799SOL    HW115311   2.412   6.630   1.598
 1799SOL    HW215312   2.279   6.723   1.611
 1800SOL     OW15313   2.560   1.826   2.215
 1800SOL    HW115314   2.631   1.766   2.252
 1800SOL    HW215315   2.479   1.771   2.194
 1801SOL     OW15316   2.612   0.268   1.956
 1801SOL    HW115317   2.696   0.217   1.973
 1801SOL    HW215318   2.571   0.296   2.043
 1802SOL     OW15319   4.792   3.451   0.787
 1802SOL    HW115320   4.805   3.400   0.872
 1802SOL    HW215321   4.879   3.490   0.758
 1803SOL     OW15322   3.485   2.747   0.458
 1803SOL    HW115323   3.532   2.659   0.466
 1803SOL    HW215324   3.547   2.820   0.487
 1804SOL     OW15325   3.373   4.619   1.570
 1804SOL    HW115326   3.274   4.626   1.556
 1804SOL    HW215327   3.411   4.711   1.581
 1805SOL     OW15328   3.778   4.652   1.518
 1805SOL    HW115329   3.834   4.578   1.481
 1805SOL    HW215330   3.723   4.616   1.594
 1806SOL     OW15331   4.250   3.557   1.899
 1806SOL    HW115332   4.191   3.522   1.826
 1806SOL    HW215333   4.343   3.522   1.886
 1807SOL     OW15334   4.589   3.847   2.144
 1807SOL    HW115335   4.540   3.795   2.213
 1807SOL    HW215336   4.664   3.897   2.186
 1808SOL     OW15337   3.547   0.730   0.980
 1808SOL    HW115338   3.574   0.733   0.884
 1808SOL    HW215339   3.477   0.799   0.997
 1809SOL     OW15340   1.141   7.070   1.160
 1809SOL    HW115341   1.054   7.069   1.112
 1809SOL    HW215342   1.191   7.154   1.138
 1810SOL     OW15343   1.739   4.999   0.676
 1810SOL    HW115344   1.765   4.935   0.748
 1810SOL    HW215345   1.682   4.951   0.609
 1811SOL     OW15346   2.671   5.189   0.654
 1811SOL    HW115347   2.755   5.181   0.600
 1811SOL    HW215348   2.644   5.099   0.688
 1812SOL     OW15349   3.432   1.854   2.231
 1812SOL    HW115350   3.395   1.843   2.139
 1812SOL    HW215351   3.372   1.915   2.283
 1813SOL     OW15352   0.498   5.224   2.048
 1813SOL    HW115353   0.504   5.292   2.121
 1813SOL    HW215354   0.416   5.239   1.994
 1814SOL     OW15355   2.076   1.642   2.157
 1814SOL    HW115356   2.048   1.716   2.096
 1814SOL    HW215357   2.029   1.557   2.131
 1815SOL     OW15358   0.760   5.854   0.807
 1815SOL    HW115359   0.856   5.830   0.791
 1815SOL    HW215360   0.704   5.771   0.803
 1816SOL     OW15361   1.981   2.573   0.336
 1816SOL    HW115362   2.057   2.546   0.395
 1816SOL    HW215363   1.975   2.673   0.333
 1817SOL     OW15364   5.303   2.084   0.438
 1817SOL    HW115365   5.203   2.073   0.433
 1817SOL    HW215366   5.327   2.178   0.417
 1818SOL     OW15367   1.979   9.383   1.730
 1818SOL    HW115368   2.045   9.401   1.657
 1818SOL    HW215369   2.012   9.420   1.816
 1819SOL     OW15370   4.302   1.887   1.311
 1819SOL    HW115371   4.255   1.956   1.366
 1819SOL    HW215372   4.277   1.796   1.342
 1820SOL     OW15373   3.019   7.181   2.043
 1820SOL    HW115374   3.048   7.239   1.967
 1820SOL    HW215375   2.952   7.114   2.011
 1821SOL     OW15376   1.700   1.613   0.593
 1821SOL    HW115377   1.714   1.599   0.691
 1821SOL    HW215378   1.632   1.685   0.579
 1822SOL     OW15379   3.182   6.671   1.693
 1822SOL    HW115380   3.234   6.757   1.699
 1822SOL    HW215381   3.224   6.602   1.752
 1823SOL     OW15382   5.031   2.074   0.454
 1823SOL    HW115383   4.960   2.004   0.452
 1823SOL    HW215384   5.005   2.147   0.517
 1824SOL     OW15385   3.003   4.001   1.249
 1824SOL    HW115386   3.046   4.030   1.334
 1824SOL    HW215387   2.945   4.074   1.214
 1825SOL     OW15388   2.042   9.349   0.460
 1825SOL    HW115389   2.142   9.355   0.457
 1825SOL    HW215390   2.006   9.423   0.517
 1826SOL     OW15391   3.739   0.177   0.729
 1826SOL    HW115392   3.705   0.271   0.731
 1826SOL    HW215393   3.780   0.155   0.818
 1827SOL     OW15394   3.445   0.023   0.473
 1827SOL    HW115395   3.416   9.977   0.390
 1827SOL    HW215396   3.541   0.048   0.466
 1828SOL     OW15397   0.835   4.374   0.735
 1828SOL    HW115398   0.760   4.403   0.795
 1828SOL    HW215399   0.819   4.409   0.642
 1829SOL     OW15400   1.430   4.368   0.434
 1829SOL    HW115401   1.376   4.318   0.367
 1829SOL    HW215402   1.526   4.369   0.405
 1830SOL     OW15403   2.585   0.596   1.715
 1830SOL    HW115404   2.524   0.663   1.758
 1830SOL    HW215405   2.605   0.523   1.780
 1831SOL     OW15406   1.782   4.661   0.410
 1831SOL    HW115407   1.870   4.708   0.417
 1831SOL    HW215408   1.710   4.722   0.442
 1832SOL     OW15409   0.768   4.874   1.819
 1832SOL    HW115410   0.679   4.882   1.774
 1832SOL    HW215411   0.774   4.785   1.864
 1833SOL     OW15412   3.117   1.994   1.233
 1833SOL    HW115413   3.159   2.043   1.158
 1833SOL    HW215414   3.018   1.992   1.221
 1834SOL     OW15415   4.267   0.520   1.644
 1834SOL    HW115416   4.279   0.617   1.628
 1834SOL    HW215417   4.348   0.470   1.613
 1835SOL     OW15418   1.583   4.829   0.525
 1835SOL    HW115419   1.513   4.885   0.482
 1835SOL    HW215420   1.541   4.768   0.592
 1836SOL     OW15421   0.151   4.771   0.746
 1836SOL    HW115422   0.129   4.804   0.838
 1836SOL    HW215423   0.085   4.701   0.719
 1837SOL     OW15424   2.098   9.459   1.971
 1837SOL    HW115425   2.076   9.365   1.997
 1837SOL    HW215426   2.158   9.500   2.041
 1838SOL     OW15427   3.715   2.830   0.623
 1838SOL    HW115428   3.648   2.799   0.691
 1838SOL    HW215429   3.742   2.924   0.644
 1839SOL     OW15430   2.207   6.233   1.049
 1839SOL    HW115431   2.225   6.158   0.985
 1839SOL    HW215432   2.217   6.321   1.001
 1840SOL     OW15433   9.649   4.902   1.984
 1840SOL    HW115434   9.693   4.917   2.072
 1840SOL    HW215435   9.648   4.987   1.932
 1841SOL     OW15436   2.545   7.895   0.603
 1841SOL    HW115437   2.475   7.935   0.662
 1841SOL    HW215438   2.515   7.805   0.572
 1842SOL     OW15439   9.530   4.149   0.990
 1842SOL    HW115440   9.579   4.065   0.965
 1842SOL    HW215441   9.431   4.131   0.987
 1843SOL     OW15442   2.662   7.062   1.483
 1843SOL    HW115443   2.588   7.015   1.532
 1843SOL    HW215444   2.646   7.161   1.486
 1844SOL     OW15445   2.484   1.501   0.386
 1844SOL    HW115446   2.414   1.572   0.392
 1844SOL    HW215447   2.575   1.543   0.394
 1845SOL     OW15448   3.535   3.154   1.891
 1845SOL    HW115449   3.574   3.232   1.842
 1845SOL    HW215450   3.507   3.084   1.826
 1846SOL     OW15451   2.309   6.871   2.206
 1846SOL    HW115452   2.361   6.785   2.195
 1846SOL    HW215453   2.371   6.943   2.237
 1847SOL     OW15454   2.868   7.597   2.365
 1847SOL    HW115455   2.881   7.632   2.272
 1847SOL    HW215456   2.789   7.537   2.368
 1848SOL     OW15457   2.398   7.633   1.403
 1848SOL    HW115458   2.446   7.592   1.325
 1848SOL    HW215459   2.316   7.580   1.423
 1849SOL     OW15460   1.278   6.053   1.064
 1849SOL    HW115461   1.196   6.096   1.025
 1849SOL    HW215462   1.255   5.960   1.093
 1850SOL     OW15463   4.398   3.255   0.860
 1850SOL    HW115464   4.445   3.339   0.830
 1850SOL    HW215465   4.466   3.189   0.891
 1851SOL     OW15466   2.503   0.692   1.263
 1851SOL    HW115467   2.571   0.761   1.288
 1851SOL    HW215468   2.508   0.617   1.329
 1852SOL     OW15469   3.142   1.743   0.684
 1852SOL    HW115470   3.145   1.717   0.588
 1852SOL    HW215471   3.047   1.762   0.711
 1853SOL     OW15472   5.005   1.234   1.481
 1853SOL    HW115473   4.944   1.211   1.405
 1853SOL    HW215474   5.007   1.158   1.546
 1854SOL     OW15475   1.969   8.571   0.348
 1854SOL    HW115476   1.922   8.635   0.287
 1854SOL    HW215477   2.048   8.617   0.389
 1855SOL     OW15478   1.509   2.867   1.127
 1855SOL    HW115479   1.556   2.915   1.053
 1855SOL    HW215480   1.421   2.833   1.094
 1856SOL     OW15481   3.293   3.164   2.030
 1856SOL    HW115482   3.387   3.159   1.996
 1856SOL    HW215483   3.231   3.176   1.952
 1857SOL     OW15484   4.575   3.077   0.971
 1857SOL    HW115485   4.643   3.046   0.905
 1857SOL    HW215486   4.622   3.115   1.051
 1858SOL     OW15487   3.933   3.782   1.012
 1858SOL    HW115488   3.870   3.770   0.935
 1858SOL    HW215489   3.937   3.878   1.037
 1859SOL     OW15490   1.008   5.758   0.756
 1859SOL    HW115491   0.993   5.686   0.689
 1859SOL    HW215492   1.045   5.839   0.710
 1860SOL     OW15493   4.148   2.247   0.933
 1860SOL    HW115494   4.160   2.209   0.842
 1860SOL    HW215495   4.184   2.182   1.001
 1861SOL     OW15496   9.925   4.613   1.173
 1861SOL    HW115497   9.884   4.590   1.085
 1861SOL    HW215498   9.927   4.713   1.184
 1862SOL     OW15499   2.599   1.686   0.957
 1862SOL    HW115500   2.696   1.664   0.955
 1862SOL    HW215501   2.552   1.635   0.884
 1863SOL     OW15502   3.283   0.141   2.289
 1863SOL    HW115503   3.256   0.190   2.206
 1863SOL    HW215504   3.282   0.205   2.366
 1864SOL     OW15505   0.724   4.868   1.370
 1864SOL    HW115506   0.677   4.933   1.309
 1864SOL    HW215507   0.818   4.855   1.337
 1865SOL     OW15508   1.740   1.514   2.194
 1865SOL    HW115509   1.814   1.492   2.131
 1865SOL    HW215510   1.728   1.439   2.259
 1866SOL     OW15511   2.760   3.370   1.635
 1866SOL    HW115512   2.669   3.373   1.675
 1866SOL    HW215513   2.820   3.314   1.694
 1867SOL     OW15514   1.631   7.487   0.790
 1867SOL    HW115515   1.719   7.444   0.811
 1867SOL    HW215516   1.557   7.426   0.818
 1868SOL     OW15517   4.932   2.888   0.610
 1868SOL    HW115518   4.902   2.803   0.567
 1868SOL    HW215519   5.031   2.884   0.626
 1869SOL     OW15520   3.806   1.818   0.685
 1869SOL    HW115521   3.839   1.728   0.715
 1869SOL    HW215522   3.878   1.864   0.633
 1870SOL     OW15523   2.128   1.998   1.610
 1870SOL    HW115524   2.114   2.077   1.550
 1870SOL    HW215525   2.182   2.027   1.689
 1871SOL     OW15526   1.906   2.822   1.889
 1871SOL    HW115527   1.952   2.738   1.916
 1871SOL    HW215528   1.938   2.898   1.947
 1872SOL     OW15529   2.813   7.189   0.611
 1872SOL    HW115530   2.792   7.112   0.672
 1872SOL    HW215531   2.842   7.153   0.523
 1873SOL     OW15532   2.031   5.252   1.928
 1873SOL    HW115533   1.935   5.242   1.954
 1873SOL    HW215534   2.067   5.165   1.896
 1874SOL     OW15535   0.551   3.948   1.879
 1874SOL    HW115536   0.650   3.943   1.869
 1874SOL    HW215537   0.528   3.945   1.977
 1875SOL     OW15538   3.242   2.586   1.682
 1875SOL    HW115539   3.237   2.670   1.735
 1875SOL    HW215540   3.332   2.544   1.693
 1876SOL     OW15541   1.488   3.180   0.426
 1876SOL    HW115542   1.547   3.187   0.346
 1876SOL    HW215543   1.399   3.144   0.399
 1877SOL     OW15544   4.082   3.077   1.437
 1877SOL    HW115545   4.129   3.159   1.405
 1877SOL    HW215546   4.149   3.010   1.469
 1878SOL     OW15547   2.410   2.055   1.237
 1878SOL    HW115548   2.349   2.134   1.241
 1878SOL    HW215549   2.356   1.972   1.226
 1879SOL     OW15550   1.150   5.249   1.080
 1879SOL    HW115551   1.086   5.319   1.050
 1879SOL    HW215552   1.101   5.177   1.129
 1880SOL     OW15553   3.860   9.324   2.273
 1880SOL    HW115554   3.825   9.272   2.194
 1880SOL    HW215555   3.853   9.422   2.254
 1881SOL     OW15556   3.003   4.198   2.063
 1881SOL    HW115557   3.017   4.290   2.026
 1881SOL    HW215558   3.023   4.130   1.993
 1882SOL     OW15559   4.505   3.687   0.459
 1882SOL    HW115560   4.605   3.688   0.447
 1882SOL    HW215561   4.473   3.592   0.461
 1883SOL     OW15562   1.939   2.996   1.295
 1883SOL    HW115563   1.927   2.905   1.256
 1883SOL    HW215564   1.883   3.004   1.378
 1884SOL     OW15565   1.926   6.111   1.303
 1884SOL    HW115566   2.022   6.098   1.280
 1884SOL    HW215567   1.873   6.031   1.273
 1885SOL     OW15568   3.075   9.603   1.159
 1885SOL    HW115569   3.168   9.565   1.167
 1885SOL    HW215570   3.035   9.610   1.250
 1886SOL     OW15571   9.793   5.531   1.221
 1886SOL    HW115572   9.734   5.604   1.256
 1886SOL    HW215573   9.745   5.482   1.149
 1887SOL     OW15574   1.767   9.603   1.385
 1887SOL    HW115575   1.701   9.587   1.311
 1887SOL    HW215576   1.767   9.525   1.447
 1888SOL     OW15577   3.231   5.798   1.013
 1888SOL    HW115578   3.256   5.890   1.044
 1888SOL    HW215579   3.161   5.760   1.073
 1889SOL     OW15580   1.543   5.408   0.652
 1889SOL    HW115581   1.587   5.498   0.646
 1889SOL    HW215582   1.446   5.416   0.630
 1890SOL     OW15583   2.214   3.353   0.428
 1890SOL    HW115584   2.186   3.448   0.439
 1890SOL    HW215585   2.185   3.300   0.508
 1891SOL     OW15586   2.736   9.882   1.094
 1891SOL    HW115587   2.755   9.906   1.190
 1891SOL    HW215588   2.647   9.837   1.088
 1892SOL     OW15589   1.985   3.026   2.076
 1892SOL    HW115590   1.896   3.006   2.117
 1892SOL    HW215591   2.018   3.114   2.109
 1893SOL     OW15592   2.564   7.328   1.499
 1893SOL    HW115593   2.492   7.321   1.430
 1893SOL    HW215594   2.642   7.377   1.460
 1894SOL     OW15595   1.989   5.980   0.856
 1894SOL    HW115596   1.957   6.071   0.830
 1894SOL    HW215597   2.088   5.981   0.866
 1895SOL     OW15598   0.636   4.466   0.903
 1895SOL    HW115599   0.624   4.473   1.002
 1895SOL    HW215600   0.627   4.557   0.863
 1896SOL     OW15601   3.918   4.062   1.051
 1896SOL    HW115602   4.002   4.115   1.040
 1896SOL    HW215603   3.860   4.076   0.971
 1897SOL     OW15604   2.082   7.019   2.168
 1897SOL    HW115605   2.028   7.017   2.252
 1897SOL    HW215606   2.169   6.971   2.183
 1898SOL     OW15607   2.310   7.226   1.046
 1898SOL    HW115608   2.235   7.160   1.046
 1898SOL    HW215609   2.376   7.201   0.975
 1899SOL     OW15610   3.540   8.479   0.658
 1899SOL    HW115611   3.600   8.424   0.717
 1899SOL    HW215612   3.524   8.429   0.572
 1900SOL     OW15613   3.282   3.550   2.069
 1900SOL    HW115614   3.183   3.552   2.087
 1900SOL    HW215615   3.318   3.643   2.072
 1901SOL     OW15616   2.181   3.246   1.814
 1901SOL    HW115617   2.196   3.171   1.879
 1901SOL    HW215618   2.214   3.332   1.854
 1902SOL     OW15619   5.259   3.448   1.202
 1902SOL    HW115620   5.284   3.378   1.269
 1902SOL    HW215621   5.300   3.535   1.228
 1903SOL     OW15622   2.217   8.871   1.055
 1903SOL    HW115623   2.245   8.903   0.964
 1903SOL    HW215624   2.193   8.774   1.050
 1904SOL     OW15625   3.016   1.662   2.293
 1904SOL    HW115626   3.032   1.565   2.278
 1904SOL    HW215627   3.074   1.694   2.368
 1905SOL     OW15628   0.717   5.165   0.613
 1905SOL    HW115629   0.635   5.220   0.602
 1905SOL    HW215630   0.723   5.098   0.538
 1906SOL     OW15631   2.567   7.444   1.749
 1906SOL    HW115632   2.557   7.406   1.657
 1906SOL    HW215633   2.479   7.483   1.779
 1907SOL     OW15634   1.873   6.827   0.904
 1907SOL    HW115635   1.857   6.817   1.002
 1907SOL    HW215636   1.875   6.924   0.880
 1908SOL     OW15637   3.100   2.351   1.688
 1908SOL    HW115638   3.137   2.443   1.700
 1908SOL    HW215639   3.124   2.317   1.597
 1909SOL     OW15640   4.509   1.714   0.696
 1909SOL    HW115641   4.423   1.689   0.740
 1909SOL    HW215642   4.560   1.631   0.672
 1910SOL     OW15643   2.945   3.108   1.116
 1910SOL    HW115644   3.039   3.074   1.104
 1910SOL    HW215645   2.928   3.182   1.052
 1911SOL     OW15646   5.120   3.951   0.652
 1911SOL    HW115647   5.099   4.021   0.720
 1911SOL    HW215648   5.036   3.905   0.624
 1912SOL     OW15649   2.725   1.730   1.889
 1912SOL    HW115650   2.632   1.702   1.912
 1912SOL    HW215651   2.740   1.718   1.791
 1913SOL     OW15652   1.031   5.784   1.656
 1913SOL    HW115653   1.030   5.841   1.573
 1913SOL    HW215654   1.116   5.799   1.705
 1914SOL     OW15655   3.377   0.272   0.567
 1914SOL    HW115656   3.461   0.317   0.539
 1914SOL    HW215657   3.380   0.175   0.543
 1915SOL     OW15658   1.831   4.817   0.859
 1915SOL    HW115659   1.899   4.887   0.881
 1915SOL    HW215660   1.874   4.745   0.804
 1916SOL     OW15661   1.094   6.736   1.554
 1916SOL    HW115662   0.998   6.727   1.530
 1916SOL    HW215663   1.134   6.812   1.502
 1917SOL     OW15664   1.935   3.025   0.910
 1917SOL    HW115665   1.933   3.033   0.810
 1917SOL    HW215666   2.015   3.073   0.946
 1918SOL     OW15667   2.460   6.645   2.163
 1918SOL    HW115668   2.446   6.547   2.177
 1918SOL    HW215669   2.557   6.663   2.148
 1919SOL     OW15670   3.202   4.726   2.205
 1919SOL    HW115671   3.247   4.735   2.116
 1919SOL    HW215672   3.135   4.800   2.216
 1920SOL     OW15673   2.870   5.084   1.995
 1920SOL    HW115674   2.828   5.048   1.912
 1920SOL    HW215675   2.798   5.120   2.055
 1921SOL     OW15676   2.824   2.629   1.522
 1921SOL    HW115677   2.812   2.677   1.435
 1921SOL    HW215678   2.804   2.532   1.509
 1922SOL     OW15679   4.812   0.957   1.133
 1922SOL    HW115680   4.815   0.999   1.042
 1922SOL    HW215681   4.724   0.912   1.145
 1923SOL     OW15682   2.564   5.163   1.317
 1923SOL    HW115683   2.501   5.091   1.346
 1923SOL    HW215684   2.557   5.241   1.379
 1924SOL     OW15685   2.492   4.184   1.346
 1924SOL    HW115686   2.392   4.190   1.351
 1924SOL    HW215687   2.521   4.094   1.376
 1925SOL     OW15688   3.255   2.802   1.860
 1925SOL    HW115689   3.158   2.817   1.879
 1925SOL    HW215690   3.298   2.756   1.937
 1926SOL     OW15691   2.006   2.608   1.440
 1926SOL    HW115692   1.971   2.665   1.514
 1926SOL    HW215693   1.962   2.519   1.443
 1927SOL     OW15694   2.267   1.227   1.784
 1927SOL    HW115695   2.187   1.178   1.818
 1927SOL    HW215696   2.246   1.267   1.695
 1928SOL     OW15697   3.910   2.427   0.454
 1928SOL    HW115698   3.921   2.424   0.354
 1928SOL    HW215699   3.991   2.390   0.498
 1929SOL     OW15700   5.197   2.866   0.651
 1929SOL    HW115701   5.237   2.956   0.636
 1929SOL    HW215702   5.231   2.828   0.737
 1930SOL     OW15703   1.791   1.215   1.448
 1930SOL    HW115704   1.774   1.307   1.412
 1930SOL    HW215705   1.850   1.164   1.385
 1931SOL     OW15706   9.430   4.449   0.659
 1931SOL    HW115707   9.487   4.400   0.592
 1931SOL    HW215708   9.407   4.539   0.624
 1932SOL     OW15709   9.707   5.134   0.618
 1932SOL    HW115710   9.611   5.162   0.620
 1932SOL    HW215711   9.742   5.132   0.712
 1933SOL     OW15712   2.940   9.428   0.613
 1933SOL    HW115713   3.039   9.439   0.622
 1933SOL    HW215714   2.910   9.460   0.523
 1934SOL     OW15715   3.222   9.929   1.161
 1934SOL    HW115716   3.169   9.900   1.081
 1934SOL    HW215717   3.319   9.914   1.144
 1935SOL     OW15718   0.785   6.526   1.018
 1935SOL    HW115719   0.879   6.493   1.018
 1935SOL    HW215720   0.783   6.623   0.994
 1936SOL     OW15721   1.770   3.745   1.103
 1936SOL    HW115722   1.745   3.762   1.199
 1936SOL    HW215723   1.820   3.824   1.068
 1937SOL     OW15724   4.075   1.215   1.236
 1937SOL    HW115725   4.171   1.215   1.265
 1937SOL    HW215726   4.019   1.260   1.305
 1938SOL     OW15727   3.149   8.308   1.239
 1938SOL    HW115728   3.132   8.231   1.177
 1938SOL    HW215729   3.151   8.275   1.333
 1939SOL     OW15730   2.350   0.065   2.187
 1939SOL    HW115731   2.341   9.972   2.221
 1939SOL    HW215732   2.261   0.099   2.158
 1940SOL     OW15733   1.898   6.452   1.223
 1940SOL    HW115734   1.913   6.398   1.141
 1940SOL    HW215735   1.907   6.394   1.304
 1941SOL     OW15736   2.165   1.011   1.393
 1941SOL    HW115737   2.233   1.082   1.410
 1941SOL    HW215738   2.086   1.050   1.346
 1942SOL     OW15739   3.253   5.899   2.205
 1942SOL    HW115740   3.171   5.877   2.152
 1942SOL    HW215741   3.288   5.816   2.248
 1943SOL     OW15742   1.726   9.567   0.987
 1943SOL    HW115743   1.666   9.538   1.062
 1943SOL    HW215744   1.766   9.655   1.010
 1944SOL     OW15745   0.660   3.615   1.282
 1944SOL    HW115746   0.634   3.653   1.371
 1944SOL    HW215747   0.578   3.584   1.234
 1945SOL     OW15748   0.592   6.045   1.321
 1945SOL    HW115749   0.533   6.105   1.376
 1945SOL    HW215750   0.535   5.980   1.271
 1946SOL     OW15751   0.519   5.538   0.536
 1946SOL    HW115752   0.500   5.443   0.562
 1946SOL    HW215753   0.435   5.581   0.504
 1947SOL     OW15754   2.905   6.305   0.484
 1947SOL    HW115755   2.812   6.315   0.448
 1947SOL    HW215756   2.901   6.268   0.577
 1948SOL     OW15757   1.992   7.076   1.921
 1948SOL    HW115758   2.033   7.057   2.010
 1948SOL    HW215759   1.983   7.175   1.909
 1949SOL     OW15760   1.653   2.294   0.970
 1949SOL    HW115761   1.584   2.238   1.018
 1949SOL    HW215762   1.712   2.338   1.037
 1950SOL     OW15763   2.737   1.610   0.408
 1950SOL    HW115764   2.752   1.600   0.310
 1950SOL    HW215765   2.793   1.543   0.457
 1951SOL     OW15766   2.898   6.610   1.263
 1951SOL    HW115767   2.943   6.638   1.348
 1951SOL    HW215768   2.799   6.620   1.273
 1952SOL     OW15769   2.712   4.893   2.264
 1952SOL    HW115770   2.696   4.830   2.189
 1952SOL    HW215771   2.665   4.859   2.346
 1953SOL     OW15772   2.304   0.365   1.669
 1953SOL    HW115773   2.261   0.366   1.760
 1953SOL    HW215774   2.400   0.339   1.678
 1954SOL     OW15775   5.116   1.910   0.850
 1954SOL    HW115776   5.079   1.818   0.839
 1954SOL    HW215777   5.195   1.921   0.790
 1955SOL     OW15778   2.610   8.510   1.447
 1955SOL    HW115779   2.698   8.505   1.400
 1955SOL    HW215780   2.624   8.509   1.546
 1956SOL     OW15781   3.055   1.399   2.238
 1956SOL    HW115782   2.993   1.394   2.160
 1956SOL    HW215783   3.150   1.404   2.206
 1957SOL     OW15784   4.669   3.207   1.210
 1957SOL    HW115785   4.705   3.135   1.269
 1957SOL    HW215786   4.652   3.289   1.264
 1958SOL     OW15787   1.778   8.475   2.311
 1958SOL    HW115788   1.810   8.543   2.378
 1958SOL    HW215789   1.817   8.496   2.222
 1959SOL     OW15790   2.587   2.309   1.289
 1959SOL    HW115791   2.545   2.400   1.295
 1959SOL    HW215792   2.515   2.241   1.278
 1960SOL     OW15793   1.266   5.053   0.721
 1960SOL    HW115794   1.203   5.125   0.692
 1960SOL    HW215795   1.312   5.081   0.806
 1961SOL     OW15796   1.191   3.528   2.016
 1961SOL    HW115797   1.266   3.486   2.067
 1961SOL    HW215798   1.210   3.521   1.918
 1962SOL     OW15799   4.508   2.294   0.833
 1962SOL    HW115800   4.474   2.384   0.805
 1962SOL    HW215801   4.499   2.285   0.932
 1963SOL     OW15802   2.501   5.778   0.825
 1963SOL    HW115803   2.469   5.845   0.758
 1963SOL    HW215804   2.465   5.800   0.915
 1964SOL     OW15805   0.371   5.073   1.442
 1964SOL    HW115806   0.423   5.154   1.468
 1964SOL    HW215807   0.357   5.072   1.343
 1965SOL     OW15808   3.624   2.248   1.222
 1965SOL    HW115809   3.592   2.259   1.128
 1965SOL    HW215810   3.547   2.226   1.281
 1966SOL     OW15811   2.829   0.120   2.020
 1966SOL    HW115812   2.877   0.189   2.073
 1966SOL    HW215813   2.808   0.041   2.077
 1967SOL     OW15814   9.614   3.598   1.557
 1967SOL    HW115815   9.690   3.634   1.503
 1967SOL    HW215816   9.631   3.615   1.654
 1968SOL     OW15817   1.964   1.134   1.251
 1968SOL    HW115818   2.040   1.193   1.222
 1968SOL    HW215819   1.902   1.119   1.174
 1969SOL     OW15820   4.952   4.263   0.456
 1969SOL    HW115821   4.941   4.299   0.548
 1969SOL    HW215822   4.870   4.212   0.430
 1970SOL     OW15823   1.252   6.516   1.485
 1970SOL    HW115824   1.190   6.589   1.516
 1970SOL    HW215825   1.347   6.545   1.499
 1971SOL     OW15826   4.984   3.085   0.938
 1971SOL    HW115827   5.043   3.111   1.014
 1971SOL    HW215828   4.947   2.993   0.954
 1972SOL     OW15829   2.227   6.501   1.926
 1972SOL    HW115830   2.185   6.411   1.940
 1972SOL    HW215831   2.185   6.567   1.988
 1973SOL     OW15832   3.329   9.468   1.182
 1973SOL    HW115833   3.329   9.481   1.281
 1973SOL    HW215834   3.414   9.426   1.154
 1974SOL     OW15835   4.139   1.903   0.901
 1974SOL    HW115836   4.197   1.950   0.968
 1974SOL    HW215837   4.182   1.816   0.875
 1975SOL     OW15838   3.123   4.886   1.823
 1975SOL    HW115839   3.155   4.975   1.790
 1975SOL    HW215840   3.197   4.842   1.874
 1976SOL     OW15841   4.790   2.642   1.977
 1976SOL    HW115842   4.827   2.596   1.897
 1976SOL    HW215843   4.725   2.581   2.024
 1977SOL     OW15844   4.165   3.965   2.229
 1977SOL    HW115845   4.248   3.967   2.173
 1977SOL    HW215846   4.171   3.890   2.294
 1978SOL     OW15847   0.680   6.248   0.489
 1978SOL    HW115848   0.737   6.314   0.538
 1978SOL    HW215849   0.737   6.192   0.429
 1979SOL     OW15850   4.681   2.051   1.591
 1979SOL    HW115851   4.659   1.980   1.658
 1979SOL    HW215852   4.736   2.011   1.518
 1980SOL     OW15853   3.364   9.381   1.916
 1980SOL    HW115854   3.364   9.417   2.009
 1980SOL    HW215855   3.457   9.383   1.879
 1981SOL     OW15856   3.299   4.157   1.107
 1981SOL    HW115857   3.261   4.202   1.188
 1981SOL    HW215858   3.398   4.145   1.118
 1982SOL     OW15859   4.470   3.463   2.165
 1982SOL    HW115860   4.461   3.548   2.217
 1982SOL    HW215861   4.387   3.446   2.113
 1983SOL     OW15862   3.178   9.797   1.407
 1983SOL    HW115863   3.189   9.844   1.320
 1983SOL    HW215864   3.268   9.780   1.448
 1984SOL     OW15865   2.352   7.157   0.420
 1984SOL    HW115866   2.318   7.075   0.467
 1984SOL    HW215867   2.332   7.238   0.476
 1985SOL     OW15868   4.287   2.902   1.503
 1985SOL    HW115869   4.361   2.932   1.443
 1985SOL    HW215870   4.321   2.896   1.597
 1986SOL     OW15871   1.764   6.631   0.750
 1986SOL    HW115872   1.802   6.706   0.805
 1986SOL    HW215873   1.838   6.571   0.721
 1987SOL     OW15874   2.447   0.345   1.144
 1987SOL    HW115875   2.443   0.434   1.099
 1987SOL    HW215876   2.395   0.349   1.229
 1988SOL     OW15877   1.377   6.913   0.635
 1988SOL    HW115878   1.442   6.862   0.691
 1988SOL    HW215879   1.382   6.880   0.541
 1989SOL     OW15880   9.792   4.681   2.260
 1989SOL    HW115881   9.771   4.778   2.246
 1989SOL    HW215882   9.792   4.661   2.358
 1990SOL     OW15883   3.887   9.900   0.490
 1990SOL    HW115884   3.924   9.812   0.462
 1990SOL    HW215885   3.816   9.886   0.560
 1991SOL     OW15886   9.749   4.955   2.238
 1991SOL    HW115887   9.832   5.008   2.255
 1991SOL    HW215888   9.669   5.007   2.268
 1992SOL     OW15889   2.815   2.327   1.714
 1992SOL    HW115890   2.787   2.339   1.619
 1992SOL    HW215891   2.914   2.330   1.721
 1993SOL     OW15892   0.510   4.397   1.893
 1993SOL    HW115893   0.596   4.387   1.843
 1993SOL    HW215894   0.520   4.467   1.965
 1994SOL     OW15895   2.475   6.779   0.989
 1994SOL    HW115896   2.399   6.815   0.934
 1994SOL    HW215897   2.546   6.849   0.996
 1995SOL     OW15898   2.673   9.742   0.670
 1995SOL    HW115899   2.731   9.822   0.681
 1995SOL    HW215900   2.710   9.667   0.725
 1996SOL     OW15901   3.419   3.931   1.676
 1996SOL    HW115902   3.350   3.876   1.629
 1996SOL    HW215903   3.375   3.994   1.739
 1997SOL     OW15904   4.051   4.657   2.049
 1997SOL    HW115905   4.091   4.611   2.128
 1997SOL    HW215906   4.051   4.756   2.064
 1998SOL     OW15907   1.899   3.954   0.978
 1998SOL    HW115908   1.844   3.924   0.901
 1998SOL    HW215909   1.984   3.995   0.945
 1999SOL     OW15910   2.117   6.774   1.566
 1999SOL    HW115911   2.083   6.750   1.475
 1999SOL    HW215912   2.080   6.863   1.593
 2000SOL     OW15913   3.478   0.493   1.129
 2000SOL    HW115914   3.488   0.424   1.058
 2000SOL    HW215915   3.498   0.584   1.091
 2001SOL     OW15916   0.821   2.878   1.252
 2001SOL    HW115917   0.722   2.885   1.239
 2001SOL    HW215918   0.848   2.928   1.334
 2002SOL     OW15919   2.261   3.903   0.397
 2002SOL    HW115920   2.174   3.876   0.438
 2002SOL    HW215921   2.334   3.841   0.426
 2003SOL     OW15922   2.771   0.351   0.782
 2003SOL    HW115923   2.846   0.353   0.715
 2003SOL    HW215924   2.764   0.259   0.820
 2004SOL     OW15925   3.811   8.180   1.260
 2004SOL    HW115926   3.739   8.149   1.322
 2004SOL    HW215927   3.856   8.101   1.219
 2005SOL     OW15928   1.782   7.499   1.167
 2005SOL    HW115929   1.790   7.586   1.120
 2005SOL    HW215930   1.824   7.505   1.257
 2006SOL     OW15931   9.538   5.117   2.319
 2006SOL    HW115932   9.480   5.083   2.393
 2006SOL    HW215933   9.484   5.174   2.258
 2007SOL     OW15934   2.657   5.431   2.094
 2007SOL    HW115935   2.744   5.480   2.081
 2007SOL    HW215936   2.676   5.336   2.117
 2008SOL     OW15937   4.836   2.556   1.349
 2008SOL    HW115938   4.834   2.510   1.260
 2008SOL    HW215939   4.745   2.591   1.371
 2009SOL     OW15940   2.223   4.621   1.583
 2009SOL    HW115941   2.291   4.650   1.515
 2009SOL    HW215942   2.141   4.677   1.574
 2010SOL     OW15943   5.062   2.368   1.925
 2010SOL    HW115944   4.992   2.410   1.867
 2010SOL    HW215945   5.020   2.293   1.978
 2011SOL     OW15946   2.275   0.645   1.622
 2011SOL    HW115947   2.283   0.546   1.636
 2011SOL    HW215948   2.327   0.692   1.694
 2012SOL     OW15949   3.467   0.920   2.145
 2012SOL    HW115950   3.445   0.824   2.128
 2012SOL    HW215951   3.548   0.947   2.093
 2013SOL     OW15952   0.005   4.881   1.719
 2013SOL    HW115953   9.955   4.796   1.705
 2013SOL    HW215954   0.094   4.875   1.674
 2014SOL     OW15955   2.860   7.673   2.097
 2014SOL    HW115956   2.800   7.753   2.094
 2014SOL    HW215957   2.811   7.594   2.060
 2015SOL     OW15958   1.892   4.065   0.636
 2015SOL    HW115959   1.900   4.142   0.700
 2015SOL    HW215960   1.831   3.996   0.674
 2016SOL     OW15961   2.925   6.089   1.185
 2016SOL    HW115962   2.954   6.182   1.164
 2016SOL    HW215963   2.841   6.068   1.135
 2017SOL     OW15964   0.243   3.416   0.814
 2017SOL    HW115965   0.193   3.404   0.729
 2017SOL    HW215966   0.197   3.366   0.887
 2018SOL     OW15967   9.881   5.600   0.656
 2018SOL    HW115968   9.968   5.650   0.646
 2018SOL    HW215969   9.885   5.515   0.603
 2019SOL     OW15970   3.600   8.726   0.542
 2019SOL    HW115971   3.578   8.639   0.587
 2019SOL    HW215972   3.665   8.777   0.599
 2020SOL     OW15973   2.984   3.395   2.333
 2020SOL    HW115974   3.009   3.312   2.284
 2020SOL    HW215975   3.032   3.398   2.421
 2021SOL     OW15976   3.108   8.098   1.076
 2021SOL    HW115977   3.074   8.028   1.137
 2021SOL    HW215978   3.124   8.059   0.985
 2022SOL     OW15979   2.045   7.446   2.305
 2022SOL    HW115980   2.114   7.443   2.378
 2022SOL    HW215981   2.087   7.420   2.218
 2023SOL     OW15982   2.196   5.940   0.497
 2023SOL    HW115983   2.182   5.858   0.552
 2023SOL    HW215984   2.205   5.915   0.400
 2024SOL     OW15985   1.899   9.410   0.853
 2024SOL    HW115986   1.936   9.459   0.774
 2024SOL    HW215987   1.828   9.464   0.897
 2025SOL     OW15988   3.034   2.891   2.207
 2025SOL    HW115989   2.948   2.879   2.257
 2025SOL    HW215990   3.026   2.853   2.115
 2026SOL     OW15991   2.968   9.085   0.428
 2026SOL    HW115992   2.969   9.109   0.525
 2026SOL    HW215993   3.062   9.086   0.393
 2027SOL     OW15994   4.157   2.945   0.855
 2027SOL    HW115995   4.082   3.000   0.892
 2027SOL    HW215996   4.122   2.854   0.829
 2028SOL     OW15997   1.768   1.390   1.076
 2028SOL    HW115998   1.768   1.290   1.072
 2028SOL    HW215999   1.782   1.420   1.170
 2029SOL     OW16000   4.241   0.831   2.193
 2029SOL    HW116001   4.231   0.924   2.159
 2029SOL    HW216002   4.150   0.790   2.205
 2030SOL     OW16003   4.041   4.209   1.926
 2030SOL    HW116004   4.079   4.298   1.902
 2030SOL    HW216005   4.025   4.204   2.024
 2031SOL     OW16006   3.989   4.479   1.019
 2031SOL    HW116007   4.038   4.392   1.021
 2031SOL    HW216008   3.902   4.469   1.068
 2032SOL     OW16009   2.363   4.974   1.381
 2032SOL    HW116010   2.394   4.880   1.397
 2032SOL    HW216011   2.284   4.973   1.320
 2033SOL     OW16012   0.633   3.952   1.339
 2033SOL    HW116013   0.613   3.874   1.399
 2033SOL    HW216014   0.732   3.960   1.326
 2034SOL     OW16015   1.012   3.737   0.379
 2034SOL    HW116016   0.960   3.810   0.424
 2034SOL    HW216017   0.951   3.687   0.316
 2035SOL     OW16018   1.568   6.996   0.372
 2035SOL    HW116019   1.555   7.085   0.415
 2035SOL    HW216020   1.479   6.950   0.364
 2036SOL     OW16021   4.829   1.051   2.348
 2036SOL    HW116022   4.917   1.021   2.313
 2036SOL    HW216023   4.802   1.135   2.301
 2037SOL     OW16024   4.518   3.487   0.772
 2037SOL    HW116025   4.472   3.566   0.811
 2037SOL    HW216026   4.617   3.498   0.781
 2038SOL     OW16027   9.924   3.662   1.148
 2038SOL    HW116028   9.857   3.658   1.074
 2038SOL    HW216029   9.998   3.725   1.123
 2039SOL     OW16030   1.657   2.996   0.933
 2039SOL    HW116031   1.757   3.003   0.939
 2039SOL    HW216032   1.618   3.086   0.913
 2040SOL     OW16033   2.718   7.462   1.993
 2040SOL    HW116034   2.650   7.475   1.920
 2040SOL    HW216035   2.737   7.365   2.004
 2041SOL     OW16036   2.119   7.620   1.685
 2041SOL    HW116037   2.144   7.590   1.593
 2041SOL    HW216038   2.023   7.598   1.702
 2042SOL     OW16039   2.561   0.290   1.694
 2042SOL    HW116040   2.645   0.290   1.639
 2042SOL    HW216041   2.585   0.281   1.791
 2043SOL     OW16042   2.610   3.481   1.195
 2043SOL    HW116043   2.690   3.457   1.251
 2043SOL    HW216044   2.543   3.408   1.199
 2044SOL     OW16045   2.494   0.303   2.206
 2044SOL    HW116046   2.432   0.367   2.252
 2044SOL    HW216047   2.455   0.211   2.209
 2045SOL     OW16048   1.811   2.442   1.137
 2045SOL    HW116049   1.748   2.517   1.158
 2045SOL    HW216050   1.872   2.469   1.063
 2046SOL     OW16051   4.222   8.840   1.663
 2046SOL    HW116052   4.225   8.930   1.620
 2046SOL    HW216053   4.256   8.846   1.756
 2047SOL     OW16054   0.690   2.783   0.731
 2047SOL    HW116055   0.690   2.880   0.754
 2047SOL    HW216056   0.637   2.769   0.647
 2048SOL     OW16057   2.501   2.072   2.305
 2048SOL    HW116058   2.528   1.978   2.283
 2048SOL    HW216059   2.579   2.133   2.292
 2049SOL     OW16060   9.977   5.321   0.933
 2049SOL    HW116061   9.921   5.404   0.940
 2049SOL    HW216062   0.018   5.316   0.842
 2050SOL     OW16063   4.303   9.005   2.381
 2050SOL    HW116064   4.218   9.056   2.372
 2050SOL    HW216065   4.309   8.936   2.309
 2051SOL     OW16066   3.985   7.921   0.630
 2051SOL    HW116067   4.044   7.852   0.673
 2051SOL    HW216068   3.958   7.989   0.698
 2052SOL     OW16069   3.573   7.921   0.468
 2052SOL    HW116070   3.622   7.833   0.470
 2052SOL    HW216071   3.481   7.906   0.433
 2053SOL     OW16072   0.530   3.126   2.246
 2053SOL    HW116073   0.604   3.118   2.179
 2053SOL    HW216074   0.497   3.220   2.247
 2054SOL     OW16075   2.304   5.632   1.211
 2054SOL    HW116076   2.223   5.575   1.227
 2054SOL    HW216077   2.384   5.573   1.198
 2055SOL     OW16078   1.964   4.641   0.690
 2055SOL    HW116079   1.988   4.697   0.610
 2055SOL    HW216080   2.036   4.574   0.706
 2056SOL     OW16081   3.221   2.115   1.769
 2056SOL    HW116082   3.181   2.202   1.742
 2056SOL    HW216083   3.171   2.078   1.847
 2057SOL     OW16084   3.302   1.568   1.902
 2057SOL    HW116085   3.324   1.658   1.939
 2057SOL    HW216086   3.294   1.502   1.976
 2058SOL     OW16087   3.818   2.375   1.532
 2058SOL    HW116088   3.882   2.339   1.465
 2058SOL    HW216089   3.767   2.451   1.491
 2059SOL     OW16090   4.174   8.771   0.709
 2059SOL    HW116091   4.140   8.803   0.798
 2059SOL    HW216092   4.097   8.745   0.652
 2060SOL     OW16093   3.981   9.829   1.911
 2060SOL    HW116094   4.013   9.907   1.965
 2060SOL    HW216095   4.019   9.744   1.949
 2061SOL     OW16096   2.497   9.086   1.519
 2061SOL    HW116097   2.580   9.032   1.508
 2061SOL    HW216098   2.426   9.029   1.560
 2062SOL     OW16099   2.182   7.885   1.739
 2062SOL    HW116100   2.158   7.791   1.715
 2062SOL    HW216101   2.182   7.942   1.657
 2063SOL     OW16102   0.406   5.863   1.230
 2063SOL    HW116103   0.443   5.770   1.222
 2063SOL    HW216104   0.361   5.873   1.318
 2064SOL     OW16105   2.964   4.710   0.614
 2064SOL    HW116106   2.898   4.640   0.587
 2064SOL    HW216107   3.055   4.668   0.621
 2065SOL     OW16108   0.699   6.366   0.813
 2065SOL    HW116109   0.641   6.298   0.856
 2065SOL    HW216110   0.725   6.435   0.880
 2066SOL     OW16111   0.995   4.433   0.952
 2066SOL    HW116112   0.950   4.407   0.867
 2066SOL    HW216113   0.944   4.507   0.995
 2067SOL     OW16114   5.053   3.231   0.693
 2067SOL    HW116115   5.136   3.190   0.653
 2067SOL    HW216116   5.022   3.175   0.770
 2068SOL     OW16117   0.496   5.300   1.551
 2068SOL    HW116118   0.494   5.386   1.601
 2068SOL    HW216119   0.581   5.251   1.572
 2069SOL     OW16120   4.480   3.403   0.516
 2069SOL    HW116121   4.403   3.340   0.513
 2069SOL    HW216122   4.489   3.441   0.608
 2070SOL     OW16123   1.762   1.640   1.536
 2070SOL    HW116124   1.758   1.598   1.627
 2070SOL    HW216125   1.795   1.735   1.545
 2071SOL     OW16126   1.650   6.246   1.908
 2071SOL    HW116127   1.673   6.196   1.825
 2071SOL    HW216128   1.700   6.206   1.986
 2072SOL     OW16129   1.013   5.235   1.803
 2072SOL    HW116130   1.065   5.314   1.833
 2072SOL    HW216131   0.918   5.244   1.833
 2073SOL     OW16132   2.961   0.080   1.501
 2073SOL    HW116133   3.019   0.106   1.423
 2073SOL    HW216134   2.911   0.160   1.533
 2074SOL     OW16135   1.971   6.081   1.748
 2074SOL    HW116136   2.030   6.083   1.668
 2074SOL    HW216137   1.965   5.987   1.782
 2075SOL     OW16138   4.855   3.289   1.482
 2075SOL    HW116139   4.792   3.347   1.430
 2075SOL    HW216140   4.825   3.194   1.477
 2076SOL     OW16141   9.882   3.260   0.581
 2076SOL    HW116142   9.881   3.254   0.681
 2076SOL    HW216143   9.799   3.307   0.550
 2077SOL     OW16144   1.765   4.454   0.654
 2077SOL    HW116145   1.740   4.435   0.559
 2077SOL    HW216146   1.828   4.531   0.658
 2078SOL     OW16147   3.587   8.138   1.418
 2078SOL    HW116148   3.519   8.065   1.429
 2078SOL    HW216149   3.555   8.219   1.467
 2079SOL     OW16150   4.582   0.814   1.189
 2079SOL    HW116151   4.606   0.739   1.129
 2079SOL    HW216152   4.556   0.778   1.279
 2080SOL     OW16153   1.876   9.309   1.258
 2080SOL    HW116154   1.845   9.341   1.347
 2080SOL    HW216155   1.976   9.305   1.257
 2081SOL     OW16156   5.156   3.425   2.253
 2081SOL    HW116157   5.159   3.469   2.343
 2081SOL    HW216158   5.073   3.370   2.246
 2082SOL     OW16159   1.108   5.659   0.984
 2082SOL    HW116160   1.060   5.573   1.004
 2082SOL    HW216161   1.064   5.704   0.907
 2083SOL     OW16162   3.246   6.036   1.162
 2083SOL    HW116163   3.221   6.120   1.210
 2083SOL    HW216164   3.277   5.968   1.228
 2084SOL     OW16165   3.317   4.748   1.960
 2084SOL    HW116166   3.305   4.663   1.909
 2084SOL    HW216167   3.414   4.773   1.960
 2085SOL     OW16168   4.216   5.223   0.431
 2085SOL    HW116169   4.142   5.205   0.496
 2085SOL    HW216170   4.178   5.229   0.339
 2086SOL     OW16171   4.116   1.455   0.902
 2086SOL    HW116172   4.106   1.368   0.854
 2086SOL    HW216173   4.119   1.439   1.001
 2087SOL     OW16174   5.273   3.188   1.851
 2087SOL    HW116175   5.308   3.243   1.927
 2087SOL    HW216176   5.334   3.198   1.772
 2088SOL     OW16177   1.821   8.885   1.856
 2088SOL    HW116178   1.914   8.856   1.834
 2088SOL    HW216179   1.812   8.983   1.839
 2089SOL     OW16180   4.729   3.002   0.755
 2089SOL    HW116181   4.713   3.089   0.709
 2089SOL    HW216182   4.812   2.960   0.720
 2090SOL     OW16183   2.433   6.779   1.909
 2090SOL    HW116184   2.418   6.716   1.985
 2090SOL    HW216185   2.398   6.738   1.825
 2091SOL     OW16186   3.230   2.342   2.244
 2091SOL    HW116187   3.262   2.270   2.182
 2091SOL    HW216188   3.308   2.382   2.292
 2092SOL     OW16189   4.213   4.695   0.960
 2092SOL    HW116190   4.137   4.745   1.003
 2092SOL    HW216191   4.203   4.598   0.978
 2093SOL     OW16192   1.588   6.447   0.642
 2093SOL    HW116193   1.646   6.515   0.688
 2093SOL    HW216194   1.602   6.453   0.543
 2094SOL     OW16195   9.618   3.819   1.115
 2094SOL    HW116196   9.658   3.755   1.050
 2094SOL    HW216197   9.519   3.806   1.120
 2095SOL     OW16198   0.409   4.968   2.133
 2095SOL    HW116199   0.458   5.051   2.108
 2095SOL    HW216200   0.467   4.910   2.190
 2096SOL     OW16201   1.948   5.058   1.588
 2096SOL    HW116202   1.977   5.144   1.547
 2096SOL    HW216203   1.851   5.042   1.569
 2097SOL     OW16204   3.884   3.610   1.224
 2097SOL    HW116205   3.838   3.524   1.201
 2097SOL    HW216206   3.894   3.666   1.142
 2098SOL     OW16207   9.861   4.895   1.276
 2098SOL    HW116208   9.803   4.840   1.335
 2098SOL    HW216209   9.926   4.947   1.332
 2099SOL     OW16210   2.725   1.709   1.613
 2099SOL    HW116211   2.739   1.804   1.587
 2099SOL    HW216212   2.645   1.673   1.564
 2100SOL     OW16213   3.712   8.287   0.791
 2100SOL    HW116214   3.694   8.296   0.889
 2100SOL    HW216215   3.653   8.216   0.754
 2101SOL     OW16216   3.810   4.227   0.475
 2101SOL    HW116217   3.822   4.282   0.557
 2101SOL    HW216218   3.871   4.261   0.403
 2102SOL     OW16219   1.206   6.927   1.389
 2102SOL    HW116220   1.258   6.859   1.337
 2102SOL    HW216221   1.163   6.991   1.326
 2103SOL     OW16222   2.311   3.016   1.167
 2103SOL    HW116223   2.258   3.062   1.095
 2103SOL    HW216224   2.289   2.918   1.166
 2104SOL     OW16225   3.147   3.898   0.456
 2104SOL    HW116226   3.155   3.871   0.552
 2104SOL    HW216227   3.132   3.817   0.399
 2105SOL     OW16228   9.841   3.385   1.448
 2105SOL    HW116229   9.749   3.359   1.479
 2105SOL    HW216230   9.907   3.362   1.520
 2106SOL     OW16231   2.484   3.841   2.252
 2106SOL    HW116232   2.467   3.923   2.197
 2106SOL    HW216233   2.573   3.849   2.296
 2107SOL     OW16234   0.934   3.598   2.067
 2107SOL    HW116235   0.884   3.516   2.093
 2107SOL    HW216236   1.030   3.575   2.050
 2108SOL     OW16237   1.709   4.419   1.579
 2108SOL    HW116238   1.736   4.360   1.655
 2108SOL    HW216239   1.717   4.370   1.493
 2109SOL     OW16240   1.746   3.624   0.655
 2109SOL    HW116241   1.773   3.647   0.561
 2109SOL    HW216242   1.735   3.524   0.663
 2110SOL     OW16243   1.011   4.967   1.762
 2110SOL    HW116244   0.919   4.934   1.780
 2110SOL    HW216245   1.016   5.065   1.783
 2111SOL     OW16246   4.001   5.182   0.842
 2111SOL    HW116247   4.054   5.130   0.909
 2111SOL    HW216248   3.991   5.277   0.873
 2112SOL     OW16249   1.779   7.494   1.969
 2112SOL    HW116250   1.776   7.507   2.068
 2112SOL    HW216251   1.687   7.501   1.932
 2113SOL     OW16252   4.964   3.806   1.465
 2113SOL    HW116253   4.927   3.734   1.407
 2113SOL    HW216254   4.923   3.894   1.440
 2114SOL     OW16255   1.040   4.787   2.392
 2114SOL    HW116256   1.049   4.827   2.301
 2114SOL    HW216257   1.120   4.810   2.447
 2115SOL     OW16258   0.825   4.688   2.246
 2115SOL    HW116259   0.731   4.710   2.271
 2115SOL    HW216260   0.886   4.707   2.323
 2116SOL     OW16261   4.215   1.683   1.936
 2116SOL    HW116262   4.157   1.634   2.001
 2116SOL    HW216263   4.214   1.780   1.958
 2117SOL     OW16264   1.377   4.450   1.177
 2117SOL    HW116265   1.387   4.378   1.246
 2117SOL    HW216266   1.335   4.411   1.095
 2118SOL     OW16267   4.842   1.037   1.693
 2118SOL    HW116268   4.797   1.117   1.653
 2118SOL    HW216269   4.791   0.955   1.669
 2119SOL     OW16270   2.693   0.860   1.361
 2119SOL    HW116271   2.748   0.941   1.343
 2119SOL    HW216272   2.736   0.806   1.434
 2120SOL     OW16273   9.880   4.080   1.859
 2120SOL    HW116274   9.876   4.069   1.959
 2120SOL    HW216275   9.880   4.177   1.836
 2121SOL     OW16276   2.479   9.362   1.880
 2121SOL    HW116277   2.471   9.441   1.820
 2121SOL    HW216278   2.400   9.302   1.866
 2122SOL     OW16279   4.296   4.662   1.485
 2122SOL    HW116280   4.271   4.579   1.535
 2122SOL    HW216281   4.281   4.742   1.543
 2123SOL     OW16282   2.881   1.423   0.544
 2123SOL    HW116283   2.925   1.334   0.535
 2123SOL    HW216284   2.843   1.433   0.636
 2124SOL     OW16285   0.951   5.558   1.979
 2124SOL    HW116286   1.037   5.526   1.939
 2124SOL    HW216287   0.957   5.657   1.995
 2125SOL     OW16288   3.203   3.479   1.416
 2125SOL    HW116289   3.273   3.410   1.399
 2125SOL    HW216290   3.231   3.536   1.493
 2126SOL     OW16291   1.892   3.389   0.453
 2126SOL    HW116292   1.926   3.303   0.415
 2126SOL    HW216293   1.833   3.370   0.531
 2127SOL     OW16294   2.833   2.431   2.097
 2127SOL    HW116295   2.771   2.468   2.028
 2127SOL    HW216296   2.786   2.361   2.150
 2128SOL     OW16297   4.284   0.795   1.577
 2128SOL    HW116298   4.288   0.807   1.676
 2128SOL    HW216299   4.280   0.885   1.533
 2129SOL     OW16300   1.442   4.477   1.626
 2129SOL    HW116301   1.540   4.476   1.607
 2129SOL    HW216302   1.419   4.559   1.677
 2130SOL     OW16303   1.775   4.880   1.292
 2130SOL    HW116304   1.851   4.815   1.304
 2130SOL    HW216305   1.718   4.850   1.216
 2131SOL     OW16306   2.966   8.605   1.696
 2131SOL    HW116307   3.054   8.610   1.744
 2131SOL    HW216308   2.982   8.585   1.599
 2132SOL     OW16309   5.324   1.941   0.671
 2132SOL    HW116310   5.324   1.988   0.582
 2132SOL    HW216311   5.351   1.846   0.658
 2133SOL     OW16312   3.596   9.052   0.835
 2133SOL    HW116313   3.590   8.979   0.903
 2133SOL    HW216314   3.506   9.092   0.821
 2134SOL     OW16315   2.406   5.224   2.240
 2134SOL    HW116316   2.387   5.312   2.284
 2134SOL    HW216317   2.335   5.158   2.265
 2135SOL     OW16318   2.347   7.792   1.942
 2135SOL    HW116319   2.291   7.842   1.877
 2135SOL    HW216320   2.363   7.699   1.908
 2136SOL     OW16321   0.925   2.937   2.156
 2136SOL    HW116322   0.861   2.905   2.225
 2136SOL    HW216323   1.019   2.932   2.191
 2137SOL     OW16324   4.705   3.412   0.352
 2137SOL    HW116325   4.699   3.355   0.270
 2137SOL    HW216326   4.619   3.405   0.404
 2138SOL     OW16327   3.723   2.471   2.222
 2138SOL    HW116328   3.645   2.410   2.234
 2138SOL    HW216329   3.807   2.417   2.214
 2139SOL     OW16330   1.370   5.006   0.468
 2139SOL    HW116331   1.301   4.944   0.430
 2139SOL    HW216332   1.351   5.022   0.565
 2140SOL     OW16333   3.179   8.777   0.799
 2140SOL    HW116334   3.212   8.702   0.742
 2140SOL    HW216335   3.213   8.765   0.893
 2141SOL     OW16336   3.160   2.936   0.795
 2141SOL    HW116337   3.125   2.844   0.775
 2141SOL    HW216338   3.233   2.958   0.730
 2142SOL     OW16339   1.836   8.173   1.936
 2142SOL    HW116340   1.887   8.231   1.873
 2142SOL    HW216341   1.884   8.086   1.949
 2143SOL     OW16342   1.271   4.876   2.075
 2143SOL    HW116343   1.298   4.968   2.047
 2143SOL    HW216344   1.172   4.873   2.087
 2144SOL     OW16345   4.181   2.459   1.477
 2144SOL    HW116346   4.142   2.546   1.506
 2144SOL    HW216347   4.111   2.405   1.430
 2145SOL     OW16348   2.608   9.698   2.041
 2145SOL    HW116349   2.579   9.611   2.081
 2145SOL    HW216350   2.533   9.738   1.989
 2146SOL     OW16351   3.039   4.424   1.236
 2146SOL    HW116352   3.061   4.515   1.201
 2146SOL    HW216353   3.122   4.379   1.268
 2147SOL     OW16354   4.184   2.974   1.176
 2147SOL    HW116355   4.184   2.878   1.150
 2147SOL    HW216356   4.114   2.990   1.245
 2148SOL     OW16357   2.791   2.287   1.106
 2148SOL    HW116358   2.856   2.357   1.136
 2148SOL    HW216359   2.707   2.296   1.159
 2149SOL     OW16360   3.480   1.744   1.505
 2149SOL    HW116361   3.515   1.668   1.450
 2149SOL    HW216362   3.431   1.809   1.446
 2150SOL     OW16363   3.504   3.674   1.434
 2150SOL    HW116364   3.463   3.750   1.384
 2150SOL    HW216365   3.601   3.692   1.448
 2151SOL     OW16366   2.818   5.261   1.708
 2151SOL    HW116367   2.783   5.169   1.728
 2151SOL    HW216368   2.746   5.328   1.722
 2152SOL     OW16369   5.571   2.757   0.595
 2152SOL    HW116370   5.660   2.739   0.637
 2152SOL    HW216371   5.503   2.693   0.631
 2153SOL     OW16372   3.127   1.555   1.087
 2153SOL    HW116373   3.108   1.560   1.184
 2153SOL    HW216374   3.042   1.566   1.035
 2154SOL     OW16375   3.051   9.241   1.656
 2154SOL    HW116376   3.018   9.319   1.710
 2154SOL    HW216377   2.979   9.211   1.594
 2155SOL     OW16378   2.431   0.149   0.658
 2155SOL    HW116379   2.445   0.239   0.616
 2155SOL    HW216380   2.443   0.155   0.757
 2156SOL     OW16381   2.316   1.997   0.825
 2156SOL    HW116382   2.251   2.061   0.865
 2156SOL    HW216383   2.396   1.990   0.885
 2157SOL     OW16384   1.940   7.835   0.833
 2157SOL    HW116385   2.021   7.778   0.848
 2157SOL    HW216386   1.907   7.822   0.739
 2158SOL     OW16387   3.655   3.204   2.130
 2158SOL    HW116388   3.654   3.303   2.141
 2158SOL    HW216389   3.613   3.180   2.042
 2159SOL     OW16390   2.576   2.749   0.645
 2159SOL    HW116391   2.543   2.820   0.583
 2159SOL    HW216392   2.518   2.746   0.727
 2160SOL     OW16393   4.223   0.778   0.519
 2160SOL    HW116394   4.144   0.716   0.517
 2160SOL    HW216395   4.239   0.809   0.612
 2161SOL     OW16396   2.891   0.261   1.127
 2161SOL    HW116397   2.957   0.220   1.189
 2161SOL    HW216398   2.835   0.328   1.177
 2162SOL     OW16399   0.471   5.288   0.625
 2162SOL    HW116400   0.441   5.297   0.720
 2162SOL    HW216401   0.407   5.229   0.575
 2163SOL     OW16402   1.345   2.597   0.678
 2163SOL    HW116403   1.354   2.588   0.579
 2163SOL    HW216404   1.407   2.533   0.723
 2164SOL     OW16405   2.021   3.664   0.735
 2164SOL    HW116406   1.921   3.654   0.736
 2164SOL    HW216407   2.064   3.576   0.753
 2165SOL     OW16408   1.981   8.311   1.752
 2165SOL    HW116409   1.974   8.405   1.785
 2165SOL    HW216410   2.076   8.292   1.728
 2166SOL     OW16411   3.093   8.573   1.453
 2166SOL    HW116412   3.152   8.504   1.495
 2166SOL    HW216413   3.147   8.657   1.439
 2167SOL     OW16414   2.956   7.809   0.697
 2167SOL    HW116415   2.898   7.813   0.615
 2167SOL    HW216416   2.902   7.775   0.774
 2168SOL     OW16417   4.569   8.705   0.947
 2168SOL    HW116418   4.536   8.640   1.016
 2168SOL    HW216419   4.521   8.689   0.861
 2169SOL     OW16420   2.427   6.150   2.356
 2169SOL    HW116421   2.526   6.154   2.350
 2169SOL    HW216422   2.388   6.224   2.300
 2170SOL     OW16423   2.953   0.358   2.093
 2170SOL    HW116424   3.051   0.344   2.106
 2170SOL    HW216425   2.936   0.381   1.997
 2171SOL     OW16426   1.650   7.745   1.367
 2171SOL    HW116427   1.658   7.685   1.288
 2171SOL    HW216428   1.637   7.840   1.336
 2172SOL     OW16429   2.661   4.613   1.515
 2172SOL    HW116430   2.747   4.570   1.487
 2172SOL    HW216431   2.630   4.571   1.601
 2173SOL     OW16432   4.144   1.371   1.843
 2173SOL    HW116433   4.160   1.352   1.940
 2173SOL    HW216434   4.223   1.417   1.804
 2174SOL     OW16435   2.948   9.455   1.799
 2174SOL    HW116436   2.884   9.531   1.809
 2174SOL    HW216437   3.042   9.489   1.799
 2175SOL     OW16438   1.582   2.778   0.412
 2175SOL    HW116439   1.652   2.730   0.464
 2175SOL    HW216440   1.625   2.846   0.352
 2176SOL     OW16441   3.816   9.515   2.021
 2176SOL    HW116442   3.776   9.424   2.006
 2176SOL    HW216443   3.767   9.583   1.966
 2177SOL     OW16444   0.333   6.048   1.047
 2177SOL    HW116445   0.243   6.084   1.069
 2177SOL    HW216446   0.360   5.981   1.117
 2178SOL     OW16447   2.644   5.675   1.457
 2178SOL    HW116448   2.736   5.660   1.493
 2178SOL    HW216449   2.594   5.589   1.456
 2179SOL     OW16450   3.042   9.562   0.382
 2179SOL    HW116451   3.114   9.522   0.439
 2179SOL    HW216452   3.061   9.660   0.370
 2180SOL     OW16453   0.120   5.010   0.621
 2180SOL    HW116454   0.132   4.918   0.658
 2180SOL    HW216455   0.047   5.010   0.553
 2181SOL     OW16456   3.148   5.451   2.318
 2181SOL    HW116457   3.093   5.442   2.401
 2181SOL    HW216458   3.182   5.361   2.291
 2182SOL     OW16459   4.282   2.044   1.081
 2182SOL    HW116460   4.284   1.988   1.164
 2182SOL    HW216461   4.365   2.100   1.077
 2183SOL     OW16462   1.590   7.012   0.998
 2183SOL    HW116463   1.587   6.950   1.076
 2183SOL    HW216464   1.613   7.104   1.030
 2184SOL     OW16465   5.129   3.580   2.021
 2184SOL    HW116466   5.145   3.524   2.102
 2184SOL    HW216467   5.161   3.673   2.038
 2185SOL     OW16468   9.633   5.153   1.864
 2185SOL    HW116469   9.692   5.198   1.931
 2185SOL    HW216470   9.665   5.173   1.772
 2186SOL     OW16471   1.316   3.952   1.938
 2186SOL    HW116472   1.410   3.919   1.925
 2186SOL    HW216473   1.318   4.049   1.961
 2187SOL     OW16474   4.308   8.856   1.380
 2187SOL    HW116475   4.305   8.794   1.459
 2187SOL    HW216476   4.285   8.948   1.410
 2188SOL     OW16477   1.515   4.018   0.721
 2188SOL    HW116478   1.418   3.998   0.710
 2188SOL    HW216479   1.554   4.047   0.634
 2189SOL     OW16480   2.856   4.186   0.833
 2189SOL    HW116481   2.950   4.197   0.866
 2189SOL    HW216482   2.799   4.260   0.870
 2190SOL     OW16483   1.436   4.681   0.705
 2190SOL    HW116484   1.350   4.720   0.738
 2190SOL    HW216485   1.464   4.607   0.766
 2191SOL     OW16486   3.745   3.367   1.181
 2191SOL    HW116487   3.703   3.333   1.096
 2191SOL    HW216488   3.801   3.294   1.221
 2192SOL     OW16489   0.538   4.754   2.273
 2192SOL    HW116490   0.547   4.694   2.194
 2192SOL    HW216491   0.480   4.709   2.342
 2193SOL     OW16492   2.618   8.283   1.792
 2193SOL    HW116493   2.621   8.286   1.892
 2193SOL    HW216494   2.637   8.375   1.756
 2194SOL     OW16495   3.745   4.102   0.831
 2194SOL    HW116496   3.727   4.200   0.844
 2194SOL    HW216497   3.821   4.091   0.767
 2195SOL     OW16498   9.093   4.675   1.108
 2195SOL    HW116499   9.063   4.739   1.038
 2195SOL    HW216500   9.183   4.701   1.142
 2196SOL     OW16501   3.480   9.874   1.888
 2196SOL    HW116502   3.448   9.943   1.823
 2196SOL    HW216503   3.443   9.894   1.979
 2197SOL     OW16504   2.356   2.958   2.214
 2197SOL    HW116505   2.325   2.992   2.125
 2197SOL    HW216506   2.284   2.901   2.254
 2198SOL     OW16507   2.956   9.166   0.690
 2198SOL    HW116508   2.945   9.262   0.662
 2198SOL    HW216509   2.893   9.147   0.766
 2199SOL     OW16510   2.077   1.589   1.320
 2199SOL    HW116511   2.100   1.584   1.417
 2199SOL    HW216512   2.123   1.668   1.279
 2200SOL     OW16513   1.138   6.298   0.727
 2200SOL    HW116514   1.236   6.318   0.738
 2200SOL    HW216515   1.109   6.236   0.800
 2201SOL     OW16516   0.264   4.758   1.172
 2201SOL    HW116517   0.267   4.712   1.261
 2201SOL    HW216518   0.357   4.774   1.139
 2202SOL     OW16519   1.535   1.827   0.559
 2202SOL    HW116520   1.467   1.866   0.621
 2202SOL    HW216521   1.564   1.896   0.493
 2203SOL     OW16522   2.800   2.886   1.073
 2203SOL    HW116523   2.807   2.871   0.974
 2203SOL    HW216524   2.850   2.968   1.098
 2204SOL     OW16525   2.578   6.294   1.125
 2204SOL    HW116526   2.539   6.245   1.203
 2204SOL    HW216527   2.528   6.379   1.111
 2205SOL     OW16528   2.294   6.534   1.326
 2205SOL    HW116529   2.334   6.537   1.234
 2205SOL    HW216530   2.357   6.487   1.388
 2206SOL     OW16531   3.507   4.509   0.715
 2206SOL    HW116532   3.496   4.440   0.643
 2206SOL    HW216533   3.417   4.543   0.742
 2207SOL     OW16534   1.417   5.706   0.473
 2207SOL    HW116535   1.505   5.697   0.519
 2207SOL    HW216536   1.409   5.797   0.433
 2208SOL     OW16537   0.099   4.877   0.994
 2208SOL    HW116538   0.157   4.824   1.057
 2208SOL    HW216539   0.106   4.974   1.016
 2209SOL     OW16540   1.440   7.256   2.093
 2209SOL    HW116541   1.483   7.177   2.051
 2209SOL    HW216542   1.500   7.295   2.163
 2210SOL     OW16543   2.902   6.737   1.008
 2210SOL    HW116544   2.845   6.680   0.948
 2210SOL    HW216545   2.904   6.697   1.099
 2211SOL     OW16546   3.194   7.927   2.235
 2211SOL    HW116547   3.167   7.848   2.179
 2211SOL    HW216548   3.247   7.991   2.179
 2212SOL     OW16549   3.077   8.477   2.129
 2212SOL    HW116550   3.128   8.420   2.193
 2212SOL    HW216551   3.126   8.562   2.113
 2213SOL     OW16552   1.560   7.813   1.838
 2213SOL    HW116553   1.549   7.906   1.801
 2213SOL    HW216554   1.512   7.807   1.926
 2214SOL     OW16555   9.884   3.269   0.852
 2214SOL    HW116556   9.812   3.300   0.914
 2214SOL    HW216557   9.970   3.260   0.903
 2215SOL     OW16558   5.266   2.743   0.891
 2215SOL    HW116559   5.174   2.708   0.907
 2215SOL    HW216560   5.304   2.777   0.977
 2216SOL     OW16561   1.672   3.744   1.356
 2216SOL    HW116562   1.593   3.803   1.373
 2216SOL    HW216563   1.642   3.649   1.348
 2217SOL     OW16564   1.911   0.279   1.574
 2217SOL    HW116565   1.915   0.278   1.674
 2217SOL    HW216566   1.918   0.374   1.542
 2218SOL     OW16567   0.038   4.421   1.623
 2218SOL    HW116568   0.025   4.364   1.542
 2218SOL    HW216569   0.134   4.417   1.651
 2219SOL     OW16570   2.407   9.798   1.887
 2219SOL    HW116571   2.311   9.773   1.883
 2219SOL    HW216572   2.416   9.897   1.893
 2220SOL     OW16573   2.000   0.076   1.398
 2220SOL    HW116574   1.977   0.151   1.461
 2220SOL    HW216575   1.967   9.990   1.435
 2221SOL     OW16576   3.076   3.853   2.147
 2221SOL    HW116577   3.044   3.759   2.148
 2221SOL    HW216578   3.017   3.909   2.206
 2222SOL     OW16579   2.419   8.104   1.372
 2222SOL    HW116580   2.424   8.183   1.310
 2222SOL    HW216581   2.421   8.136   1.467
 2223SOL     OW16582   3.133   4.998   0.737
 2223SOL    HW116583   3.037   4.973   0.749
 2223SOL    HW216584   3.140   5.068   0.666
 2224SOL     OW16585   3.616   9.078   1.856
 2224SOL    HW116586   3.674   9.129   1.920
 2224SOL    HW216587   3.609   9.128   1.770
 2225SOL     OW16588   5.347   3.893   0.809
 2225SOL    HW116589   5.417   3.826   0.782
 2225SOL    HW216590   5.278   3.899   0.737
 2226SOL     OW16591   1.951   1.412   2.032
 2226SOL    HW116592   1.879   1.354   1.993
 2226SOL    HW216593   1.999   1.458   1.958
 2227SOL     OW16594   4.129   9.460   0.671
 2227SOL    HW116595   4.112   9.551   0.709
 2227SOL    HW216596   4.093   9.456   0.578
 2228SOL     OW16597   3.967   2.857   0.487
 2228SOL    HW116598   3.887   2.837   0.544
 2228SOL    HW216599   3.938   2.884   0.396
 2229SOL     OW16600   2.237   3.786   1.165
 2229SOL    HW116601   2.248   3.841   1.082
 2229SOL    HW216602   2.327   3.762   1.201
 2230SOL     OW16603   2.231   7.076   1.448
 2230SOL    HW116604   2.185   7.028   1.373
 2230SOL    HW216605   2.169   7.081   1.527
 2231SOL     OW16606   3.045   0.961   1.409
 2231SOL    HW116607   2.960   1.009   1.387
 2231SOL    HW216608   3.047   0.942   1.508
 2232SOL     OW16609   1.709   4.394   0.388
 2232SOL    HW116610   1.734   4.490   0.373
 2232SOL    HW216611   1.791   4.337   0.380
 2233SOL     OW16612   3.364   2.970   0.619
 2233SOL    HW116613   3.381   3.063   0.588
 2233SOL    HW216614   3.359   2.909   0.540
 2234SOL     OW16615   2.867   3.291   0.925
 2234SOL    HW116616   2.768   3.277   0.924
 2234SOL    HW216617   2.887   3.389   0.936
 2235SOL     OW16618   1.687   8.415   0.933
 2235SOL    HW116619   1.620   8.361   0.883
 2235SOL    HW216620   1.685   8.509   0.899
 2236SOL     OW16621   1.930   0.551   1.554
 2236SOL    HW116622   1.977   0.630   1.515
 2236SOL    HW216623   1.904   0.571   1.648
 2237SOL     OW16624   4.604   2.642   0.964
 2237SOL    HW116625   4.668   2.640   0.887
 2237SOL    HW216626   4.537   2.715   0.948
 2238SOL     OW16627   2.850   3.576   0.397
 2238SOL    HW116628   2.799   3.552   0.314
 2238SOL    HW216629   2.804   3.651   0.444
 2239SOL     OW16630   9.911   5.039   1.517
 2239SOL    HW116631   9.944   4.987   1.596
 2239SOL    HW216632   9.817   5.069   1.535
 2240SOL     OW16633   3.822   9.382   1.499
 2240SOL    HW116634   3.898   9.317   1.502
 2240SOL    HW216635   3.856   9.474   1.521
 2241SOL     OW16636   9.789   3.625   0.684
 2241SOL    HW116637   9.879   3.622   0.642
 2241SOL    HW216638   9.731   3.555   0.643
 2242SOL     OW16639   2.977   6.706   1.514
 2242SOL    HW116640   3.055   6.693   1.575
 2242SOL    HW216641   2.962   6.804   1.500
 2243SOL     OW16642   2.651   6.994   0.987
 2243SOL    HW116643   2.726   6.976   0.923
 2243SOL    HW216644   2.682   6.973   1.080
 2244SOL     OW16645   4.978   2.143   0.860
 2244SOL    HW116646   5.035   2.061   0.857
 2244SOL    HW216647   4.887   2.120   0.894
 2245SOL     OW16648   0.300   4.305   2.064
 2245SOL    HW116649   0.221   4.360   2.039
 2245SOL    HW216650   0.375   4.323   2.001
 2246SOL     OW16651   1.913   1.732   0.463
 2246SOL    HW116652   1.835   1.686   0.505
 2246SOL    HW216653   1.970   1.664   0.416
 2247SOL     OW16654   3.890   3.122   1.229
 2247SOL    HW116655   3.828   3.043   1.230
 2247SOL    HW216656   3.947   3.121   1.310
 2248SOL     OW16657   3.346   3.401   2.305
 2248SOL    HW116658   3.324   3.438   2.215
 2248SOL    HW216659   3.420   3.455   2.346
 2249SOL     OW16660   9.788   5.771   2.141
 2249SOL    HW116661   9.740   5.685   2.163
 2249SOL    HW216662   9.826   5.766   2.049
 2250SOL     OW16663   4.401   1.497   1.853
 2250SOL    HW116664   4.337   1.568   1.879
 2250SOL    HW216665   4.492   1.517   1.891
 2251SOL     OW16666   3.579   4.848   1.980
 2251SOL    HW116667   3.593   4.871   1.884
 2251SOL    HW216668   3.654   4.789   2.011
 2252SOL     OW16669   2.535   2.812   1.435
 2252SOL    HW116670   2.605   2.871   1.474
 2252SOL    HW216671   2.446   2.836   1.473
 2253SOL     OW16672   1.751   5.565   0.337
 2253SOL    HW116673   1.738   5.607   0.247
 2253SOL    HW216674   1.845   5.582   0.368
 2254SOL     OW16675   2.173   8.241   0.747
 2254SOL    HW116676   2.082   8.200   0.754
 2254SOL    HW216677   2.215   8.214   0.660
 2255SOL     OW16678   4.723   2.372   0.682
 2255SOL    HW116679   4.746   2.463   0.717
 2255SOL    HW216680   4.650   2.332   0.737
 2256SOL     OW16681   2.788   6.951   0.749
 2256SOL    HW116682   2.877   6.906   0.752
 2256SOL    HW216683   2.720   6.889   0.709
 2257SOL     OW16684   2.484   1.411   1.837
 2257SOL    HW116685   2.398   1.360   1.830
 2257SOL    HW216686   2.463   1.509   1.846
 2258SOL     OW16687   0.617   6.390   1.188
 2258SOL    HW116688   0.639   6.415   1.282
 2258SOL    HW216689   0.674   6.444   1.126
 2259SOL     OW16690   3.292   8.016   1.331
 2259SOL    HW116691   3.271   8.089   1.396
 2259SOL    HW216692   3.208   7.971   1.302
 2260SOL     OW16693   2.369   9.148   0.639
 2260SOL    HW116694   2.331   9.227   0.590
 2260SOL    HW216695   2.454   9.175   0.685
 2261SOL     OW16696   3.045   3.558   1.046
 2261SOL    HW116697   3.009   3.536   1.136
 2261SOL    HW216698   3.049   3.658   1.035
 2262SOL     OW16699   2.383   5.191   0.893
 2262SOL    HW116700   2.443   5.139   0.954
 2262SOL    HW216701   2.422   5.281   0.876
 2263SOL     OW16702   1.742   3.876   0.768
 2263SOL    HW116703   1.653   3.920   0.760
 2263SOL    HW216704   1.737   3.783   0.733
 2264SOL     OW16705   1.259   6.981   1.915
 2264SOL    HW116706   1.201   7.062   1.901
 2264SOL    HW216707   1.355   7.008   1.916
 2265SOL     OW16708   2.067   6.945   1.272
 2265SOL    HW116709   1.980   6.987   1.296
 2265SOL    HW216710   2.057   6.846   1.271
 2266SOL     OW16711   1.249   4.000   0.665
 2266SOL    HW116712   1.183   4.020   0.738
 2266SOL    HW216713   1.207   4.017   0.576
 2267SOL     OW16714   1.032   2.872   1.075
 2267SOL    HW116715   0.994   2.895   0.986
 2267SOL    HW216716   0.959   2.867   1.143
 2268SOL     OW16717   4.447   0.647   0.430
 2268SOL    HW116718   4.366   0.701   0.454
 2268SOL    HW216719   4.467   0.657   0.333
 2269SOL     OW16720   3.010   9.061   2.232
 2269SOL    HW116721   2.931   9.121   2.221
 2269SOL    HW216722   3.050   9.074   2.322
 2270SOL     OW16723   4.475   9.178   1.199
 2270SOL    HW116724   4.418   9.197   1.119
 2270SOL    HW216725   4.549   9.116   1.173
 2271SOL     OW16726   4.125   3.727   1.577
 2271SOL    HW116727   4.048   3.791   1.585
 2271SOL    HW216728   4.106   3.645   1.630
 2272SOL     OW16729   1.875   2.369   1.401
 2272SOL    HW116730   1.812   2.305   1.445
 2272SOL    HW216731   1.843   2.389   1.308
 2273SOL     OW16732   0.015   4.275   1.398
 2273SOL    HW116733   0.062   4.343   1.342
 2273SOL    HW216734   9.946   4.228   1.343
 2274SOL     OW16735   3.206   8.980   2.055
 2274SOL    HW116736   3.212   9.040   1.975
 2274SOL    HW216737   3.137   9.014   2.118
 2275SOL     OW16738   0.848   3.310   1.477
 2275SOL    HW116739   0.882   3.387   1.530
 2275SOL    HW216740   0.748   3.315   1.472
 2276SOL     OW16741   3.218   8.707   2.088
 2276SOL    HW116742   3.287   8.698   2.159
 2276SOL    HW216743   3.203   8.803   2.067
 2277SOL     OW16744   2.735   3.859   2.357
 2277SOL    HW116745   2.796   3.927   2.317
 2277SOL    HW216746   2.780   3.818   2.437
 2278SOL     OW16747   3.347   1.917   0.762
 2278SOL    HW116748   3.421   1.895   0.699
 2278SOL    HW216749   3.265   1.865   0.737
 2279SOL     OW16750   1.897   9.832   1.500
 2279SOL    HW116751   1.847   9.761   1.450
 2279SOL    HW216752   1.846   9.857   1.582
 2280SOL     OW16753   0.283   4.610   1.404
 2280SOL    HW116754   0.216   4.550   1.359
 2280SOL    HW216755   0.366   4.558   1.423
 2281SOL     OW16756   3.421   2.621   1.018
 2281SOL    HW116757   3.397   2.535   0.974
 2281SOL    HW216758   3.343   2.654   1.072
 2282SOL     OW16759   3.904   8.465   0.703
 2282SOL    HW116760   3.980   8.404   0.678
 2282SOL    HW216761   3.827   8.410   0.735
 2283SOL     OW16762   2.588   4.478   1.748
 2283SOL    HW116763   2.565   4.391   1.705
 2283SOL    HW216764   2.528   4.493   1.827
 2284SOL     OW16765   4.327   8.370   0.644
 2284SOL    HW116766   4.234   8.333   0.646
 2284SOL    HW216767   4.364   8.363   0.551
 2285SOL     OW16768   4.717   1.905   2.309
 2285SOL    HW116769   4.652   1.841   2.268
 2285SOL    HW216770   4.675   1.996   2.314
 2286SOL     OW16771   2.635   8.145   0.487
 2286SOL    HW116772   2.570   8.213   0.454
 2286SOL    HW216773   2.584   8.068   0.527
 2287SOL     OW16774   3.189   4.330   0.513
 2287SOL    HW116775   3.100   4.335   0.468
 2287SOL    HW216776   3.190   4.252   0.576
 2288SOL     OW16777   9.715   3.373   1.053
 2288SOL    HW116778   9.637   3.363   1.115
 2288SOL    HW216779   9.800   3.370   1.106
 2289SOL     OW16780   1.483   6.071   0.885
 2289SOL    HW116781   1.416   6.066   0.959
 2289SOL    HW216782   1.570   6.032   0.917
 2290SOL     OW16783   2.761   9.954   1.355
 2290SOL    HW116784   2.689   9.924   1.417
 2290SOL    HW216785   2.841   9.981   1.408
 2291SOL     OW16786   3.030   4.964   1.157
 2291SOL    HW116787   3.108   4.985   1.097
 2291SOL    HW216788   2.946   5.000   1.116
 2292SOL     OW16789   0.718   5.154   1.634
 2292SOL    HW116790   0.734   5.181   1.729
 2292SOL    HW216791   0.679   5.062   1.632
 2293SOL     OW16792   2.962   3.549   1.308
 2293SOL    HW116793   3.051   3.531   1.349
 2293SOL    HW216794   2.899   3.475   1.331
 2294SOL     OW16795   1.434   2.836   1.565
 2294SOL    HW116796   1.344   2.817   1.526
 2294SOL    HW216797   1.494   2.870   1.493
 2295SOL     OW16798   1.429   4.083   1.164
 2295SOL    HW116799   1.492   4.049   1.234
 2295SOL    HW216800   1.481   4.125   1.090
 2296SOL     OW16801   2.311   0.330   1.392
 2296SOL    HW116802   2.238   0.271   1.359
 2296SOL    HW216803   2.296   0.352   1.488
 2297SOL     OW16804   4.864   2.169   2.151
 2297SOL    HW116805   4.769   2.160   2.181
 2297SOL    HW216806   4.911   2.082   2.162
 2298SOL     OW16807   1.119   5.355   1.484
 2298SOL    HW116808   1.207   5.308   1.497
 2298SOL    HW216809   1.132   5.431   1.419
 2299SOL     OW16810   2.237   9.763   1.161
 2299SOL    HW116811   2.184   9.684   1.132
 2299SOL    HW216812   2.179   9.844   1.160
 2300SOL     OW16813   2.823   6.184   0.742
 2300SOL    HW116814   2.868   6.100   0.773
 2300SOL    HW216815   2.816   6.248   0.818
 2301SOL     OW16816   4.524   4.931   0.364
 2301SOL    HW116817   4.510   5.029   0.379
 2301SOL    HW216818   4.606   4.901   0.411
 2302SOL     OW16819   3.211   8.643   1.810
 2302SOL    HW116820   3.230   8.647   1.908
 2302SOL    HW216821   3.217   8.735   1.771
 2303SOL     OW16822   4.310   3.068   2.263
 2303SOL    HW116823   4.393   3.053   2.317
 2303SOL    HW216824   4.253   2.986   2.264
 2304SOL     OW16825   3.200   7.749   0.594
 2304SOL    HW116826   3.262   7.737   0.671
 2304SOL    HW216827   3.110   7.776   0.628
 2305SOL     OW16828   0.993   4.276   1.556
 2305SOL    HW116829   0.929   4.298   1.483
 2305SOL    HW216830   1.070   4.340   1.554
 2306SOL     OW16831   9.950   3.391   1.195
 2306SOL    HW116832   9.920   3.376   1.289
 2306SOL    HW216833   9.958   3.489   1.177
 2307SOL     OW16834   9.877   4.647   1.661
 2307SOL    HW116835   9.936   4.567   1.647
 2307SOL    HW216836   9.817   4.631   1.739
 2308SOL     OW16837   4.490   3.896   0.790
 2308SOL    HW116838   4.580   3.870   0.824
 2308SOL    HW216839   4.425   3.821   0.808
 2309SOL     OW16840   0.820   4.370   1.367
 2309SOL    HW116841   0.896   4.382   1.304
 2309SOL    HW216842   0.783   4.460   1.391
 2310SOL     OW16843   4.328   0.545   1.289
 2310SOL    HW116844   4.395   0.597   1.342
 2310SOL    HW216845   4.286   0.605   1.221
 2311SOL     OW16846   1.354   4.291   0.686
 2311SOL    HW116847   1.330   4.194   0.682
 2311SOL    HW216848   1.375   4.324   0.594
 2312SOL     OW16849   4.487   5.188   0.446
 2312SOL    HW116850   4.388   5.202   0.436
 2312SOL    HW216851   4.515   5.211   0.539
 2313SOL     OW16852   5.357   2.359   0.410
 2313SOL    HW116853   5.448   2.365   0.368
 2313SOL    HW216854   5.315   2.449   0.413
 2314SOL     OW16855   2.103   8.758   0.729
 2314SOL    HW116856   2.130   8.666   0.758
 2314SOL    HW216857   2.175   8.823   0.754
 2315SOL     OW16858   4.015   1.929   0.536
 2315SOL    HW116859   4.004   1.968   0.445
 2315SOL    HW216860   4.077   1.987   0.589
 2316SOL     OW16861   2.759   8.022   2.342
 2316SOL    HW116862   2.754   7.961   2.263
 2316SOL    HW216863   2.852   8.057   2.351
 2317SOL     OW16864   1.834   6.938   0.392
 2317SOL    HW116865   1.860   6.880   0.315
 2317SOL    HW216866   1.736   6.960   0.386
 2318SOL     OW16867   5.042   4.141   0.830
 2318SOL    HW116868   4.993   4.223   0.798
 2318SOL    HW216869   4.986   4.093   0.898
 2319SOL     OW16870   2.974   7.348   0.775
 2319SOL    HW116871   2.910   7.286   0.729
 2319SOL    HW216872   3.016   7.409   0.708
 2320SOL     OW16873   0.091   4.476   1.966
 2320SOL    HW116874   0.012   4.428   1.929
 2320SOL    HW216875   0.127   4.540   1.898
 2321SOL     OW16876   2.131   6.484   2.257
 2321SOL    HW116877   2.111   6.566   2.203
 2321SOL    HW216878   2.224   6.489   2.294
 2322SOL     OW16879   3.510   3.008   1.252
 2322SOL    HW116880   3.473   3.058   1.173
 2322SOL    HW216881   3.591   2.957   1.224
 2323SOL     OW16882   1.219   4.629   1.310
 2323SOL    HW116883   1.262   4.714   1.339
 2323SOL    HW216884   1.284   4.575   1.256
 2324SOL     OW16885   3.652   3.894   1.816
 2324SOL    HW116886   3.570   3.905   1.760
 2324SOL    HW216887   3.706   3.977   1.814
 2325SOL     OW16888   3.335   0.572   1.837
 2325SOL    HW116889   3.264   0.518   1.792
 2325SOL    HW216890   3.424   0.548   1.798
 2326SOL     OW16891   1.248   3.583   0.975
 2326SOL    HW116892   1.328   3.624   1.020
 2326SOL    HW216893   1.234   3.627   0.886
 2327SOL     OW16894   2.447   2.775   0.886
 2327SOL    HW116895   2.485   2.854   0.932
 2327SOL    HW216896   2.477   2.691   0.932
 2328SOL     OW16897   9.605   4.869   0.618
 2328SOL    HW116898   9.594   4.868   0.718
 2328SOL    HW216899   9.644   4.956   0.590
 2329SOL     OW16900   2.521   8.841   0.412
 2329SOL    HW116901   2.594   8.908   0.426
 2329SOL    HW216902   2.433   8.888   0.410
 2330SOL     OW16903   3.287   8.165   0.700
 2330SOL    HW116904   3.274   8.185   0.602
 2330SOL    HW216905   3.243   8.237   0.754
 2331SOL     OW16906   3.937   1.118   1.997
 2331SOL    HW116907   4.031   1.099   2.025
 2331SOL    HW216908   3.931   1.114   1.897
 2332SOL     OW16909   3.598   5.305   1.095
 2332SOL    HW116910   3.653   5.243   1.040
 2332SOL    HW216911   3.634   5.309   1.189
 2333SOL     OW16912   4.503   3.462   1.853
 2333SOL    HW116913   4.514   3.363   1.863
 2333SOL    HW216914   4.538   3.490   1.764
 2334SOL     OW16915   3.300   5.580   1.304
 2334SOL    HW116916   3.371   5.531   1.253
 2334SOL    HW216917   3.289   5.538   1.395
 2335SOL     OW16918   2.799   9.149   0.916
 2335SOL    HW116919   2.772   9.062   0.956
 2335SOL    HW216920   2.862   9.196   0.978
 2336SOL     OW16921   2.484   3.592   1.936
 2336SOL    HW116922   2.514   3.601   2.031
 2336SOL    HW216923   2.509   3.674   1.885
 2337SOL     OW16924   3.042   4.534   2.319
 2337SOL    HW116925   3.098   4.600   2.269
 2337SOL    HW216926   3.060   4.544   2.417
 2338SOL     OW16927   2.952   4.724   1.983
 2338SOL    HW116928   3.002   4.767   1.907
 2338SOL    HW216929   2.968   4.776   2.067
 2339SOL     OW16930   1.176   4.476   1.536
 2339SOL    HW116931   1.265   4.467   1.581
 2339SOL    HW216932   1.186   4.529   1.452
 2340SOL     OW16933   1.316   4.874   1.381
 2340SOL    HW116934   1.237   4.927   1.411
 2340SOL    HW216935   1.351   4.912   1.295
 2341SOL     OW16936   1.845   3.294   1.517
 2341SOL    HW116937   1.911   3.335   1.454
 2341SOL    HW216938   1.869   3.320   1.611
 2342SOL     OW16939   3.329   2.646   1.422
 2342SOL    HW116940   3.422   2.611   1.430
 2342SOL    HW216941   3.276   2.619   1.502
 2343SOL     OW16942   9.366   4.632   2.186
 2343SOL    HW116943   9.390   4.538   2.162
 2343SOL    HW216944   9.388   4.693   2.109
 2344SOL     OW16945   9.280   3.954   1.796
 2344SOL    HW116946   9.198   3.965   1.852
 2344SOL    HW216947   9.270   3.874   1.737
 2345SOL     OW16948   2.744   9.691   1.572
 2345SOL    HW116949   2.765   9.681   1.669
 2345SOL    HW216950   2.683   9.770   1.560
 2346SOL     OW16951   2.880   5.604   2.040
 2346SOL    HW116952   2.966   5.552   2.034
 2346SOL    HW216953   2.845   5.621   1.948
 2347SOL     OW16954   4.405   3.767   1.598
 2347SOL    HW116955   4.310   3.765   1.567
 2347SOL    HW216956   4.455   3.838   1.549
 2348SOL     OW16957   1.696   3.354   0.653
 2348SOL    HW116958   1.680   3.321   0.746
 2348SOL    HW216959   1.620   3.325   0.594
 2349SOL     OW16960   4.557   3.954   0.529
 2349SOL    HW116961   4.529   3.951   0.625
 2349SOL    HW216962   4.536   3.867   0.485
 2350SOL     OW16963   9.489   4.079   1.669
 2350SOL    HW116964   9.567   4.019   1.690
 2350SOL    HW216965   9.407   4.043   1.712
 2351SOL     OW16966   4.186   2.700   1.148
 2351SOL    HW116967   4.282   2.679   1.168
 2351SOL    HW216968   4.152   2.638   1.078
 2352SOL     OW16969   1.758   6.129   2.135
 2352SOL    HW116970   1.836   6.189   2.156
 2352SOL    HW216971   1.677   6.161   2.185
 2353SOL     OW16972   3.382   2.195   0.794
 2353SOL    HW116973   3.370   2.099   0.766
 2353SOL    HW216974   3.410   2.249   0.715
 2354SOL     OW16975   2.286   7.567   0.369
 2354SOL    HW116976   2.212   7.634   0.380
 2354SOL    HW216977   2.271   7.514   0.285
 2355SOL     OW16978   9.615   4.999   1.509
 2355SOL    HW116979   9.522   4.990   1.545
 2355SOL    HW216980   9.653   4.908   1.494
 2356SOL     OW16981   1.891   4.932   2.026
 2356SOL    HW116982   1.824   4.861   2.045
 2356SOL    HW216983   1.977   4.910   2.072
 2357SOL     OW16984   4.330   9.306   1.397
 2357SOL    HW116985   4.239   9.310   1.354
 2357SOL    HW216986   4.395   9.264   1.333
 2358SOL     OW16987   2.100   4.112   0.859
 2358SOL    HW116988   2.162   4.133   0.783
 2358SOL    HW216989   2.024   4.177   0.859
 2359SOL     OW16990   0.136   4.921   2.157
 2359SOL    HW116991   0.113   4.824   2.163
 2359SOL    HW216992   0.235   4.931   2.146
 2360SOL     OW16993   3.089   1.718   1.808
 2360SOL    HW116994   3.163   1.654   1.830
 2360SOL    HW216995   3.037   1.739   1.891
 2361SOL     OW16996   0.853   5.098   2.137
 2361SOL    HW116997   0.789   5.085   2.213
 2361SOL    HW216998   0.895   5.189   2.145
 2362SOL     OW16999   3.171   6.242   1.341
 2362SOL    HW117000   3.123   6.299   1.275
 2362SOL    HW217001   3.112   6.226   1.421
 2363SOL     OW17002   4.676   2.888   1.263
 2363SOL    HW117003   4.664   2.799   1.308
 2363SOL    HW217004   4.586   2.930   1.247
 2364SOL     OW17005   1.875   5.820   0.634
 2364SOL    HW117006   1.822   5.898   0.602
 2364SOL    HW217007   1.940   5.850   0.704
 2365SOL     OW17008   2.550   4.793   1.827
 2365SOL    HW117009   2.462   4.832   1.851
 2365SOL    HW217010   2.537   4.707   1.777
 2366SOL     OW17011   4.434   1.190   0.526
 2366SOL    HW117012   4.353   1.144   0.490
 2366SOL    HW217013   4.451   1.274   0.473
 2367SOL     OW17014   1.697   5.316   0.441
 2367SOL    HW117015   1.635   5.332   0.518
 2367SOL    HW217016   1.707   5.400   0.387
 2368SOL     OW17017   0.039   3.945   1.679
 2368SOL    HW117018   9.987   3.994   1.750
 2368SOL    HW217019   0.078   4.011   1.615
 2369SOL     OW17020   4.140   0.087   2.152
 2369SOL    HW117021   4.147   9.988   2.164
 2369SOL    HW217022   4.136   0.108   2.055
 2370SOL     OW17023   2.741   4.252   1.461
 2370SOL    HW117024   2.643   4.239   1.445
 2370SOL    HW217025   2.771   4.191   1.534
 2371SOL     OW17026   5.036   2.363   1.015
 2371SOL    HW117027   5.016   2.291   0.948
 2371SOL    HW217028   5.122   2.342   1.062
 2372SOL     OW17029   4.213   9.338   2.121
 2372SOL    HW117030   4.295   9.323   2.176
 2372SOL    HW217031   4.193   9.436   2.117
 2373SOL     OW17032   1.999   6.489   0.709
 2373SOL    HW117033   2.071   6.452   0.650
 2373SOL    HW217034   2.036   6.565   0.763
 2374SOL     OW17035   2.123   6.243   1.922
 2374SOL    HW117036   2.057   6.198   1.862
 2374SOL    HW217037   2.209   6.193   1.921
 2375SOL     OW17038   5.051   3.656   0.513
 2375SOL    HW117039   5.093   3.651   0.603
 2375SOL    HW217040   5.025   3.564   0.483
 2376SOL     OW17041   2.802   5.339   0.845
 2376SOL    HW117042   2.752   5.292   0.772
 2376SOL    HW217043   2.779   5.437   0.842
 2377SOL     OW17044   4.829   3.951   0.634
 2377SOL    HW117045   4.751   3.927   0.576
 2377SOL    HW217046   4.831   4.050   0.647
 2378SOL     OW17047   3.832   2.581   1.009
 2378SOL    HW117048   3.825   2.675   0.975
 2378SOL    HW217049   3.770   2.569   1.086
 2379SOL     OW17050   2.422   8.589   0.454
 2379SOL    HW117051   2.477   8.670   0.433
 2379SOL    HW217052   2.325   8.614   0.455
 2380SOL     OW17053   5.206   3.900   2.331
 2380SOL    HW117054   5.252   3.989   2.333
 2380SOL    HW217055   5.173   3.878   2.423
 2381SOL     OW17056   3.416   3.220   0.526
 2381SOL    HW117057   3.366   3.297   0.485
 2381SOL    HW217058   3.495   3.255   0.577
 2382SOL     OW17059   5.190   4.101   0.432
 2382SOL    HW117060   5.181   4.048   0.516
 2382SOL    HW217061   5.110   4.161   0.421
 2383SOL     OW17062   9.720   3.528   2.232
 2383SOL    HW117063   9.684   3.592   2.164
 2383SOL    HW217064   9.651   3.510   2.301
 2384SOL     OW17065   3.130   8.350   0.830
 2384SOL    HW117066   3.111   8.402   0.913
 2384SOL    HW217067   3.048   8.299   0.803
 2385SOL     OW17068   2.070   9.559   1.037
 2385SOL    HW117069   2.013   9.496   0.984
 2385SOL    HW217070   2.052   9.545   1.135
 2386SOL     OW17071   3.431   5.863   0.548
 2386SOL    HW117072   3.366   5.852   0.473
 2386SOL    HW217073   3.495   5.787   0.548
 2387SOL     OW17074   1.278   7.298   1.096
 2387SOL    HW117075   1.336   7.324   1.172
 2387SOL    HW217076   1.317   7.333   1.010
 2388SOL     OW17077   2.235   0.086   1.730
 2388SOL    HW117078   2.248   0.171   1.679
 2388SOL    HW217079   2.307   0.076   1.798
 2389SOL     OW17080   2.495   7.638   0.531
 2389SOL    HW117081   2.430   7.613   0.460
 2389SOL    HW217082   2.568   7.569   0.534
 2390SOL     OW17083   1.792   3.019   1.520
 2390SOL    HW117084   1.703   3.001   1.478
 2390SOL    HW217085   1.803   3.118   1.533
 2391SOL     OW17086   2.013   9.161   0.898
 2391SOL    HW117087   1.997   9.104   0.817
 2391SOL    HW217088   1.974   9.252   0.884
 2392SOL     OW17089   4.086   2.700   0.771
 2392SOL    HW117090   4.100   2.628   0.838
 2392SOL    HW217091   4.090   2.661   0.678
 2393SOL     OW17092   2.739   8.880   0.695
 2393SOL    HW117093   2.653   8.859   0.741
 2393SOL    HW217094   2.722   8.942   0.619
 2394SOL     OW17095   2.499   4.236   1.668
 2394SOL    HW117096   2.412   4.269   1.631
 2394SOL    HW217097   2.484   4.151   1.718
 2395SOL     OW17098   4.503   2.242   1.511
 2395SOL    HW117099   4.575   2.176   1.533
 2395SOL    HW217100   4.420   2.220   1.562
 2396SOL     OW17101   2.953   5.445   1.342
 2396SOL    HW117102   2.897   5.376   1.297
 2396SOL    HW217103   2.980   5.515   1.275
 2397SOL     OW17104   3.563   2.300   0.968
 2397SOL    HW117105   3.496   2.261   0.905
 2397SOL    HW217106   3.651   2.310   0.921
 2398SOL     OW17107   2.987   0.495   1.015
 2398SOL    HW117108   3.076   0.481   0.971
 2398SOL    HW217109   2.952   0.408   1.048
 2399SOL     OW17110   3.505   7.518   0.667
 2399SOL    HW117111   3.565   7.561   0.599
 2399SOL    HW217112   3.515   7.565   0.755
 2400SOL     OW17113   1.923   5.822   1.836
 2400SOL    HW117114   1.999   5.758   1.844
 2400SOL    HW217115   1.861   5.792   1.764
 2401SOL     OW17116   3.380   1.171   2.051
 2401SOL    HW117117   3.434   1.172   1.967
 2401SOL    HW217118   3.393   1.084   2.098
 2402SOL     OW17119   1.821   7.766   1.911
 2402SOL    HW117120   1.728   7.791   1.883
 2402SOL    HW217121   1.823   7.668   1.934
 2403SOL     OW17122   2.357   9.744   1.410
 2403SOL    HW117123   2.315   9.756   1.320
 2403SOL    HW217124   2.418   9.665   1.409
 2404SOL     OW17125   0.119   3.268   1.012
 2404SOL    HW117126   0.189   3.208   1.050
 2404SOL    HW217127   0.066   3.309   1.087
 2405SOL     OW17128   2.000   4.781   1.577
 2405SOL    HW117129   1.989   4.881   1.581
 2405SOL    HW217130   1.917   4.737   1.611
 2406SOL     OW17131   1.891   9.775   1.059
 2406SOL    HW117132   1.936   9.858   1.093
 2406SOL    HW217133   1.959   9.703   1.045
 2407SOL     OW17134   2.635   6.657   1.325
 2407SOL    HW117135   2.562   6.595   1.299
 2407SOL    HW217136   2.649   6.653   1.424
 2408SOL     OW17137   1.464   6.014   0.448
 2408SOL    HW117138   1.414   6.085   0.399
 2408SOL    HW217139   1.419   5.995   0.535
 2409SOL     OW17140   1.562   4.181   0.942
 2409SOL    HW117141   1.551   4.275   0.909
 2409SOL    HW217142   1.546   4.117   0.866
 2410SOL     OW17143   4.588   3.037   2.045
 2410SOL    HW117144   4.661   3.049   1.977
 2410SOL    HW217145   4.587   3.115   2.108
 2411SOL     OW17146   2.144   4.953   1.215
 2411SOL    HW117147   2.170   4.914   1.127
 2411SOL    HW217148   2.071   5.019   1.202
 2412SOL     OW17149   1.797   1.990   0.933
 2412SOL    HW117150   1.806   2.049   1.014
 2412SOL    HW217151   1.827   1.898   0.955
 2413SOL     OW17152   4.513   0.704   1.819
 2413SOL    HW117153   4.495   0.620   1.870
 2413SOL    HW217154   4.439   0.769   1.835
  10.00000  10.00000   2.83200
