chitosan Film  in water:acetic acid 2%
11450
    1CHTO  H203    1   4.626   7.261   0.308
    1CHTO   O82    2   4.678   7.231   0.236
    1CHTO  C123    3   4.797   7.166   0.285
    1CHTO  H227    4   4.843   7.229   0.362
    1CHTO   O77    5   4.746   7.042   0.344
    1CHTO  C118    6   4.846   6.964   0.412
    1CHTO  H222    7   4.892   7.023   0.492
    1CHTO  C125    8   4.773   6.840   0.476
    1CHTO   O84    9   4.674   6.880   0.572
    1CHTO  H205   10   4.717   6.916   0.647
    1CHTO  C114   11   4.953   6.917   0.312
    1CHTO  H218   12   4.908   6.849   0.240
    1CHTO  C116   13   5.013   7.037   0.231
    1CHTO  H220   14   5.078   7.097   0.299
    1CHTO   O79   15   5.100   6.985   0.129
    1CHTO  H201   16   5.052   6.934   0.068
    1CHTO  C120   17   4.899   7.130   0.171
    1CHTO  H224   18   4.849   7.070   0.092
    1CHTO   N21   19   4.955   7.252   0.106
    1CHTO  H211   20   5.053   7.231   0.064
    1CHTO  H212   21   4.888   7.286   0.029
    1CHTO   O75   22   5.053   6.850   0.391
    1CHTO  C112   23   5.087   6.696   0.346
    1CHTO  H216   24   5.062   6.682   0.239
    1CHTO   O73   25   5.009   6.609   0.429
    1CHTO  C113   26   5.033   6.469   0.411
    1CHTO  H217   27   5.019   6.443   0.304
    1CHTO  C124   28   4.930   6.389   0.492
    1CHTO   O83   29   4.796   6.412   0.448
    1CHTO  H204   30   4.736   6.361   0.500
    1CHTO  C109   31   5.178   6.437   0.455
    1CHTO  H213   32   5.186   6.467   0.561
    1CHTO  C110   33   5.276   6.519   0.367
    1CHTO  H214   34   5.271   6.480   0.265
    1CHTO   O78   35   5.411   6.497   0.413
    1CHTO  H200   36   5.422   6.526   0.501
    1CHTO  C111   37   5.242   6.671   0.368
    1CHTO  H215   38   5.267   6.711   0.468
    1CHTO   N19   39   5.321   6.749   0.270
    1CHTO  H207   40   5.295   6.854   0.276
    1CHTO  H208   41   5.426   6.737   0.289
    1CHTO   O74   42   5.205   6.294   0.445
    1CHTO  C115   43   5.281   6.230   0.573
    1CHTO  H219   44   5.288   6.302   0.656
    1CHTO   O76   45   5.203   6.109   0.632
    1CHTO  C122   46   5.174   6.009   0.533
    1CHTO  H226   47   5.087   6.042   0.476
    1CHTO  C126   48   5.130   5.878   0.607
    1CHTO   O85   49   5.008   5.896   0.679
    1CHTO  H206   50   4.984   5.815   0.721
    1CHTO  C121   51   5.295   5.979   0.434
    1CHTO  H225   52   5.304   5.869   0.422
    1CHTO   O81   53   5.267   6.033   0.304
    1CHTO  H202   54   5.330   6.003   0.242
    1CHTO  C119   55   5.431   6.033   0.490
    1CHTO  H223   56   5.448   5.976   0.582
    1CHTO  C117   57   5.425   6.187   0.527
    1CHTO  H221   58   5.447   6.252   0.442
    1CHTO   N20   59   5.530   6.222   0.629
    1CHTO  H209   60   5.509   6.171   0.722
    1CHTO  H210   61   5.532   6.329   0.644
    1CHTO   O80   62   5.557   5.992   0.403
    1CHTO  C103   63   5.633   5.860   0.434
    1CHTO  H190   64   5.621   5.831   0.538
    1CHTO  C101   65   5.599   5.736   0.341
    1CHTO  H188   66   5.601   5.769   0.237
    1CHTO   O68   67   5.457   5.685   0.373
    1CHTO  H168   68   5.394   5.751   0.353
    1CHTO   C99   69   5.707   5.618   0.359
    1CHTO  H186   70   5.695   5.576   0.461
    1CHTO   N17   71   5.690   5.505   0.263
    1CHTO  H174   72   5.589   5.467   0.267
    1CHTO  H175   73   5.761   5.427   0.285
    1CHTO   C97   74   5.851   5.675   0.354
    1CHTO  H184   75   5.875   5.705   0.250
    1CHTO   O64   76   5.867   5.783   0.446
    1CHTO  C104   77   5.785   5.897   0.414
    1CHTO  H191   78   5.801   5.930   0.312
    1CHTO  C108   79   5.829   6.013   0.504
    1CHTO   O71   80   5.965   6.049   0.478
    1CHTO  H171   81   5.973   6.090   0.394
    1CHTO   O62   82   5.947   5.581   0.405
    1CHTO   C91   83   6.056   5.547   0.318
    1CHTO  H178   84   6.014   5.519   0.221
    1CHTO   C92   85   6.119   5.417   0.377
    1CHTO  H179   86   6.129   5.428   0.486
    1CHTO   O66   87   6.022   5.312   0.356
    1CHTO  H166   88   6.051   5.232   0.396
    1CHTO   C93   89   6.258   5.384   0.312
    1CHTO  H180   90   6.240   5.367   0.204
    1CHTO   N16   91   6.318   5.259   0.363
    1CHTO  H172   92   6.252   5.175   0.344
    1CHTO  H173   93   6.414   5.242   0.315
    1CHTO   C94   94   6.357   5.505   0.329
    1CHTO  H181   95   6.424   5.492   0.415
    1CHTO   O61   96   6.292   5.631   0.355
    1CHTO   C95   97   6.164   5.661   0.297
    1CHTO  H182   98   6.126   5.752   0.343
    1CHTO  C106   99   6.180   5.697   0.144
    1CHTO   O69  100   6.264   5.812   0.127
    1CHTO  H169  101   6.271   5.832   0.036
    1CHTO   O63  102   6.444   5.518   0.196
    1CHTO   C96  103   6.571   5.608   0.215
    1CHTO  H183  104   6.540   5.696   0.273
    1CHTO   C98  105   6.632   5.659   0.080
    1CHTO  H185  106   6.556   5.713   0.022
    1CHTO   O67  107   6.733   5.757   0.111
    1CHTO  H167  108   6.694   5.834   0.148
    1CHTO  C102  109   6.701   5.542   2.869
    1CHTO  H189  110   6.785   5.590   2.815
    1CHTO   N18  111   6.615   5.483   2.764
    1CHTO  H176  112   6.661   5.492   2.667
    1CHTO  H177  113   6.593   5.379   2.785
    1CHTO  C105  114   6.762   5.436   0.092
    1CHTO  H192  115   6.689   5.355   0.108
    1CHTO   O65  116   6.795   5.491   0.220
    1CHTO  C100  117   6.680   5.526   0.299
    1CHTO  H187  118   6.635   5.432   0.334
    1CHTO  C107  119   6.733   5.603   0.422
    1CHTO   O70  120   6.630   5.622   0.520
    1CHTO  H170  121   6.608   5.539   0.560
    1CHTO   O57  122   6.889   5.381   0.024
    1CHTO   C85  123   6.927   5.244   0.046
    1CHTO  H157  124   6.841   5.185   0.011
    1CHTO   C83  125   6.942   5.210   0.200
    1CHTO  H155  126   6.843   5.213   0.244
    1CHTO   O56  127   7.018   5.314   0.264
    1CHTO  H135  128   7.018   5.302   0.357
    1CHTO   C81  129   7.001   5.068   0.219
    1CHTO  H153  130   6.933   4.996   0.172
    1CHTO   N14  131   7.007   5.024   0.361
    1CHTO  H141  132   6.910   5.031   0.405
    1CHTO  H142  133   7.075   5.087   0.415
    1CHTO   C79  134   7.140   5.058   0.145
    1CHTO  H151  135   7.176   4.955   0.158
    1CHTO   O52  136   7.121   5.078   0.002
    1CHTO   C86  137   7.060   5.207   2.842
    1CHTO  H158  138   7.140   5.280   2.865
    1CHTO   C90  139   7.037   5.217   2.689
    1CHTO   O60  140   6.948   5.115   2.642
    1CHTO  H138  141   6.937   5.123   2.550
    1CHTO   O50  142   7.239   5.149   0.196
    1CHTO   C73  143   7.374   5.197   0.194
    1CHTO  H145  144   7.411   5.202   0.091
    1CHTO   C74  145   7.468   5.104   0.277
    1CHTO  H146  146   7.461   5.003   0.233
    1CHTO   O54  147   7.604   5.147   0.257
    1CHTO  H133  148   7.616   5.233   0.292
    1CHTO   C75  149   7.421   5.105   0.428
    1CHTO  H147  150   7.319   5.063   0.433
    1CHTO   N13  151   7.503   5.018   0.517
    1CHTO  H139  152   7.499   4.916   0.483
    1CHTO  H140  153   7.465   5.022   0.618
    1CHTO   C76  154   7.413   5.256   0.481
    1CHTO  H148  155   7.515   5.296   0.484
    1CHTO   O49  156   7.331   5.338   0.391
    1CHTO   C77  157   7.378   5.340   0.256
    1CHTO  H149  158   7.480   5.376   0.254
    1CHTO   C88  159   7.296   5.442   0.176
    1CHTO   O58  160   7.341   5.454   0.035
    1CHTO  H136  161   7.323   5.374   2.863
    1CHTO   O51  162   7.341   5.259   0.627
    1CHTO   C78  163   7.305   5.403   0.679
    1CHTO  H150  164   7.298   5.476   0.595
    1CHTO   C80  165   7.409   5.454   0.781
    1CHTO  H152  166   7.417   5.380   0.864
    1CHTO   O55  167   7.536   5.461   0.712
    1CHTO  H134  168   7.604   5.483   0.773
    1CHTO   C84  169   7.365   5.595   0.839
    1CHTO  H156  170   7.370   5.666   0.756
    1CHTO   N15  171   7.460   5.646   0.945
    1CHTO  H143  172   7.411   5.656   1.039
    1CHTO  H144  173   7.500   5.741   0.916
    1CHTO   C87  174   7.219   5.589   0.890
    1CHTO  H159  175   7.214   5.530   0.981
    1CHTO   O53  176   7.130   5.529   0.787
    1CHTO   C82  177   7.167   5.397   0.745
    1CHTO  H154  178   7.167   5.328   0.830
    1CHTO   C89  179   7.060   5.346   0.646
    1CHTO   O59  180   6.933   5.339   0.711
    1CHTO  H137  181   6.868   5.311   0.650
    1CHTO   O45  182   7.158   5.740   0.924
    1CHTO   C67  183   7.136   5.829   0.813
    1CHTO  H124  184   7.214   5.818   0.738
    1CHTO   C65  185   6.996   5.807   0.746
    1CHTO  H122  186   6.990   5.701   0.722
    1CHTO   O44  187   6.985   5.880   0.623
    1CHTO  H102  188   7.051   5.852   0.562
    1CHTO   C63  189   6.885   5.833   0.852
    1CHTO  H120  190   6.906   5.771   0.940
    1CHTO   N11  191   6.749   5.785   0.814
    1CHTO  H108  192   6.682   5.793   0.898
    1CHTO  H109  193   6.711   5.844   0.733
    1CHTO   C61  194   6.893   5.983   0.902
    1CHTO  H118  195   6.831   5.985   0.993
    1CHTO   O40  196   7.028   6.021   0.943
    1CHTO   C68  197   7.147   5.978   0.867
    1CHTO  H125  198   7.232   5.980   0.939
    1CHTO   C72  199   7.181   6.082   0.756
    1CHTO   O48  200   7.302   6.052   0.685
    1CHTO  H105  201   7.291   5.972   0.637
    1CHTO   O38  202   6.845   6.081   0.807
    1CHTO   C55  203   6.765   6.188   0.865
    1CHTO  H112  204   6.786   6.195   0.973
    1CHTO   C56  205   6.611   6.165   0.836
    1CHTO  H113  206   6.599   6.158   0.727
    1CHTO   O42  207   6.569   6.038   0.890
    1CHTO  H100  208   6.481   6.019   0.864
    1CHTO   C57  209   6.525   6.282   0.897
    1CHTO  H114  210   6.531   6.273   1.005
    1CHTO   N10  211   6.381   6.274   0.861
    1CHTO  H106  212   6.368   6.229   0.764
    1CHTO  H107  213   6.328   6.216   0.935
    1CHTO   C58  214   6.582   6.420   0.855
    1CHTO  H115  215   6.560   6.439   0.747
    1CHTO   O37  216   6.724   6.428   0.876
    1CHTO   C59  217   6.803   6.328   0.808
    1CHTO  H116  218   6.784   6.332   0.701
    1CHTO   C70  219   6.951   6.360   0.833
    1CHTO   O46  220   6.992   6.484   0.775
    1CHTO  H103  221   6.952   6.555   0.821
    1CHTO   O39  222   6.517   6.537   0.951
    1CHTO   C60  223   6.480   6.658   0.882
    1CHTO  H117  224   6.557   6.683   0.809
    1CHTO   C62  225   6.344   6.643   0.806
    1CHTO  H119  226   6.359   6.563   0.731
    1CHTO   O43  227   6.241   6.601   0.898
    1CHTO  H101  228   6.226   6.666   0.964
    1CHTO   C66  229   6.309   6.781   0.730
    1CHTO  H123  230   6.392   6.806   0.665
    1CHTO   N12  231   6.190   6.769   0.642
    1CHTO  H110  232   6.207   6.692   0.568
    1CHTO  H111  233   6.169   6.864   0.596
    1CHTO   C69  234   6.295   6.894   0.836
    1CHTO  H126  235   6.214   6.870   0.907
    1CHTO   O41  236   6.431   6.907   0.913
    1CHTO   C64  237   6.474   6.776   0.983
    1CHTO  H121  238   6.401   6.751   1.063
    1CHTO   C71  239   6.612   6.798   1.049
    1CHTO   O47  240   6.604   6.901   1.148
    1CHTO  H104  241   6.689   6.914   1.187
    1CHTO   O34  242   6.264   7.028   0.771
    1CHTO   C49  243   6.235   7.170   0.749
    1CHTO   H91  244   6.136   7.189   0.792
    1CHTO   C47  245   6.232   7.196   0.596
    1CHTO   H89  246   6.200   7.301   0.583
    1CHTO   O33  247   6.133   7.110   0.537
    1CHTO   H70  248   6.125   7.128   0.445
    1CHTO   C45  249   6.381   7.175   0.538
    1CHTO   H87  250   6.416   7.075   0.568
    1CHTO    N8  251   6.387   7.184   0.390
    1CHTO   H75  252   6.358   7.283   0.358
    1CHTO   H76  253   6.322   7.110   0.346
    1CHTO   C43  254   6.480   7.279   0.612
    1CHTO   H85  255   6.581   7.255   0.576
    1CHTO   O29  256   6.470   7.267   0.755
    1CHTO   C50  257   6.340   7.261   0.817
    1CHTO   H92  258   6.355   7.220   0.918
    1CHTO   C54  259   6.282   7.402   0.846
    1CHTO   O36  260   6.361   7.471   0.942
    1CHTO   H72  261   6.325   7.557   0.957
    1CHTO   O27  262   6.456   7.414   0.571
    1CHTO   C37  263   6.489   7.553   0.579
    1CHTO   H79  264   6.462   7.593   0.678
    1CHTO   C38  265   6.642   7.578   0.561
    1CHTO   H80  266   6.673   7.535   0.464
    1CHTO   O31  267   6.712   7.508   0.666
    1CHTO   H68  268   6.690   7.544   0.750
    1CHTO   C39  269   6.675   7.733   0.562
    1CHTO   H81  270   6.653   7.770   0.662
    1CHTO    N7  271   6.820   7.763   0.534
    1CHTO   H73  272   6.831   7.824   0.445
    1CHTO   H74  273   6.864   7.813   0.619
    1CHTO   C40  274   6.579   7.811   0.462
    1CHTO   H82  275   6.608   7.792   0.359
    1CHTO   O26  276   6.442   7.775   0.487
    1CHTO   C41  277   6.414   7.633   0.470
    1CHTO   H83  278   6.448   7.600   0.370
    1CHTO   C52  279   6.261   7.611   0.476
    1CHTO   O35  280   6.191   7.679   0.365
    1CHTO   H71  281   6.099   7.664   0.373
    1CHTO   O28  282   6.579   7.953   0.487
    1CHTO   C42  283   6.581   8.054   0.381
    1CHTO   H84  284   6.613   8.001   0.290
    1CHTO   C44  285   6.685   8.168   0.404
    1CHTO   H86  286   6.666   8.214   0.501
    1CHTO   O32  287   6.814   8.105   0.409
    1CHTO   H69  288   6.880   8.168   0.431
    1CHTO   C48  289   6.679   8.283   0.293
    1CHTO   H90  290   6.714   8.241   0.199
    1CHTO    N9  291   6.772   8.396   0.326
    1CHTO   H77  292   6.874   8.360   0.332
    1CHTO   H78  293   6.765   8.473   0.250
    1CHTO   C51  294   6.530   8.331   0.276
    1CHTO   H93  295   6.499   8.373   0.372
    1CHTO   O30  296   6.451   8.217   0.241
    1CHTO   C46  297   6.440   8.115   0.351
    1CHTO   H88  298   6.402   8.164   0.441
    1CHTO   C53  299   6.339   8.009   0.301
    1CHTO   O72  300   6.208   8.066   0.285
    1CHTO  H199  301   6.148   7.999   0.257
    1CHTO   O22  302   6.511   8.432   0.174
    1CHTO   C31  303   6.484   8.418   0.028
    1CHTO   H59  304   6.480   8.522   2.863
    1CHTO   C29  305   6.595   8.345   2.822
    1CHTO   H57  306   6.602   8.242   2.860
    1CHTO   O21  307   6.721   8.410   2.848
    1CHTO   H37  308   6.745   8.399   0.064
    1CHTO   C27  309   6.561   8.341   2.667
    1CHTO   H55  310   6.563   8.445   2.628
    1CHTO    N5  311   6.659   8.261   2.589
    1CHTO   H43  312   6.658   8.158   2.623
    1CHTO   H44  313   6.758   8.302   2.599
    1CHTO   C25  314   6.415   8.288   2.645
    1CHTO   H53  315   6.410   8.183   2.676
    1CHTO   O17  316   6.321   8.363   2.727
    1CHTO   C32  317   6.346   8.354   2.868
    1CHTO   H60  318   6.347   8.249   0.023
    1CHTO   C36  319   6.230   8.425   0.069
    1CHTO   O25  320   6.105   8.358   0.048
    1CHTO   H40  321   6.078   8.367   2.833
    1CHTO   O15  322   6.367   8.300   2.491
    1CHTO   C19  323   6.311   8.218   2.383
    1CHTO   H47  324   6.236   8.284   2.337
    1CHTO   C20  325   6.416   8.178   2.274
    1CHTO   H48  326   6.501   8.124   2.317
    1CHTO   O19  327   6.465   8.301   2.217
    1CHTO   H35  328   6.520   8.346   2.279
    1CHTO   C21  329   6.351   8.086   2.161
    1CHTO   H49  330   6.274   8.143   2.110
    1CHTO    N4  331   6.449   8.042   2.057
    1CHTO   H41  332   6.548   8.080   2.079
    1CHTO   H42  333   6.418   8.078   1.960
    1CHTO   C22  334   6.281   7.967   2.231
    1CHTO   H50  335   6.357   7.910   2.287
    1CHTO   O14  336   6.182   8.017   2.322
    1CHTO   C23  337   6.235   8.092   2.434
    1CHTO   H51  338   6.300   8.024   2.491
    1CHTO   C34  339   6.117   8.131   2.524
    1CHTO   O23  340   6.054   8.015   2.580
    1CHTO   H38  341   5.982   8.042   2.633
    1CHTO   O16  342   6.207   7.881   2.142
    1CHTO   C24  343   6.247   7.720   2.156
    1CHTO   H52  344   6.337   7.706   2.215
    1CHTO   C26  345   6.268   7.660   2.016
    1CHTO   H54  346   6.176   7.679   1.955
    1CHTO   O20  347   6.378   7.728   1.952
    1CHTO   H36  348   6.356   7.817   1.935
    1CHTO   C30  349   6.293   7.506   2.021
    1CHTO   H58  350   6.395   7.488   2.059
    1CHTO    N6  351   6.290   7.445   1.885
    1CHTO   H45  352   6.366   7.490   1.823
    1CHTO   H46  353   6.308   7.339   1.892
    1CHTO   C33  354   6.197   7.431   2.119
    1CHTO   H61  355   6.097   7.419   2.073
    1CHTO   O18  356   6.180   7.504   2.242
    1CHTO   C28  357   6.135   7.640   2.226
    1CHTO   H56  358   6.045   7.643   2.165
    1CHTO   C35  359   6.100   7.698   2.364
    1CHTO   O24  360   6.207   7.690   2.458
    1CHTO   H39  361   6.277   7.748   2.432
    1CHTO    O9  362   6.245   7.297   2.144
    1CHTO   C13  363   6.148   7.201   2.236
    1CHTO   H26  364   6.051   7.253   2.250
    1CHTO   C11  365   6.220   7.173   2.376
    1CHTO   H24  366   6.199   7.258   2.443
    1CHTO    O8  367   6.363   7.166   2.359
    1CHTO    H3  368   6.397   7.250   2.333
    1CHTO    C9  369   6.162   7.043   2.438
    1CHTO   H22  370   6.053   7.055   2.435
    1CHTO    N2  371   6.196   7.023   2.581
    1CHTO   H10  372   6.106   7.028   2.642
    1CHTO   H11  373   6.246   6.929   2.597
    1CHTO    C7  374   6.201   6.921   2.344
    1CHTO   H20  375   6.125   6.844   2.367
    1CHTO    O4  376   6.196   6.953   2.203
    1CHTO   C14  377   6.114   7.064   2.162
    1CHTO   H27  378   6.009   7.036   2.188
    1CHTO   C18  379   6.119   7.073   2.007
    1CHTO   O13  380   6.254   7.081   1.957
    1CHTO    H7  381   6.252   7.086   1.864
    1CHTO    O2  382   6.351   6.864   2.377
    1CHTO    C1  383   6.368   6.724   2.351
    1CHTO   H14  384   6.288   6.688   2.281
    1CHTO    C2  385   6.363   6.635   2.482
    1CHTO   H15  386   6.436   6.679   2.552
    1CHTO    O6  387   6.231   6.645   2.538
    1CHTO    H1  388   6.228   6.600   2.620
    1CHTO    C3  389   6.404   6.483   2.447
    1CHTO   H16  390   6.330   6.441   2.378
    1CHTO    N1  391   6.406   6.396   2.569
    1CHTO    H8  392   6.476   6.434   2.642
    1CHTO    H9  393   6.307   6.392   2.613
    1CHTO    C4  394   6.541   6.484   2.369
    1CHTO   H17  395   6.619   6.525   2.434
    1CHTO    O1  396   6.526   6.564   2.250
    1CHTO    C5  397   6.503   6.703   2.277
    1CHTO   H18  398   6.582   6.740   2.342
    1CHTO   C16  399   6.510   6.780   2.142
    1CHTO   O11  400   6.410   6.736   2.049
    1CHTO    H5  401   6.418   6.785   1.970
    1CHTO    O3  402   6.581   6.351   2.326
    1CHTO    C6  403   6.702   6.342   2.243
    1CHTO   H19  404   6.726   6.436   2.192
    1CHTO    C8  405   6.829   6.306   2.328
    1CHTO   H21  406   6.805   6.218   2.389
    1CHTO    O7  407   6.857   6.419   2.413
    1CHTO    H2  408   6.791   6.427   2.479
    1CHTO   C12  409   6.952   6.272   2.235
    1CHTO   H25  410   6.981   6.368   2.186
    1CHTO    N3  411   7.072   6.226   2.314
    1CHTO   H12  412   7.156   6.293   2.296
    1CHTO   H13  413   7.051   6.221   2.419
    1CHTO   C15  414   6.910   6.171   2.123
    1CHTO   H28  415   6.891   6.071   2.164
    1CHTO   O10  416   7.015   6.160   2.011
    1CHTO    H4  417   6.994   6.088   1.954
    1CHTO    O5  418   6.795   6.218   2.052
    1CHTO   C10  419   6.678   6.235   2.133
    1CHTO   H23  420   6.654   6.140   2.180
    1CHTO   C17  421   6.560   6.272   2.042
    1CHTO   O12  422   6.581   6.395   1.971
    1CHTO    H6  423   6.651   6.385   1.909
    2CHTO  H203  424   5.434   4.214   0.779
    2CHTO   O82  425   5.390   4.217   0.696
    2CHTO  C123  426   5.294   4.324   0.694
    2CHTO  H227  427   5.347   4.419   0.713
    2CHTO   O77  428   5.243   4.320   0.558
    2CHTO  C118  429   5.156   4.429   0.526
    2CHTO  H222  430   5.209   4.523   0.542
    2CHTO  C125  431   5.118   4.418   0.373
    2CHTO   O84  432   5.054   4.294   0.340
    2CHTO  H205  433   4.970   4.290   0.381
    2CHTO  C114  434   5.031   4.427   0.616
    2CHTO  H218  435   4.971   4.339   0.591
    2CHTO  C116  436   5.068   4.418   0.768
    2CHTO  H220  437   5.108   4.516   0.801
    2CHTO   O79  438   4.947   4.397   0.843
    2CHTO  H201  439   4.965   4.399   0.935
    2CHTO  C120  440   5.175   4.304   0.795
    2CHTO  H224  441   5.124   4.207   0.774
    2CHTO   N21  442   5.218   4.302   0.937
    2CHTO  H211  443   5.153   4.238   0.994
    2CHTO  H212  444   5.320   4.268   0.945
    2CHTO   O75  445   4.962   4.548   0.581
    2CHTO  C112  446   4.803   4.543   0.600
    2CHTO  H216  447   4.778   4.475   0.683
    2CHTO   O73  448   4.746   4.497   0.476
    2CHTO  C113  449   4.603   4.486   0.478
    2CHTO  H217  450   4.574   4.415   0.559
    2CHTO  C124  451   4.557   4.423   0.346
    2CHTO   O83  452   4.593   4.499   0.230
    2CHTO  H204  453   4.559   4.458   0.153
    2CHTO  C109  454   4.538   4.625   0.503
    2CHTO  H213  455   4.566   4.689   0.419
    2CHTO  C110  456   4.593   4.685   0.636
    2CHTO  H214  457   4.557   4.624   0.720
    2CHTO   O78  458   4.537   4.817   0.652
    2CHTO  H200  459   4.561   4.853   0.735
    2CHTO  C111  460   4.748   4.687   0.634
    2CHTO  H215  461   4.782   4.755   0.554
    2CHTO   N19  462   4.808   4.737   0.761
    2CHTO  H207  463   4.916   4.737   0.753
    2CHTO  H208  464   4.774   4.838   0.780
    2CHTO   O74  465   4.393   4.611   0.508
    2CHTO  C115  466   4.319   4.722   0.428
    2CHTO  H219  467   4.368   4.819   0.438
    2CHTO   O76  468   4.320   4.692   0.272
    2CHTO  C122  469   4.225   4.591   0.237
    2CHTO  H226  470   4.247   4.502   0.297
    2CHTO  C126  471   4.249   4.549   0.088
    2CHTO   O85  472   4.165   4.440   0.048
    2CHTO  H206  473   4.183   4.418   2.833
    2CHTO  C121  474   4.078   4.642   0.263
    2CHTO  H225  475   4.038   4.679   0.166
    2CHTO   O81  476   3.998   4.530   0.306
    2CHTO  H202  477   3.908   4.554   0.308
    2CHTO  C119  478   4.072   4.758   0.367
    2CHTO  H223  479   4.108   4.847   0.314
    2CHTO  C117  480   4.171   4.732   0.486
    2CHTO  H221  481   4.155   4.638   0.540
    2CHTO   N20  482   4.164   4.839   0.591
    2CHTO  H209  483   4.189   4.935   0.549
    2CHTO  H210  484   4.065   4.841   0.634
    2CHTO   O80  485   3.921   4.803   0.403
    2CHTO  C103  486   3.844   4.896   0.304
    2CHTO  H190  487   3.914   4.950   0.240
    2CHTO  C101  488   3.735   4.828   0.213
    2CHTO  H188  489   3.665   4.773   0.276
    2CHTO   O68  490   3.804   4.727   0.119
    2CHTO  H168  491   3.739   4.681   0.069
    2CHTO   C99  492   3.655   4.939   0.131
    2CHTO  H186  493   3.726   4.991   0.063
    2CHTO   N17  494   3.544   4.884   0.045
    2CHTO  H174  495   3.500   4.963   2.860
    2CHTO  H175  496   3.583   4.806   2.855
    2CHTO   C97  497   3.601   5.048   0.228
    2CHTO  H184  498   3.519   5.004   0.288
    2CHTO   O64  499   3.706   5.100   0.312
    2CHTO  C104  500   3.772   5.003   0.394
    2CHTO  H191  501   3.700   4.952   0.460
    2CHTO  C108  502   3.870   5.076   0.487
    2CHTO   O71  503   3.801   5.160   0.580
    2CHTO  H171  504   3.755   5.108   0.642
    2CHTO   O62  505   3.557   5.164   0.156
    2CHTO   C91  506   3.451   5.242   0.215
    2CHTO  H178  507   3.412   5.188   0.301
    2CHTO   C92  508   3.334   5.250   0.111
    2CHTO  H179  509   3.319   5.152   0.064
    2CHTO   O66  510   3.213   5.278   0.183
    2CHTO  H166  511   3.138   5.271   0.126
    2CHTO   C93  512   3.354   5.364   0.004
    2CHTO  H180  513   3.257   5.373   2.825
    2CHTO   N16  514   3.451   5.331   2.771
    2CHTO  H172  515   3.420   5.242   2.719
    2CHTO  H173  516   3.460   5.414   2.702
    2CHTO   C94  517   3.385   5.502   0.075
    2CHTO  H181  518   3.475   5.550   0.035
    2CHTO   O61  519   3.405   5.490   0.217
    2CHTO   C95  520   3.496   5.388   0.260
    2CHTO  H182  521   3.595   5.408   0.218
    2CHTO  C106  522   3.513   5.398   0.416
    2CHTO   O69  523   3.389   5.382   0.485
    2CHTO  H169  524   3.332   5.454   0.465
    2CHTO   O63  525   3.262   5.596   0.051
    2CHTO   C96  526   3.277   5.737   0.116
    2CHTO  H183  527   3.381   5.750   0.148
    2CHTO   C98  528   3.186   5.762   0.240
    2CHTO  H185  529   3.081   5.742   0.213
    2CHTO   O67  530   3.218   5.665   0.341
    2CHTO  H167  531   3.194   5.578   0.312
    2CHTO  C102  532   3.202   5.911   0.297
    2CHTO  H189  533   3.303   5.915   0.342
    2CHTO   N18  534   3.108   5.946   0.407
    2CHTO  H176  535   3.006   5.937   0.373
    2CHTO  H177  536   3.124   5.880   0.491
    2CHTO  C105  537   3.197   6.014   0.181
    2CHTO  H192  538   3.093   6.027   0.148
    2CHTO   O65  539   3.276   5.977   0.066
    2CHTO  C100  540   3.246   5.848   0.010
    2CHTO  H187  541   3.138   5.845   2.860
    2CHTO  C107  542   3.323   5.830   2.751
    2CHTO   O70  543   3.465   5.837   2.770
    2CHTO  H170  544   3.508   5.826   2.687
    2CHTO   O57  545   3.255   6.151   0.242
    2CHTO   C85  546   3.225   6.276   0.179
    2CHTO  H157  547   3.116   6.275   0.155
    2CHTO   C83  548   3.298   6.286   0.040
    2CHTO  H155  549   3.254   6.213   2.847
    2CHTO   O56  550   3.437   6.249   0.056
    2CHTO  H135  551   3.444   6.159   0.081
    2CHTO   C81  552   3.277   6.428   2.855
    2CHTO  H153  553   3.169   6.446   2.846
    2CHTO   N14  554   3.327   6.442   2.715
    2CHTO  H141  555   3.434   6.432   2.714
    2CHTO  H142  556   3.300   6.538   2.676
    2CHTO   C79  557   3.336   6.535   0.079
    2CHTO  H151  558   3.317   6.633   0.035
    2CHTO   O52  559   3.262   6.531   0.206
    2CHTO   C86  560   3.263   6.399   0.270
    2CHTO  H158  561   3.367   6.388   0.307
    2CHTO   C90  562   3.174   6.401   0.397
    2CHTO   O60  563   3.224   6.492   0.495
    2CHTO  H138  564   3.214   6.581   0.465
    2CHTO   O50  565   3.476   6.521   0.105
    2CHTO   C73  566   3.597   6.595   0.126
    2CHTO  H145  567   3.574   6.694   0.170
    2CHTO   C74  568   3.671   6.617   2.864
    2CHTO  H146  569   3.600   6.669   2.797
    2CHTO   O54  570   3.781   6.708   0.012
    2CHTO  H133  571   3.749   6.794   0.032
    2CHTO   C75  572   3.716   6.478   2.806
    2CHTO  H147  573   3.626   6.416   2.789
    2CHTO   N13  574   3.783   6.485   2.673
    2CHTO  H139  575   3.884   6.447   2.678
    2CHTO  H140  576   3.786   6.586   2.637
    2CHTO   C76  577   3.804   6.402   0.042
    2CHTO  H148  578   3.894   6.461   0.059
    2CHTO   O49  579   3.730   6.391   0.168
    2CHTO   C77  580   3.690   6.517   0.224
    2CHTO  H149  581   3.778   6.577   0.245
    2CHTO   C88  582   3.625   6.488   0.360
    2CHTO   O58  583   3.582   6.609   0.428
    2CHTO  H136  584   3.544   6.587   0.511
    2CHTO   O51  585   3.837   6.250   2.871
    2CHTO   C78  586   3.920   6.166   0.106
    2CHTO  H150  587   3.891   6.196   0.209
    2CHTO   C80  588   4.072   6.187   0.089
    2CHTO  H152  589   4.101   6.157   2.859
    2CHTO   O55  590   4.098   6.328   0.104
    2CHTO  H134  591   4.188   6.346   0.087
    2CHTO   C84  592   4.153   6.102   0.194
    2CHTO  H156  593   4.129   6.140   0.293
    2CHTO   N15  594   4.302   6.116   0.177
    2CHTO  H143  595   4.331   6.085   0.079
    2CHTO  H144  596   4.331   6.217   0.193
    2CHTO   C87  597   4.110   5.953   0.189
    2CHTO  H159  598   4.149   5.905   0.099
    2CHTO   O53  599   3.952   5.941   0.191
    2CHTO   C82  600   3.885   6.017   0.089
    2CHTO  H154  601   3.914   5.981   2.864
    2CHTO   C89  602   3.733   5.995   0.103
    2CHTO   O59  603   3.698   5.857   0.084
    2CHTO  H137  604   3.732   5.805   0.155
    2CHTO   O45  605   4.175   5.870   0.324
    2CHTO   C67  606   4.081   5.837   0.428
    2CHTO  H124  607   3.988   5.893   0.414
    2CHTO   C65  608   4.047   5.683   0.422
    2CHTO  H122  609   4.138   5.633   0.388
    2CHTO   O44  610   3.945   5.667   0.322
    2CHTO  H102  611   3.978   5.689   0.237
    2CHTO   C63  612   4.019   5.621   0.565
    2CHTO  H120  613   4.115   5.604   0.614
    2CHTO   N11  614   3.959   5.484   0.568
    2CHTO  H108  615   4.030   5.411   0.602
    2CHTO  H109  616   3.922   5.456   0.472
    2CHTO   C61  617   3.945   5.728   0.653
    2CHTO  H118  618   3.932   5.684   0.753
    2CHTO   O40  619   4.023   5.850   0.670
    2CHTO   C68  620   4.131   5.876   0.573
    2CHTO  H125  621   4.220   5.816   0.600
    2CHTO   C72  622   4.170   6.025   0.586
    2CHTO   O48  623   4.293   6.055   0.520
    2CHTO  H105  624   4.314   6.146   0.532
    2CHTO   O38  625   3.816   5.762   0.596
    2CHTO   C55  626   3.722   5.825   0.685
    2CHTO  H112  627   3.774   5.872   0.770
    2CHTO   C56  628   3.614   5.719   0.734
    2CHTO  H113  629   3.571   5.673   0.644
    2CHTO   O42  630   3.680   5.613   0.805
    2CHTO  H100  631   3.619   5.546   0.828
    2CHTO   C57  632   3.503   5.788   0.822
    2CHTO  H114  633   3.550   5.815   0.916
    2CHTO   N10  634   3.389   5.699   0.855
    2CHTO  H106  635   3.409   5.645   0.947
    2CHTO  H107  636   3.372   5.627   0.776
    2CHTO   C58  637   3.451   5.918   0.754
    2CHTO  H115  638   3.384   5.892   0.669
    2CHTO   O37  639   3.558   6.002   0.707
    2CHTO   C59  640   3.646   5.939   0.612
    2CHTO  H116  641   3.589   5.901   0.528
    2CHTO   C70  642   3.744   6.045   0.559
    2CHTO   O46  643   3.679   6.149   0.485
    2CHTO  H103  644   3.643   6.114   0.405
    2CHTO   O39  645   3.373   6.007   0.863
    2CHTO   C60  646   3.279   6.101   0.810
    2CHTO  H117  647   3.298   6.117   0.704
    2CHTO   C62  648   3.133   6.047   0.825
    2CHTO  H119  649   3.127   5.956   0.763
    2CHTO   O43  650   3.109   6.010   0.963
    2CHTO  H101  651   3.112   6.086   1.018
    2CHTO   C66  652   3.029   6.157   0.770
    2CHTO  H123  653   3.054   6.180   0.666
    2CHTO   N12  654   2.889   6.107   0.768
    2CHTO  H110  655   2.823   6.183   0.730
    2CHTO  H111  656   2.883   6.017   0.708
    2CHTO   C69  657   3.045   6.288   0.852
    2CHTO  H126  658   3.025   6.267   0.960
    2CHTO   O41  659   3.193   6.338   0.835
    2CHTO   C64  660   3.297   6.237   0.882
    2CHTO  H121  661   3.286   6.221   0.991
    2CHTO   C71  662   3.439   6.294   0.854
    2CHTO   O47  663   3.470   6.403   0.941
    2CHTO  H104  664   3.414   6.476   0.921
    2CHTO   O34  665   2.948   6.401   0.804
    2CHTO   C49  666   2.836   6.470   0.886
    2CHTO   H91  667   2.768   6.392   0.920
    2CHTO   C47  668   2.761   6.568   0.792
    2CHTO   H89  669   2.675   6.608   0.849
    2CHTO   O33  670   2.711   6.493   0.680
    2CHTO   H70  671   2.659   6.549   0.625
    2CHTO   C45  672   2.862   6.687   0.752
    2CHTO   H87  673   2.953   6.642   0.709
    2CHTO    N8  674   2.805   6.780   0.650
    2CHTO   H75  675   2.702   6.756   0.629
    2CHTO   H76  676   2.862   6.776   0.559
    2CHTO   C43  677   2.910   6.763   0.885
    2CHTO   H85  678   2.984   6.836   0.854
    2CHTO   O29  679   2.965   6.668   0.979
    2CHTO   C50  680   2.892   6.547   1.009
    2CHTO   H92  681   2.962   6.479   1.060
    2CHTO   C54  682   2.782   6.571   1.117
    2CHTO   O36  683   2.838   6.621   1.239
    2CHTO   H72  684   2.887   6.553   1.281
    2CHTO   O27  685   2.805   6.838   0.949
    2CHTO   C37  686   2.717   6.950   0.963
    2CHTO   H79  687   2.655   6.962   0.873
    2CHTO   C38  688   2.620   6.927   1.084
    2CHTO   H80  689   2.680   6.897   1.171
    2CHTO   O31  690   2.534   6.816   1.049
    2CHTO   H68  691   2.479   6.839   0.976
    2CHTO   C39  692   2.536   7.056   1.120
    2CHTO   H81  693   2.466   7.073   1.038
    2CHTO    N7  694   2.453   7.041   1.245
    2CHTO   H73  695   2.484   7.111   1.322
    2CHTO   H74  696   2.458   6.940   1.283
    2CHTO   C40  697   2.630   7.182   1.127
    2CHTO   H82  698   2.695   7.176   1.215
    2CHTO   O26  699   2.707   7.191   1.006
    2CHTO   C41  700   2.798   7.080   0.985
    2CHTO   H83  701   2.863   7.069   1.073
    2CHTO   C52  702   2.888   7.116   0.865
    2CHTO   O35  703   2.975   7.234   0.892
    2CHTO   H71  704   3.037   7.213   0.960
    2CHTO   O28  705   2.557   7.306   1.131
    2CHTO   C42  706   2.620   7.430   1.177
    2CHTO   H84  707   2.548   7.507   1.148
    2CHTO   C44  708   2.755   7.471   1.108
    2CHTO   H86  709   2.828   7.391   1.126
    2CHTO   O32  710   2.728   7.478   0.967
    2CHTO   H69  711   2.808   7.494   0.920
    2CHTO   C48  712   2.814   7.606   1.164
    2CHTO   H90  713   2.749   7.687   1.131
    2CHTO    N9  714   2.950   7.637   1.106
    2CHTO   H77  715   3.020   7.559   1.134
    2CHTO   H78  716   2.984   7.733   1.141
    2CHTO   C51  717   2.815   7.605   1.321
    2CHTO   H93  718   2.888   7.532   1.355
    2CHTO   O30  719   2.683   7.575   1.370
    2CHTO   C46  720   2.635   7.438   1.332
    2CHTO   H88  721   2.709   7.365   1.364
    2CHTO   C53  722   2.502   7.412   1.406
    2CHTO   O72  723   2.401   7.508   1.373
    2CHTO  H199  724   2.322   7.488   1.419
    2CHTO   O22  725   2.846   7.737   1.373
    2CHTO   C31  726   2.871   7.767   1.515
    2CHTO   H59  727   2.901   7.873   1.518
    2CHTO   C29  728   2.747   7.752   1.607
    2CHTO   H57  729   2.716   7.647   1.605
    2CHTO   O21  730   2.640   7.829   1.551
    2CHTO   H37  731   2.659   7.921   1.555
    2CHTO   C27  732   2.780   7.793   1.756
    2CHTO   H55  733   2.803   7.900   1.759
    2CHTO    N5  734   2.667   7.767   1.849
    2CHTO   H43  735   2.580   7.824   1.818
    2CHTO   H44  736   2.643   7.662   1.851
    2CHTO   C25  737   2.910   7.719   1.804
    2CHTO   H53  738   2.889   7.611   1.813
    2CHTO   O17  739   3.019   7.735   1.708
    2CHTO   C32  740   2.990   7.687   1.576
    2CHTO   H60  741   2.963   7.581   1.581
    2CHTO   C36  742   3.120   7.697   1.492
    2CHTO   O25  743   3.170   7.831   1.483
    2CHTO   H40  744   3.201   7.859   1.567
    2CHTO   O15  745   2.959   7.772   1.940
    2CHTO   C19  746   3.054   7.725   2.040
    2CHTO   H47  747   3.036   7.617   2.044
    2CHTO   C20  748   3.203   7.751   2.003
    2CHTO   H48  749   3.222   7.857   1.980
    2CHTO   O19  750   3.231   7.676   1.883
    2CHTO   H35  751   3.317   7.695   1.851
    2CHTO   C21  752   3.302   7.707   2.119
    2CHTO   H49  753   3.301   7.598   2.126
    2CHTO    N4  754   3.443   7.746   2.091
    2CHTO   H41  755   3.451   7.853   2.084
    2CHTO   H42  756   3.507   7.712   2.171
    2CHTO   C22  757   3.251   7.762   2.255
    2CHTO   H50  758   3.258   7.871   2.253
    2CHTO   O14  759   3.115   7.723   2.277
    2CHTO   C23  760   3.023   7.780   2.182
    2CHTO   H51  761   3.034   7.890   2.187
    2CHTO   C34  762   2.880   7.746   2.225
    2CHTO   O23  763   2.850   7.800   2.353
    2CHTO   H38  764   2.761   7.779   2.377
    2CHTO   O16  765   3.324   7.708   2.367
    2CHTO   C24  766   3.315   7.801   2.497
    2CHTO   H52  767   3.229   7.869   2.493
    2CHTO   C26  768   3.444   7.883   2.511
    2CHTO   H54  769   3.531   7.813   2.511
    2CHTO   O20  770   3.456   7.970   2.397
    2CHTO   H36  771   3.472   7.920   2.319
    2CHTO   C30  772   3.445   7.964   2.645
    2CHTO   H58  773   3.367   8.042   2.642
    2CHTO    N6  774   3.574   8.035   2.666
    2CHTO   H45  775   3.656   7.965   2.672
    2CHTO   H46  776   3.570   8.093   2.757
    2CHTO   C33  777   3.409   7.871   2.766
    2CHTO   H61  778   3.491   7.798   2.783
    2CHTO   O18  779   3.289   7.797   2.737
    2CHTO   C28  780   3.295   7.712   2.622
    2CHTO   H56  781   3.379   7.643   2.630
    2CHTO   C35  782   3.164   7.631   2.611
    2CHTO   O24  783   3.146   7.542   2.722
    2CHTO   H39  784   3.066   7.494   2.711
    2CHTO    O9  785   3.398   7.946   0.014
    2CHTO   C13  786   3.366   7.858   0.145
    2CHTO   H26  787   3.402   7.754   0.126
    2CHTO   C11  788   3.210   7.862   0.174
    2CHTO   H24  789   3.160   7.797   0.100
    2CHTO    O8  790   3.159   7.995   0.157
    2CHTO    H3  791   3.166   8.022   0.067
    2CHTO    C9  792   3.185   7.806   0.317
    2CHTO   H22  793   3.238   7.710   0.321
    2CHTO    N2  794   3.044   7.771   0.343
    2CHTO   H10  795   3.035   7.721   0.439
    2CHTO   H11  796   2.982   7.860   0.341
    2CHTO    C7  797   3.252   7.904   0.423
    2CHTO   H20  798   3.284   7.836   0.505
    2CHTO    O4  799   3.367   7.974   0.372
    2CHTO   C14  800   3.448   7.908   0.273
    2CHTO   H27  801   3.491   7.818   0.323
    2CHTO   C18  802   3.568   8.000   0.239
    2CHTO   O13  803   3.527   8.130   0.194
    2CHTO    H7  804   3.484   8.123   0.111
    2CHTO    O2  805   3.148   8.016   0.483
    2CHTO    C1  806   3.180   8.062   0.615
    2CHTO   H14  807   3.284   8.030   0.642
    2CHTO    C2  808   3.080   8.004   0.723
    2CHTO   H15  809   2.979   8.026   0.685
    2CHTO    O6  810   3.098   7.861   0.732
    2CHTO    H1  811   3.184   7.841   0.762
    2CHTO    C3  812   3.101   8.075   0.866
    2CHTO   H16  813   3.198   8.043   0.907
    2CHTO    N1  814   2.995   8.033   0.965
    2CHTO    H8  815   3.040   7.989   1.052
    2CHTO    H9  816   2.933   8.117   0.994
    2CHTO    C4  817   3.110   8.231   0.849
    2CHTO   H17  818   3.013   8.270   0.819
    2CHTO    O1  819   3.210   8.265   0.751
    2CHTO    C5  820   3.180   8.218   0.618
    2CHTO   H18  821   3.081   8.252   0.588
    2CHTO   C16  822   3.286   8.281   0.524
    2CHTO   O11  823   3.253   8.263   0.386
    2CHTO    H5  824   3.318   8.303   0.333
    2CHTO    O3  825   3.155   8.294   0.971
    2CHTO    C6  826   3.103   8.429   0.996
    2CHTO   H19  827   3.067   8.478   0.905
    2CHTO    C8  828   2.984   8.426   1.097
    2CHTO   H21  829   3.015   8.366   1.184
    2CHTO    O7  830   2.875   8.360   1.030
    2CHTO    H2  831   2.802   8.350   1.089
    2CHTO   C12  832   2.945   8.571   1.145
    2CHTO   H25  833   2.904   8.624   1.056
    2CHTO    N3  834   2.836   8.568   1.248
    2CHTO   H12  835   2.747   8.525   1.206
    2CHTO   H13  836   2.868   8.512   1.334
    2CHTO   C15  837   3.074   8.647   1.193
    2CHTO   H28  838   3.116   8.603   1.284
    2CHTO   O10  839   3.050   8.800   1.216
    2CHTO    H4  840   3.126   8.838   1.256
    2CHTO    O5  841   3.173   8.649   1.089
    2CHTO   C10  842   3.219   8.518   1.051
    2CHTO   H23  843   3.263   8.470   1.139
    2CHTO   C17  844   3.332   8.536   0.949
    2CHTO   O12  845   3.285   8.598   0.828
    2CHTO    H6  846   3.262   8.687   0.845
    3CHTO  H203  847   7.789   2.093   2.425
    3CHTO   O82  848   7.756   2.034   2.489
    3CHTO  C123  849   7.718   1.910   2.426
    3CHTO  H227  850   7.806   1.868   2.376
    3CHTO   O77  851   7.681   1.826   2.540
    3CHTO  C118  852   7.648   1.691   2.504
    3CHTO  H222  853   7.733   1.645   2.449
    3CHTO  C125  854   7.624   1.610   2.637
    3CHTO   O84  855   7.744   1.600   2.714
    3CHTO  H205  856   7.806   1.546   2.670
    3CHTO  C114  857   7.523   1.690   2.415
    3CHTO  H218  858   7.440   1.731   2.472
    3CHTO  C116  859   7.542   1.780   2.288
    3CHTO  H220  860   7.614   1.730   2.219
    3CHTO   O79  861   7.417   1.788   2.217
    3CHTO  H201  862   7.428   1.837   2.138
    3CHTO  C120  863   7.595   1.924   2.328
    3CHTO  H224  864   7.511   1.975   2.380
    3CHTO   N21  865   7.630   2.006   2.209
    3CHTO  H211  866   7.617   2.111   2.232
    3CHTO  H212  867   7.568   1.978   2.125
    3CHTO   O75  868   7.500   1.550   2.387
    3CHTO  C112  869   7.351   1.512   2.328
    3CHTO  H216  870   7.346   1.542   2.222
    3CHTO   O73  871   7.253   1.580   2.408
    3CHTO  C113  872   7.120   1.570   2.357
    3CHTO  H217  873   7.119   1.609   2.252
    3CHTO  C124  874   7.035   1.663   2.443
    3CHTO   O83  875   6.902   1.677   2.393
    3CHTO  H204  876   6.854   1.738   2.448
    3CHTO  C109  877   7.073   1.422   2.361
    3CHTO  H213  878   7.060   1.395   2.467
    3CHTO  C110  879   7.177   1.327   2.293
    3CHTO  H214  880   7.170   1.340   2.185
    3CHTO   O78  881   7.141   1.190   2.320
    3CHTO  H200  882   7.144   1.173   2.412
    3CHTO  C111  883   7.323   1.357   2.340
    3CHTO  H215  884   7.333   1.329   2.446
    3CHTO   N19  885   7.426   1.280   2.265
    3CHTO  H207  886   7.408   1.174   2.277
    3CHTO  H208  887   7.525   1.304   2.303
    3CHTO   O74  888   6.943   1.410   2.294
    3CHTO  C115  889   6.842   1.309   2.363
    3CHTO  H219  890   6.894   1.236   2.425
    3CHTO   O76  891   6.744   1.383   2.461
    3CHTO  C122  892   6.644   1.460   2.392
    3CHTO  H226  893   6.696   1.534   2.330
    3CHTO  C126  894   6.564   1.542   2.499
    3CHTO   O85  895   6.466   1.629   2.440
    3CHTO  H206  896   6.399   1.578   2.398
    3CHTO  C121  897   6.550   1.368   2.303
    3CHTO  H225  898   6.453   1.358   2.354
    3CHTO   O81  899   6.528   1.433   2.177
    3CHTO  H202  900   6.481   1.513   2.189
    3CHTO  C119  901   6.610   1.226   2.279
    3CHTO  H223  902   6.600   1.174   2.375
    3CHTO  C117  903   6.764   1.234   2.246
    3CHTO  H221  904   6.788   1.290   2.155
    3CHTO   N20  905   6.824   1.098   2.224
    3CHTO  H209  906   6.752   1.020   2.243
    3CHTO  H210  907   6.862   1.089   2.124
    3CHTO   O80  908   6.518   1.132   2.182
    3CHTO  C103  909   6.373   1.087   2.230
    3CHTO  H190  910   6.365   1.093   2.338
    3CHTO  C101  911   6.252   1.165   2.165
    3CHTO  H188  912   6.267   1.169   2.057
    3CHTO   O68  913   6.250   1.309   2.219
    3CHTO  H168  914   6.328   1.354   2.194
    3CHTO   C99  915   6.112   1.091   2.194
    3CHTO  H186  916   6.093   1.091   2.303
    3CHTO   N17  917   5.994   1.156   2.129
    3CHTO  H174  918   5.989   1.260   2.158
    3CHTO  H175  919   5.903   1.104   2.156
    3CHTO   C97  920   6.125   0.941   2.153
    3CHTO  H184  921   6.140   0.936   2.044
    3CHTO   O64  922   6.234   0.882   2.225
    3CHTO  C104  923   6.363   0.933   2.192
    3CHTO  H191  924   6.386   0.921   2.086
    3CHTO  C108  925   6.465   0.847   2.268
    3CHTO   O71  926   6.597   0.855   2.211
    3CHTO  H171  927   6.598   0.811   2.128
    3CHTO   O62  928   6.011   0.861   2.194
    3CHTO   C91  929   5.976   0.751   2.108
    3CHTO  H178  930   6.049   0.743   2.027
    3CHTO   C92  931   5.838   0.778   2.040
    3CHTO  H179  932   5.763   0.795   2.119
    3CHTO   O66  933   5.846   0.901   1.966
    3CHTO  H166  934   5.857   0.974   2.025
    3CHTO   C93  935   5.794   0.660   1.944
    3CHTO  H180  936   5.851   0.672   1.851
    3CHTO   N16  937   5.651   0.672   1.904
    3CHTO  H172  938   5.625   0.591   1.836
    3CHTO  H173  939   5.634   0.767   1.856
    3CHTO   C94  940   5.822   0.517   2.003
    3CHTO  H181  941   5.744   0.484   2.072
    3CHTO   O61  942   5.946   0.510   2.077
    3CHTO   C95  943   5.965   0.610   2.177
    3CHTO  H182  944   5.881   0.608   2.247
    3CHTO  C106  945   6.094   0.574   2.259
    3CHTO   O69  946   6.081   0.446   2.321
    3CHTO  H169  947   6.084   0.379   2.256
    3CHTO   O63  948   5.840   0.412   1.879
    3CHTO   C96  949   5.773   0.267   1.899
    3CHTO  H183  950   5.806   0.205   1.815
    3CHTO   C98  951   5.618   0.268   1.900
    3CHTO  H185  952   5.582   0.341   1.973
    3CHTO   O67  953   5.575   0.316   1.771
    3CHTO  H167  954   5.482   0.326   1.770
    3CHTO  C102  955   5.556   0.123   1.931
    3CHTO  H189  956   5.585   0.059   1.846
    3CHTO   N18  957   5.408   0.118   1.936
    3CHTO  H176  958   5.372   0.182   2.015
    3CHTO  H177  959   5.375   0.016   1.953
    3CHTO  C105  960   5.624   0.067   2.059
    3CHTO  H192  961   5.595   0.129   2.144
    3CHTO   O65  962   5.768   0.069   2.048
    3CHTO  C100  963   5.826   0.199   2.030
    3CHTO  H187  964   5.799   0.262   2.117
    3CHTO  C107  965   5.980   0.183   2.028
    3CHTO   O70  966   6.028   0.141   2.157
    3CHTO  H170  967   6.121   0.130   2.153
    3CHTO   O57  968   5.574   9.910   2.079
    3CHTO   C85  969   5.559   9.849   2.208
    3CHTO  H157  970   5.550   9.742   2.185
    3CHTO   C83  971   5.420   9.887   2.271
    3CHTO  H155  972   5.343   9.842   2.208
    3CHTO   O56  973   5.398   0.029   2.264
    3CHTO  H135  974   5.311   0.050   2.291
    3CHTO   C81  975   5.410   9.828   2.414
    3CHTO  H153  976   5.429   9.721   2.408
    3CHTO   N14  977   5.275   9.838   2.473
    3CHTO  H141  978   5.247   9.940   2.486
    3CHTO  H142  979   5.203   9.790   2.409
    3CHTO   C79  980   5.523   9.893   2.503
    3CHTO  H151  981   5.513   9.850   2.603
    3CHTO   O52  982   5.653   9.852   2.452
    3CHTO   C86  983   5.679   9.877   2.310
    3CHTO  H158  984   5.711   9.983   2.308
    3CHTO   C90  985   5.805   9.794   2.274
    3CHTO   O60  986   5.847   9.809   2.138
    3CHTO  H138  987   5.879   9.896   2.124
    3CHTO   O50  988   5.517   0.036   2.512
    3CHTO   C73  989   5.530   0.152   2.596
    3CHTO  H145  990   5.615   0.139   2.665
    3CHTO   C74  991   5.400   0.173   2.679
    3CHTO  H146  992   5.383   0.081   2.737
    3CHTO   O54  993   5.423   0.278   2.774
    3CHTO  H133  994   5.348   0.289   2.829
    3CHTO   C75  995   5.280   0.203   2.580
    3CHTO  H147  996   5.265   0.115   2.516
    3CHTO   N13  997   5.150   0.223   2.648
    3CHTO  H139  998   5.155   0.308   2.715
    3CHTO  H140  999   5.072   0.241   2.576
    3CHTO   C76 1000   5.318   0.325   2.484
    3CHTO  H148 1001   5.324   0.415   2.545
    3CHTO   O49 1002   5.447   0.302   2.418
    3CHTO   C77 1003   5.557   0.278   2.507
    3CHTO  H149 1004   5.571   0.364   2.572
    3CHTO   C88 1005   5.686   0.264   2.427
    3CHTO   O58 1006   5.719   0.389   2.355
    3CHTO  H136 1007   5.797   0.377   2.304
    3CHTO   O51 1008   5.212   0.338   2.362
    3CHTO   C78 1009   5.186   0.488   2.325
    3CHTO  H150 1010   5.252   0.555   2.383
    3CHTO   C80 1011   5.040   0.528   2.354
    3CHTO  H152 1012   4.973   0.470   2.285
    3CHTO   O55 1013   5.009   0.490   2.489
    3CHTO  H134 1014   5.062   0.538   2.550
    3CHTO   C84 1015   5.020   0.682   2.331
    3CHTO  H156 1016   5.079   0.731   2.408
    3CHTO   N15 1017   4.878   0.729   2.352
    3CHTO  H143 1018   4.872   0.835   2.339
    3CHTO  H144 1019   4.813   0.681   2.282
    3CHTO   C87 1020   5.074   0.730   2.194
    3CHTO  H159 1021   4.997   0.721   2.117
    3CHTO   O53 1022   5.204   0.651   2.146
    3CHTO   C82 1023   5.215   0.512   2.176
    3CHTO  H154 1024   5.147   0.454   2.115
    3CHTO   C89 1025   5.358   0.467   2.138
    3CHTO   O59 1026   5.377   0.481   1.997
    3CHTO  H137 1027   5.463   0.452   1.974
    3CHTO   O45 1028   5.115   0.894   2.205
    3CHTO   C67 1029   5.249   0.919   2.252
    3CHTO  H124 1030   5.290   0.827   2.294
    3CHTO   C65 1031   5.342   0.964   2.132
    3CHTO  H122 1032   5.276   1.008   2.057
    3CHTO   O44 1033   5.400   0.844   2.078
    3CHTO  H102 1034   5.445   0.863   1.998
    3CHTO   C63 1035   5.442   1.080   2.171
    3CHTO  H120 1036   5.385   1.173   2.179
    3CHTO   N11 1037   5.544   1.116   2.068
    3CHTO  H108 1038   5.597   1.204   2.097
    3CHTO  H109 1039   5.497   1.133   1.973
    3CHTO   C61 1040   5.499   1.052   2.315
    3CHTO  H118 1041   5.561   1.139   2.342
    3CHTO   O40 1042   5.393   1.043   2.415
    3CHTO   C68 1043   5.255   1.024   2.369
    3CHTO  H125 1044   5.215   1.122   2.336
    3CHTO   C72 1045   5.169   0.980   2.490
    3CHTO   O48 1046   5.169   1.074   2.598
    3CHTO  H105 1047   5.115   1.043   2.667
    3CHTO   O38 1048   5.580   0.932   2.317
    3CHTO   C55 1049   5.639   0.889   2.441
    3CHTO  H112 1050   5.577   0.922   2.526
    3CHTO   C56 1051   5.789   0.941   2.454
    3CHTO  H113 1052   5.839   0.916   2.359
    3CHTO   O42 1053   5.790   1.085   2.463
    3CHTO  H100 1054   5.745   1.113   2.540
    3CHTO   C57 1055   5.865   0.873   2.575
    3CHTO  H114 1056   5.820   0.912   2.667
    3CHTO   N10 1057   6.010   0.905   2.579
    3CHTO  H106 1058   6.026   0.996   2.635
    3CHTO  H107 1059   6.066   0.825   2.625
    3CHTO   C58 1060   5.842   0.719   2.572
    3CHTO  H115 1061   5.894   0.676   2.482
    3CHTO   O37 1062   5.702   0.688   2.566
    3CHTO   C59 1063   5.638   0.734   2.446
    3CHTO  H116 1064   5.689   0.692   2.359
    3CHTO   C70 1065   5.495   0.679   2.445
    3CHTO   O46 1066   5.415   0.718   2.557
    3CHTO  H103 1067   5.397   0.810   2.553
    3CHTO   O39 1068   5.895   0.647   2.707
    3CHTO   C60 1069   5.913   0.505   2.691
    3CHTO  H117 1070   5.856   0.470   2.604
    3CHTO   C62 1071   6.062   0.470   2.667
    3CHTO  H119 1072   6.093   0.526   2.576
    3CHTO   O43 1073   6.140   0.519   2.778
    3CHTO  H101 1074   6.232   0.504   2.762
    3CHTO   C66 1075   6.077   0.312   2.641
    3CHTO  H123 1076   6.013   0.285   2.557
    3CHTO   N12 1077   6.216   0.276   2.601
    3CHTO  H110 1078   6.215   0.227   2.505
    3CHTO  H111 1079   6.263   0.214   2.676
    3CHTO   C69 1080   6.026   0.235   2.766
    3CHTO  H126 1081   6.090   0.258   2.854
    3CHTO   O41 1082   5.877   0.277   2.795
    3CHTO   C64 1083   5.858   0.428   2.814
    3CHTO  H121 1084   5.912   0.462   0.031
    3CHTO   C71 1085   5.707   0.456   2.834
    3CHTO   O47 1086   5.660   0.396   0.081
    3CHTO  H104 1087   5.569   0.415   0.091
    3CHTO   O34 1088   6.027   0.081   2.743
    3CHTO   C49 1089   6.088   9.943   2.719
    3CHTO   H91 1090   6.149   9.955   2.630
    3CHTO   C47 1091   5.975   9.841   2.688
    3CHTO   H89 1092   5.947   9.860   2.582
    3CHTO   O33 1093   5.860   9.864   2.772
    3CHTO   H70 1094   5.788   9.812   2.743
    3CHTO   C45 1095   6.025   9.688   2.711
    3CHTO   H87 1096   5.999   9.659   2.814
    3CHTO    N8 1097   5.954   9.596   2.618
    3CHTO   H75 1098   5.847   9.607   2.630
    3CHTO   H76 1099   5.982   9.494   2.640
    3CHTO   C43 1100   6.184   9.678   2.706
    3CHTO   H85 1101   6.211   9.573   2.720
    3CHTO   O29 1102   6.240   9.761   2.810
    3CHTO   C50 1103   6.178   9.890   2.834
    3CHTO   H92 1104   6.117   9.884   0.051
    3CHTO   C54 1105   6.289   9.991   2.869
    3CHTO   O36 1106   6.356   9.957   0.118
    3CHTO   H72 1107   6.298   9.969   0.190
    3CHTO   O27 1108   6.237   9.717   2.578
    3CHTO   C37 1109   6.346   9.772   2.504
    3CHTO   H79 1110   6.364   9.876   2.536
    3CHTO   C38 1111   6.478   9.693   2.529
    3CHTO   H80 1112   6.457   9.586   2.516
    3CHTO   O31 1113   6.515   9.717   2.666
    3CHTO   H68 1114   6.590   9.665   2.688
    3CHTO   C39 1115   6.592   9.737   2.429
    3CHTO   H81 1116   6.619   9.840   2.454
    3CHTO    N7 1117   6.717   9.654   2.443
    3CHTO   H73 1118   6.696   9.551   2.421
    3CHTO   H74 1119   6.794   9.692   2.377
    3CHTO   C40 1120   6.538   9.737   2.280
    3CHTO   H82 1121   6.516   9.634   2.252
    3CHTO   O26 1122   6.421   9.820   2.272
    3CHTO   C41 1123   6.309   9.772   2.353
    3CHTO   H83 1124   6.284   9.669   2.322
    3CHTO   C52 1125   6.187   9.862   2.323
    3CHTO   O35 1126   6.210   0.006   2.357
    3CHTO   H71 1127   6.223   0.015   2.449
    3CHTO   O28 1128   6.634   9.783   2.183
    3CHTO   C42 1129   6.655   9.920   2.134
    3CHTO   H84 1130   6.749   9.912   2.079
    3CHTO   C44 1131   6.678   0.031   2.242
    3CHTO   H86 1132   6.587   0.040   2.303
    3CHTO   O32 1133   6.786   9.987   2.327
    3CHTO   H69 1134   6.760   9.913   2.377
    3CHTO   C48 1135   6.710   0.172   2.178
    3CHTO   H90 1136   6.810   0.165   2.133
    3CHTO    N9 1137   6.720   0.282   2.281
    3CHTO   H77 1138   6.626   0.293   2.332
    3CHTO   H78 1139   6.749   0.374   2.234
    3CHTO   C51 1140   6.608   0.208   2.064
    3CHTO   H93 1141   6.512   0.233   2.109
    3CHTO   O30 1142   6.596   0.099   1.971
    3CHTO   C46 1143   6.548   9.970   2.032
    3CHTO   H88 1144   6.453   9.988   2.083
    3CHTO   C53 1145   6.527   9.871   1.914
    3CHTO   O72 1146   6.457   9.753   1.956
    3CHTO  H199 1147   6.446   9.696   1.882
    3CHTO   O22 1148   6.658   0.315   1.982
    3CHTO   C31 1149   6.583   0.431   1.929
    3CHTO   H59 1150   6.614   0.440   1.822
    3CHTO   C29 1151   6.428   0.422   1.929
    3CHTO   H57 1152   6.395   0.417   2.034
    3CHTO   O21 1153   6.388   0.299   1.866
    3CHTO   H37 1154   6.296   0.286   1.876
    3CHTO   C27 1155   6.364   0.549   1.860
    3CHTO   H55 1156   6.394   0.550   1.754
    3CHTO    N5 1157   6.216   0.551   1.867
    3CHTO   H43 1158   6.178   0.468   1.925
    3CHTO   H44 1159   6.174   0.548   1.767
    3CHTO   C25 1160   6.423   0.680   1.925
    3CHTO   H53 1161   6.386   0.688   2.029
    3CHTO   O17 1162   6.568   0.677   1.929
    3CHTO   C32 1163   6.626   0.564   1.997
    3CHTO   H60 1164   6.592   0.564   2.100
    3CHTO   C36 1165   6.780   0.583   1.998
    3CHTO   O25 1166   6.834   0.590   1.865
    3CHTO   H40 1167   6.928   0.601   1.870
    3CHTO   O15 1168   6.379   0.811   1.843
    3CHTO   C19 1169   6.365   0.878   1.714
    3CHTO   H47 1170   6.322   0.800   1.649
    3CHTO   C20 1171   6.269   1.000   1.718
    3CHTO   H48 1172   6.303   1.077   1.790
    3CHTO   O19 1173   6.141   0.951   1.763
    3CHTO   H35 1174   6.146   0.925   1.853
    3CHTO   C21 1175   6.256   1.069   1.575
    3CHTO   H49 1176   6.205   1.000   1.508
    3CHTO    N4 1177   6.173   1.193   1.579
    3CHTO   H41 1178   6.218   1.266   1.644
    3CHTO   H42 1179   6.163   1.234   1.480
    3CHTO   C22 1180   6.397   1.095   1.515
    3CHTO   H50 1181   6.447   1.174   1.571
    3CHTO   O14 1182   6.475   0.975   1.519
    3CHTO   C23 1183   6.500   0.920   1.649
    3CHTO   H51 1184   6.552   0.997   1.708
    3CHTO   C34 1185   6.595   0.801   1.631
    3CHTO   O23 1186   6.724   0.844   1.587
    3CHTO   H38 1187   6.781   0.770   1.578
    3CHTO   O16 1188   6.393   1.124   1.374
    3CHTO   C24 1189   6.443   1.275   1.327
    3CHTO   H52 1190   6.450   1.344   1.411
    3CHTO   C26 1191   6.341   1.328   1.223
    3CHTO   H54 1192   6.328   1.249   1.145
    3CHTO   O20 1193   6.215   1.346   1.290
    3CHTO   H36 1194   6.178   1.263   1.314
    3CHTO   C30 1195   6.388   1.459   1.153
    3CHTO   H58 1196   6.382   1.542   1.225
    3CHTO    N6 1197   6.297   1.496   1.041
    3CHTO   H45 1198   6.256   1.595   1.056
    3CHTO   H46 1199   6.349   1.494   0.946
    3CHTO   C33 1200   6.537   1.452   1.110
    3CHTO   H61 1201   6.547   1.384   1.024
    3CHTO   O18 1202   6.618   1.400   1.217
    3CHTO   C28 1203   6.585   1.268   1.262
    3CHTO   H56 1204   6.583   1.197   1.179
    3CHTO   C35 1205   6.695   1.228   1.363
    3CHTO   O24 1206   6.701   1.088   1.388
    3CHTO   H39 1207   6.732   1.043   1.312
    3CHTO    O9 1208   6.586   1.580   1.064
    3CHTO   C13 1209   6.645   1.678   1.179
    3CHTO   H26 1210   6.600   1.648   1.276
    3CHTO   C11 1211   6.613   1.829   1.144
    3CHTO   H24 1212   6.503   1.839   1.142
    3CHTO    O8 1213   6.662   1.862   1.013
    3CHTO    H3 1214   6.636   1.950   0.990
    3CHTO    C9 1215   6.670   1.916   1.259
    3CHTO   H22 1216   6.622   1.879   1.351
    3CHTO    N2 1217   6.627   2.058   1.251
    3CHTO   H10 1218   6.658   2.111   1.340
    3CHTO   H11 1219   6.671   2.105   1.163
    3CHTO    C7 1220   6.825   1.896   1.272
    3CHTO   H20 1221   6.850   1.945   1.368
    3CHTO    O4 1222   6.863   1.756   1.280
    3CHTO   C14 1223   6.802   1.655   1.197
    3CHTO   H27 1224   6.816   1.560   1.252
    3CHTO   C18 1225   6.882   1.644   1.065
    3CHTO   O13 1226   6.848   1.527   0.989
    3CHTO    H7 1227   6.897   1.525   0.910
    3CHTO    O2 1228   6.912   1.970   1.151
    3CHTO    C1 1229   7.056   1.951   1.149
    3CHTO   H14 1230   7.077   1.843   1.134
    3CHTO    C2 1231   7.134   1.999   1.280
    3CHTO   H15 1232   7.100   2.102   1.299
    3CHTO    O6 1233   7.098   1.915   1.392
    3CHTO    H1 1234   7.123   1.826   1.376
    3CHTO    C3 1235   7.293   1.997   1.257
    3CHTO   H16 1236   7.326   1.892   1.245
    3CHTO    N1 1237   7.369   2.054   1.373
    3CHTO    H8 1238   7.350   1.995   1.462
    3CHTO    H9 1239   7.339   2.156   1.390
    3CHTO    C4 1240   7.327   2.069   1.122
    3CHTO   H17 1241   7.300   2.174   1.130
    3CHTO    O1 1242   7.255   2.007   1.014
    3CHTO    C5 1243   7.113   2.024   1.023
    3CHTO   H18 1244   7.091   2.130   1.032
    3CHTO   C16 1245   7.055   1.971   0.889
    3CHTO   O11 1246   6.918   2.009   0.871
    3CHTO    H5 1247   6.864   1.962   0.932
    3CHTO    O3 1248   7.466   2.056   1.086
    3CHTO    C6 1249   7.517   2.158   0.993
    3CHTO   H19 1250   7.438   2.206   0.936
    3CHTO    C8 1251   7.595   2.268   1.073
    3CHTO   H21 1252   7.665   2.219   1.140
    3CHTO    O7 1253   7.497   2.342   1.150
    3CHTO    H2 1254   7.464   2.288   1.219
    3CHTO   C12 1255   7.676   2.363   0.975
    3CHTO   H25 1256   7.600   2.418   0.915
    3CHTO    N3 1257   7.756   2.465   1.051
    3CHTO   H12 1258   7.727   2.564   1.022
    3CHTO   H13 1259   7.862   2.450   1.035
    3CHTO   C15 1260   7.761   2.274   0.877
    3CHTO   H28 1261   7.838   2.218   0.931
    3CHTO   O10 1262   7.826   2.353   0.763
    3CHTO    H4 1263   7.888   2.414   0.798
    3CHTO    O5 1264   7.675   2.184   0.805
    3CHTO   C10 1265   7.610   2.088   0.890
    3CHTO   H23 1266   7.687   2.030   0.943
    3CHTO   C17 1267   7.531   1.991   0.801
    3CHTO   O12 1268   7.619   1.916   0.716
    3CHTO    H6 1269   7.569   1.856   0.665
    4CHTO  H203 1270   5.422   7.156   2.694
    4CHTO   O82 1271   5.483   7.199   2.751
    4CHTO  C123 1272   5.449   7.338   2.764
    4CHTO  H227 1273   5.347   7.345   2.805
    4CHTO   O77 1274   5.546   7.388   2.860
    4CHTO  C118 1275   5.519   7.522   0.030
    4CHTO  H222 1276   5.417   7.529   0.071
    4CHTO  C125 1277   5.622   7.559   0.143
    4CHTO   O84 1278   5.607   7.474   0.257
    4CHTO  H205 1279   5.525   7.490   0.299
    4CHTO  C114 1280   5.532   7.619   2.784
    4CHTO  H218 1281   5.636   7.620   2.751
    4CHTO  C116 1282   5.444   7.574   2.663
    4CHTO  H220 1283   5.337   7.595   2.686
    4CHTO   O79 1284   5.477   7.656   2.548
    4CHTO  H201 1285   5.451   7.745   2.563
    4CHTO  C120 1286   5.462   7.420   2.630
    4CHTO  H224 1287   5.565   7.408   2.589
    4CHTO   N21 1288   5.368   7.373   2.525
    4CHTO  H211 1289   5.274   7.341   2.569
    4CHTO  H212 1290   5.351   7.451   2.452
    4CHTO   O75 1291   5.496   7.748   2.838
    4CHTO  C112 1292   5.567   7.876   2.765
    4CHTO  H216 1293   5.604   7.845   2.665
    4CHTO   O73 1294   5.675   7.920   2.849
    4CHTO  C113 1295   5.756   8.024   2.791
    4CHTO  H217 1296   5.802   7.985   2.697
    4CHTO  C124 1297   5.870   8.058   0.014
    4CHTO   O83 1298   5.960   7.949   0.036
    4CHTO  H204 1299   6.029   7.976   0.093
    4CHTO  C109 1300   5.672   8.151   2.760
    4CHTO  H213 1301   5.647   8.197   2.856
    4CHTO  C110 1302   5.541   8.116   2.682
    4CHTO  H214 1303   5.567   8.092   2.579
    4CHTO   O78 1304   5.457   8.233   2.680
    4CHTO  H200 1305   5.496   8.300   2.626
    4CHTO  C111 1306   5.466   7.996   2.747
    4CHTO  H215 1307   5.431   8.025   2.847
    4CHTO   N19 1308   5.346   7.953   2.670
    4CHTO  H207 1309   5.276   8.035   2.664
    4CHTO  H208 1310   5.298   7.870   2.720
    4CHTO   O74 1311   5.755   8.243   2.683
    4CHTO  C115 1312   5.723   8.401   2.705
    4CHTO  H219 1313   5.623   8.428   2.670
    4CHTO   O76 1314   5.724   8.440   2.861
    4CHTO  C122 1315   5.711   8.579   0.019
    4CHTO  H226 1316   5.731   8.590   0.125
    4CHTO  C126 1317   5.562   8.625   2.872
    4CHTO   O85 1318   5.540   8.762   0.037
    4CHTO  H206 1319   5.452   8.786   0.018
    4CHTO  C121 1320   5.815   8.666   2.812
    4CHTO  H225 1321   5.793   8.773   2.831
    4CHTO   O81 1322   5.946   8.639   2.864
    4CHTO  H202 1323   6.009   8.697   2.824
    4CHTO  C119 1324   5.805   8.640   2.658
    4CHTO  H223 1325   5.701   8.663   2.632
    4CHTO  C117 1326   5.827   8.488   2.624
    4CHTO  H221 1327   5.924   8.446   2.650
    4CHTO   N20 1328   5.811   8.463   2.477
    4CHTO  H209 1329   5.712   8.492   2.444
    4CHTO  H210 1330   5.886   8.517   2.421
    4CHTO   O80 1331   5.885   8.750   2.566
    4CHTO  C103 1332   6.030   8.796   2.604
    4CHTO  H190 1333   6.044   8.795   2.711
    4CHTO  C101 1334   6.147   8.714   2.538
    4CHTO  H188 1335   6.129   8.706   2.430
    4CHTO   O68 1336   6.148   8.570   2.597
    4CHTO  H168 1337   6.168   8.573   2.688
    4CHTO   C99 1338   6.287   8.789   2.559
    4CHTO  H186 1339   6.308   8.795   2.668
    4CHTO   N17 1340   6.404   8.719   2.496
    4CHTO  H174 1341   6.393   8.718   2.388
    4CHTO  H175 1342   6.496   8.768   2.525
    4CHTO   C97 1343   6.273   8.936   2.511
    4CHTO  H184 1344   6.255   8.935   2.402
    4CHTO   O64 1345   6.167   9.001   2.582
    4CHTO  C104 1346   6.037   8.946   2.557
    4CHTO  H191 1347   6.010   8.952   2.451
    4CHTO  C108 1348   5.933   9.031   2.631
    4CHTO   O71 1349   5.926   9.164   2.578
    4CHTO  H171 1350   5.861   9.213   2.624
    4CHTO   O62 1351   6.387   9.018   2.544
    4CHTO   C91 1352   6.431   9.111   2.443
    4CHTO  H178 1353   6.400   9.075   2.345
    4CHTO   C92 1354   6.586   9.114   2.441
    4CHTO  H179 1355   6.622   9.154   2.538
    4CHTO   O66 1356   6.638   8.980   2.433
    4CHTO  H166 1357   6.609   8.938   2.354
    4CHTO   C93 1358   6.640   9.201   2.321
    4CHTO  H180 1359   6.632   9.135   2.233
    4CHTO   N16 1360   6.784   9.234   2.331
    4CHTO  H172 1361   6.815   9.290   2.244
    4CHTO  H173 1362   6.803   9.290   2.421
    4CHTO   C94 1363   6.550   9.330   2.296
    4CHTO  H181 1364   6.611   9.419   2.279
    4CHTO   O61 1365   6.470   9.361   2.411
    4CHTO   C95 1366   6.379   9.261   2.462
    4CHTO  H182 1367   6.365   9.277   2.569
    4CHTO  C106 1368   6.237   9.281   2.397
    4CHTO   O69 1369   6.185   9.411   2.427
    4CHTO  H169 1370   6.101   9.421   2.387
    4CHTO   O63 1371   6.455   9.309   2.168
    4CHTO   C96 1372   6.529   9.287   2.031
    4CHTO  H183 1373   6.624   9.237   2.050
    4CHTO   C98 1374   6.561   9.415   1.950
    4CHTO  H185 1375   6.469   9.472   1.931
    4CHTO   O67 1376   6.643   9.499   2.032
    4CHTO  H167 1377   6.660   9.581   1.989
    4CHTO  C102 1378   6.635   9.378   1.811
    4CHTO  H189 1379   6.733   9.337   1.840
    4CHTO   N18 1380   6.664   9.494   1.723
    4CHTO  H176 1381   6.716   9.461   1.634
    4CHTO  H177 1382   6.571   9.542   1.695
    4CHTO  C105 1383   6.556   9.265   1.738
    4CHTO  H192 1384   6.465   9.306   1.696
    4CHTO   O65 1385   6.521   9.155   1.825
    4CHTO  C100 1386   6.444   9.191   1.940
    4CHTO  H187 1387   6.352   9.243   1.907
    4CHTO  C107 1388   6.403   9.061   2.012
    4CHTO   O70 1389   6.295   9.081   2.103
    4CHTO  H170 1390   6.273   9.000   2.144
    4CHTO   O57 1391   6.654   9.209   1.620
    4CHTO   C85 1392   6.599   9.122   1.520
    4CHTO  H157 1393   6.488   9.138   1.520
    4CHTO   C83 1394   6.619   8.972   1.560
    4CHTO  H155 1395   6.566   8.954   1.653
    4CHTO   O56 1396   6.759   8.948   1.587
    4CHTO  H135 1397   6.787   8.998   1.662
    4CHTO   C81 1398   6.559   8.881   1.449
    4CHTO  H153 1399   6.453   8.906   1.439
    4CHTO   N14 1400   6.559   8.737   1.486
    4CHTO  H141 1401   6.509   8.680   1.410
    4CHTO  H142 1402   6.509   8.722   1.579
    4CHTO   C79 1403   6.629   8.909   1.311
    4CHTO  H151 1404   6.575   8.853   1.235
    4CHTO   O52 1405   6.617   9.050   1.274
    4CHTO   C86 1406   6.661   9.145   1.376
    4CHTO  H158 1407   6.771   9.134   1.379
    4CHTO   C90 1408   6.635   9.290   1.328
    4CHTO   O60 1409   6.496   9.314   1.302
    4CHTO  H138 1410   6.484   9.402   1.274
    4CHTO   O50 1411   6.767   8.867   1.307
    4CHTO   C73 1412   6.884   8.855   1.225
    4CHTO  H145 1413   6.945   8.946   1.232
    4CHTO   C74 1414   6.844   8.834   1.075
    4CHTO  H146 1415   6.780   8.918   1.046
    4CHTO   O54 1416   6.964   8.845   0.996
    4CHTO  H133 1417   6.943   8.837   0.905
    4CHTO   C75 1418   6.770   8.695   1.059
    4CHTO  H147 1419   6.678   8.697   1.119
    4CHTO   N13 1420   6.726   8.666   0.921
    4CHTO  H139 1421   6.657   8.743   0.887
    4CHTO  H140 1422   6.811   8.665   0.854
    4CHTO   C76 1423   6.863   8.579   1.118
    4CHTO  H148 1424   6.953   8.573   1.057
    4CHTO   O49 1425   6.899   8.609   1.257
    4CHTO   C77 1426   6.969   8.734   1.274
    4CHTO  H149 1427   7.063   8.731   1.217
    4CHTO   C88 1428   7.010   8.749   1.421
    4CHTO   O58 1429   7.102   8.641   1.463
    4CHTO  H136 1430   7.125   8.653   1.553
    4CHTO   O51 1431   6.784   8.441   1.125
    4CHTO   C78 1432   6.878   8.317   1.104
    4CHTO  H150 1433   6.984   8.343   1.125
    4CHTO   C80 1434   6.867   8.267   0.959
    4CHTO  H152 1435   6.760   8.254   0.934
    4CHTO   O55 1436   6.919   8.371   0.874
    4CHTO  H134 1437   6.905   8.350   0.784
    4CHTO   C84 1438   6.943   8.130   0.936
    4CHTO  H156 1439   7.050   8.149   0.948
    4CHTO   N15 1440   6.924   8.076   0.797
    4CHTO  H143 1441   6.820   8.058   0.779
    4CHTO  H144 1442   6.979   7.985   0.785
    4CHTO   C87 1443   6.901   8.028   1.044
    4CHTO  H159 1444   6.796   7.999   1.029
    4CHTO   O53 1445   6.919   8.091   1.183
    4CHTO   C82 1446   6.837   8.207   1.204
    4CHTO  H154 1447   6.732   8.181   1.194
    4CHTO   C89 1448   6.859   8.252   1.351
    4CHTO   O59 1449   6.767   8.353   1.391
    4CHTO  H137 1450   6.786   8.380   1.478
    4CHTO   O45 1451   6.999   7.894   1.046
    4CHTO   C67 1452   6.949   7.774   0.985
    4CHTO  H124 1453   6.915   7.795   0.883
    4CHTO   C65 1454   7.064   7.668   0.980
    4CHTO  H122 1455   7.150   7.720   0.938
    4CHTO   O44 1456   7.029   7.559   0.892
    4CHTO  H102 1457   7.018   7.590   0.804
    4CHTO   C63 1458   7.103   7.628   1.126
    4CHTO  H120 1459   7.130   7.719   1.181
    4CHTO   N11 1460   7.229   7.548   1.139
    4CHTO  H108 1461   7.257   7.539   1.242
    4CHTO  H109 1462   7.308   7.595   1.085
    4CHTO   C61 1463   6.979   7.567   1.203
    4CHTO  H118 1464   7.006   7.573   1.309
    4CHTO   O40 1465   6.857   7.646   1.188
    4CHTO   C68 1466   6.825   7.717   1.063
    4CHTO  H125 1467   6.763   7.803   1.094
    4CHTO   C72 1468   6.736   7.630   0.971
    4CHTO   O48 1469   6.604   7.612   1.022
    4CHTO  H105 1470   6.555   7.558   0.963
    4CHTO   O38 1471   6.949   7.430   1.168
    4CHTO   C55 1472   6.892   7.352   1.276
    4CHTO  H112 1473   6.830   7.418   1.338
    4CHTO   C56 1474   7.004   7.278   1.361
    4CHTO  H113 1475   7.062   7.215   1.292
    4CHTO   O42 1476   7.096   7.373   1.417
    4CHTO  H100 1477   7.143   7.416   1.349
    4CHTO   C57 1478   6.939   7.190   1.475
    4CHTO  H114 1479   6.895   7.259   1.547
    4CHTO   N10 1480   7.036   7.105   1.550
    4CHTO  H106 1481   7.001   7.089   1.651
    4CHTO  H107 1482   7.132   7.153   1.553
    4CHTO   C58 1483   6.825   7.102   1.417
    4CHTO  H115 1484   6.869   7.019   1.355
    4CHTO   O37 1485   6.733   7.178   1.337
    4CHTO   C59 1486   6.793   7.244   1.224
    4CHTO  H116 1487   6.845   7.171   1.161
    4CHTO   C70 1488   6.680   7.306   1.141
    4CHTO   O46 1489   6.594   7.208   1.082
    4CHTO  H103 1490   6.526   7.252   1.034
    4CHTO   O39 1491   6.734   7.040   1.538
    4CHTO   C60 1492   6.668   6.917   1.503
    4CHTO  H117 1493   6.645   6.917   1.396
    4CHTO   C62 1494   6.759   6.794   1.532
    4CHTO  H119 1495   6.850   6.806   1.469
    4CHTO   O43 1496   6.799   6.796   1.670
    4CHTO  H101 1497   6.858   6.726   1.688
    4CHTO   C66 1498   6.683   6.659   1.489
    4CHTO  H123 1499   6.656   6.666   1.384
    4CHTO   N12 1500   6.768   6.537   1.503
    4CHTO  H110 1501   6.866   6.563   1.540
    4CHTO  H111 1502   6.773   6.485   1.409
    4CHTO   C69 1503   6.550   6.648   1.569
    4CHTO  H126 1504   6.572   6.642   1.679
    4CHTO   O41 1505   6.463   6.774   1.541
    4CHTO   C64 1506   6.533   6.905   1.578
    4CHTO  H121 1507   6.551   6.908   1.687
    4CHTO   C71 1508   6.440   7.023   1.541
    4CHTO   O47 1509   6.318   7.019   1.616
    4CHTO  H104 1510   6.265   6.947   1.587
    4CHTO   O34 1511   6.468   6.522   1.530
    4CHTO   C49 1512   6.333   6.490   1.472
    4CHTO   H91 1513   6.264   6.567   1.507
    4CHTO   C47 1514   6.291   6.352   1.527
    4CHTO   H89 1515   6.188   6.335   1.487
    4CHTO   O33 1516   6.285   6.353   1.671
    4CHTO   H70 1517   6.218   6.412   1.700
    4CHTO   C45 1518   6.394   6.237   1.475
    4CHTO   H87 1519   6.477   6.231   1.546
    4CHTO    N8 1520   6.322   6.107   1.476
    4CHTO   H75 1521   6.243   6.107   1.402
    4CHTO   H76 1522   6.392   6.027   1.454
    4CHTO   C43 1523   6.461   6.282   1.335
    4CHTO   H85 1524   6.546   6.343   1.364
    4CHTO   O29 1525   6.366   6.356   1.257
    4CHTO   C50 1526   6.332   6.483   1.315
    4CHTO   H92 1527   6.402   6.559   1.277
    4CHTO   C54 1528   6.195   6.526   1.255
    4CHTO   O36 1529   6.161   6.660   1.291
    4CHTO   H72 1530   6.077   6.682   1.254
    4CHTO   O27 1531   6.520   6.174   1.260
    4CHTO   C37 1532   6.649   6.119   1.231
    4CHTO   H79 1533   6.657   6.100   1.123
    4CHTO   C38 1534   6.764   6.218   1.268
    4CHTO   H80 1535   6.750   6.249   1.373
    4CHTO   O31 1536   6.749   6.334   1.183
    4CHTO   H68 1537   6.810   6.400   1.209
    4CHTO   C39 1538   6.906   6.152   1.252
    4CHTO   H81 1539   6.921   6.132   1.146
    4CHTO    N7 1540   7.018   6.242   1.297
    4CHTO   H73 1541   7.074   6.198   1.379
    4CHTO   H74 1542   7.085   6.263   1.214
    4CHTO   C40 1543   6.908   6.012   1.327
    4CHTO   H82 1544   6.899   6.030   1.434
    4CHTO   O26 1545   6.801   5.930   1.277
    4CHTO   C41 1546   6.669   5.984   1.306
    4CHTO   H83 1547   6.659   6.002   1.414
    4CHTO   C52 1548   6.563   5.878   1.266
    4CHTO   O35 1549   6.569   5.839   1.123
    4CHTO   H71 1550   6.544   5.912   1.069
    4CHTO   O28 1551   7.029   5.937   1.302
    4CHTO   C42 1552   7.073   5.833   1.395
    4CHTO   H84 1553   7.164   5.794   1.348
    4CHTO   C44 1554   6.978   5.709   1.411
    4CHTO   H86 1555   6.880   5.745   1.443
    4CHTO   O32 1556   6.964   5.650   1.280
    4CHTO   H69 1557   6.915   5.707   1.223
    4CHTO   C48 1558   7.030   5.605   1.518
    4CHTO   H90 1559   7.124   5.562   1.483
    4CHTO    N9 1560   6.936   5.489   1.536
    4CHTO   H77 1561   6.840   5.524   1.570
    4CHTO   H78 1562   6.978   5.418   1.606
    4CHTO   C51 1563   7.057   5.683   1.653
    4CHTO   H93 1564   6.964   5.731   1.683
    4CHTO   O30 1565   7.160   5.779   1.626
    4CHTO   C46 1566   7.115   5.890   1.534
    4CHTO   H88 1567   7.029   5.940   1.581
    4CHTO   C53 1568   7.232   5.989   1.520
    4CHTO   O72 1569   7.263   6.051   1.645
    4CHTO  H199 1570   7.336   6.109   1.634
    4CHTO   O22 1571   7.110   5.601   1.760
    4CHTO   C31 1572   7.062   5.619   1.899
    4CHTO   H59 1573   6.980   5.694   1.894
    4CHTO   C29 1574   7.003   5.490   1.960
    4CHTO   H57 1575   7.082   5.414   1.960
    4CHTO   O21 1576   6.899   5.443   1.873
    4CHTO   H37 1577   6.934   5.417   1.790
    4CHTO   C27 1578   6.950   5.511   2.107
    4CHTO   H55 1579   6.860   5.575   2.103
    4CHTO    N5 1580   6.913   5.383   2.172
    4CHTO   H43 1581   6.807   5.381   2.194
    4CHTO   H44 1582   6.969   5.366   2.263
    4CHTO   C25 1583   7.054   5.592   2.194
    4CHTO   H53 1584   7.139   5.526   2.218
    4CHTO   O17 1585   7.105   5.708   2.122
    4CHTO   C32 1586   7.168   5.676   1.997
    4CHTO   H60 1587   7.245   5.601   2.013
    4CHTO   C36 1588   7.240   5.804   1.945
    4CHTO   O25 1589   7.147   5.910   1.918
    4CHTO   H40 1590   7.194   5.984   1.886
    4CHTO   O15 1591   6.986   5.641   2.327
    4CHTO   C19 1592   6.957   5.715   2.448
    4CHTO   H47 1593   6.870   5.661   2.491
    4CHTO   C20 1594   7.072   5.714   2.554
    4CHTO   H48 1595   7.165   5.755   2.513
    4CHTO   O19 1596   7.097   5.576   2.588
    4CHTO   H35 1597   7.023   5.538   2.631
    4CHTO   C21 1598   7.034   5.800   2.682
    4CHTO   H49 1599   6.948   5.754   2.730
    4CHTO    N4 1600   7.142   5.805   2.784
    4CHTO   H41 1601   7.231   5.849   2.741
    4CHTO   H42 1602   7.165   5.705   2.819
    4CHTO   C22 1603   6.991   5.941   2.633
    4CHTO   H50 1604   7.076   5.985   2.580
    4CHTO   O14 1605   6.879   5.928   2.544
    4CHTO   C23 1606   6.907   5.861   2.420
    4CHTO   H51 1607   6.983   5.920   2.366
    4CHTO   C34 1608   6.777   5.864   2.340
    4CHTO   O23 1609   6.795   5.820   2.205
    4CHTO   H38 1610   6.712   5.820   2.160
    4CHTO   O16 1611   6.947   6.028   2.739
    4CHTO   C24 1612   6.953   6.184   2.694
    4CHTO   H52 1613   6.957   6.195   2.585
    4CHTO   C26 1614   7.078   6.250   2.755
    4CHTO   H54 1615   7.073   6.239   2.866
    4CHTO   O20 1616   7.195   6.179   2.711
    4CHTO   H36 1617   7.205   6.186   2.618
    4CHTO   C30 1618   7.084   6.401   2.719
    4CHTO   H58 1619   7.108   6.411   2.612
    4CHTO    N6 1620   7.196   6.470   2.791
    4CHTO   H45 1621   7.263   6.517   2.721
    4CHTO   H46 1622   7.158   6.545   2.860
    4CHTO   C33 1623   6.947   6.474   2.739
    4CHTO   H61 1624   6.932   6.499   2.845
    4CHTO   O18 1625   6.836   6.395   2.693
    4CHTO   C28 1626   6.827   6.260   2.742
    4CHTO   H56 1627   6.822   6.258   2.850
    4CHTO   C35 1628   6.698   6.197   2.684
    4CHTO   O24 1629   6.665   6.070   2.743
    4CHTO   H39 1630   6.587   6.037   2.703
    4CHTO    O9 1631   6.953   6.601   2.670
    4CHTO   C13 1632   6.838   6.708   2.700
    4CHTO   H26 1633   6.746   6.652   2.730
    4CHTO   C11 1634   6.815   6.795   2.570
    4CHTO   H24 1635   6.772   6.729   2.493
    4CHTO    O8 1636   6.941   6.843   2.519
    4CHTO    H3 1637   6.928   6.887   2.437
    4CHTO    C9 1638   6.712   6.907   2.602
    4CHTO   H22 1639   6.622   6.855   2.638
    4CHTO    N2 1640   6.666   6.983   2.483
    4CHTO   H10 1641   6.587   7.051   2.511
    4CHTO   H11 1642   6.749   7.037   2.439
    4CHTO    C7 1643   6.768   6.998   2.718
    4CHTO   H20 1644   6.684   7.068   2.742
    4CHTO    O4 1645   6.795   6.918   2.835
    4CHTO   C14 1646   6.876   6.799   2.825
    4CHTO   H27 1647   6.855   6.740   0.042
    4CHTO   C18 1648   7.027   6.836   2.830
    4CHTO   O13 1649   7.061   6.899   0.080
    4CHTO    H7 1650   7.056   6.836   0.150
    4CHTO    O2 1651   6.906   7.087   2.678
    4CHTO    C1 1652   6.885   7.222   2.633
    4CHTO   H14 1653   6.777   7.238   2.609
    4CHTO    C2 1654   6.971   7.257   2.504
    4CHTO   H15 1655   7.076   7.235   2.531
    4CHTO    O6 1656   6.930   7.172   2.396
    4CHTO    H1 1657   6.841   7.189   2.373
    4CHTO    C3 1658   6.957   7.413   2.466
    4CHTO   H16 1659   6.853   7.432   2.434
    4CHTO    N1 1660   7.046   7.451   2.351
    4CHTO    H8 1661   7.032   7.556   2.326
    4CHTO    H9 1662   7.149   7.434   2.377
    4CHTO    C4 1663   6.980   7.502   2.593
    4CHTO   H17 1664   7.085   7.496   2.622
    4CHTO    O1 1665   6.896   7.459   2.701
    4CHTO    C5 1666   6.921   7.325   2.746
    4CHTO   H18 1667   7.026   7.313   2.772
    4CHTO   C16 1668   6.836   7.308   0.002
    4CHTO   O11 1669   6.875   7.192   0.076
    4CHTO    H5 1670   6.960   7.204   0.112
    4CHTO    O3 1671   6.942   7.639   2.569
    4CHTO    C6 1672   7.019   7.741   2.641
    4CHTO   H19 1673   7.080   7.699   2.722
    4CHTO    C8 1674   7.115   7.815   2.542
    4CHTO   H21 1675   7.056   7.847   2.456
    4CHTO    O7 1676   7.214   7.719   2.501
    4CHTO    H2 1677   7.271   7.757   2.436
    4CHTO   C12 1678   7.180   7.942   2.610
    4CHTO   H25 1679   7.248   7.905   2.689
    4CHTO    N3 1680   7.265   8.019   2.512
    4CHTO   H12 1681   7.344   7.956   2.475
    4CHTO   H13 1682   7.306   8.106   2.560
    4CHTO   C15 1683   7.068   8.029   2.678
    4CHTO   H28 1684   7.002   8.075   2.603
    4CHTO   O10 1685   7.126   8.141   2.770
    4CHTO    H4 1686   7.057   8.199   2.797
    4CHTO    O5 1687   6.992   7.950   2.770
    4CHTO   C10 1688   6.921   7.842   2.708
    4CHTO   H23 1689   6.855   7.883   2.632
    4CHTO   C17 1690   6.831   7.776   2.813
    4CHTO   O12 1691   6.905   7.723   0.050
    4CHTO    H6 1692   6.943   7.793   0.100
    5CHTO  H203 1693   7.647   3.476   1.762
    5CHTO   O82 1694   7.568   3.431   1.782
    5CHTO  C123 1695   7.566   3.390   1.920
    5CHTO  H227 1696   7.664   3.346   1.945
    5CHTO   O77 1697   7.550   3.517   1.991
    5CHTO  C118 1698   7.548   3.506   2.135
    5CHTO  H222 1699   7.639   3.454   2.169
    5CHTO  C125 1700   7.546   3.651   2.196
    5CHTO   O84 1701   7.431   3.726   2.155
    5CHTO  H205 1702   7.437   3.745   2.063
    5CHTO  C114 1703   7.425   3.423   2.176
    5CHTO  H218 1704   7.336   3.471   2.136
    5CHTO  C116 1705   7.432   3.281   2.111
    5CHTO  H220 1706   7.520   3.226   2.154
    5CHTO   O79 1707   7.316   3.206   2.151
    5CHTO  H201 1708   7.238   3.246   2.116
    5CHTO  C120 1709   7.447   3.293   1.954
    5CHTO  H224 1710   7.351   3.336   1.917
    5CHTO   N21 1711   7.465   3.160   1.889
    5CHTO  H211 1712   7.517   3.092   1.954
    5CHTO  H212 1713   7.368   3.120   1.861
    5CHTO   O75 1714   7.424   3.421   2.320
    5CHTO  C112 1715   7.274   3.449   2.379
    5CHTO  H216 1716   7.203   3.383   2.326
    5CHTO   O73 1717   7.244   3.588   2.357
    5CHTO  C113 1718   7.109   3.623   2.388
    5CHTO  H217 1719   7.040   3.562   2.326
    5CHTO  C124 1720   7.087   3.770   2.350
    5CHTO   O83 1721   7.109   3.795   2.211
    5CHTO  H204 1722   7.095   3.886   2.192
    5CHTO  C109 1723   7.080   3.601   2.539
    5CHTO  H213 1724   7.139   3.676   2.594
    5CHTO  C110 1725   7.122   3.457   2.584
    5CHTO  H214 1726   7.049   3.386   2.543
    5CHTO   O78 1727   7.111   3.447   2.727
    5CHTO  H200 1728   7.171   3.506   2.769
    5CHTO  C111 1729   7.265   3.420   2.533
    5CHTO  H215 1730   7.338   3.485   2.584
    5CHTO   N19 1731   7.305   3.280   2.563
    5CHTO  H207 1732   7.235   3.211   2.517
    5CHTO  H208 1733   7.308   3.264   2.670
    5CHTO   O74 1734   6.939   3.625   2.564
    5CHTO  C115 1735   6.905   3.690   2.704
    5CHTO  H219 1736   6.986   3.676   2.776
    5CHTO   O76 1737   6.887   3.846   2.693
    5CHTO  C122 1738   6.791   3.885   2.593
    5CHTO  H226 1739   6.843   3.881   2.496
    5CHTO  C126 1740   6.754   4.036   2.614
    5CHTO   O85 1741   6.697   4.061   2.743
    5CHTO  H206 1742   6.677   4.153   2.751
    5CHTO  C121 1743   6.662   3.792   2.588
    5CHTO  H225 1744   6.572   3.856   2.576
    5CHTO   O81 1745   6.667   3.710   2.470
    5CHTO  H202 1746   6.739   3.649   2.475
    5CHTO  C119 1747   6.646   3.709   2.720
    5CHTO  H223 1748   6.638   3.786   2.797
    5CHTO  C117 1749   6.773   3.621   2.756
    5CHTO  H221 1750   6.775   3.523   2.709
    5CHTO   N20 1751   6.780   3.592   0.029
    5CHTO  H209 1752   6.764   3.487   0.048
    5CHTO  H210 1753   6.709   3.652   0.085
    5CHTO   O80 1754   6.506   3.634   2.738
    5CHTO  C103 1755   6.443   3.549   2.617
    5CHTO  H190 1756   6.441   3.608   2.525
    5CHTO  C101 1757   6.505   3.407   2.586
    5CHTO  H188 1758   6.516   3.352   2.679
    5CHTO   O68 1759   6.645   3.426   2.524
    5CHTO  H168 1760   6.686   3.342   2.514
    5CHTO   C99 1761   6.410   3.323   2.487
    5CHTO  H186 1762   6.408   3.373   2.389
    5CHTO   N17 1763   6.458   3.182   2.462
    5CHTO  H174 1764   6.453   3.124   2.553
    5CHTO  H175 1765   6.399   3.137   2.383
    5CHTO   C97 1766   6.263   3.325   2.538
    5CHTO  H184 1767   6.256   3.263   2.629
    5CHTO   O64 1768   6.219   3.460   2.562
    5CHTO  C104 1769   6.293   3.531   2.662
    5CHTO  H191 1770   6.290   3.476   2.756
    5CHTO  C108 1771   6.222   3.665   2.689
    5CHTO   O71 1772   6.212   3.746   2.571
    5CHTO  H171 1773   6.297   3.774   2.544
    5CHTO   O62 1774   6.170   3.278   2.438
    5CHTO   C91 1775   6.043   3.230   2.486
    5CHTO  H178 1776   6.035   3.248   2.593
    5CHTO   C92 1777   6.036   3.075   2.466
    5CHTO  H179 1778   6.058   3.052   2.360
    5CHTO   O66 1779   6.144   3.017   2.542
    5CHTO  H166 1780   6.150   2.925   2.524
    5CHTO   C93 1781   5.896   3.016   2.508
    5CHTO  H180 1782   5.887   3.027   2.617
    5CHTO   N16 1783   5.883   2.870   2.481
    5CHTO  H172 1784   5.958   2.815   2.535
    5CHTO  H173 1785   5.893   2.852   2.375
    5CHTO   C94 1786   5.781   3.097   2.439
    5CHTO  H181 1787   5.783   3.087   2.330
    5CHTO   O61 1788   5.796   3.237   2.470
    5CHTO   C95 1789   5.916   3.295   2.417
    5CHTO  H182 1790   5.919   3.279   2.309
    5CHTO  C106 1791   5.904   3.450   2.441
    5CHTO   O69 1792   6.005   3.522   2.371
    5CHTO  H169 1793   6.089   3.503   2.407
    5CHTO   O63 1794   5.636   3.057   2.497
    5CHTO   C96 1795   5.527   3.034   2.382
    5CHTO  H183 1796   5.572   2.971   2.305
    5CHTO   C98 1797   5.471   3.162   2.313
    5CHTO  H185 1798   5.422   3.225   2.389
    5CHTO   O67 1799   5.579   3.242   2.261
    5CHTO  H167 1800   5.627   3.194   2.197
    5CHTO  C102 1801   5.369   3.125   2.195
    5CHTO  H189 1802   5.432   3.100   2.109
    5CHTO   N18 1803   5.283   3.238   2.150
    5CHTO  H176 1804   5.297   3.256   2.045
    5CHTO  H177 1805   5.179   3.219   2.172
    5CHTO  C105 1806   5.287   2.996   2.230
    5CHTO  H192 1807   5.183   3.008   2.199
    5CHTO   O65 1808   5.283   2.963   2.371
    5CHTO  C100 1809   5.406   2.955   2.445
    5CHTO  H187 1810   5.386   3.000   2.543
    5CHTO  C107 1811   5.445   2.807   2.470
    5CHTO   O70 1812   5.346   2.739   2.549
    5CHTO  H170 1813   5.346   2.773   2.636
    5CHTO   O57 1814   5.354   2.880   2.139
    5CHTO   C85 1815   5.272   2.770   2.095
    5CHTO  H157 1816   5.170   2.788   2.135
    5CHTO   C83 1817   5.321   2.639   2.164
    5CHTO  H155 1818   5.309   2.652   2.272
    5CHTO   O56 1819   5.462   2.621   2.141
    5CHTO  H135 1820   5.479   2.607   2.050
    5CHTO   C81 1821   5.232   2.520   2.119
    5CHTO  H153 1822   5.128   2.546   2.139
    5CHTO   N14 1823   5.254   2.397   2.198
    5CHTO  H141 1824   5.338   2.407   2.264
    5CHTO  H142 1825   5.271   2.312   2.134
    5CHTO   C79 1826   5.247   2.500   1.963
    5CHTO  H151 1827   5.175   2.424   1.933
    5CHTO   O52 1828   5.208   2.623   1.893
    5CHTO   C86 1829   5.271   2.748   1.938
    5CHTO  H158 1830   5.374   2.745   1.896
    5CHTO   C90 1831   5.198   2.864   1.865
    5CHTO   O60 1832   5.261   2.991   1.885
    5CHTO  H138 1833   5.251   3.018   1.975
    5CHTO   O50 1834   5.378   2.457   1.921
    5CHTO   C73 1835   5.422   2.371   1.814
    5CHTO  H145 1836   5.358   2.386   1.726
    5CHTO   C74 1837   5.415   2.221   1.854
    5CHTO  H146 1838   5.311   2.200   1.883
    5CHTO   O54 1839   5.442   2.143   1.736
    5CHTO  H133 1840   5.432   2.052   1.755
    5CHTO   C75 1841   5.515   2.194   1.973
    5CHTO  H147 1842   5.481   2.251   2.061
    5CHTO   N13 1843   5.520   2.052   2.018
    5CHTO  H139 1844   5.421   2.021   2.050
    5CHTO  H140 1845   5.588   2.042   2.101
    5CHTO   C76 1846   5.662   2.248   1.937
    5CHTO  H148 1847   5.705   2.184   1.860
    5CHTO   O49 1848   5.656   2.387   1.888
    5CHTO   C77 1849   5.569   2.406   1.776
    5CHTO  H149 1850   5.600   2.342   1.693
    5CHTO   C88 1851   5.583   2.550   1.725
    5CHTO   O58 1852   5.502   2.573   1.604
    5CHTO  H136 1853   5.514   2.661   1.574
    5CHTO   O51 1854   5.753   2.252   2.075
    5CHTO   C78 1855   5.895   2.317   2.056
    5CHTO  H150 1856   5.904   2.366   1.957
    5CHTO   C80 1857   6.006   2.211   2.069
    5CHTO  H152 1858   5.996   2.161   2.169
    5CHTO   O55 1859   5.983   2.112   1.967
    5CHTO  H134 1860   5.907   2.061   1.987
    5CHTO   C84 1861   6.148   2.278   2.057
    5CHTO  H156 1862   6.157   2.317   1.955
    5CHTO   N15 1863   6.261   2.179   2.075
    5CHTO  H143 1864   6.257   2.137   2.173
    5CHTO  H144 1865   6.355   2.229   2.062
    5CHTO   C87 1866   6.161   2.397   2.155
    5CHTO  H159 1867   6.169   2.360   2.258
    5CHTO   O53 1868   6.039   2.491   2.143
    5CHTO   C82 1869   5.914   2.425   2.164
    5CHTO  H154 1870   5.911   2.381   2.263
    5CHTO   C89 1871   5.800   2.529   2.157
    5CHTO   O59 1872   5.805   2.618   2.269
    5CHTO  H137 1873   5.733   2.677   2.265
    5CHTO   O45 1874   6.289   2.487   2.119
    5CHTO   C67 1875   6.363   2.534   2.233
    5CHTO  H124 1876   6.297   2.538   2.320
    5CHTO   C65 1877   6.483   2.438   2.264
    5CHTO  H122 1878   6.500   2.380   2.173
    5CHTO   O44 1879   6.439   2.350   2.368
    5CHTO  H102 1880   6.501   2.281   2.380
    5CHTO   C63 1881   6.620   2.514   2.287
    5CHTO  H120 1882   6.655   2.551   2.191
    5CHTO   N11 1883   6.736   2.428   2.329
    5CHTO  H108 1884   6.784   2.469   2.415
    5CHTO  H109 1885   6.703   2.329   2.352
    5CHTO   C61 1886   6.595   2.641   2.377
    5CHTO  H118 1887   6.689   2.697   2.376
    5CHTO   O40 1888   6.492   2.729   2.323
    5CHTO   C68 1889   6.411   2.682   2.211
    5CHTO  H125 1890   6.472   2.688   2.118
    5CHTO   C72 1891   6.292   2.779   2.193
    5CHTO   O48 1892   6.334   2.911   2.157
    5CHTO  H105 1893   6.259   2.966   2.148
    5CHTO   O38 1894   6.563   2.604   2.513
    5CHTO   C55 1895   6.514   2.704   2.605
    5CHTO  H112 1896   6.433   2.761   2.557
    5CHTO   C56 1897   6.630   2.800   2.657
    5CHTO  H113 1898   6.711   2.736   2.694
    5CHTO   O42 1899   6.685   2.875   2.547
    5CHTO  H100 1900   6.619   2.928   2.507
    5CHTO   C57 1901   6.579   2.898   2.770
    5CHTO  H114 1902   6.514   2.971   2.722
    5CHTO   N10 1903   6.687   2.976   2.836
    5CHTO  H106 1904   6.661   3.001   0.063
    5CHTO  H107 1905   6.779   2.919   2.836
    5CHTO   C58 1906   6.495   2.820   0.002
    5CHTO  H115 1907   6.564   2.758   0.065
    5CHTO   O37 1908   6.397   2.734   2.816
    5CHTO   C59 1909   6.450   2.634   2.728
    5CHTO  H116 1910   6.523   2.574   2.781
    5CHTO   C70 1911   6.335   2.540   2.686
    5CHTO   O46 1912   6.228   2.606   2.617
    5CHTO  H103 1913   6.162   2.544   2.596
    5CHTO   O39 1914   6.411   2.929   0.101
    5CHTO   C60 1915   6.292   2.985   0.042
    5CHTO  H117 1916   6.302   2.986   2.808
    5CHTO   C62 1917   6.166   2.902   0.079
    5CHTO  H119 1918   6.182   2.799   0.039
    5CHTO   O43 1919   6.153   2.893   0.222
    5CHTO  H101 1920   6.224   2.843   0.258
    5CHTO   C66 1921   6.036   2.965   0.007
    5CHTO  H123 1922   6.054   2.968   2.774
    5CHTO   N12 1923   5.914   2.883   0.026
    5CHTO  H110 1924   5.929   2.785   2.857
    5CHTO  H111 1925   5.890   2.876   0.131
    5CHTO   C69 1926   6.019   3.112   0.055
    5CHTO  H126 1927   6.005   3.113   0.166
    5CHTO   O41 1928   6.150   3.191   0.018
    5CHTO   C64 1929   6.273   3.133   0.087
    5CHTO  H121 1930   6.260   3.136   0.197
    5CHTO   C71 1931   6.396   3.220   0.051
    5CHTO   O47 1932   6.382   3.352   0.104
    5CHTO  H104 1933   6.456   3.404   0.080
    5CHTO   O34 1934   5.892   3.185   2.862
    5CHTO   C49 1935   5.832   3.333   2.873
    5CHTO   H91 1936   5.879   3.392   2.794
    5CHTO   C47 1937   5.869   3.393   0.137
    5CHTO   H89 1938   5.832   3.498   0.136
    5CHTO   O33 1939   6.012   3.397   0.153
    5CHTO   H70 1940   6.047   3.310   0.156
    5CHTO   C45 1941   5.790   3.310   0.250
    5CHTO   H87 1942   5.805   3.203   0.233
    5CHTO    N8 1943   5.833   3.341   0.389
    5CHTO   H75 1944   5.781   3.278   0.458
    5CHTO   H76 1945   5.813   3.445   0.411
    5CHTO   C43 1946   5.633   3.335   0.226
    5CHTO   H85 1947   5.580   3.279   0.303
    5CHTO   O29 1948   5.597   3.291   0.093
    5CHTO   C50 1949   5.677   3.335   2.855
    5CHTO   H92 1950   5.655   3.267   2.772
    5CHTO   C54 1951   5.628   3.473   2.802
    5CHTO   O36 1952   5.492   3.465   2.756
    5CHTO   H72 1953   5.466   3.548   2.721
    5CHTO   O27 1954   5.597   3.474   0.246
    5CHTO   C37 1955   5.508   3.569   0.304
    5CHTO   H79 1956   5.502   3.658   0.240
    5CHTO   C38 1957   5.364   3.510   0.314
    5CHTO   H80 1958   5.370   3.411   0.362
    5CHTO   O31 1959   5.316   3.495   0.180
    5CHTO   H68 1960   5.362   3.426   0.136
    5CHTO   C39 1961   5.267   3.603   0.398
    5CHTO   H81 1962   5.251   3.694   0.340
    5CHTO    N7 1963   5.131   3.542   0.422
    5CHTO   H73 1964   5.123   3.444   0.376
    5CHTO   H74 1965   5.053   3.607   0.385
    5CHTO   C40 1966   5.335   3.645   0.534
    5CHTO   H82 1967   5.342   3.558   0.599
    5CHTO   O26 1968   5.463   3.703   0.508
    5CHTO   C41 1969   5.558   3.612   0.445
    5CHTO   H83 1970   5.573   3.523   0.508
    5CHTO   C52 1971   5.693   3.687   0.434
    5CHTO   O35 1972   5.747   3.726   0.565
    5CHTO   H71 1973   5.691   3.791   0.603
    5CHTO   O28 1974   5.262   3.751   0.600
    5CHTO   C42 1975   5.271   3.781   0.744
    5CHTO   H84 1976   5.196   3.859   0.754
    5CHTO   C44 1977   5.407   3.843   0.794
    5CHTO   H86 1978   5.466   3.869   0.706
    5CHTO   O32 1979   5.378   3.967   0.861
    5CHTO   H69 1980   5.458   4.012   0.882
    5CHTO   C48 1981   5.494   3.748   0.887
    5CHTO   H90 1982   5.457   3.757   0.989
    5CHTO    N9 1983   5.637   3.794   0.895
    5CHTO   H77 1984   5.642   3.894   0.935
    5CHTO   H78 1985   5.682   3.790   0.797
    5CHTO   C51 1986   5.478   3.597   0.843
    5CHTO   H93 1987   5.516   3.588   0.742
    5CHTO   O30 1988   5.339   3.557   0.852
    5CHTO   C46 1989   5.224   3.662   0.834
    5CHTO   H88 1990   5.143   3.610   0.782
    5CHTO   C53 1991   5.175   3.705   0.974
    5CHTO   O72 1992   5.058   3.789   0.968
    5CHTO  H199 1993   5.081   3.872   0.931
    5CHTO   O22 1994   5.548   3.507   0.932
    5CHTO   C31 1995   5.569   3.363   0.903
    5CHTO   H59 1996   5.628   3.324   0.990
    5CHTO   C29 1997   5.439   3.280   0.896
    5CHTO   H57 1998   5.377   3.321   0.814
    5CHTO   O21 1999   5.366   3.300   1.019
    5CHTO   H37 2000   5.338   3.389   1.026
    5CHTO   C27 2001   5.466   3.127   0.867
    5CHTO   H55 2002   5.525   3.086   0.950
    5CHTO    N5 2003   5.342   3.046   0.851
    5CHTO   H43 2004   5.337   2.971   0.929
    5CHTO   H44 2005   5.254   3.109   0.853
    5CHTO   C25 2006   5.555   3.117   0.738
    5CHTO   H53 2007   5.500   3.157   0.652
    5CHTO   O17 2008   5.676   3.197   0.756
    5CHTO   C32 2009   5.659   3.337   0.777
    5CHTO   H60 2010   5.612   3.382   0.690
    5CHTO   C36 2011   5.803   3.391   0.793
    5CHTO   O25 2012   5.809   3.534   0.791
    5CHTO   H40 2013   5.898   3.562   0.800
    5CHTO   O15 2014   5.600   2.967   0.707
    5CHTO   C19 2015   5.716   2.898   0.762
    5CHTO   H47 2016   5.760   2.968   0.834
    5CHTO   C20 2017   5.683   2.765   0.836
    5CHTO   H48 2018   5.631   2.693   0.771
    5CHTO   O19 2019   5.592   2.800   0.943
    5CHTO   H35 2020   5.561   2.722   0.986
    5CHTO   C21 2021   5.813   2.695   0.893
    5CHTO   H49 2022   5.852   2.756   0.975
    5CHTO    N4 2023   5.785   2.561   0.951
    5CHTO   H41 2024   5.876   2.518   0.991
    5CHTO   H42 2025   5.746   2.495   0.875
    5CHTO   C22 2026   5.923   2.689   0.783
    5CHTO   H50 2027   5.894   2.616   0.708
    5CHTO   O14 2028   5.942   2.818   0.722
    5CHTO   C23 2029   5.826   2.870   0.656
    5CHTO   H51 2030   5.794   2.795   0.582
    5CHTO   C34 2031   5.867   2.996   0.578
    5CHTO   O23 2032   5.955   2.965   0.470
    5CHTO   H38 2033   5.977   3.044   0.424
    5CHTO   O16 2034   6.052   2.661   0.839
    5CHTO   C24 2035   6.145   2.563   0.751
    5CHTO   H52 2036   6.089   2.517   0.669
    5CHTO   C26 2037   6.201   2.453   0.843
    5CHTO   H54 2038   6.250   2.502   0.930
    5CHTO   O20 2039   6.090   2.376   0.894
    5CHTO   H36 2040   6.047   2.330   0.825
    5CHTO   C30 2041   6.307   2.365   0.769
    5CHTO   H58 2042   6.260   2.311   0.686
    5CHTO    N6 2043   6.366   2.261   0.859
    5CHTO   H45 2044   6.417   2.308   0.942
    5CHTO   H46 2045   6.436   2.201   0.804
    5CHTO   C33 2046   6.416   2.458   0.706
    5CHTO   H61 2047   6.467   2.514   0.787
    5CHTO   O18 2048   6.351   2.554   0.621
    5CHTO   C28 2049   6.260   2.644   0.686
    5CHTO   H56 2050   6.312   2.699   0.764
    5CHTO   C35 2051   6.213   2.745   0.579
    5CHTO   O24 2052   6.143   2.685   0.469
    5CHTO   H39 2053   6.203   2.635   0.418
    5CHTO    O9 2054   6.521   2.388   0.637
    5CHTO   C13 2055   6.486   2.331   0.485
    5CHTO   H26 2056   6.380   2.299   0.483
    5CHTO   C11 2057   6.585   2.212   0.456
    5CHTO   H24 2058   6.557   2.129   0.523
    5CHTO    O8 2059   6.720   2.250   0.487
    5CHTO    H3 2060   6.728   2.269   0.579
    5CHTO    C9 2061   6.566   2.165   0.309
    5CHTO   H22 2062   6.459   2.142   0.299
    5CHTO    N2 2063   6.636   2.038   0.277
    5CHTO   H10 2064   6.701   2.007   0.358
    5CHTO   H11 2065   6.565   1.960   0.254
    5CHTO    C7 2066   6.600   2.284   0.211
    5CHTO   H20 2067   6.574   2.245   0.110
    5CHTO    O4 2068   6.517   2.399   0.238
    5CHTO   C14 2069   6.499   2.446   0.374
    5CHTO   H27 2070   6.402   2.500   0.372
    5CHTO   C18 2071   6.608   2.551   0.409
    5CHTO   O13 2072   6.589   2.672   0.335
    5CHTO    H7 2073   6.511   2.716   0.364
    5CHTO    O2 2074   6.760   2.329   0.215
    5CHTO    C1 2075   6.822   2.346   0.087
    5CHTO   H14 2076   6.745   2.376   0.011
    5CHTO    C2 2077   6.897   2.216   0.034
    5CHTO   H15 2078   6.957   2.179   0.119
    5CHTO    O6 2079   6.799   2.116   0.000
    5CHTO    H1 2080   6.745   2.146   2.804
    5CHTO    C3 2081   6.993   2.248   2.783
    5CHTO   H16 2082   6.931   2.279   2.697
    5CHTO    N1 2083   7.073   2.128   2.739
    5CHTO    H8 2084   7.050   2.042   2.800
    5CHTO    H9 2085   7.053   2.106   2.635
    5CHTO    C4 2086   7.083   2.371   2.818
    5CHTO   H17 2087   7.146   2.346   0.030
    5CHTO    O1 2088   6.998   2.482   2.850
    5CHTO    C5 2089   6.921   2.467   0.096
    5CHTO   H18 2090   6.988   2.449   0.181
    5CHTO   C16 2091   6.845   2.600   0.119
    5CHTO   O11 2092   6.935   2.709   0.141
    5CHTO    H5 2093   6.977   2.699   0.224
    5CHTO    O3 2094   7.163   2.420   2.708
    5CHTO    C6 2095   7.307   2.437   2.731
    5CHTO   H19 2096   7.343   2.385   2.820
    5CHTO    C8 2097   7.385   2.380   2.608
    5CHTO   H21 2098   7.338   2.418   2.517
    5CHTO    O7 2099   7.369   2.237   2.613
    5CHTO    H2 2100   7.404   2.198   2.535
    5CHTO   C12 2101   7.538   2.420   2.609
    5CHTO   H25 2102   7.585   2.363   2.692
    5CHTO    N3 2103   7.607   2.377   2.482
    5CHTO   H12 2104   7.600   2.270   2.471
    5CHTO   H13 2105   7.562   2.426   2.397
    5CHTO   C15 2106   7.553   2.573   2.638
    5CHTO   H28 2107   7.518   2.635   2.555
    5CHTO   O10 2108   7.698   2.613   2.673
    5CHTO    H4 2109   7.754   2.600   2.599
    5CHTO    O5 2110   7.484   2.608   2.759
    5CHTO   C10 2111   7.342   2.588   2.750
    5CHTO   H23 2112   7.304   2.646   2.666
    5CHTO   C17 2113   7.280   2.647   0.004
    5CHTO   O12 2114   7.299   2.789   0.011
    5CHTO    H6 2115   7.264   2.821   0.092
    6CHTO  H203 2116   5.481   4.460   0.358
    6CHTO   O82 2117   5.516   4.446   0.444
    6CHTO  C123 2118   5.556   4.571   0.503
    6CHTO  H227 2119   5.613   4.629   0.429
    6CHTO   O77 2120   5.429   4.638   0.530
    6CHTO  C118 2121   5.438   4.768   0.589
    6CHTO  H222 2122   5.496   4.835   0.522
    6CHTO  C125 2123   5.292   4.826   0.602
    6CHTO   O84 2124   5.209   4.746   0.688
    6CHTO  H205 2125   5.123   4.783   0.693
    6CHTO  C114 2126   5.509   4.759   0.725
    6CHTO  H218 2127   5.451   4.693   0.789
    6CHTO  C116 2128   5.650   4.694   0.709
    6CHTO  H220 2129   5.715   4.762   0.650
    6CHTO   O79 2130   5.710   4.683   0.840
    6CHTO  H201 2131   5.798   4.652   0.832
    6CHTO  C120 2132   5.638   4.554   0.637
    6CHTO  H224 2133   5.582   4.487   0.707
    6CHTO   N21 2134   5.770   4.491   0.612
    6CHTO  H211 2135   5.846   4.567   0.595
    6CHTO  H212 2136   5.798   4.429   0.695
    6CHTO   O75 2137   5.511   4.892   0.778
    6CHTO  C112 2138   5.479   4.893   0.939
    6CHTO  H216 2139   5.538   4.814   0.988
    6CHTO   O73 2140   5.338   4.871   0.955
    6CHTO  C113 2141   5.298   4.851   1.092
    6CHTO  H217 2142   5.357   4.768   1.135
    6CHTO  C124 2143   5.151   4.809   1.093
    6CHTO   O83 2144   5.129   4.682   1.028
    6CHTO  H204 2145   5.167   4.614   1.079
    6CHTO  C109 2146   5.324   4.981   1.174
    6CHTO  H213 2147   5.253   5.057   1.137
    6CHTO  C110 2148   5.471   5.030   1.155
    6CHTO  H214 2149   5.537   4.963   1.212
    6CHTO   O78 2150   5.484   5.160   1.216
    6CHTO  H200 2151   5.430   5.223   1.172
    6CHTO  C111 2152   5.515   5.031   1.006
    6CHTO  H215 2153   5.459   5.110   0.953
    6CHTO   N19 2154   5.660   5.061   0.986
    6CHTO  H207 2155   5.682   5.160   1.025
    6CHTO  H208 2156   5.720   4.988   1.037
    6CHTO   O74 2157   5.300   4.958   1.316
    6CHTO  C115 2158   5.159   5.006   1.374
    6CHTO  H219 2159   5.093   5.043   1.295
    6CHTO   O76 2160   5.079   4.886   1.438
    6CHTO  C122 2161   5.159   4.818   1.537
    6CHTO  H226 2162   5.236   4.762   1.484
    6CHTO  C126 2163   5.070   4.710   1.608
    6CHTO   O85 2164   4.960   4.766   1.681
    6CHTO  H206 2165   4.911   4.698   1.721
    6CHTO  C121 2166   5.227   4.918   1.642
    6CHTO  H225 2167   5.205   4.881   1.744
    6CHTO   O81 2168   5.369   4.916   1.626
    6CHTO  H202 2169   5.410   4.964   1.696
    6CHTO  C119 2170   5.168   5.063   1.627
    6CHTO  H223 2171   5.062   5.051   1.645
    6CHTO  C117 2172   5.187   5.119   1.481
    6CHTO  H221 2173   5.288   5.153   1.458
    6CHTO   N20 2174   5.100   5.239   1.459
    6CHTO  H209 2175   5.123   5.315   1.532
    6CHTO  H210 2176   5.117   5.279   1.360
    6CHTO   O80 2177   5.211   5.165   1.748
    6CHTO  C103 2178   5.109   5.193   1.873
    6CHTO  H190 2179   5.148   5.275   1.934
    6CHTO  C101 2180   4.959   5.226   1.837
    6CHTO  H188 2181   4.924   5.156   1.761
    6CHTO   O68 2182   4.953   5.370   1.775
    6CHTO  H168 2183   5.005   5.373   1.697
    6CHTO   C99 2184   4.862   5.213   1.964
    6CHTO  H186 2185   4.890   5.290   2.039
    6CHTO   N17 2186   4.717   5.232   1.933
    6CHTO  H174 2187   4.659   5.229   2.024
    6CHTO  H175 2188   4.703   5.326   1.882
    6CHTO   C97 2189   4.889   5.076   2.033
    6CHTO  H184 2190   4.866   4.997   1.960
    6CHTO   O64 2191   5.027   5.074   2.073
    6CHTO  C104 2192   5.117   5.063   1.962
    6CHTO  H191 2193   5.093   4.976   1.900
    6CHTO  C108 2194   5.260   5.040   2.014
    6CHTO   O71 2195   5.271   4.918   2.087
    6CHTO  H171 2196   5.262   4.845   2.028
    6CHTO   O62 2197   4.814   5.055   2.155
    6CHTO   C91 2198   4.788   4.919   2.199
    6CHTO  H178 2199   4.727   4.927   2.289
    6CHTO   C92 2200   4.920   4.846   2.243
    6CHTO  H179 2201   4.994   4.853   2.162
    6CHTO   O66 2202   4.975   4.922   2.353
    6CHTO  H166 2203   5.058   4.887   2.378
    6CHTO   C93 2204   4.898   4.695   2.283
    6CHTO  H180 2205   4.840   4.693   2.376
    6CHTO   N16 2206   5.025   4.623   2.312
    6CHTO  H172 2207   5.004   4.521   2.341
    6CHTO  H173 2208   5.089   4.625   2.225
    6CHTO   C94 2209   4.815   4.624   2.170
    6CHTO  H181 2210   4.867   4.625   2.074
    6CHTO   O61 2211   4.691   4.694   2.151
    6CHTO   C95 2212   4.708   4.826   2.098
    6CHTO  H182 2213   4.762   4.819   2.003
    6CHTO  C106 2214   4.566   4.885   2.066
    6CHTO   O69 2215   4.500   4.810   1.963
    6CHTO  H169 2216   4.544   4.822   1.882
    6CHTO   O63 2217   4.777   4.472   2.211
    6CHTO   C96 2218   4.765   4.378   2.084
    6CHTO  H183 2219   4.816   4.426   2.000
    6CHTO   C98 2220   4.620   4.346   2.039
    6CHTO  H185 2221   4.566   4.297   2.121
    6CHTO   O67 2222   4.550   4.470   2.015
    6CHTO  H167 2223   4.539   4.517   2.095
    6CHTO  C102 2224   4.620   4.255   1.907
    6CHTO  H189 2225   4.646   4.323   1.824
    6CHTO   N18 2226   4.487   4.198   1.870
    6CHTO  H176 2227   4.496   4.140   1.779
    6CHTO  H177 2228   4.416   4.278   1.856
    6CHTO  C105 2229   4.731   4.146   1.916
    6CHTO  H192 2230   4.692   4.049   1.886
    6CHTO   O65 2231   4.787   4.128   2.048
    6CHTO  C100 2232   4.841   4.243   2.116
    6CHTO  H187 2233   4.830   4.223   2.223
    6CHTO  C107 2234   4.993   4.256   2.087
    6CHTO   O70 2235   5.064   4.142   2.134
    6CHTO  H170 2236   5.155   4.151   2.113
    6CHTO   O57 2237   4.841   4.190   1.810
    6CHTO   C85 2238   4.835   4.134   1.677
    6CHTO  H157 2239   4.730   4.102   1.661
    6CHTO   C83 2240   4.921   4.004   1.667
    6CHTO  H155 2241   4.881   3.932   1.739
    6CHTO   O56 2242   5.056   4.031   1.709
    6CHTO  H135 2243   5.098   4.090   1.649
    6CHTO   C81 2244   4.907   3.946   1.523
    6CHTO  H153 2245   4.801   3.927   1.504
    6CHTO   N14 2246   4.971   3.812   1.507
    6CHTO  H141 2247   4.897   3.737   1.490
    6CHTO  H142 2248   5.029   3.786   1.593
    6CHTO   C79 2249   4.958   4.051   1.417
    6CHTO  H151 2250   4.936   4.010   1.318
    6CHTO   O52 2251   4.883   4.176   1.430
    6CHTO   C86 2252   4.883   4.233   1.565
    6CHTO  H158 2253   4.989   4.264   1.581
    6CHTO   C90 2254   4.801   4.364   1.567
    6CHTO   O60 2255   4.664   4.339   1.531
    6CHTO  H138 2256   4.658   4.316   1.441
    6CHTO   O50 2257   5.099   4.079   1.424
    6CHTO   C73 2258   5.206   4.114   1.335
    6CHTO  H145 2259   5.170   4.121   1.231
    6CHTO   C74 2260   5.319   4.007   1.342
    6CHTO  H146 2261   5.274   3.910   1.314
    6CHTO   O54 2262   5.417   4.037   1.241
    6CHTO  H133 2263   5.484   3.971   1.240
    6CHTO   C75 2264   5.377   4.004   1.489
    6CHTO  H147 2265   5.296   3.973   1.557
    6CHTO   N13 2266   5.485   3.905   1.509
    6CHTO  H139 2267   5.519   3.908   1.612
    6CHTO  H140 2268   5.449   3.806   1.488
    6CHTO   C76 2269   5.421   4.152   1.534
    6CHTO  H148 2270   5.508   4.180   1.475
    6CHTO   O49 2271   5.314   4.249   1.511
    6CHTO   C77 2272   5.267   4.252   1.375
    6CHTO  H149 2273   5.350   4.275   1.308
    6CHTO   C88 2274   5.167   4.367   1.356
    6CHTO   O58 2275   5.232   4.499   1.376
    6CHTO  H136 2276   5.292   4.515   1.306
    6CHTO   O51 2277   5.450   4.153   1.696
    6CHTO   C78 2278   5.495   4.294   1.767
    6CHTO  H150 2279   5.546   4.272   1.863
    6CHTO   C80 2280   5.372   4.383   1.798
    6CHTO  H152 2281   5.317   4.402   1.703
    6CHTO   O55 2282   5.287   4.307   1.887
    6CHTO  H134 2283   5.247   4.236   1.841
    6CHTO   C84 2284   5.415   4.521   1.861
    6CHTO  H156 2285   5.466   4.500   1.956
    6CHTO   N15 2286   5.300   4.612   1.893
    6CHTO  H143 2287   5.297   4.634   1.997
    6CHTO  H144 2288   5.207   4.567   1.864
    6CHTO   C87 2289   5.518   4.588   1.766
    6CHTO  H159 2290   5.471   4.608   1.669
    6CHTO   O53 2291   5.635   4.491   1.750
    6CHTO   C82 2292   5.596   4.371   1.681
    6CHTO  H154 2293   5.556   4.395   1.582
    6CHTO   C89 2294   5.722   4.284   1.657
    6CHTO   O59 2295   5.828   4.358   1.597
    6CHTO  H137 2296   5.805   4.381   1.508
    6CHTO   O45 2297   5.574   4.734   1.826
    6CHTO   C67 2298   5.713   4.766   1.805
    6CHTO  H124 2299   5.774   4.695   1.861
    6CHTO   C65 2300   5.757   4.763   1.653
    6CHTO  H122 2301   5.667   4.740   1.595
    6CHTO   O44 2302   5.852   4.656   1.638
    6CHTO  H102 2303   5.870   4.641   1.547
    6CHTO   C63 2304   5.805   4.904   1.600
    6CHTO  H120 2305   5.721   4.973   1.608
    6CHTO   N11 2306   5.837   4.911   1.454
    6CHTO  H108 2307   5.934   4.954   1.438
    6CHTO  H109 2308   5.763   4.967   1.401
    6CHTO   C61 2309   5.917   4.959   1.697
    6CHTO  H118 2310   5.928   5.066   1.673
    6CHTO   O40 2311   5.880   4.951   1.838
    6CHTO   C68 2312   5.744   4.908   1.869
    6CHTO  H125 2313   5.672   4.983   1.829
    6CHTO   C72 2314   5.725   4.905   2.022
    6CHTO   O48 2315   5.736   5.035   2.081
    6CHTO  H105 2316   5.663   5.089   2.055
    6CHTO   O38 2317   6.043   4.890   1.682
    6CHTO   C55 2318   6.158   4.960   1.736
    6CHTO  H112 2319   6.126   5.026   1.818
    6CHTO   C56 2320   6.235   5.039   1.623
    6CHTO  H113 2321   6.261   4.966   1.544
    6CHTO   O42 2322   6.146   5.134   1.562
    6CHTO  H100 2323   6.188   5.177   1.490
    6CHTO   C57 2324   6.365   5.108   1.681
    6CHTO  H114 2325   6.330   5.188   1.746
    6CHTO   N10 2326   6.449   5.173   1.576
    6CHTO  H106 2327   6.443   5.118   1.483
    6CHTO  H107 2328   6.553   5.178   1.607
    6CHTO   C58 2329   6.448   5.008   1.766
    6CHTO  H115 2330   6.500   4.936   1.698
    6CHTO   O37 2331   6.367   4.935   1.859
    6CHTO   C59 2332   6.258   4.860   1.803
    6CHTO  H116 2333   6.296   4.789   1.729
    6CHTO   C70 2334   6.189   4.782   1.915
    6CHTO   O46 2335   6.275   4.687   1.978
    6CHTO  H103 2336   6.343   4.732   2.025
    6CHTO   O39 2337   6.554   5.089   1.857
    6CHTO   C60 2338   6.685   5.033   1.870
    6CHTO  H117 2339   6.679   4.924   1.867
    6CHTO   C62 2340   6.780   5.081   1.756
    6CHTO  H119 2341   6.740   5.037   1.662
    6CHTO   O43 2342   6.772   5.225   1.746
    6CHTO  H101 2343   6.687   5.251   1.717
    6CHTO   C66 2344   6.930   5.027   1.779
    6CHTO  H123 2345   6.928   4.918   1.779
    6CHTO   N12 2346   7.024   5.066   1.670
    6CHTO  H110 2347   6.974   5.124   1.594
    6CHTO  H111 2348   7.071   4.979   1.628
    6CHTO   C69 2349   6.982   5.069   1.919
    6CHTO  H126 2350   6.992   5.180   1.926
    6CHTO   O41 2351   6.884   5.019   2.026
    6CHTO   C64 2352   6.743   5.070   2.009
    6CHTO  H121 2353   6.742   5.181   2.020
    6CHTO   C71 2354   6.656   5.010   2.123
    6CHTO   O47 2355   6.699   5.058   2.251
    6CHTO  H104 2356   6.679   5.149   2.259
    6CHTO   O34 2357   7.124   5.005   1.949
    6CHTO   C49 2358   7.267   5.035   1.997
    6CHTO   H91 2359   7.334   4.984   1.927
    6CHTO   C47 2360   7.287   4.977   2.139
    6CHTO   H89 2361   7.396   4.987   2.162
    6CHTO   O33 2362   7.255   4.836   2.136
    6CHTO   H70 2363   7.163   4.824   2.120
    6CHTO   C45 2364   7.201   5.062   2.245
    6CHTO   H87 2365   7.096   5.063   2.211
    6CHTO    N8 2366   7.205   5.006   2.382
    6CHTO   H75 2367   7.107   4.969   2.410
    6CHTO   H76 2368   7.278   4.927   2.390
    6CHTO   C43 2369   7.247   5.216   2.240
    6CHTO   H85 2370   7.179   5.271   2.305
    6CHTO   O29 2371   7.241   5.265   2.104
    6CHTO   C50 2372   7.298   5.187   1.997
    6CHTO   H92 2373   7.256   5.227   1.903
    6CHTO   C54 2374   7.450   5.213   1.981
    6CHTO   O36 2375   7.476   5.345   1.934
    6CHTO   H72 2376   7.568   5.358   1.924
    6CHTO   O27 2377   7.379   5.238   2.295
    6CHTO   C37 2378   7.463   5.343   2.348
    6CHTO   H79 2379   7.563   5.336   2.303
    6CHTO   C38 2380   7.407   5.484   2.314
    6CHTO   H80 2381   7.304   5.491   2.350
    6CHTO   O31 2382   7.408   5.498   2.171
    6CHTO   H68 2383   7.344   5.442   2.132
    6CHTO   C39 2384   7.493   5.599   2.380
    6CHTO   H81 2385   7.590   5.599   2.330
    6CHTO    N7 2386   7.434   5.736   2.358
    6CHTO   H73 2387   7.497   5.811   2.404
    6CHTO   H74 2388   7.425   5.756   2.252
    6CHTO   C40 2389   7.519   5.571   2.533
    6CHTO   H82 2390   7.429   5.591   2.591
    6CHTO   O26 2391   7.566   5.436   2.553
    6CHTO   C41 2392   7.477   5.331   2.502
    6CHTO   H83 2393   7.377   5.342   2.549
    6CHTO   C52 2394   7.534   5.194   2.544
    6CHTO   O35 2395   7.540   5.178   2.692
    6CHTO   H71 2396   7.606   5.235   2.727
    6CHTO   O28 2397   7.627   5.653   2.581
    6CHTO   C42 2398   7.641   5.699   2.719
    6CHTO   H84 2399   7.735   5.755   2.717
    6CHTO   C44 2400   7.660   5.589   2.829
    6CHTO   H86 2401   7.572   5.525   2.829
    6CHTO   O32 2402   7.774   5.511   2.790
    6CHTO   H69 2403   7.754   5.460   2.714
    6CHTO   C48 2404   7.676   5.653   0.099
    6CHTO   H90 2405   7.767   5.713   0.099
    6CHTO    N9 2406   7.696   5.549   0.206
    6CHTO   H77 2407   7.617   5.553   0.280
    6CHTO   H78 2408   7.793   5.562   0.254
    6CHTO   C51 2409   7.554   5.749   0.128
    6CHTO   H93 2410   7.462   5.690   0.125
    6CHTO   O30 2411   7.555   5.850   0.026
    6CHTO   C46 2412   7.529   5.800   2.762
    6CHTO   H88 2413   7.433   5.748   2.761
    6CHTO   C53 2414   7.522   5.924   2.669
    6CHTO   O72 2415   7.644   6.000   2.671
    6CHTO  H199 2416   7.636   6.073   2.613
    6CHTO   O22 2417   7.565   5.818   0.254
    6CHTO   C31 2418   7.474   5.924   0.304
    6CHTO   H59 2419   7.501   5.939   0.411
    6CHTO   C29 2420   7.492   6.061   0.234
    6CHTO   H57 2421   7.472   6.047   0.126
    6CHTO   O21 2422   7.631   6.098   0.245
    6CHTO   H37 2423   7.653   6.117   0.334
    6CHTO   C27 2424   7.394   6.171   0.289
    6CHTO   H55 2425   7.418   6.189   0.395
    6CHTO    N5 2426   7.404   6.300   0.216
    6CHTO   H43 2427   7.378   6.286   0.112
    6CHTO   H44 2428   7.340   6.374   0.261
    6CHTO   C25 2429   7.247   6.114   0.284
    6CHTO   H53 2430   7.220   6.095   0.179
    6CHTO   O17 2431   7.240   5.988   0.357
    6CHTO   C32 2432   7.323   5.883   0.305
    6CHTO   H60 2433   7.292   5.860   0.203
    6CHTO   C36 2434   7.300   5.758   0.394
    6CHTO   O25 2435   7.165   5.711   0.387
    6CHTO   H40 2436   7.107   5.774   0.426
    6CHTO   O15 2437   7.142   6.216   0.347
    6CHTO   C19 2438   7.009   6.274   0.359
    6CHTO   H47 2439   6.972   6.238   0.457
    6CHTO   C20 2440   7.008   6.430   0.358
    6CHTO   H48 2441   7.054   6.470   0.266
    6CHTO   O19 2442   7.091   6.473   0.468
    6CHTO   H35 2443   7.053   6.447   0.550
    6CHTO   C21 2444   6.862   6.489   0.369
    6CHTO   H49 2445   6.822   6.465   0.468
    6CHTO    N4 2446   6.857   6.638   0.357
    6CHTO   H41 2447   6.897   6.668   0.261
    6CHTO   H42 2448   6.916   6.683   0.435
    6CHTO   C22 2449   6.769   6.420   0.266
    6CHTO   H50 2450   6.798   6.451   0.165
    6CHTO   O14 2451   6.777   6.277   0.278
    6CHTO   C23 2452   6.908   6.222   0.253
    6CHTO   H51 2453   6.937   6.252   0.151
    6CHTO   C34 2454   6.897   6.069   0.254
    6CHTO   O23 2455   6.816   6.025   0.144
    6CHTO   H38 2456   6.810   5.932   0.146
    6CHTO   O16 2457   6.630   6.448   0.291
    6CHTO   C24 2458   6.536   6.454   0.158
    6CHTO   H52 2459   6.587   6.415   0.070
    6CHTO   C26 2460   6.495   6.601   0.133
    6CHTO   H54 2461   6.454   6.643   0.229
    6CHTO   O20 2462   6.613   6.676   0.100
    6CHTO   H36 2463   6.670   6.682   0.174
    6CHTO   C30 2464   6.385   6.614   0.023
    6CHTO   H58 2465   6.428   6.588   2.799
    6CHTO    N6 2466   6.336   6.755   0.010
    6CHTO   H45 2467   6.418   6.820   2.857
    6CHTO   H46 2468   6.295   6.788   0.104
    6CHTO   C33 2469   6.269   6.514   0.049
    6CHTO   H61 2470   6.216   6.542   0.142
    6CHTO   O18 2471   6.323   6.382   0.067
    6CHTO   C28 2472   6.410   6.367   0.180
    6CHTO   H56 2473   6.360   6.399   0.272
    6CHTO   C35 2474   6.449   6.218   0.195
    6CHTO   O24 2475   6.336   6.134   0.224
    6CHTO   H39 2476   6.303   6.153   0.309
    6CHTO    O9 2477   6.168   6.516   2.819
    6CHTO   C13 2478   6.018   6.549   2.870
    6CHTO   H26 2479   6.024   6.640   0.060
    6CHTO   C11 2480   5.957   6.426   0.074
    6CHTO   H24 2481   6.019   6.410   0.164
    6CHTO    O8 2482   5.966   6.305   2.870
    6CHTO    H3 2483   5.915   6.313   2.791
    6CHTO    C9 2484   5.814   6.465   0.119
    6CHTO   H22 2485   5.825   6.557   0.178
    6CHTO    N2 2486   5.753   6.368   0.214
    6CHTO   H10 2487   5.659   6.407   0.251
    6CHTO   H11 2488   5.738   6.273   0.165
    6CHTO    C7 2489   5.725   6.497   2.866
    6CHTO   H20 2490   5.631   6.539   0.036
    6CHTO    O4 2491   5.785   6.599   2.783
    6CHTO   C14 2492   5.926   6.591   2.748
    6CHTO   H27 2493   5.955   6.694   2.719
    6CHTO   C18 2494   5.945   6.502   2.622
    6CHTO   O13 2495   5.891   6.563   2.505
    6CHTO    H7 2496   5.798   6.569   2.512
    6CHTO    O2 2497   5.689   6.363   2.773
    6CHTO    C1 2498   5.557   6.359   2.714
    6CHTO   H14 2499   5.555   6.272   2.646
    6CHTO    C2 2500   5.515   6.488   2.631
    6CHTO   H15 2501   5.535   6.576   2.696
    6CHTO    O6 2502   5.600   6.494   2.515
    6CHTO    H1 2503   5.585   6.574   2.468
    6CHTO    C3 2504   5.360   6.485   2.588
    6CHTO   H16 2505   5.348   6.410   2.509
    6CHTO    N1 2506   5.315   6.616   2.529
    6CHTO    H8 2507   5.373   6.637   2.440
    6CHTO    H9 2508   5.328   6.695   2.600
    6CHTO    C4 2509   5.269   6.439   2.707
    6CHTO   H17 2510   5.264   6.518   2.782
    6CHTO    O1 2511   5.320   6.318   2.766
    6CHTO    C5 2512   5.450   6.329   2.824
    6CHTO   H18 2513   5.450   6.411   0.022
    6CHTO   C16 2514   5.478   6.197   0.026
    6CHTO   O11 2515   5.479   6.082   2.815
    6CHTO    H5 2516   5.552   6.086   2.756
    6CHTO    O3 2517   5.136   6.403   2.662
    6CHTO    C6 2518   5.031   6.414   2.764
    6CHTO   H19 2519   5.070   6.431   2.864
    6CHTO    C8 2520   4.934   6.532   2.728
    6CHTO   H21 2521   4.898   6.517   2.626
    6CHTO    O7 2522   5.012   6.653   2.736
    6CHTO    H2 2523   5.072   6.658   2.665
    6CHTO   C12 2524   4.811   6.533   2.827
    6CHTO   H25 2525   4.852   6.556   0.054
    6CHTO    N3 2526   4.715   6.644   2.793
    6CHTO   H12 2527   4.701   6.710   0.004
    6CHTO   H13 2528   4.619   6.604   2.761
    6CHTO   C15 2529   4.745   6.391   2.830
    6CHTO   H28 2530   4.696   6.366   2.736
    6CHTO   O10 2531   4.643   6.374   0.072
    6CHTO    H4 2532   4.570   6.432   0.058
    6CHTO    O5 2533   4.842   6.290   2.863
    6CHTO   C10 2534   4.950   6.280   2.770
    6CHTO   H23 2535   4.910   6.257   2.671
    6CHTO   C17 2536   5.039   6.162   2.813
    6CHTO   O12 2537   4.970   6.037   2.804
    6CHTO    H6 2538   4.956   6.014   2.714
    7CHTO  H203 2539   4.704   2.411   0.036
    7CHTO   O82 2540   4.765   2.379   2.846
    7CHTO  C123 2541   4.892   2.444   2.862
    7CHTO  H227 2542   4.876   2.553   2.873
    7CHTO   O77 2543   4.944   2.389   0.112
    7CHTO  C118 2544   5.068   2.446   0.156
    7CHTO  H222 2545   5.057   2.555   0.167
    7CHTO  C125 2546   5.106   2.385   0.296
    7CHTO   O84 2547   5.009   2.418   0.396
    7CHTO  H205 2548   4.929   2.373   0.379
    7CHTO  C114 2549   5.178   2.416   0.052
    7CHTO  H218 2550   5.193   2.308   0.048
    7CHTO  C116 2551   5.138   2.463   2.782
    7CHTO  H220 2552   5.142   2.574   2.778
    7CHTO   O79 2553   5.237   2.417   2.688
    7CHTO  H201 2554   5.240   2.323   2.686
    7CHTO  C120 2555   4.992   2.413   2.743
    7CHTO  H224 2556   4.999   2.304   2.728
    7CHTO   N21 2557   4.946   2.473   2.615
    7CHTO  H211 2558   4.976   2.411   2.532
    7CHTO  H212 2559   4.983   2.574   2.604
    7CHTO   O75 2560   5.296   2.481   0.102
    7CHTO  C112 2561   5.431   2.391   0.087
    7CHTO  H216 2562   5.430   2.340   2.864
    7CHTO   O73 2563   5.432   2.298   0.197
    7CHTO  C113 2564   5.543   2.207   0.196
    7CHTO  H217 2565   5.544   2.152   0.099
    7CHTO  C124 2566   5.522   2.105   0.308
    7CHTO   O83 2567   5.405   2.025   0.289
    7CHTO  H204 2568   5.395   1.965   0.361
    7CHTO  C109 2569   5.675   2.286   0.214
    7CHTO  H213 2570   5.671   2.332   0.314
    7CHTO  C110 2571   5.688   2.396   0.104
    7CHTO  H214 2572   5.705   2.347   0.008
    7CHTO   O78 2573   5.804   2.476   0.132
    7CHTO  H200 2574   5.795   2.520   0.214
    7CHTO  C111 2575   5.559   2.483   0.096
    7CHTO  H215 2576   5.551   2.543   0.188
    7CHTO   N19 2577   5.560   2.581   2.857
    7CHTO  H207 2578   5.571   2.528   2.763
    7CHTO  H208 2579   5.641   2.651   2.870
    7CHTO   O74 2580   5.790   2.195   0.209
    7CHTO  C115 2581   5.891   2.212   0.331
    7CHTO  H219 2582   5.880   2.309   0.380
    7CHTO   O76 2583   5.862   2.101   0.449
    7CHTO  C122 2584   5.959   2.093   0.555
    7CHTO  H226 2585   5.951   1.992   0.595
    7CHTO  C126 2586   5.919   2.188   0.673
    7CHTO   O85 2587   5.912   2.326   0.637
    7CHTO  H206 2588   5.886   2.377   0.711
    7CHTO  C121 2589   6.109   2.117   0.508
    7CHTO  H225 2590   6.138   2.222   0.529
    7CHTO   O81 2591   6.198   2.030   0.579
    7CHTO  H202 2592   6.198   2.051   0.670
    7CHTO  C119 2593   6.118   2.092   0.354
    7CHTO  H223 2594   6.224   2.099   0.328
    7CHTO  C117 2595   6.038   2.200   0.271
    7CHTO  H221 2596   6.023   2.175   0.167
    7CHTO   N20 2597   6.108   2.333   0.268
    7CHTO  H209 2598   6.206   2.322   0.225
    7CHTO  H210 2599   6.116   2.373   0.369
    7CHTO   O80 2600   6.087   1.947   0.316
    7CHTO  C103 2601   6.108   1.899   0.169
    7CHTO  H190 2602   6.070   1.972   0.098
    7CHTO  C101 2603   6.256   1.863   0.129
    7CHTO  H188 2604   6.301   1.804   0.210
    7CHTO   O68 2605   6.336   1.994   0.115
    7CHTO  H168 2606   6.427   1.975   0.103
    7CHTO   C99 2607   6.262   1.776   2.868
    7CHTO  H186 2608   6.225   1.839   2.784
    7CHTO   N17 2609   6.400   1.729   2.831
    7CHTO  H174 2610   6.397   1.679   2.735
    7CHTO  H175 2611   6.468   1.813   2.829
    7CHTO   C97 2612   6.162   1.658   0.005
    7CHTO  H184 2613   6.197   1.590   0.085
    7CHTO   O64 2614   6.030   1.708   0.031
    7CHTO  C104 2615   6.015   1.772   0.159
    7CHTO  H191 2616   6.037   1.704   0.241
    7CHTO  C108 2617   5.868   1.814   0.176
    7CHTO   O71 2618   5.778   1.702   0.169
    7CHTO  H171 2619   5.776   1.667   0.082
    7CHTO   O62 2620   6.143   1.588   2.755
    7CHTO   C91 2621   6.116   1.446   2.756
    7CHTO  H178 2622   6.212   1.397   2.742
    7CHTO   C92 2623   6.032   1.415   2.627
    7CHTO  H179 2624   6.077   1.465   2.540
    7CHTO   O66 2625   6.041   1.274   2.599
    7CHTO  H166 2626   6.128   1.251   2.575
    7CHTO   C93 2627   5.879   1.451   2.643
    7CHTO  H180 2628   5.825   1.395   2.565
    7CHTO   N16 2629   5.848   1.593   2.615
    7CHTO  H172 2630   5.902   1.657   2.683
    7CHTO  H173 2631   5.873   1.617   2.513
    7CHTO   C94 2632   5.824   1.406   2.785
    7CHTO  H181 2633   5.806   1.491   2.851
    7CHTO   O61 2634   5.916   1.320   2.853
    7CHTO   C95 2635   6.042   1.381   0.010
    7CHTO  H182 2636   6.025   1.459   0.085
    7CHTO  C106 2637   6.132   1.274   0.081
    7CHTO   O69 2638   6.156   1.160   2.873
    7CHTO  H169 2639   6.076   1.112   2.861
    7CHTO   O63 2640   5.695   1.325   2.764
    7CHTO   C96 2641   5.569   1.386   2.834
    7CHTO  H183 2642   5.565   1.492   2.807
    7CHTO   C98 2643   5.569   1.377   0.117
    7CHTO  H185 2644   5.657   1.428   0.158
    7CHTO   O67 2645   5.456   1.451   0.165
    7CHTO  H167 2646   5.457   1.454   0.259
    7CHTO  C102 2647   5.558   1.225   0.168
    7CHTO  H189 2648   5.501   1.229   0.262
    7CHTO   N18 2649   5.689   1.164   0.203
    7CHTO  H176 2650   5.711   1.078   0.141
    7CHTO  H177 2651   5.690   1.134   0.307
    7CHTO  C105 2652   5.477   1.140   0.066
    7CHTO  H192 2653   5.546   1.094   2.868
    7CHTO   O65 2654   5.382   1.218   2.865
    7CHTO  C100 2655   5.442   1.311   2.773
    7CHTO  H187 2656   5.474   1.254   2.685
    7CHTO  C107 2657   5.336   1.413   2.726
    7CHTO   O70 2658   5.232   1.352   2.650
    7CHTO  H170 2659   5.181   1.295   2.706
    7CHTO   O57 2660   5.405   1.026   0.151
    7CHTO   C85 2661   5.375   0.900   0.088
    7CHTO  H157 2662   5.388   0.915   2.852
    7CHTO   C83 2663   5.224   0.867   0.108
    7CHTO  H155 2664   5.165   0.945   0.060
    7CHTO   O56 2665   5.190   0.872   0.248
    7CHTO  H135 2666   5.235   0.804   0.295
    7CHTO   C81 2667   5.192   0.731   0.038
    7CHTO  H153 2668   5.220   0.740   2.807
    7CHTO   N14 2669   5.046   0.701   0.036
    7CHTO  H141 2670   5.010   0.700   2.809
    7CHTO  H142 2671   5.026   0.606   0.081
    7CHTO   C79 2672   5.280   0.616   0.102
    7CHTO  H151 2673   5.262   0.526   0.044
    7CHTO   O52 2674   5.422   0.648   0.088
    7CHTO   C86 2675   5.461   0.779   0.141
    7CHTO  H158 2676   5.450   0.768   0.251
    7CHTO   C90 2677   5.612   0.802   0.116
    7CHTO   O60 2678   5.693   0.711   0.192
    7CHTO  H138 2679   5.686   0.731   0.283
    7CHTO   O50 2680   5.250   0.589   0.240
    7CHTO   C73 2681   5.275   0.470   0.318
    7CHTO  H145 2682   5.372   0.426   0.290
    7CHTO   C74 2683   5.163   0.365   0.290
    7CHTO  H146 2684   5.163   0.343   0.182
    7CHTO   O54 2685   5.200   0.242   0.356
    7CHTO  H133 2686   5.137   0.175   0.337
    7CHTO   C75 2687   5.024   0.423   0.339
    7CHTO  H147 2688   5.003   0.514   0.281
    7CHTO   N13 2689   4.909   0.333   0.314
    7CHTO  H139 2690   4.899   0.314   0.208
    7CHTO  H140 2691   4.924   0.239   0.365
    7CHTO   C76 2692   5.036   0.466   0.492
    7CHTO  H148 2693   5.050   0.375   0.552
    7CHTO   O49 2694   5.149   0.556   0.513
    7CHTO   C77 2695   5.276   0.505   0.470
    7CHTO  H149 2696   5.302   0.416   0.526
    7CHTO   C88 2697   5.385   0.609   0.502
    7CHTO   O58 2698   5.391   0.637   0.650
    7CHTO  H136 2699   5.421   0.560   0.696
    7CHTO   O51 2700   4.910   0.551   0.539
    7CHTO   C78 2701   4.886   0.539   0.695
    7CHTO  H150 2702   4.968   0.481   0.744
    7CHTO   C80 2703   4.752   0.469   0.722
    7CHTO  H152 2704   4.672   0.521   0.664
    7CHTO   O55 2705   4.764   0.335   0.670
    7CHTO  H134 2706   4.681   0.291   0.675
    7CHTO   C84 2707   4.713   0.468   0.875
    7CHTO  H156 2708   4.784   0.403   0.927
    7CHTO   N15 2709   4.576   0.412   0.900
    7CHTO  H143 2710   4.554   0.413   1.005
    7CHTO  H144 2711   4.571   0.311   0.864
    7CHTO   C87 2712   4.727   0.611   0.935
    7CHTO  H159 2713   4.649   0.676   0.895
    7CHTO   O53 2714   4.867   0.666   0.900
    7CHTO   C82 2715   4.886   0.680   0.758
    7CHTO  H154 2716   4.807   0.742   0.715
    7CHTO   C89 2717   5.020   0.754   0.734
    7CHTO   O59 2718   5.016   0.886   0.788
    7CHTO  H137 2719   5.099   0.928   0.773
    7CHTO   O45 2720   4.714   0.606   1.098
    7CHTO   C67 2721   4.761   0.724   1.166
    7CHTO  H124 2722   4.862   0.747   1.131
    7CHTO   C65 2723   4.668   0.848   1.142
    7CHTO  H122 2724   4.570   0.808   1.116
    7CHTO   O44 2725   4.721   0.916   1.026
    7CHTO  H102 2726   4.801   0.961   1.049
    7CHTO   C63 2727   4.644   0.934   1.272
    7CHTO  H120 2728   4.574   0.881   1.336
    7CHTO   N11 2729   4.573   1.064   1.252
    7CHTO  H108 2730   4.549   1.108   1.346
    7CHTO  H109 2731   4.483   1.049   1.196
    7CHTO   C61 2732   4.779   0.943   1.354
    7CHTO  H118 2733   4.756   0.997   1.447
    7CHTO   O40 2734   4.830   0.812   1.392
    7CHTO   C68 2735   4.778   0.694   1.320
    7CHTO  H125 2736   4.680   0.666   1.364
    7CHTO   C72 2737   4.874   0.575   1.343
    7CHTO   O48 2738   4.881   0.534   1.479
    7CHTO  H105 2739   4.922   0.600   1.531
    7CHTO   O38 2740   4.880   1.014   1.279
    7CHTO   C55 2741   5.000   1.052   1.350
    7CHTO  H112 2742   5.013   0.991   1.440
    7CHTO   C56 2743   4.996   1.207   1.385
    7CHTO  H113 2744   4.964   1.260   1.293
    7CHTO   O42 2745   4.892   1.230   1.481
    7CHTO  H100 2746   4.883   1.322   1.498
    7CHTO   C57 2747   5.136   1.260   1.434
    7CHTO  H114 2748   5.154   1.217   1.533
    7CHTO   N10 2749   5.140   1.408   1.449
    7CHTO  H106 2750   5.210   1.437   1.525
    7CHTO  H107 2751   5.168   1.456   1.356
    7CHTO   C58 2752   5.247   1.211   1.338
    7CHTO  H115 2753   5.231   1.257   1.238
    7CHTO   O37 2754   5.243   1.068   1.326
    7CHTO   C59 2755   5.124   1.022   1.260
    7CHTO  H116 2756   5.113   1.072   1.163
    7CHTO   C70 2757   5.138   0.872   1.231
    7CHTO   O46 2758   5.154   0.793   1.349
    7CHTO  H103 2759   5.162   0.703   1.326
    7CHTO   O39 2760   5.400   1.250   1.393
    7CHTO   C60 2761   5.506   1.214   1.302
    7CHTO  H117 2762   5.499   1.108   1.279
    7CHTO   C62 2763   5.498   1.294   1.167
    7CHTO  H119 2764   5.402   1.266   1.119
    7CHTO   O43 2765   5.496   1.435   1.193
    7CHTO  H101 2766   5.576   1.463   1.233
    7CHTO   C66 2767   5.618   1.248   1.070
    7CHTO  H123 2768   5.612   1.140   1.056
    7CHTO   N12 2769   5.607   1.308   0.935
    7CHTO  H110 2770   5.689   1.275   0.873
    7CHTO  H111 2771   5.513   1.281   0.890
    7CHTO   C69 2772   5.754   1.278   1.139
    7CHTO  H126 2773   5.764   1.387   1.157
    7CHTO   O41 2774   5.758   1.202   1.274
    7CHTO   C64 2775   5.644   1.237   1.369
    7CHTO  H121 2776   5.652   1.342   1.400
    7CHTO   C71 2777   5.659   1.151   1.497
    7CHTO   O47 2778   5.782   1.180   1.565
    7CHTO  H104 2779   5.779   1.266   1.601
    7CHTO   O34 2780   5.872   1.232   1.052
    7CHTO   C49 2781   6.007   1.171   1.051
    7CHTO   H91 2782   6.074   1.242   1.099
    7CHTO   C47 2783   6.049   1.150   0.904
    7CHTO   H89 2784   6.154   1.112   0.905
    7CHTO   O33 2785   6.047   1.277   0.837
    7CHTO   H70 2786   6.116   1.332   0.870
    7CHTO   C45 2787   5.951   1.040   0.838
    7CHTO   H87 2788   5.847   1.075   0.851
    7CHTO    N8 2789   5.976   1.022   0.693
    7CHTO   H75 2790   5.901   0.956   0.651
    7CHTO   H76 2791   6.074   0.981   0.677
    7CHTO   C43 2792   5.960   0.902   0.922
    7CHTO   H85 2793   5.882   0.837   0.881
    7CHTO   O29 2794   5.940   0.927   1.063
    7CHTO   C50 2795   6.010   1.036   1.126
    7CHTO   H92 2796   5.963   1.052   1.224
    7CHTO   C54 2797   6.155   0.998   1.165
    7CHTO   O36 2798   6.157   0.889   1.257
    7CHTO   H72 2799   6.246   0.867   1.277
    7CHTO   O27 2800   6.084   0.833   0.901
    7CHTO   C37 2801   6.159   0.717   0.942
    7CHTO   H79 2802   6.195   0.730   1.045
    7CHTO   C38 2803   6.071   0.588   0.941
    7CHTO   H80 2804   6.021   0.581   0.844
    7CHTO   O31 2805   5.970   0.602   1.042
    7CHTO   H68 2806   6.009   0.606   1.128
    7CHTO   C39 2807   6.158   0.457   0.966
    7CHTO   H81 2808   6.186   0.459   1.071
    7CHTO    N7 2809   6.082   0.329   0.943
    7CHTO   H73 2810   5.979   0.349   0.915
    7CHTO   H74 2811   6.085   0.268   1.032
    7CHTO   C40 2812   6.292   0.458   0.882
    7CHTO   H82 2813   6.273   0.431   0.778
    7CHTO   O26 2814   6.358   0.585   0.894
    7CHTO   C41 2815   6.280   0.699   0.849
    7CHTO   H83 2816   6.245   0.681   0.746
    7CHTO   C52 2817   6.373   0.823   0.845
    7CHTO   O35 2818   6.433   0.856   0.979
    7CHTO   H71 2819   6.365   0.881   1.039
    7CHTO   O28 2820   6.386   0.363   0.938
    7CHTO   C42 2821   6.517   0.331   0.881
    7CHTO   H84 2822   6.558   0.258   0.951
    7CHTO   C44 2823   6.621   0.447   0.874
    7CHTO   H86 2824   6.583   0.524   0.807
    7CHTO   O32 2825   6.630   0.501   1.008
    7CHTO   H69 2826   6.685   0.577   1.008
    7CHTO   C48 2827   6.762   0.399   0.820
    7CHTO   H90 2828   6.805   0.330   0.892
    7CHTO    N9 2829   6.860   0.513   0.809
    7CHTO   H77 2830   6.955   0.477   0.774
    7CHTO   H78 2831   6.821   0.588   0.741
    7CHTO   C51 2832   6.743   0.323   0.683
    7CHTO   H93 2833   6.706   0.395   0.610
    7CHTO   O30 2834   6.651   0.215   0.702
    7CHTO   C46 2835   6.510   0.260   0.742
    7CHTO   H88 2836   6.472   0.330   0.667
    7CHTO   C53 2837   6.419   0.135   0.748
    7CHTO   O72 2838   6.410   0.072   0.619
    7CHTO  H199 2839   6.361   0.127   0.560
    7CHTO   O22 2840   6.865   0.261   0.638
    7CHTO   C31 2841   6.890   0.234   0.495
    7CHTO   H59 2842   6.987   0.180   0.491
    7CHTO   C29 2843   6.785   0.143   0.427
    7CHTO   H57 2844   6.686   0.188   0.444
    7CHTO   O21 2845   6.785   0.016   0.496
    7CHTO   H37 2846   6.757   0.027   0.585
    7CHTO   C27 2847   6.807   0.127   0.271
    7CHTO   H55 2848   6.901   0.072   0.255
    7CHTO    N5 2849   6.697   0.053   0.204
    7CHTO   H43 2850   6.690   9.953   0.245
    7CHTO   H44 2851   6.604   0.105   0.217
    7CHTO   C25 2852   6.824   0.270   0.210
    7CHTO   H53 2853   6.733   0.328   0.231
    7CHTO   O17 2854   6.936   0.336   0.275
    7CHTO   C32 2855   6.912   0.366   0.413
    7CHTO   H60 2856   6.822   0.428   0.421
    7CHTO   C36 2857   7.032   0.447   0.466
    7CHTO   O25 2858   7.041   0.574   0.399
    7CHTO   H40 2859   7.115   0.621   0.432
    7CHTO   O15 2860   6.850   0.272   0.051
    7CHTO   C19 2861   6.813   0.391   2.849
    7CHTO   H47 2862   6.847   0.369   2.747
    7CHTO   C20 2863   6.659   0.420   2.846
    7CHTO   H48 2864   6.616   0.426   0.073
    7CHTO   O19 2865   6.597   0.307   2.781
    7CHTO   H35 2866   6.624   0.301   2.691
    7CHTO   C21 2867   6.624   0.556   2.771
    7CHTO   H49 2868   6.650   0.545   2.666
    7CHTO    N4 2869   6.480   0.591   2.778
    7CHTO   H41 2870   6.421   0.513   2.730
    7CHTO   H42 2871   6.448   0.600   0.007
    7CHTO   C22 2872   6.714   0.668   2.829
    7CHTO   H50 2873   6.689   0.682   0.060
    7CHTO   O14 2874   6.852   0.632   2.815
    7CHTO   C23 2875   6.892   0.519   0.020
    7CHTO   H51 2876   6.873   0.544   0.125
    7CHTO   C34 2877   7.043   0.499   0.003
    7CHTO   O23 2878   7.116   0.609   0.058
    7CHTO   H38 2879   7.207   0.596   0.046
    7CHTO   O16 2880   6.703   0.793   2.757
    7CHTO   C24 2881   6.741   0.920   2.846
    7CHTO   H52 2882   6.789   0.892   0.067
    7CHTO   C26 2883   6.613   1.000   0.002
    7CHTO   H54 2884   6.560   1.019   2.779
    7CHTO   O20 2885   6.525   0.919   0.082
    7CHTO   H36 2886   6.564   0.901   0.166
    7CHTO   C30 2887   6.643   1.138   0.069
    7CHTO   H58 2888   6.674   1.121   0.174
    7CHTO    N6 2889   6.521   1.223   0.077
    7CHTO   H45 2890   6.544   1.317   0.125
    7CHTO   H46 2891   6.444   1.172   0.134
    7CHTO   C33 2892   6.761   1.212   2.874
    7CHTO   H61 2893   6.729   1.249   2.775
    7CHTO   O18 2894   6.872   1.122   2.854
    7CHTO   C28 2895   6.843   1.009   2.770
    7CHTO   H56 2896   6.798   1.041   2.676
    7CHTO   C35 2897   6.974   0.933   2.741
    7CHTO   O24 2898   7.068   1.013   2.667
    7CHTO   H39 2899   7.101   1.081   2.722
    7CHTO    O9 2900   6.801   1.329   0.074
    7CHTO   C13 2901   6.914   1.417   2.873
    7CHTO   H26 2902   6.910   1.393   2.764
    7CHTO   C11 2903   7.056   1.386   0.060
    7CHTO   H24 2904   7.079   1.280   0.040
    7CHTO    O8 2905   7.055   1.402   0.204
    7CHTO    H3 2906   7.039   1.492   0.226
    7CHTO    C9 2907   7.160   1.473   2.860
    7CHTO   H22 2908   7.147   1.449   2.753
    7CHTO    N2 2909   7.302   1.439   0.016
    7CHTO   H10 2910   7.308   1.370   0.098
    7CHTO   H11 2911   7.350   1.399   2.802
    7CHTO    C7 2912   7.127   1.626   0.006
    7CHTO   H20 2913   7.191   1.676   2.805
    7CHTO    O4 2914   6.989   1.659   2.850
    7CHTO   C14 2915   6.879   1.572   0.009
    7CHTO   H27 2916   6.801   1.592   2.807
    7CHTO   C18 2917   6.820   1.610   0.147
    7CHTO   O13 2918   6.766   1.743   0.145
    7CHTO    H7 2919   6.689   1.745   0.092
    7CHTO    O2 2920   7.165   1.681   0.160
    7CHTO    C1 2921   7.177   1.824   0.175
    7CHTO   H14 2922   7.092   1.873   0.124
    7CHTO    C2 2923   7.314   1.885   0.118
    7CHTO   H15 2924   7.395   1.828   0.165
    7CHTO    O6 2925   7.320   1.868   2.850
    7CHTO    H1 2926   7.249   1.913   2.808
    7CHTO    C3 2927   7.328   2.041   0.157
    7CHTO   H16 2928   7.253   2.098   0.101
    7CHTO    N1 2929   7.462   2.097   0.118
    7CHTO    H8 2930   7.467   2.202   0.144
    7CHTO    H9 2931   7.541   2.044   0.170
    7CHTO    C4 2932   7.295   2.065   0.309
    7CHTO   H17 2933   7.376   2.023   0.370
    7CHTO    O1 2934   7.170   2.003   0.343
    7CHTO    C5 2935   7.167   1.860   0.327
    7CHTO   H18 2936   7.251   1.815   0.379
    7CHTO   C16 2937   7.035   1.813   0.394
    7CHTO   O11 2938   7.033   1.671   0.414
    7CHTO    H5 2939   7.097   1.647   0.479
    7CHTO    O3 2940   7.275   2.205   0.338
    7CHTO    C6 2941   7.316   2.250   0.472
    7CHTO   H19 2942   7.339   2.167   0.540
    7CHTO    C8 2943   7.443   2.340   0.460
    7CHTO   H21 2944   7.425   2.415   0.383
    7CHTO    O7 2945   7.552   2.255   0.419
    7CHTO    H2 2946   7.540   2.227   0.330
    7CHTO   C12 2947   7.476   2.414   0.597
    7CHTO   H25 2948   7.513   2.335   0.666
    7CHTO    N3 2949   7.589   2.512   0.578
    7CHTO   H12 2950   7.556   2.613   0.601
    7CHTO   H13 2951   7.672   2.485   0.641
    7CHTO   C15 2952   7.347   2.477   0.658
    7CHTO   H28 2953   7.313   2.564   0.601
    7CHTO   O10 2954   7.365   2.518   0.808
    7CHTO    H4 2955   7.396   2.445   0.858
    7CHTO    O5 2956   7.241   2.380   0.666
    7CHTO   C10 2957   7.200   2.331   0.538
    7CHTO   H23 2958   7.173   2.415   0.474
    7CHTO   C17 2959   7.074   2.246   0.558
    7CHTO   O12 2960   6.968   2.325   0.613
    7CHTO    H6 2961   6.937   2.387   0.550
    8CHTO  H203 2962   6.784   8.359   2.169
    8CHTO   O82 2963   6.839   8.418   2.121
    8CHTO  C123 2964   6.760   8.515   2.049
    8CHTO  H227 2965   6.829   8.584   1.997
    8CHTO   O77 2966   6.687   8.435   1.952
    8CHTO  C118 2967   6.608   8.513   1.861
    8CHTO  H222 2968   6.670   8.592   1.815
    8CHTO  C125 2969   6.555   8.417   1.748
    8CHTO   O84 2970   6.663   8.363   1.672
    8CHTO  H205 2971   6.713   8.304   1.725
    8CHTO  C114 2972   6.493   8.579   1.940
    8CHTO  H218 2973   6.434   8.501   1.987
    8CHTO  C116 2974   6.551   8.669   2.055
    8CHTO  H220 2975   6.595   8.761   2.010
    8CHTO   O79 2976   6.443   8.714   2.139
    8CHTO  H201 2977   6.474   8.776   2.202
    8CHTO  C120 2978   6.659   8.592   2.142
    8CHTO  H224 2979   6.603   8.520   2.204
    8CHTO   N21 2980   6.729   8.684   2.236
    8CHTO  H211 2981   6.816   8.728   2.189
    8CHTO  H212 2982   6.758   8.630   2.325
    8CHTO   O75 2983   6.414   8.647   1.840
    8CHTO  C112 2984   6.277   8.720   1.895
    8CHTO  H216 2985   6.307   8.805   1.958
    8CHTO   O73 2986   6.201   8.623   1.970
    8CHTO  C113 2987   6.098   8.685   2.047
    8CHTO  H217 2988   6.144   8.761   2.115
    8CHTO  C124 2989   6.033   8.579   2.137
    8CHTO   O83 2990   6.126   8.519   2.229
    8CHTO  H204 2991   6.188   8.466   2.182
    8CHTO  C109 2992   5.993   8.753   1.955
    8CHTO  H213 2993   5.934   8.672   1.909
    8CHTO  C110 2994   6.060   8.842   1.845
    8CHTO  H214 2995   6.089   8.936   1.892
    8CHTO   O78 2996   5.961   8.876   1.746
    8CHTO  H200 2997   5.930   8.799   1.703
    8CHTO  C111 2998   6.185   8.775   1.781
    8CHTO  H215 2999   6.151   8.690   1.720
    8CHTO   N19 3000   6.259   8.866   1.690
    8CHTO  H207 3001   6.195   8.898   1.609
    8CHTO  H208 3002   6.294   8.952   1.745
    8CHTO   O74 3003   5.905   8.835   2.037
    8CHTO  C115 3004   5.751   8.818   2.020
    8CHTO  H219 3005   5.727   8.729   1.962
    8CHTO   O76 3006   5.680   8.799   2.157
    8CHTO  C122 3007   5.703   8.909   2.247
    8CHTO  H226 3008   5.808   8.908   2.276
    8CHTO  C126 3009   5.622   8.876   2.376
    8CHTO   O85 3010   5.639   8.971   2.481
    8CHTO  H206 3011   5.586   8.947   2.555
    8CHTO  C121 3012   5.664   9.049   2.183
    8CHTO  H225 3013   5.553   9.056   2.179
    8CHTO   O81 3014   5.710   9.155   2.268
    8CHTO  H202 3015   5.675   9.238   2.239
    8CHTO  C119 3016   5.721   9.067   2.037
    8CHTO  H223 3017   5.667   9.151   1.993
    8CHTO  C117 3018   5.696   8.943   1.944
    8CHTO  H221 3019   5.751   8.944   1.850
    8CHTO   N20 3020   5.552   8.928   1.904
    8CHTO  H209 3021   5.541   8.842   1.839
    8CHTO  H210 3022   5.519   9.017   1.853
    8CHTO   O80 3023   5.869   9.118   2.028
    8CHTO  C103 3024   5.900   9.269   1.973
    8CHTO  H190 3025   5.810   9.330   1.975
    8CHTO  C101 3026   6.013   9.344   2.054
    8CHTO  H188 3027   6.097   9.275   2.068
    8CHTO   O68 3028   5.956   9.381   2.195
    8CHTO  H168 3029   5.932   9.303   2.241
    8CHTO   C99 3030   6.068   9.473   1.976
    8CHTO  H186 3031   5.985   9.547   1.967
    8CHTO   N17 3032   6.181   9.541   2.046
    8CHTO  H174 3033   6.268   9.551   1.981
    8CHTO  H175 3034   6.150   9.638   2.083
    8CHTO   C97 3035   6.103   9.433   1.829
    8CHTO  H184 3036   6.187   9.362   1.832
    8CHTO   O64 3037   5.987   9.377   1.765
    8CHTO  C104 3038   5.943   9.252   1.821
    8CHTO  H191 3039   6.020   9.175   1.814
    8CHTO  C108 3040   5.825   9.204   1.735
    8CHTO   O71 3041   5.865   9.172   1.601
    8CHTO  H171 3042   5.890   9.250   1.556
    8CHTO   O62 3043   6.138   9.548   1.748
    8CHTO   C91 3044   6.215   9.522   1.630
    8CHTO  H178 3045   6.276   9.433   1.647
    8CHTO   C92 3046   6.317   9.639   1.611
    8CHTO  H179 3047   6.375   9.654   1.703
    8CHTO   O66 3048   6.414   9.600   1.511
    8CHTO  H166 3049   6.466   9.528   1.543
    8CHTO   C93 3050   6.250   9.773   1.561
    8CHTO  H180 3051   6.328   9.831   1.510
    8CHTO   N16 3052   6.201   9.861   1.671
    8CHTO  H172 3053   6.251   9.957   1.667
    8CHTO  H173 3054   6.217   9.815   1.767
    8CHTO   C94 3055   6.134   9.743   1.458
    8CHTO  H181 3056   6.035   9.746   1.504
    8CHTO   O61 3057   6.147   9.611   1.401
    8CHTO   C95 3058   6.129   9.504   1.496
    8CHTO  H182 3059   6.023   9.498   1.523
    8CHTO  C106 3060   6.163   9.370   1.422
    8CHTO   O69 3061   6.143   9.256   1.506
    8CHTO  H169 3062   6.166   9.178   1.459
    8CHTO   O63 3063   6.143   9.851   1.343
    8CHTO   C96 3064   6.023   9.847   1.243
    8CHTO  H183 3065   5.965   9.756   1.261
    8CHTO   C98 3066   6.068   9.844   1.094
    8CHTO  H185 3067   6.146   9.921   1.078
    8CHTO   O67 3068   6.134   9.718   1.072
    8CHTO  H167 3069   6.215   9.715   1.119
    8CHTO  C102 3070   5.947   9.865   0.990
    8CHTO  H189 3071   5.884   9.776   0.999
    8CHTO   N18 3072   5.989   9.873   0.848
    8CHTO  H176 3073   5.902   9.886   0.785
    8CHTO  H177 3074   6.040   9.782   0.820
    8CHTO  C105 3075   5.864   9.989   1.035
    8CHTO  H192 3076   5.924   0.079   1.022
    8CHTO   O65 3077   5.823   9.980   1.172
    8CHTO  C100 3078   5.929   9.971   1.268
    8CHTO  H187 3079   5.990   0.063   1.261
    8CHTO  C107 3080   5.865   9.970   1.410
    8CHTO   O70 3081   5.779   9.858   1.431
    8CHTO  H170 3082   5.745   9.860   1.518
    8CHTO   O57 3083   5.728   9.995   0.942
    8CHTO   C85 3084   5.702   0.109   0.858
    8CHTO  H157 3085   5.795   0.126   0.799
    8CHTO   C83 3086   5.682   0.239   0.943
    8CHTO  H155 3087   5.774   0.258   0.998
    8CHTO   O56 3088   5.581   0.215   1.043
    8CHTO  H135 3089   5.497   0.202   1.002
    8CHTO   C81 3090   5.653   0.359   0.848
    8CHTO  H153 3091   5.737   0.368   0.779
    8CHTO   N14 3092   5.652   0.491   0.918
    8CHTO  H141 3093   5.562   0.545   0.896
    8CHTO  H142 3094   5.659   0.478   1.024
    8CHTO   C79 3095   5.523   0.331   0.763
    8CHTO  H151 3096   5.515   0.411   0.690
    8CHTO   O52 3097   5.537   0.208   0.687
    8CHTO   C86 3098   5.576   0.090   0.765
    8CHTO  H158 3099   5.486   0.066   0.826
    8CHTO   C90 3100   5.596   9.970   0.671
    8CHTO   O60 3101   5.474   9.933   0.606
    8CHTO  H138 3102   5.489   9.859   0.550
    8CHTO   O50 3103   5.401   0.329   0.839
    8CHTO   C73 3104   5.259   0.343   0.859
    8CHTO  H145 3105   5.211   0.377   0.766
    8CHTO   C74 3106   5.231   0.448   0.971
    8CHTO  H146 3107   5.274   0.543   0.938
    8CHTO   O54 3108   5.089   0.470   0.981
    8CHTO  H133 3109   5.045   0.391   1.007
    8CHTO   C75 3110   5.297   0.397   1.105
    8CHTO  H147 3111   5.406   0.393   1.091
    8CHTO   N13 3112   5.278   0.488   1.221
    8CHTO  H139 3113   5.173   0.499   1.242
    8CHTO  H140 3114   5.327   0.447   1.308
    8CHTO   C76 3115   5.248   0.247   1.137
    8CHTO  H148 3116   5.143   0.251   1.168
    8CHTO   O49 3117   5.261   0.158   1.021
    8CHTO   C77 3118   5.196   0.207   0.902
    8CHTO  H149 3119   5.090   0.221   0.922
    8CHTO   C88 3120   5.204   0.099   0.793
    8CHTO   O58 3121   5.131   0.140   0.669
    8CHTO  H136 3122   5.039   0.144   0.687
    8CHTO   O51 3123   5.343   0.184   1.248
    8CHTO   C78 3124   5.292   0.049   1.307
    8CHTO  H150 3125   5.226   9.996   1.236
    8CHTO   C80 3126   5.214   0.075   1.438
    8CHTO  H152 3127   5.278   0.132   1.507
    8CHTO   O55 3128   5.099   0.155   1.403
    8CHTO  H134 3129   5.052   0.179   1.480
    8CHTO   C84 3130   5.175   9.938   1.507
    8CHTO  H156 3131   5.115   9.880   1.436
    8CHTO   N15 3132   5.091   9.959   1.630
    8CHTO  H143 3133   5.140   9.919   1.717
    8CHTO  H144 3134   4.996   9.911   1.618
    8CHTO   C87 3135   5.307   9.862   1.535
    8CHTO  H159 3136   5.370   9.920   1.602
    8CHTO   O53 3137   5.379   9.838   1.398
    8CHTO   C82 3138   5.416   9.961   1.333
    8CHTO  H154 3139   5.488   0.014   1.395
    8CHTO   C89 3140   5.487   9.927   1.200
    8CHTO   O59 3141   5.404   9.856   1.107
    8CHTO  H137 3142   5.336   9.911   1.077
    8CHTO   O45 3143   5.281   9.714   1.597
    8CHTO   C67 3144   5.372   9.667   1.699
    8CHTO  H124 3145   5.346   9.563   1.716
    8CHTO   C65 3146   5.525   9.673   1.660
    8CHTO  H122 3147   5.537   9.762   1.597
    8CHTO   O44 3148   5.549   9.557   1.578
    8CHTO  H102 3149   5.552   9.480   1.632
    8CHTO   C63 3150   5.621   9.699   1.783
    8CHTO  H120 3151   5.620   9.806   1.805
    8CHTO   N11 3152   5.767   9.675   1.759
    8CHTO  H108 3153   5.798   9.727   1.671
    8CHTO  H109 3154   5.824   9.709   1.843
    8CHTO   C61 3155   5.563   9.629   1.912
    8CHTO  H118 3156   5.630   9.658   1.995
    8CHTO   O40 3157   5.432   9.683   1.944
    8CHTO   C68 3158   5.348   9.738   1.838
    8CHTO  H125 3159   5.368   9.846   1.829
    8CHTO   C72 3160   5.202   9.723   1.887
    8CHTO   O48 3161   5.174   9.800   2.004
    8CHTO  H105 3162   5.085   9.787   2.030
    8CHTO   O38 3163   5.560   9.485   1.903
    8CHTO   C55 3164   5.483   9.397   1.988
    8CHTO  H112 3165   5.548   9.310   2.004
    8CHTO   C56 3166   5.349   9.357   1.913
    8CHTO  H113 3167   5.301   9.450   1.881
    8CHTO   O42 3168   5.386   9.285   1.793
    8CHTO  H100 3169   5.309   9.266   1.742
    8CHTO   C57 3170   5.250   9.274   2.003
    8CHTO  H114 3171   5.295   9.176   2.023
    8CHTO   N10 3172   5.119   9.251   1.936
    8CHTO  H106 3173   5.040   9.242   2.009
    8CHTO  H107 3174   5.123   9.161   1.877
    8CHTO   C58 3175   5.234   9.349   2.138
    8CHTO  H115 3176   5.195   9.452   2.118
    8CHTO   O37 3177   5.363   9.358   2.201
    8CHTO   C59 3178   5.453   9.449   2.134
    8CHTO  H116 3179   5.408   9.548   2.133
    8CHTO   C70 3180   5.583   9.455   2.215
    8CHTO   O46 3181   5.564   9.506   2.347
    8CHTO  H103 3182   5.540   9.597   2.343
    8CHTO   O39 3183   5.134   9.270   2.246
    8CHTO   C60 3184   5.008   9.337   2.267
    8CHTO  H117 3185   5.002   9.426   2.206
    8CHTO   C62 3186   4.889   9.245   2.229
    8CHTO  H119 3187   4.907   9.213   2.125
    8CHTO   O43 3188   4.888   9.127   2.312
    8CHTO  H101 3189   4.872   9.151   2.402
    8CHTO   C66 3190   4.753   9.330   2.235
    8CHTO  H123 3191   4.767   9.421   2.177
    8CHTO   N12 3192   4.637   9.259   2.175
    8CHTO  H110 3193   4.667   9.162   2.137
    8CHTO  H111 3194   4.592   9.319   2.098
    8CHTO   C69 3195   4.728   9.372   2.382
    8CHTO  H126 3196   4.711   9.281   2.443
    8CHTO   O41 3197   4.856   9.452   2.440
    8CHTO   C64 3198   4.995   9.383   2.415
    8CHTO  H121 3199   5.005   9.295   2.482
    8CHTO   C71 3200   5.107   9.483   2.450
    8CHTO   O47 3201   5.104   9.516   2.589
    8CHTO  H104 3202   5.174   9.576   2.608
    8CHTO   O34 3203   4.600   9.465   2.394
    8CHTO   C49 3204   4.575   9.617   2.396
    8CHTO   H91 3205   4.598   9.651   2.497
    8CHTO   C47 3206   4.427   9.643   2.363
    8CHTO   H89 3207   4.408   9.751   2.382
    8CHTO   O33 3208   4.347   9.566   2.455
    8CHTO   H70 3209   4.256   9.585   2.442
    8CHTO   C45 3210   4.398   9.609   2.208
    8CHTO   H87 3211   4.427   9.505   2.190
    8CHTO    N8 3212   4.255   9.625   2.173
    8CHTO   H75 3213   4.194   9.563   2.237
    8CHTO   H76 3214   4.239   9.596   2.070
    8CHTO   C43 3215   4.495   9.698   2.115
    8CHTO   H85 3216   4.478   9.663   2.013
    8CHTO   O29 3217   4.632   9.679   2.155
    8CHTO   C50 3218   4.666   9.694   2.295
    8CHTO   H92 3219   4.768   9.654   2.307
    8CHTO   C54 3220   4.682   9.843   2.335
    8CHTO   O36 3221   4.785   9.907   2.258
    8CHTO   H72 3222   4.869   9.873   2.282
    8CHTO   O27 3223   4.462   9.838   2.116
    8CHTO   C37 3224   4.420   9.931   2.015
    8CHTO   H79 3225   4.371   9.878   1.932
    8CHTO   C38 3226   4.317   0.033   2.071
    8CHTO   H80 3227   4.361   0.083   2.159
    8CHTO   O31 3228   4.202   9.958   2.114
    8CHTO   H68 3229   4.140   0.014   2.157
    8CHTO   C39 3230   4.280   0.142   1.962
    8CHTO   H81 3231   4.234   0.089   1.878
    8CHTO    N7 3232   4.180   0.244   2.010
    8CHTO   H73 3233   4.221   0.298   2.094
    8CHTO   H74 3234   4.155   0.312   1.930
    8CHTO   C40 3235   4.412   0.209   1.908
    8CHTO   H82 3236   4.458   0.265   1.990
    8CHTO   O26 3237   4.501   0.107   1.859
    8CHTO   C41 3238   4.543   0.009   1.958
    8CHTO   H83 3239   4.595   0.061   2.040
    8CHTO   C52 3240   4.646   9.916   1.890
    8CHTO   O35 3241   4.589   9.840   1.772
    8CHTO   H71 3242   4.564   9.900   1.705
    8CHTO   O28 3243   4.392   0.308   1.804
    8CHTO   C42 3244   4.380   0.288   1.659
    8CHTO   H84 3245   4.358   0.389   1.624
    8CHTO   C44 3246   4.263   0.198   1.607
    8CHTO   H86 3247   4.278   0.097   1.644
    8CHTO   O32 3248   4.141   0.250   1.663
    8CHTO   H69 3249   4.138   0.235   1.756
    8CHTO   C48 3250   4.257   0.195   1.449
    8CHTO   H90 3251   4.226   0.293   1.414
    8CHTO    N9 3252   4.152   0.099   1.398
    8CHTO   H77 3253   4.150   0.100   1.290
    8CHTO   H78 3254   4.055   0.127   1.437
    8CHTO   C51 3255   4.399   0.164   1.389
    8CHTO   H93 3256   4.425   0.060   1.412
    8CHTO   O30 3257   4.495   0.256   1.442
    8CHTO   C46 3258   4.512   0.244   1.590
    8CHTO   H88 3259   4.533   0.139   1.614
    8CHTO   C53 3260   4.632   0.332   1.632
    8CHTO   O72 3261   4.754   0.279   1.579
    8CHTO  H199 3262   4.826   0.334   1.604
    8CHTO   O22 3263   4.404   0.186   1.246
    8CHTO   C31 3264   4.501   0.116   1.159
    8CHTO   H59 3265   4.500   0.171   1.063
    8CHTO   C29 3266   4.648   0.118   1.210
    8CHTO   H57 3267   4.649   0.074   1.311
    8CHTO   O21 3268   4.688   0.256   1.224
    8CHTO   H37 3269   4.694   0.298   1.141
    8CHTO   C27 3270   4.746   0.036   1.117
    8CHTO   H55 3271   4.753   0.087   1.020
    8CHTO    N5 3272   4.883   0.026   1.174
    8CHTO   H43 3273   4.948   9.973   1.105
    8CHTO   H44 3274   4.923   0.125   1.192
    8CHTO   C25 3275   4.685   9.894   1.092
    8CHTO   H53 3276   4.681   9.839   1.187
    8CHTO   O17 3277   4.551   9.905   1.038
    8CHTO   C32 3278   4.456   9.970   1.124
    8CHTO   H60 3279   4.444   9.914   1.217
    8CHTO   C36 3280   4.320   9.974   1.050
    8CHTO   O25 3281   4.275   9.843   1.013
    8CHTO   H40 3282   4.332   9.807   0.947
    8CHTO   O15 3283   4.771   9.812   0.989
    8CHTO   C19 3284   4.781   9.794   0.845
    8CHTO   H47 3285   4.689   9.739   0.820
    8CHTO   C20 3286   4.784   9.926   0.761
    8CHTO   H48 3287   4.868   9.991   0.791
    8CHTO   O19 3288   4.661   9.996   0.787
    8CHTO   H35 3289   4.662   0.080   0.747
    8CHTO   C21 3290   4.798   9.895   0.606
    8CHTO   H49 3291   4.709   9.842   0.572
    8CHTO    N4 3292   4.809   0.018   0.523
    8CHTO   H41 3293   4.897   0.074   0.551
    8CHTO   H42 3294   4.816   9.992   0.418
    8CHTO   C22 3295   4.919   9.799   0.586
    8CHTO   H50 3296   5.009   9.850   0.618
    8CHTO   O14 3297   4.900   9.679   0.663
    8CHTO   C23 3298   4.900   9.701   0.805
    8CHTO   H51 3299   4.997   9.745   0.832
    8CHTO   C34 3300   4.889   9.564   0.875
    8CHTO   O23 3301   5.004   9.483   0.849
    8CHTO   H38 3302   4.994   9.400   0.892
    8CHTO   O16 3303   4.932   9.754   0.449
    8CHTO   C24 3304   5.076   9.693   0.421
    8CHTO   H52 3305   5.128   9.667   0.514
    8CHTO   C26 3306   5.161   9.795   0.343
    8CHTO   H54 3307   5.107   9.821   0.249
    8CHTO   O20 3308   5.173   9.916   0.421
    8CHTO   H36 3309   5.219   9.899   0.501
    8CHTO   C30 3310   5.300   9.735   0.305
    8CHTO   H58 3311   5.361   9.725   0.397
    8CHTO    N6 3312   5.377   9.826   0.215
    8CHTO   H45 3313   5.392   9.922   0.264
    8CHTO   H46 3314   5.473   9.783   0.192
    8CHTO   C33 3315   5.287   9.591   0.246
    8CHTO   H61 3316   5.247   9.596   0.143
    8CHTO   O18 3317   5.198   9.511   0.325
    8CHTO   C28 3318   5.065   9.562   0.339
    8CHTO   H56 3319   5.022   9.585   0.241
    8CHTO   C35 3320   4.979   9.455   0.410
    8CHTO   O24 3321   4.839   9.486   0.410
    8CHTO   H39 3322   4.823   9.560   0.465
    8CHTO    O9 3323   5.417   9.530   0.234
    8CHTO   C13 3324   5.417   9.377   0.181
    8CHTO   H26 3325   5.326   9.362   0.119
    8CHTO   C11 3326   5.421   9.276   0.305
    8CHTO   H24 3327   5.317   9.258   0.336
    8CHTO    O8 3328   5.490   9.336   0.416
    8CHTO    H3 3329   5.484   9.282   0.491
    8CHTO    C9 3330   5.486   9.142   0.259
    8CHTO   H22 3331   5.431   9.112   0.169
    8CHTO    N2 3332   5.466   9.030   0.354
    8CHTO   H10 3333   5.361   9.016   0.374
    8CHTO   H11 3334   5.520   9.049   0.446
    8CHTO    C7 3335   5.636   9.171   0.220
    8CHTO   H20 3336   5.665   9.087   0.153
    8CHTO    O4 3337   5.653   9.297   0.151
    8CHTO   C14 3338   5.540   9.351   0.082
    8CHTO   H27 3339   5.508   9.278   0.004
    8CHTO   C18 3340   5.587   9.479   0.007
    8CHTO   O13 3341   5.482   9.535   2.802
    8CHTO    H7 3342   5.415   9.571   2.858
    8CHTO    O2 3343   5.735   9.173   0.354
    8CHTO    C1 3344   5.878   9.166   0.338
    8CHTO   H14 3345   5.923   9.185   0.438
    8CHTO    C2 3346   5.942   9.268   0.235
    8CHTO   H15 3347   5.903   9.241   0.135
    8CHTO    O6 3348   5.900   9.401   0.269
    8CHTO    H1 3349   5.932   9.425   0.354
    8CHTO    C3 3350   6.102   9.253   0.237
    8CHTO   H16 3351   6.138   9.285   0.336
    8CHTO    N1 3352   6.169   9.341   0.136
    8CHTO    H8 3353   6.135   9.317   0.037
    8CHTO    H9 3354   6.148   9.445   0.157
    8CHTO    C4 3355   6.145   9.102   0.223
    8CHTO   H17 3356   6.134   9.071   0.118
    8CHTO    O1 3357   6.068   9.015   0.308
    8CHTO    C5 3358   5.925   9.023   0.298
    8CHTO   H18 3359   5.894   9.005   0.194
    8CHTO   C16 3360   5.864   8.913   0.388
    8CHTO   O11 3361   5.896   8.783   0.339
    8CHTO    H5 3362   5.858   8.718   0.395
    8CHTO    O3 3363   6.280   9.083   0.270
    8CHTO    C6 3364   6.366   8.992   0.192
    8CHTO   H19 3365   6.317   8.953   0.102
    8CHTO    C8 3366   6.495   9.069   0.147
    8CHTO   H21 3367   6.540   9.114   0.236
    8CHTO    O7 3368   6.453   9.172   0.056
    8CHTO    H2 3369   6.525   9.228   0.035
    8CHTO   C12 3370   6.599   8.970   0.080
    8CHTO   H25 3371   6.555   8.938   2.858
    8CHTO    N3 3372   6.728   9.041   0.047
    8CHTO   H12 3373   6.796   8.973   2.873
    8CHTO   H13 3374   6.772   9.082   0.137
    8CHTO   C15 3375   6.620   8.843   0.171
    8CHTO   H28 3376   6.675   8.867   0.262
    8CHTO   O10 3377   6.694   8.728   0.096
    8CHTO    H4 3378   6.651   8.709   0.015
    8CHTO    O5 3379   6.495   8.782   0.204
    8CHTO   C10 3380   6.407   8.869   0.278
    8CHTO   H23 3381   6.459   8.902   0.368
    8CHTO   C17 3382   6.288   8.784   0.325
    8CHTO   O12 3383   6.208   8.736   0.216
    8CHTO    H6 3384   6.258   8.675   0.165
    9CHTO  H203 3385   7.520   4.750   1.438
    9CHTO   O82 3386   7.576   4.744   1.513
    9CHTO  C123 3387   7.699   4.677   1.480
    9CHTO  H227 3388   7.764   4.676   1.569
    9CHTO   O77 3389   7.657   4.541   1.448
    9CHTO  C118 3390   7.765   4.450   1.421
    9CHTO  H222 3391   7.836   4.449   1.505
    9CHTO  C125 3392   7.699   4.308   1.409
    9CHTO   O84 3393   7.792   4.203   1.435
    9CHTO  H205 3394   7.856   4.199   1.367
    9CHTO  C114 3395   7.837   4.495   1.292
    9CHTO  H218 3396   7.765   4.493   1.210
    9CHTO  C116 3397   7.888   4.642   1.306
    9CHTO  H220 3398   7.972   4.644   1.379
    9CHTO   O79 3399   7.942   4.684   1.180
    9CHTO  H201 3400   7.982   4.768   1.188
    9CHTO  C120 3401   7.773   4.740   1.355
    9CHTO  H224 3402   7.702   4.750   1.270
    9CHTO   N21 3403   7.824   4.877   1.383
    9CHTO  H211 3404   7.858   4.885   1.486
    9CHTO  H212 3405   7.903   4.903   1.315
    9CHTO   O75 3406   7.944   4.401   1.269
    9CHTO  C112 3407   7.924   4.303   1.133
    9CHTO  H216 3408   7.834   4.335   1.078
    9CHTO   O73 3409   7.911   4.168   1.180
    9CHTO  C113 3410   7.877   4.074   1.077
    9CHTO  H217 3411   7.782   4.106   1.029
    9CHTO  C124 3412   7.851   3.937   1.143
    9CHTO   O83 3413   7.742   3.939   1.235
    9CHTO  H204 3414   7.765   3.991   1.310
    9CHTO  C109 3415   7.990   4.066   0.971
    9CHTO  H213 3416   8.077   4.021   1.020
    9CHTO  C110 3417   8.025   4.209   0.918
    9CHTO  H214 3418   7.941   4.245   0.857
    9CHTO   O78 3419   8.140   4.202   0.833
    9CHTO  H200 3420   8.120   4.154   0.755
    9CHTO  C111 3421   8.048   4.309   1.036
    9CHTO  H215 3422   8.137   4.277   1.092
    9CHTO   N19 3423   8.073   4.448   0.991
    9CHTO  H207 3424   8.090   4.512   1.077
    9CHTO  H208 3425   8.160   4.451   0.927
    9CHTO   O74 3426   7.945   3.976   0.865
    9CHTO  C115 3427   8.056   3.915   0.772
    9CHTO  H219 3428   8.152   3.965   0.786
    9CHTO   O76 3429   8.084   3.759   0.806
    9CHTO  C122 3430   7.978   3.668   0.772
    9CHTO  H226 3431   7.895   3.685   0.840
    9CHTO  C126 3432   8.032   3.523   0.802
    9CHTO   O85 3433   7.933   3.420   0.786
    9CHTO  H206 3434   7.867   3.430   0.852
    9CHTO  C121 3435   7.931   3.686   0.621
    9CHTO  H225 3436   8.016   3.662   0.554
    9CHTO   O81 3437   7.822   3.599   0.589
    9CHTO  H202 3438   7.804   3.602   0.497
    9CHTO  C119 3439   7.890   3.836   0.599
    9CHTO  H223 3440   7.859   3.845   0.495
    9CHTO  C117 3441   8.008   3.937   0.624
    9CHTO  H221 3442   7.981   4.042   0.621
    9CHTO   N20 3443   8.121   3.924   0.526
    9CHTO  H209 3444   8.197   3.999   0.547
    9CHTO  H210 3445   8.164   3.825   0.532
    9CHTO   O80 3446   7.756   3.873   0.677
    9CHTO  C103 3447   7.654   3.980   0.617
    9CHTO  H190 3448   7.582   4.008   0.694
    9CHTO  C101 3449   7.715   4.112   0.558
    9CHTO  H188 3450   7.793   4.086   0.486
    9CHTO   O68 3451   7.779   4.191   0.673
    9CHTO  H168 3452   7.825   4.266   0.639
    9CHTO   C99 3453   7.604   4.200   0.483
    9CHTO  H186 3454   7.534   4.240   0.559
    9CHTO   N17 3455   7.660   4.319   0.411
    9CHTO  H174 3456   7.724   4.286   0.330
    9CHTO  H175 3457   7.714   4.382   0.480
    9CHTO   C97 3458   7.517   4.112   0.388
    9CHTO  H184 3459   7.575   4.087   0.298
    9CHTO   O64 3460   7.469   3.993   0.455
    9CHTO  C104 3461   7.573   3.906   0.504
    9CHTO  H191 3462   7.641   3.877   0.425
    9CHTO  C108 3463   7.510   3.777   0.557
    9CHTO   O71 3464   7.447   3.703   0.452
    9CHTO  H171 3465   7.414   3.622   0.485
    9CHTO   O62 3466   7.395   4.181   0.353
    9CHTO   C91 3467   7.330   4.146   0.230
    9CHTO  H178 3468   7.379   4.057   0.189
    9CHTO   C92 3469   7.354   4.261   0.126
    9CHTO  H179 3470   7.462   4.281   0.118
    9CHTO   O66 3471   7.314   4.215   2.870
    9CHTO  H166 3472   7.370   4.146   2.841
    9CHTO   C93 3473   7.271   4.391   0.159
    9CHTO  H180 3474   7.250   4.442   0.064
    9CHTO   N16 3475   7.348   4.490   0.238
    9CHTO  H172 3476   7.288   4.579   0.256
    9CHTO  H173 3477   7.379   4.447   0.332
    9CHTO   C94 3478   7.134   4.356   0.229
    9CHTO  H181 3479   7.141   4.357   0.338
    9CHTO   O61 3480   7.090   4.223   0.193
    9CHTO   C95 3481   7.174   4.118   0.246
    9CHTO  H182 3482   7.152   4.108   0.353
    9CHTO  C106 3483   7.132   3.981   0.182
    9CHTO   O69 3484   7.140   3.981   0.039
    9CHTO  H169 3485   7.230   3.987   0.012
    9CHTO   O63 3486   7.027   4.461   0.181
    9CHTO   C96 3487   6.904   4.487   0.279
    9CHTO  H183 3488   6.894   4.402   0.348
    9CHTO   C98 3489   6.771   4.501   0.199
    9CHTO  H185 3490   6.789   4.565   0.112
    9CHTO   O67 3491   6.738   4.372   0.145
    9CHTO  H167 3492   6.719   4.311   0.214
    9CHTO  C102 3493   6.648   4.560   0.285
    9CHTO  H189 3494   6.616   4.480   0.352
    9CHTO   N18 3495   6.528   4.595   0.204
    9CHTO  H176 3496   6.490   4.507   0.154
    9CHTO  H177 3497   6.553   4.670   0.130
    9CHTO  C105 3498   6.694   4.679   0.373
    9CHTO  H192 3499   6.709   4.767   0.310
    9CHTO   O65 3500   6.815   4.652   0.444
    9CHTO  C100 3501   6.929   4.618   0.364
    9CHTO  H187 3502   6.948   4.701   0.294
    9CHTO  C107 3503   7.050   4.608   0.459
    9CHTO   O70 3504   7.031   4.509   0.561
    9CHTO  H170 3505   7.032   4.423   0.523
    9CHTO   O57 3506   6.575   4.705   0.484
    9CHTO   C85 3507   6.526   4.837   0.509
    9CHTO  H157 3508   6.482   4.871   0.412
    9CHTO   C83 3509   6.643   4.937   0.539
    9CHTO  H155 3510   6.706   4.943   0.450
    9CHTO   O56 3511   6.727   4.885   0.644
    9CHTO  H135 3512   6.769   4.805   0.616
    9CHTO   C81 3513   6.583   5.077   0.568
    9CHTO  H153 3514   6.520   5.104   0.483
    9CHTO   N14 3515   6.686   5.184   0.573
    9CHTO  H141 3516   6.679   5.240   0.664
    9CHTO  H142 3517   6.675   5.251   0.490
    9CHTO   C79 3518   6.491   5.070   0.696
    9CHTO  H151 3519   6.447   5.169   0.709
    9CHTO   O52 3520   6.380   4.978   0.671
    9CHTO   C86 3521   6.420   4.843   0.627
    9CHTO  H158 3522   6.461   4.797   0.719
    9CHTO   C90 3523   6.293   4.762   0.591
    9CHTO   O60 3524   6.219   4.823   0.486
    9CHTO  H138 3525   6.144   4.771   0.466
    9CHTO   O50 3526   6.561   5.034   0.816
    9CHTO   C73 3527   6.549   5.036   0.959
    9CHTO  H145 3528   6.450   4.999   0.990
    9CHTO   C74 3529   6.568   5.181   1.013
    9CHTO  H146 3530   6.492   5.244   0.965
    9CHTO   O54 3531   6.537   5.180   1.154
    9CHTO  H133 3532   6.542   5.267   1.189
    9CHTO   C75 3533   6.715   5.231   0.980
    9CHTO  H147 3534   6.726   5.235   0.871
    9CHTO   N13 3535   6.744   5.368   1.028
    9CHTO  H139 3536   6.845   5.396   1.000
    9CHTO  H140 3537   6.735   5.373   1.135
    9CHTO   C76 3538   6.821   5.124   1.035
    9CHTO  H148 3539   6.817   5.124   1.144
    9CHTO   O49 3540   6.790   4.989   0.985
    9CHTO   C77 3541   6.658   4.943   1.021
    9CHTO  H149 3542   6.647   4.943   1.129
    9CHTO   C88 3543   6.641   4.797   0.977
    9CHTO   O58 3544   6.739   4.707   1.047
    9CHTO  H136 3545   6.720   4.705   1.139
    9CHTO   O51 3546   6.969   5.156   0.978
    9CHTO   C78 3547   7.078   5.051   1.029
    9CHTO  H150 3548   7.030   4.956   1.061
    9CHTO   C80 3549   7.159   5.108   1.147
    9CHTO  H152 3550   7.209   5.202   1.114
    9CHTO   O55 3551   7.066   5.141   1.252
    9CHTO  H134 3552   7.025   5.063   1.285
    9CHTO   C84 3553   7.269   5.005   1.195
    9CHTO  H156 3554   7.217   4.917   1.234
    9CHTO   N15 3555   7.353   5.058   1.308
    9CHTO  H143 3556   7.406   5.145   1.276
    9CHTO  H144 3557   7.424   4.984   1.339
    9CHTO   C87 3558   7.356   4.959   1.076
    9CHTO  H159 3559   7.423   5.040   1.045
    9CHTO   O53 3560   7.264   4.915   0.953
    9CHTO   C82 3561   7.172   5.017   0.912
    9CHTO  H154 3562   7.227   5.105   0.879
    9CHTO   C89 3563   7.093   4.966   0.788
    9CHTO   O59 3564   7.018   4.846   0.815
    9CHTO  H137 3565   6.949   4.865   0.875
    9CHTO   O45 3566   7.453   4.828   1.123
    9CHTO   C67 3567   7.418   4.701   1.067
    9CHTO  H124 3568   7.311   4.698   1.049
    9CHTO   C65 3569   7.493   4.676   0.931
    9CHTO  H122 3570   7.542   4.770   0.905
    9CHTO   O44 3571   7.396   4.644   0.829
    9CHTO  H102 3572   7.358   4.560   0.846
    9CHTO   C63 3573   7.610   4.572   0.948
    9CHTO  H120 3574   7.677   4.607   1.027
    9CHTO   N11 3575   7.707   4.559   0.834
    9CHTO  H108 3576   7.671   4.613   0.748
    9CHTO  H109 3577   7.721   4.456   0.807
    9CHTO   C61 3578   7.547   4.436   1.000
    9CHTO  H118 3579   7.629   4.379   1.045
    9CHTO   O40 3580   7.447   4.456   1.105
    9CHTO   C68 3581   7.447   4.586   1.171
    9CHTO  H125 3582   7.546   4.601   1.218
    9CHTO   C72 3583   7.342   4.587   1.285
    9CHTO   O48 3584   7.367   4.486   1.384
    9CHTO  H105 3585   7.445   4.506   1.431
    9CHTO   O38 3586   7.489   4.359   0.892
    9CHTO   C55 3587   7.400   4.248   0.919
    9CHTO  H112 3588   7.313   4.286   0.976
    9CHTO   C56 3589   7.471   4.127   0.994
    9CHTO  H113 3590   7.559   4.100   0.934
    9CHTO   O42 3591   7.520   4.168   1.123
    9CHTO  H100 3592   7.569   4.099   1.163
    9CHTO   C57 3593   7.372   4.004   1.008
    9CHTO  H114 3594   7.296   4.033   1.081
    9CHTO   N10 3595   7.439   3.881   1.061
    9CHTO  H106 3596   7.435   3.880   1.169
    9CHTO  H107 3597   7.542   3.877   1.029
    9CHTO   C58 3598   7.302   3.974   0.873
    9CHTO  H115 3599   7.375   3.929   0.802
    9CHTO   O37 3600   7.245   4.092   0.816
    9CHTO   C59 3601   7.341   4.195   0.786
    9CHTO  H116 3602   7.420   4.153   0.723
    9CHTO   C70 3603   7.273   4.307   0.706
    9CHTO   O46 3604   7.221   4.261   0.581
    9CHTO  H103 3605   7.183   4.333   0.535
    9CHTO   O39 3606   7.172   3.875   0.894
    9CHTO   C60 3607   7.189   3.739   0.852
    9CHTO  H117 3608   7.290   3.723   0.814
    9CHTO   C62 3609   7.169   3.642   0.972
    9CHTO  H119 3610   7.246   3.669   1.048
    9CHTO   O43 3611   7.039   3.664   1.031
    9CHTO  H101 3612   7.029   3.609   1.107
    9CHTO   C66 3613   7.193   3.491   0.925
    9CHTO  H123 3614   7.291   3.484   0.878
    9CHTO   N12 3615   7.195   3.397   1.040
    9CHTO  H110 3616   7.211   3.296   1.004
    9CHTO  H111 3617   7.272   3.426   1.109
    9CHTO   C69 3618   7.087   3.455   0.818
    9CHTO  H126 3619   6.984   3.465   0.861
    9CHTO   O41 3620   7.103   3.555   0.696
    9CHTO   C64 3621   7.091   3.704   0.736
    9CHTO  H121 3622   6.988   3.727   0.769
    9CHTO   C71 3623   7.122   3.791   0.612
    9CHTO   O47 3624   7.031   3.762   0.505
    9CHTO  H104 3625   7.053   3.815   0.431
    9CHTO   O34 3626   7.102   3.305   0.764
    9CHTO   C49 3627   7.162   3.259   0.630
    9CHTO   H91 3628   7.105   3.308   0.551
    9CHTO   C47 3629   7.146   3.105   0.619
    9CHTO   H89 3630   7.180   3.082   0.515
    9CHTO   O33 3631   7.008   3.068   0.631
    9CHTO   H70 3632   6.997   2.978   0.609
    9CHTO   C45 3633   7.237   3.028   0.729
    9CHTO   H87 3634   7.174   3.008   0.817
    9CHTO    N8 3635   7.280   2.897   0.673
    9CHTO   H75 3636   7.344   2.912   0.588
    9CHTO   H76 3637   7.194   2.838   0.644
    9CHTO   C43 3638   7.355   3.124   0.782
    9CHTO   H85 3639   7.307   3.188   0.855
    9CHTO   O29 3640   7.408   3.200   0.672
    9CHTO   C50 3641   7.314   3.294   0.615
    9CHTO   H92 3642   7.332   3.391   0.663
    9CHTO   C54 3643   7.356   3.318   0.468
    9CHTO   O36 3644   7.282   3.425   0.408
    9CHTO   H72 3645   7.311   3.437   0.320
    9CHTO   O27 3646   7.458   3.056   0.855
    9CHTO   C37 3647   7.537   3.104   0.966
    9CHTO   H79 3648   7.625   3.039   0.980
    9CHTO   C38 3649   7.591   3.248   0.940
    9CHTO   H80 3650   7.507   3.311   0.906
    9CHTO   O31 3651   7.688   3.240   0.833
    9CHTO   H68 3652   7.645   3.218   0.752
    9CHTO   C39 3653   7.654   3.314   1.069
    9CHTO   H81 3654   7.746   3.259   1.093
    9CHTO    N7 3655   7.692   3.458   1.049
    9CHTO   H73 3656   7.763   3.466   0.968
    9CHTO   H74 3657   7.735   3.498   1.139
    9CHTO   C40 3658   7.556   3.297   1.191
    9CHTO   H82 3659   7.466   3.357   1.173
    9CHTO   O26 3660   7.525   3.157   1.207
    9CHTO   C41 3661   7.451   3.100   1.095
    9CHTO   H83 3662   7.358   3.157   1.080
    9CHTO   C52 3663   7.412   2.955   1.132
    9CHTO   O35 3664   7.321   2.950   1.247
    9CHTO   H71 3665   7.301   2.861   1.267
    9CHTO   O28 3666   7.613   3.333   1.318
    9CHTO   C42 3667   7.528   3.388   1.425
    9CHTO   H84 3668   7.584   3.365   1.515
    9CHTO   C44 3669   7.386   3.321   1.443
    9CHTO   H86 3670   7.337   3.316   1.346
    9CHTO   O32 3671   7.408   3.185   1.486
    9CHTO   H69 3672   7.449   3.183   1.570
    9CHTO   C48 3673   7.290   3.399   1.541
    9CHTO   H90 3674   7.329   3.389   1.643
    9CHTO    N9 3675   7.150   3.342   1.545
    9CHTO   H77 3676   7.141   3.257   1.479
    9CHTO   H78 3677   7.124   3.315   1.646
    9CHTO   C51 3678   7.292   3.551   1.501
    9CHTO   H93 3679   7.258   3.559   1.398
    9CHTO   O30 3680   7.426   3.596   1.518
    9CHTO   C46 3681   7.519   3.544   1.415
    9CHTO   H88 3682   7.483   3.574   1.317
    9CHTO   C53 3683   7.653   3.614   1.446
    9CHTO   O72 3684   7.753   3.587   1.347
    9CHTO  H199 3685   7.833   3.631   1.370
    9CHTO   O22 3686   7.213   3.635   1.587
    9CHTO   C31 3687   7.170   3.770   1.544
    9CHTO   H59 3688   7.117   3.814   1.631
    9CHTO   C29 3689   7.286   3.867   1.508
    9CHTO   H57 3690   7.341   3.823   1.424
    9CHTO   O21 3691   7.377   3.871   1.619
    9CHTO   H37 3692   7.337   3.913   1.693
    9CHTO   C27 3693   7.232   4.010   1.466
    9CHTO   H55 3694   7.181   4.055   1.552
    9CHTO    N5 3695   7.341   4.102   1.422
    9CHTO   H43 3696   7.300   4.198   1.398
    9CHTO   H44 3697   7.414   4.112   1.501
    9CHTO   C25 3698   7.126   3.990   1.352
    9CHTO   H53 3699   7.174   3.946   1.264
    9CHTO   O17 3700   7.020   3.900   1.398
    9CHTO   C32 3701   7.066   3.767   1.427
    9CHTO   H60 3702   7.114   3.725   1.339
    9CHTO   C36 3703   6.943   3.681   1.464
    9CHTO   O25 3704   6.856   3.664   1.351
    9CHTO   H40 3705   6.815   3.746   1.331
    9CHTO   O15 3706   7.058   4.126   1.309
    9CHTO   C19 3707   6.989   4.196   1.202
    9CHTO   H47 3708   6.890   4.217   1.244
    9CHTO   C20 3709   7.058   4.332   1.165
    9CHTO   H48 3710   7.164   4.318   1.140
    9CHTO   O19 3711   7.052   4.414   1.283
    9CHTO   H35 3712   7.109   4.381   1.349
    9CHTO   C21 3713   6.988   4.405   1.043
    9CHTO   H49 3714   6.890   4.440   1.075
    9CHTO    N4 3715   7.062   4.526   0.996
    9CHTO   H41 3716   7.001   4.614   1.005
    9CHTO   H42 3717   7.153   4.539   1.052
    9CHTO   C22 3718   6.962   4.304   0.928
    9CHTO   H50 3719   7.059   4.271   0.889
    9CHTO   O14 3720   6.891   4.190   0.979
    9CHTO   C23 3721   6.966   4.112   1.073
    9CHTO   H51 3722   7.061   4.083   1.025
    9CHTO   C34 3723   6.886   3.984   1.101
    9CHTO   O23 3724   6.871   3.906   0.982
    9CHTO   H38 3725   6.823   3.827   1.001
    9CHTO   O16 3726   6.884   4.361   0.820
    9CHTO   C24 3727   6.783   4.263   0.732
    9CHTO   H52 3728   6.727   4.194   0.796
    9CHTO   C26 3729   6.861   4.182   0.627
    9CHTO   H54 3730   6.921   4.253   0.565
    9CHTO   O20 3731   6.954   4.095   0.694
    9CHTO   H36 3732   6.908   4.032   0.747
    9CHTO   C30 3733   6.764   4.103   0.533
    9CHTO   H58 3734   6.716   4.022   0.590
    9CHTO    N6 3735   6.837   4.037   0.421
    9CHTO   H45 3736   6.889   4.111   0.362
    9CHTO   H46 3737   6.908   3.966   0.460
    9CHTO   C33 3738   6.649   4.194   0.480
    9CHTO   H61 3739   6.691   4.268   0.410
    9CHTO   O18 3740   6.588   4.265   0.590
    9CHTO   C28 3741   6.678   4.352   0.661
    9CHTO   H56 3742   6.729   4.420   0.593
    9CHTO   C35 3743   6.599   4.434   0.766
    9CHTO   O24 3744   6.497   4.515   0.706
    9CHTO   H39 3745   6.454   4.565   0.773
    9CHTO    O9 3746   6.551   4.120   0.405
    9CHTO   C13 3747   6.455   4.214   0.315
    9CHTO   H26 3748   6.509   4.308   0.295
    9CHTO   C11 3749   6.320   4.240   0.391
    9CHTO   H24 3750   6.344   4.287   0.488
    9CHTO    O8 3751   6.255   4.114   0.418
    9CHTO    H3 3752   6.178   4.128   0.470
    9CHTO    C9 3753   6.237   4.338   0.305
    9CHTO   H22 3754   6.301   4.427   0.294
    9CHTO    N2 3755   6.119   4.391   0.378
    9CHTO   H10 3756   6.030   4.381   0.318
    9CHTO   H11 3757   6.134   4.495   0.404
    9CHTO    C7 3758   6.214   4.278   0.160
    9CHTO   H20 3759   6.258   4.355   0.094
    9CHTO    O4 3760   6.284   4.154   0.137
    9CHTO   C14 3761   6.424   4.153   0.170
    9CHTO   H27 3762   6.476   4.216   0.095
    9CHTO   C18 3763   6.478   4.008   0.151
    9CHTO   O13 3764   6.411   3.913   0.235
    9CHTO    H7 3765   6.322   3.904   0.208
    9CHTO    O2 3766   6.050   4.260   0.108
    9CHTO    C1 3767   5.961   4.163   0.167
    9CHTO   H14 3768   5.974   4.164   0.277
    9CHTO    C2 3769   5.978   4.013   0.115
    9CHTO   H15 3770   5.989   4.021   0.006
    9CHTO    O6 3771   6.098   3.956   0.170
    9CHTO    H1 3772   6.094   3.953   0.264
    9CHTO    C3 3773   5.852   3.919   0.151
    9CHTO   H16 3774   5.857   3.895   0.258
    9CHTO    N1 3775   5.857   3.789   0.077
    9CHTO    H8 3776   5.946   3.734   0.104
    9CHTO    H9 3777   5.856   3.807   2.844
    9CHTO    C4 3778   5.716   3.994   0.130
    9CHTO   H17 3779   5.699   4.008   0.023
    9CHTO    O1 3780   5.720   4.122   0.197
    9CHTO    C5 3781   5.815   4.212   0.139
    9CHTO   H18 3782   5.802   4.216   0.031
    9CHTO   C16 3783   5.788   4.353   0.198
    9CHTO   O11 3784   5.659   4.402   0.159
    9CHTO    H5 3785   5.658   4.420   0.067
    9CHTO    O3 3786   5.605   3.923   0.189
    9CHTO    C6 3787   5.472   3.974   0.156
    9CHTO   H19 3788   5.475   4.076   0.116
    9CHTO    C8 3789   5.402   3.883   0.051
    9CHTO   H21 3790   5.401   3.780   0.089
    9CHTO    O7 3791   5.482   3.888   2.804
    9CHTO    H2 3792   5.448   3.828   2.741
    9CHTO   C12 3793   5.253   3.930   0.026
    9CHTO   H25 3794   5.260   4.029   2.850
    9CHTO    N3 3795   5.182   3.839   2.804
    9CHTO   H12 3796   5.081   3.875   2.787
    9CHTO   H13 3797   5.178   3.738   2.845
    9CHTO   C15 3798   5.179   3.948   0.163
    9CHTO   H28 3799   5.158   3.852   0.210
    9CHTO   O10 3800   5.046   4.027   0.149
    9CHTO    H4 3801   5.061   4.109   0.105
    9CHTO    O5 3802   5.254   4.031   0.253
    9CHTO   C10 3803   5.384   3.980   0.285
    9CHTO   H23 3804   5.374   3.881   0.328
    9CHTO   C17 3805   5.441   4.073   0.394
    9CHTO   O12 3806   5.559   4.019   0.456
    9CHTO    H6 3807   5.630   4.019   0.394
   10CHTO  H203 3808   4.538   6.596   0.305
   10CHTO   O82 3809   4.467   6.563   0.356
   10CHTO  C123 3810   4.343   6.618   0.308
   10CHTO  H227 3811   4.330   6.589   0.203
   10CHTO   O77 3812   4.243   6.551   0.391
   10CHTO  C118 3813   4.107   6.583   0.358
   10CHTO  H222 3814   4.087   6.559   0.252
   10CHTO  C125 3815   4.013   6.494   0.448
   10CHTO   O84 3816   4.029   6.355   0.419
   10CHTO  H205 3817   3.973   6.305   0.475
   10CHTO  C114 3818   4.082   6.733   0.382
   10CHTO  H218 3819   4.098   6.754   0.488
   10CHTO  C116 3820   4.182   6.820   0.301
   10CHTO  H220 3821   4.158   6.811   0.192
   10CHTO   O79 3822   4.161   6.958   0.336
   10CHTO  H201 3823   4.214   7.014   0.283
   10CHTO  C120 3824   4.332   6.774   0.327
   10CHTO  H224 3825   4.355   6.801   0.433
   10CHTO   N21 3826   4.429   6.848   0.242
   10CHTO  H211 3827   4.394   6.949   0.223
   10CHTO  H212 3828   4.445   6.796   0.149
   10CHTO   O75 3829   3.944   6.756   0.346
   10CHTO  C112 3830   3.865   6.848   0.456
   10CHTO  H216 3831   3.933   6.927   0.492
   10CHTO   O73 3832   3.825   6.761   0.563
   10CHTO  C113 3833   3.767   6.829   0.675
   10CHTO  H217 3834   3.842   6.901   0.714
   10CHTO  C124 3835   3.742   6.726   0.786
   10CHTO   O83 3836   3.657   6.617   0.746
   10CHTO  H204 3837   3.571   6.649   0.730
   10CHTO  C109 3838   3.638   6.907   0.636
   10CHTO  H213 3839   3.560   6.831   0.615
   10CHTO  C110 3840   3.662   6.995   0.508
   10CHTO  H214 3841   3.723   7.081   0.538
   10CHTO   O78 3842   3.536   7.047   0.462
   10CHTO  H200 3843   3.479   6.977   0.437
   10CHTO  C111 3844   3.736   6.915   0.396
   10CHTO  H215 3845   3.669   6.835   0.360
   10CHTO   N19 3846   3.770   6.998   0.277
   10CHTO  H207 3847   3.680   7.040   0.235
   10CHTO  H208 3848   3.819   6.937   0.202
   10CHTO   O74 3849   3.596   6.986   0.751
   10CHTO  C115 3850   3.443   7.032   0.759
   10CHTO  H219 3851   3.416   7.097   0.676
   10CHTO   O76 3852   3.346   6.911   0.747
   10CHTO  C122 3853   3.363   6.816   0.853
   10CHTO  H226 3854   3.460   6.769   0.838
   10CHTO  C126 3855   3.258   6.702   0.830
   10CHTO   O85 3856   3.258   6.604   0.934
   10CHTO  H206 3857   3.225   6.642   1.014
   10CHTO  C121 3858   3.355   6.880   0.998
   10CHTO  H225 3859   3.273   6.831   1.056
   10CHTO   O81 3860   3.477   6.854   1.068
   10CHTO  H202 3861   3.488   6.762   1.082
   10CHTO  C119 3862   3.327   7.033   0.994
   10CHTO  H223 3863   3.225   7.043   0.955
   10CHTO  C117 3864   3.425   7.110   0.897
   10CHTO  H221 3865   3.526   7.120   0.935
   10CHTO   N20 3866   3.378   7.250   0.874
   10CHTO  H209 3867   3.281   7.250   0.826
   10CHTO  H210 3868   3.373   7.303   0.968
   10CHTO   O80 3869   3.312   7.096   1.140
   10CHTO  C103 3870   3.170   7.130   1.198
   10CHTO  H190 3871   3.107   7.177   1.123
   10CHTO  C101 3872   3.091   7.010   1.265
   10CHTO  H188 3873   3.158   6.957   1.333
   10CHTO   O68 3874   3.047   6.912   1.153
   10CHTO  H168 3875   3.007   6.836   1.192
   10CHTO   C99 3876   2.966   7.065   1.350
   10CHTO  H186 3877   2.896   7.117   1.282
   10CHTO   N17 3878   2.887   6.957   1.419
   10CHTO  H174 3879   2.800   7.000   1.466
   10CHTO  H175 3880   2.950   6.906   1.490
   10CHTO   C97 3881   3.016   7.174   1.449
   10CHTO  H184 3882   3.084   7.127   1.522
   10CHTO   O64 3883   3.080   7.279   1.376
   10CHTO  C104 3884   3.200   7.239   1.308
   10CHTO  H191 3885   3.272   7.199   1.379
   10CHTO  C108 3886   3.266   7.363   1.245
   10CHTO   O71 3887   3.313   7.454   1.345
   10CHTO  H171 3888   3.385   7.416   1.391
   10CHTO   O62 3889   2.911   7.247   1.516
   10CHTO   C91 3890   2.888   7.224   1.657
   10CHTO  H178 3891   2.907   7.118   1.678
   10CHTO   C92 3892   2.736   7.248   1.682
   10CHTO  H179 3893   2.709   7.347   1.640
   10CHTO   O66 3894   2.661   7.153   1.604
   10CHTO  H166 3895   2.678   7.065   1.634
   10CHTO   C93 3896   2.695   7.241   1.835
   10CHTO  H180 3897   2.702   7.136   1.866
   10CHTO   N16 3898   2.554   7.281   1.860
   10CHTO  H172 3899   2.487   7.218   1.804
   10CHTO  H173 3900   2.532   7.274   1.966
   10CHTO   C94 3901   2.795   7.326   1.922
   10CHTO  H181 3902   2.789   7.432   1.897
   10CHTO   O61 3903   2.930   7.286   1.894
   10CHTO   C95 3904   2.971   7.313   1.758
   10CHTO  H182 3905   2.954   7.418   1.736
   10CHTO  C106 3906   3.126   7.290   1.749
   10CHTO   O69 3907   3.197   7.378   1.837
   10CHTO  H169 3908   3.289   7.361   1.830
   10CHTO   O63 3909   2.764   7.309   2.083
   10CHTO   C96 3910   2.849   7.203   2.169
   10CHTO  H183 3911   2.953   7.208   2.136
   10CHTO   C98 3912   2.801   7.055   2.158
   10CHTO  H185 3913   2.691   7.053   2.159
   10CHTO   O67 3914   2.838   7.006   2.028
   10CHTO  H167 3915   2.789   7.050   1.961
   10CHTO  C102 3916   2.859   6.958   2.273
   10CHTO  H189 3917   2.966   6.946   2.250
   10CHTO   N18 3918   2.802   6.822   2.274
   10CHTO  H176 3919   2.695   6.826   2.292
   10CHTO  H177 3920   2.849   6.762   2.351
   10CHTO  C105 3921   2.847   7.030   2.410
   10CHTO  H192 3922   2.742   7.042   2.435
   10CHTO   O65 3923   2.910   7.159   2.406
   10CHTO  C100 3924   2.844   7.251   2.319
   10CHTO  H187 3925   2.739   7.260   2.349
   10CHTO  C107 3926   2.910   7.390   2.335
   10CHTO   O70 3927   2.890   7.441   2.468
   10CHTO  H170 3928   2.929   7.526   2.475
   10CHTO   O57 3929   2.922   6.939   2.524
   10CHTO   C85 3930   2.868   6.938   2.657
   10CHTO  H157 3931   2.760   6.914   2.646
   10CHTO   C83 3932   2.873   7.081   2.720
   10CHTO  H155 3933   2.814   7.148   2.657
   10CHTO   O56 3934   3.009   7.132   2.714
   10CHTO  H135 3935   3.065   7.081   2.770
   10CHTO   C81 3936   2.811   7.077   2.862
   10CHTO  H153 3937   2.710   7.038   2.854
   10CHTO   N14 3938   2.793   7.212   0.048
   10CHTO  H141 3939   2.734   7.274   2.858
   10CHTO  H142 3940   2.889   7.259   0.063
   10CHTO   C79 3941   2.893   6.979   0.080
   10CHTO  H151 3942   2.840   6.971   0.175
   10CHTO   O52 3943   2.894   6.845   0.021
   10CHTO   C86 3944   2.941   6.837   2.756
   10CHTO  H158 3945   3.050   6.858   2.762
   10CHTO   C90 3946   2.927   6.690   2.710
   10CHTO   O60 3947   2.990   6.667   2.583
   10CHTO  H138 3948   2.979   6.577   2.559
   10CHTO   O50 3949   3.028   7.021   0.106
   10CHTO   C73 3950   3.110   6.993   0.221
   10CHTO  H145 3951   3.092   6.890   0.256
   10CHTO   C74 3952   3.076   7.092   0.337
   10CHTO  H146 3953   2.969   7.082   0.360
   10CHTO   O54 3954   3.146   7.049   0.456
   10CHTO  H133 3955   3.239   7.056   0.444
   10CHTO   C75 3956   3.113   7.239   0.292
   10CHTO  H147 3957   3.051   7.265   0.205
   10CHTO   N13 3958   3.083   7.343   0.394
   10CHTO  H139 3959   3.138   7.323   0.485
   10CHTO  H140 3960   2.978   7.344   0.416
   10CHTO   C76 3961   3.266   7.243   0.245
   10CHTO  H148 3962   3.329   7.223   0.332
   10CHTO   O49 3963   3.291   7.142   0.143
   10CHTO   C77 3964   3.260   7.007   0.183
   10CHTO  H149 3965   3.321   6.980   0.269
   10CHTO   C88 3966   3.300   6.911   0.071
   10CHTO   O58 3967   3.446   6.913   0.048
   10CHTO  H136 3968   3.468   6.852   2.854
   10CHTO   O51 3969   3.301   7.379   0.174
   10CHTO   C78 3970   3.456   7.400   0.162
   10CHTO  H150 3971   3.510   7.302   0.172
   10CHTO   C80 3972   3.505   7.495   0.273
   10CHTO  H152 3973   3.445   7.589   0.269
   10CHTO   O55 3974   3.477   7.430   0.399
   10CHTO  H134 3975   3.497   7.488   0.470
   10CHTO   C84 3976   3.658   7.528   0.257
   10CHTO  H156 3977   3.714   7.435   0.270
   10CHTO   N15 3978   3.709   7.623   0.362
   10CHTO  H143 3979   3.813   7.641   0.348
   10CHTO  H144 3980   3.656   7.717   0.354
   10CHTO   C87 3981   3.684   7.580   0.113
   10CHTO  H159 3982   3.636   7.676   0.099
   10CHTO   O53 3983   3.630   7.476   0.011
   10CHTO   C82 3984   3.489   7.455   0.022
   10CHTO  H154 3985   3.434   7.547   0.003
   10CHTO   C89 3986   3.445   7.353   2.788
   10CHTO   O59 3987   3.469   7.401   2.655
   10CHTO  H137 3988   3.561   7.405   2.639
   10CHTO   O45 3989   3.842   7.593   0.087
   10CHTO   C67 3990   3.879   7.646   2.833
   10CHTO  H124 3991   3.820   7.601   2.753
   10CHTO   C65 3992   3.862   7.801   2.828
   10CHTO  H122 3993   3.761   7.822   2.864
   10CHTO   O44 3994   3.873   7.849   2.693
   10CHTO  H102 3995   3.804   7.814   2.640
   10CHTO   C63 3996   3.959   7.867   0.058
   10CHTO  H120 3997   3.936   7.826   0.157
   10CHTO   N11 3998   3.938   8.014   0.081
   10CHTO  H108 3999   3.835   8.033   0.103
   10CHTO  H109 4000   3.999   8.047   0.162
   10CHTO   C61 4001   4.108   7.826   0.026
   10CHTO  H118 4002   4.166   7.856   0.114
   10CHTO   O40 4003   4.124   7.682   0.012
   10CHTO   C68 4004   4.029   7.604   2.806
   10CHTO  H125 4005   4.040   7.498   2.839
   10CHTO   C72 4006   4.071   7.607   2.656
   10CHTO   O48 4007   3.989   7.523   2.573
   10CHTO  H105 4008   4.005   7.433   2.594
   10CHTO   O38 4009   4.160   7.886   2.779
   10CHTO   C55 4010   4.266   7.985   2.772
   10CHTO  H112 4011   4.348   7.936   2.718
   10CHTO   C56 4012   4.315   8.046   0.038
   10CHTO  H113 4013   4.225   8.069   0.098
   10CHTO   O42 4014   4.388   7.945   0.111
   10CHTO  H100 4015   4.332   7.874   0.133
   10CHTO   C57 4016   4.404   8.176   0.022
   10CHTO  H114 4017   4.501   8.144   2.858
   10CHTO   N10 4018   4.429   8.246   0.151
   10CHTO  H106 4019   4.444   8.352   0.135
   10CHTO  H107 4020   4.346   8.233   0.218
   10CHTO   C58 4021   4.339   8.270   2.792
   10CHTO  H115 4022   4.241   8.307   2.833
   10CHTO   O37 4023   4.317   8.201   2.669
   10CHTO   C59 4024   4.217   8.099   2.677
   10CHTO  H116 4025   4.123   8.141   2.713
   10CHTO   C70 4026   4.194   8.043   2.536
   10CHTO   O46 4027   4.144   8.142   2.445
   10CHTO  H103 4028   4.132   8.104   2.360
   10CHTO   O39 4029   4.436   8.395   2.755
   10CHTO   C60 4030   4.370   8.523   2.748
   10CHTO  H117 4031   4.264   8.512   2.771
   10CHTO   C62 4032   4.431   8.621   2.853
   10CHTO  H119 4033   4.413   8.575   0.079
   10CHTO   O43 4034   4.574   8.631   2.834
   10CHTO  H101 4035   4.593   8.668   2.750
   10CHTO   C66 4036   4.356   8.763   2.846
   10CHTO  H123 4037   4.250   8.747   2.862
   10CHTO   N12 4038   4.399   8.856   0.080
   10CHTO  H110 4039   4.345   8.949   0.073
   10CHTO  H111 4040   4.506   8.872   0.074
   10CHTO   C69 4041   4.375   8.822   2.703
   10CHTO  H126 4042   4.483   8.837   2.683
   10CHTO   O41 4043   4.315   8.722   2.598
   10CHTO   C64 4044   4.380   8.581   2.604
   10CHTO  H121 4045   4.487   8.588   2.575
   10CHTO   C71 4046   4.308   8.488   2.504
   10CHTO   O47 4047   4.318   8.536   2.370
   10CHTO  H104 4048   4.273   8.478   2.312
   10CHTO   O34 4049   4.302   8.963   2.687
   10CHTO   C49 4050   4.175   9.040   2.650
   10CHTO   H91 4051   4.194   9.143   2.681
   10CHTO   C47 4052   4.053   8.986   2.729
   10CHTO   H89 4053   4.070   9.021   2.834
   10CHTO   O33 4054   4.051   8.843   2.728
   10CHTO   H70 4055   3.987   8.811   2.789
   10CHTO   C45 4056   3.913   9.038   2.667
   10CHTO   H87 4057   3.871   8.956   2.607
   10CHTO    N8 4058   3.816   9.068   2.776
   10CHTO   H75 4059   3.806   8.982   2.841
   10CHTO   H76 4060   3.850   9.153   2.833
   10CHTO   C43 4061   3.932   9.157   2.561
   10CHTO   H85 4062   3.832   9.176   2.519
   10CHTO   O29 4063   4.025   9.116   2.458
   10CHTO   C50 4064   4.142   9.041   2.498
   10CHTO   H92 4065   4.129   8.937   2.466
   10CHTO   C54 4066   4.264   9.089   2.414
   10CHTO   O36 4067   4.293   9.227   2.436
   10CHTO   H72 4068   4.369   9.251   2.386
   10CHTO   O27 4069   3.974   9.281   2.621
   10CHTO   C37 4070   4.013   9.408   2.565
   10CHTO   H79 4071   4.100   9.394   2.498
   10CHTO   C38 4072   3.900   9.474   2.481
   10CHTO   H80 4073   3.812   9.487   2.545
   10CHTO   O31 4074   3.867   9.384   2.373
   10CHTO   H68 4075   3.792   9.416   2.327
   10CHTO   C39 4076   3.947   9.613   2.424
   10CHTO   H81 4077   4.025   9.591   2.350
   10CHTO    N7 4078   3.839   9.689   2.351
   10CHTO   H73 4079   3.879   9.781   2.312
   10CHTO   H74 4080   3.757   9.709   2.418
   10CHTO   C40 4081   4.014   9.703   2.535
   10CHTO   H82 4082   3.939   9.757   2.594
   10CHTO   O26 4083   4.105   9.630   2.618
   10CHTO   C41 4084   4.053   9.507   2.678
   10CHTO   H83 4085   3.964   9.531   2.739
   10CHTO   C52 4086   4.161   9.449   2.772
   10CHTO   O35 4087   4.195   9.542   0.008
   10CHTO   H71 4088   4.263   9.505   0.060
   10CHTO   O28 4089   4.104   9.797   2.473
   10CHTO   C42 4090   4.119   9.935   2.517
   10CHTO   H84 4091   4.076   9.939   2.617
   10CHTO   C44 4092   4.038   0.039   2.432
   10CHTO   H86 4093   4.062   0.023   2.326
   10CHTO   O32 4094   3.899   0.011   2.450
   10CHTO   H69 4095   3.876   9.929   2.409
   10CHTO   C48 4096   4.073   0.190   2.466
   10CHTO   H90 4097   4.036   0.212   2.566
   10CHTO    N9 4098   4.004   0.286   2.374
   10CHTO   H77 4099   4.027   0.387   2.402
   10CHTO   H78 4100   4.034   0.268   2.272
   10CHTO   C51 4101   4.230   0.206   2.465
   10CHTO   H93 4102   4.265   0.179   2.365
   10CHTO   O30 4103   4.283   0.120   2.566
   10CHTO   C46 4104   4.269   9.975   2.529
   10CHTO   H88 4105   4.318   9.959   2.433
   10CHTO   C53 4106   4.343   9.891   2.638
   10CHTO   O72 4107   4.288   9.911   2.769
   10CHTO  H199 4108   4.334   9.858   2.830
   10CHTO   O22 4109   4.276   0.339   2.500
   10CHTO   C31 4110   4.399   0.392   2.437
   10CHTO   H59 4111   4.422   0.486   2.491
   10CHTO   C29 4112   4.523   0.301   2.451
   10CHTO   H57 4113   4.493   0.200   2.416
   10CHTO   O21 4114   4.552   0.288   2.591
   10CHTO   H37 4115   4.617   0.222   2.605
   10CHTO   C27 4116   4.647   0.349   2.366
   10CHTO   H55 4117   4.683   0.444   2.408
   10CHTO    N5 4118   4.759   0.251   2.368
   10CHTO   H43 4119   4.843   0.291   2.313
   10CHTO   H44 4120   4.727   0.158   2.324
   10CHTO   C25 4121   4.598   0.379   2.220
   10CHTO   H53 4122   4.557   0.286   2.177
   10CHTO   O17 4123   4.494   0.480   2.224
   10CHTO   C32 4124   4.374   0.434   2.288
   10CHTO   H60 4125   4.335   0.348   2.234
   10CHTO   C36 4126   4.269   0.549   2.280
   10CHTO   O25 4127   4.235   0.579   2.145
   10CHTO   H40 4128   4.308   0.618   2.101
   10CHTO   O15 4129   4.707   0.430   2.128
   10CHTO   C19 4130   4.749   0.469   1.995
   10CHTO   H47 4131   4.696   0.398   1.929
   10CHTO   C20 4132   4.709   0.615   1.954
   10CHTO   H48 4133   4.739   0.688   2.031
   10CHTO   O19 4134   4.565   0.618   1.946
   10CHTO   H35 4135   4.535   0.563   1.876
   10CHTO   C21 4136   4.776   0.660   1.817
   10CHTO   H49 4137   4.736   0.599   1.737
   10CHTO    N4 4138   4.749   0.802   1.782
   10CHTO   H41 4139   4.688   0.850   1.857
   10CHTO   H42 4140   4.699   0.808   1.686
   10CHTO   C22 4141   4.928   0.629   1.826
   10CHTO   H50 4142   4.970   0.685   1.909
   10CHTO   O14 4143   4.945   0.488   1.846
   10CHTO   C23 4144   4.901   0.443   1.975
   10CHTO   H51 4145   4.961   0.496   2.049
   10CHTO   C34 4146   4.935   0.293   1.988
   10CHTO   O23 4147   4.873   0.212   1.887
   10CHTO   H38 4148   4.911   0.232   1.803
   10CHTO   O16 4149   5.002   0.657   1.705
   10CHTO   C24 4150   5.161   0.678   1.731
   10CHTO   H52 4151   5.191   0.643   1.830
   10CHTO   C26 4152   5.192   0.829   1.719
   10CHTO   H54 4153   5.141   0.868   1.628
   10CHTO   O20 4154   5.134   0.895   1.833
   10CHTO   H36 4155   5.175   0.867   1.912
   10CHTO   C30 4156   5.345   0.858   1.707
   10CHTO   H58 4157   5.395   0.836   1.803
   10CHTO    N6 4158   5.370   1.002   1.679
   10CHTO   H45 4159   5.331   1.062   1.759
   10CHTO   H46 4160   5.477   1.020   1.670
   10CHTO   C33 4161   5.410   0.764   1.601
   10CHTO   H61 4162   5.368   0.784   1.501
   10CHTO   O18 4163   5.379   0.629   1.637
   10CHTO   C28 4164   5.240   0.595   1.627
   10CHTO   H56 4165   5.202   0.617   1.527
   10CHTO   C35 4166   5.223   0.444   1.654
   10CHTO   O24 4167   5.300   0.365   1.563
   10CHTO   H39 4168   5.391   0.376   1.580
   10CHTO    O9 4169   5.553   0.783   1.586
   10CHTO   C13 4170   5.622   0.706   1.453
   10CHTO   H26 4171   5.560   0.730   1.364
   10CHTO   C11 4172   5.630   0.550   1.478
   10CHTO   H24 4173   5.528   0.509   1.474
   10CHTO    O8 4174   5.682   0.524   1.610
   10CHTO    H3 4175   5.623   0.557   1.675
   10CHTO    C9 4176   5.713   0.484   1.365
   10CHTO   H22 4177   5.664   0.513   1.271
   10CHTO    N2 4178   5.710   0.335   1.365
   10CHTO   H10 4179   5.656   0.298   1.279
   10CHTO   H11 4180   5.667   0.297   1.456
   10CHTO    C7 4181   5.858   0.544   1.367
   10CHTO   H20 4182   5.911   0.495   1.282
   10CHTO    O4 4183   5.853   0.686   1.342
   10CHTO   C14 4184   5.766   0.769   1.423
   10CHTO   H27 4185   5.749   0.861   1.363
   10CHTO   C18 4186   5.840   0.813   1.552
   10CHTO   O13 4187   5.951   0.898   1.521
   10CHTO    H7 4188   6.018   0.848   1.478
   10CHTO    O2 4189   5.941   0.516   1.510
   10CHTO    C1 4190   6.081   0.482   1.502
   10CHTO   H14 4191   6.122   0.495   1.604
   10CHTO    C2 4192   6.168   0.570   1.402
   10CHTO   H15 4193   6.113   0.576   1.307
   10CHTO    O6 4194   6.178   0.702   1.460
   10CHTO    H1 4195   6.094   0.744   1.458
   10CHTO    C3 4196   6.314   0.508   1.378
   10CHTO   H16 4197   6.373   0.519   1.471
   10CHTO    N1 4198   6.388   0.581   1.270
   10CHTO    H8 4199   6.486   0.538   1.257
   10CHTO    H9 4200   6.399   0.685   1.296
   10CHTO    C4 4201   6.304   0.353   1.352
   10CHTO   H17 4202   6.251   0.336   1.258
   10CHTO    O1 4203   6.233   0.292   1.461
   10CHTO    C5 4204   6.095   0.330   1.472
   10CHTO   H18 4205   6.044   0.309   1.378
   10CHTO   C16 4206   6.031   0.244   1.584
   10CHTO   O11 4207   6.098   0.257   1.710
   10CHTO    H5 4208   6.087   0.344   1.743
   10CHTO    O3 4209   6.434   0.291   1.347
   10CHTO    C6 4210   6.441   0.144   1.346
   10CHTO   H19 4211   6.349   0.097   1.381
   10CHTO    C8 4212   6.469   0.092   1.201
   10CHTO   H21 4213   6.556   0.144   1.162
   10CHTO    O7 4214   6.353   0.123   1.122
   10CHTO    H2 4215   6.368   0.102   1.032
   10CHTO   C12 4216   6.498   9.936   1.203
   10CHTO   H25 4217   6.402   9.886   1.232
   10CHTO    N3 4218   6.534   9.884   1.067
   10CHTO   H12 4219   6.453   9.903   0.998
   10CHTO   H13 4220   6.625   9.932   1.032
   10CHTO   C15 4221   6.606   9.903   1.313
   10CHTO   H28 4222   6.704   9.942   1.286
   10CHTO   O10 4223   6.617   9.753   1.344
   10CHTO    H4 4224   6.652   9.708   1.270
   10CHTO    O5 4225   6.566   9.956   1.440
   10CHTO   C10 4226   6.555   0.099   1.442
   10CHTO   H23 4227   6.651   0.142   1.411
   10CHTO   C17 4228   6.531   0.140   1.588
   10CHTO   O12 4229   6.543   0.282   1.607
   10CHTO    H6 4230   6.527   0.303   1.697
   11CHTO  H203 4231   6.000   4.909   0.711
   11CHTO   O82 4232   5.972   4.905   0.801
   11CHTO  C123 4233   6.074   4.955   0.888
   11CHTO  H227 4234   6.171   4.909   0.860
   11CHTO   O77 4235   6.078   5.098   0.857
   11CHTO  C118 4236   6.174   5.174   0.932
   11CHTO  H222 4237   6.275   5.132   0.916
   11CHTO  C125 4238   6.171   5.322   0.878
   11CHTO   O84 4239   6.209   5.328   0.740
   11CHTO  H205 4240   6.300   5.307   0.731
   11CHTO  C114 4241   6.138   5.167   1.081
   11CHTO  H218 4242   6.035   5.202   1.093
   11CHTO  C116 4243   6.141   5.019   1.129
   11CHTO  H220 4244   6.245   4.979   1.120
   11CHTO   O79 4245   6.107   5.016   1.269
   11CHTO  H201 4246   6.114   4.929   1.302
   11CHTO  C120 4247   6.041   4.933   1.041
   11CHTO  H224 4248   5.939   4.970   1.063
   11CHTO   N21 4249   6.043   4.788   1.076
   11CHTO  H211 4250   5.946   4.744   1.055
   11CHTO  H212 4251   6.067   4.775   1.181
   11CHTO   O75 4252   6.231   5.253   1.150
   11CHTO  C112 4253   6.167   5.358   1.273
   11CHTO  H216 4254   6.189   5.314   1.371
   11CHTO   O73 4255   6.026   5.372   1.250
   11CHTO  C113 4256   5.959   5.465   1.337
   11CHTO  H217 4257   5.979   5.438   1.443
   11CHTO  C124 4258   5.808   5.451   1.314
   11CHTO   O83 4259   5.757   5.323   1.352
   11CHTO  H204 4260   5.791   5.257   1.294
   11CHTO  C109 4261   6.011   5.608   1.307
   11CHTO  H213 4262   5.994   5.626   1.199
   11CHTO  C110 4263   6.164   5.610   1.338
   11CHTO  H214 4264   6.178   5.596   1.446
   11CHTO   O78 4265   6.214   5.741   1.305
   11CHTO  H200 4266   6.305   5.748   1.331
   11CHTO  C111 4267   6.239   5.499   1.259
   11CHTO  H215 4268   6.238   5.525   1.153
   11CHTO   N19 4269   6.382   5.485   1.297
   11CHTO  H207 4270   6.433   5.579   1.280
   11CHTO  H208 4271   6.429   5.408   1.238
   11CHTO   O74 4272   5.939   5.710   1.384
   11CHTO  C115 4273   5.881   5.830   1.288
   11CHTO  H219 4274   5.942   5.842   1.198
   11CHTO   O76 4275   5.737   5.795   1.234
   11CHTO  C122 4276   5.640   5.786   1.340
   11CHTO  H226 4277   5.663   5.698   1.399
   11CHTO  C126 4278   5.499   5.759   1.276
   11CHTO   O85 4279   5.493   5.635   1.205
   11CHTO  H206 4280   5.547   5.639   1.128
   11CHTO  C121 4281   5.636   5.915   1.432
   11CHTO  H225 4282   5.533   5.957   1.432
   11CHTO   O81 4283   5.666   5.878   1.568
   11CHTO  H202 4284   5.652   5.951   1.625
   11CHTO  C119 4285   5.735   6.024   1.381
   11CHTO  H223 4286   5.703   6.043   1.278
   11CHTO  C117 4287   5.881   5.966   1.372
   11CHTO  H221 4288   5.926   5.940   1.468
   11CHTO   N20 4289   5.975   6.066   1.311
   11CHTO  H209 4290   6.049   6.097   1.383
   11CHTO  H210 4291   5.923   6.151   1.271
   11CHTO   O80 4292   5.712   6.173   1.447
   11CHTO  C103 4293   5.743   6.200   1.602
   11CHTO  H190 4294   5.756   6.107   1.658
   11CHTO  C101 4295   5.866   6.295   1.629
   11CHTO  H188 4296   5.868   6.371   1.551
   11CHTO   O68 4297   5.994   6.212   1.617
   11CHTO  H168 4298   6.069   6.268   1.620
   11CHTO   C99 4299   5.859   6.370   1.771
   11CHTO  H186 4300   5.872   6.295   1.852
   11CHTO   N17 4301   5.966   6.474   1.791
   11CHTO  H174 4302   5.954   6.553   1.718
   11CHTO  H175 4303   6.063   6.428   1.783
   11CHTO   C97 4304   5.717   6.430   1.792
   11CHTO  H184 4305   5.700   6.506   1.714
   11CHTO   O64 4306   5.621   6.323   1.784
   11CHTO  C104 4307   5.608   6.266   1.653
   11CHTO  H191 4308   5.577   6.341   1.581
   11CHTO  C108 4309   5.496   6.161   1.657
   11CHTO   O71 4310   5.370   6.218   1.694
   11CHTO  H171 4311   5.338   6.274   1.626
   11CHTO   O62 4312   5.695   6.486   1.924
   11CHTO   C91 4313   5.592   6.586   1.933
   11CHTO  H178 4314   5.525   6.573   1.847
   11CHTO   C92 4315   5.654   6.730   1.918
   11CHTO  H179 4316   5.728   6.730   1.836
   11CHTO   O66 4317   5.551   6.819   1.874
   11CHTO  H166 4318   5.480   6.823   1.936
   11CHTO   C93 4319   5.714   6.787   2.052
   11CHTO  H180 4320   5.729   6.895   2.035
   11CHTO   N16 4321   5.850   6.735   2.083
   11CHTO  H172 4322   5.886   6.779   2.175
   11CHTO  H173 4323   5.917   6.758   2.001
   11CHTO   C94 4324   5.614   6.768   2.173
   11CHTO  H181 4325   5.655   6.704   2.251
   11CHTO   O61 4326   5.490   6.707   2.131
   11CHTO   C95 4327   5.503   6.579   2.065
   11CHTO  H182 4328   5.549   6.508   2.135
   11CHTO  C106 4329   5.360   6.524   2.032
   11CHTO   O69 4330   5.281   6.508   2.150
   11CHTO  H169 4331   5.197   6.473   2.127
   11CHTO   O63 4332   5.577   6.912   2.233
   11CHTO   C96 4333   5.685   6.968   2.340
   11CHTO  H183 4334   5.784   6.930   2.311
   11CHTO   C98 4335   5.659   6.926   2.487
   11CHTO  H185 4336   5.556   6.953   2.515
   11CHTO   O67 4337   5.664   6.782   2.494
   11CHTO  H167 4338   5.750   6.751   2.473
   11CHTO  C102 4339   5.764   6.992   2.589
   11CHTO  H189 4340   5.861   6.944   2.567
   11CHTO   N18 4341   5.738   6.963   2.733
   11CHTO  H176 4342   5.651   6.900   2.744
   11CHTO  H177 4343   5.723   7.054   2.789
   11CHTO  C105 4344   5.780   7.144   2.560
   11CHTO  H192 4345   5.692   7.197   2.598
   11CHTO   O65 4346   5.794   7.174   2.420
   11CHTO  C100 4347   5.690   7.124   2.334
   11CHTO  H187 4348   5.593   7.164   2.370
   11CHTO  C107 4349   5.713   7.176   2.190
   11CHTO   O70 4350   5.701   7.318   2.183
   11CHTO  H170 4351   5.612   7.344   2.196
   11CHTO   O57 4352   5.915   7.191   2.637
   11CHTO   C85 4353   5.917   7.301   2.729
   11CHTO  H157 4354   5.817   7.304   2.778
   11CHTO   C83 4355   5.929   7.436   2.650
   11CHTO  H155 4356   5.838   7.450   2.592
   11CHTO   O56 4357   6.038   7.428   2.556
   11CHTO  H135 4358   6.019   7.363   2.490
   11CHTO   C81 4359   5.942   7.553   2.751
   11CHTO  H153 4360   5.856   7.550   2.818
   11CHTO   N14 4361   5.932   7.687   2.688
   11CHTO  H141 4362   6.014   7.703   2.622
   11CHTO  H142 4363   5.841   7.695   2.633
   11CHTO   C79 4364   6.072   7.536   2.839
   11CHTO  H151 4365   6.073   7.617   0.038
   11CHTO   O52 4366   6.060   7.411   0.041
   11CHTO   C86 4367   6.034   7.291   2.834
   11CHTO  H158 4368   6.130   7.272   2.783
   11CHTO   C90 4369   6.012   7.171   0.055
   11CHTO   O60 4370   6.130   7.141   0.130
   11CHTO  H138 4371   6.114   7.067   0.185
   11CHTO   O50 4372   6.197   7.540   2.767
   11CHTO   C73 4373   6.328   7.542   2.827
   11CHTO  H145 4374   6.326   7.490   0.050
   11CHTO   C74 4375   6.378   7.688   2.853
   11CHTO  H146 4376   6.301   7.738   0.040
   11CHTO   O54 4377   6.496   7.682   0.062
   11CHTO  H133 4378   6.566   7.639   0.016
   11CHTO   C75 4379   6.401   7.763   2.715
   11CHTO  H147 4380   6.304   7.773   2.665
   11CHTO   N13 4381   6.453   7.901   2.727
   11CHTO  H139 4382   6.385   7.972   2.683
   11CHTO  H140 4383   6.468   7.928   2.831
   11CHTO   C76 4384   6.495   7.674   2.619
   11CHTO  H148 4385   6.596   7.672   2.661
   11CHTO   O49 4386   6.444   7.538   2.608
   11CHTO   C77 4387   6.433   7.471   2.735
   11CHTO  H149 4388   6.530   7.472   2.785
   11CHTO   C88 4389   6.399   7.324   2.712
   11CHTO   O58 4390   6.506   7.257   2.637
   11CHTO  H136 4391   6.483   7.167   2.624
   11CHTO   O51 4392   6.492   7.729   2.465
   11CHTO   C78 4393   6.633   7.714   2.388
   11CHTO  H150 4394   6.712   7.674   2.455
   11CHTO   C80 4395   6.676   7.853   2.336
   11CHTO  H152 4396   6.592   7.896   2.278
   11CHTO   O55 4397   6.698   7.936   2.451
   11CHTO  H134 4398   6.616   7.956   2.493
   11CHTO   C84 4399   6.804   7.844   2.243
   11CHTO  H156 4400   6.886   7.805   2.303
   11CHTO   N15 4401   6.847   7.977   2.189
   11CHTO  H143 4402   6.769   8.020   2.129
   11CHTO  H144 4403   6.935   7.966   2.130
   11CHTO   C87 4404   6.774   7.742   2.130
   11CHTO  H159 4405   6.689   7.779   2.071
   11CHTO   O53 4406   6.739   7.608   2.195
   11CHTO   C82 4407   6.617   7.614   2.271
   11CHTO  H154 4408   6.536   7.644   2.205
   11CHTO   C89 4409   6.584   7.473   2.323
   11CHTO   O59 4410   6.566   7.378   2.217
   11CHTO  H137 4411   6.648   7.362   2.174
   11CHTO   O45 4412   6.903   7.716   2.032
   11CHTO   C67 4413   6.864   7.692   1.895
   11CHTO  H124 4414   6.760   7.658   1.892
   11CHTO   C65 4415   6.877   7.823   1.809
   11CHTO  H122 4416   6.958   7.880   1.853
   11CHTO   O44 4417   6.753   7.895   1.829
   11CHTO  H102 4418   6.759   7.980   1.789
   11CHTO   C63 4419   6.923   7.795   1.660
   11CHTO  H120 4420   7.031   7.779   1.660
   11CHTO   N11 4421   6.909   7.909   1.564
   11CHTO  H108 4422   6.954   7.883   1.470
   11CHTO  H109 4423   6.957   7.996   1.603
   11CHTO   C61 4424   6.859   7.660   1.612
   11CHTO  H118 4425   6.895   7.643   1.509
   11CHTO   O40 4426   6.904   7.548   1.692
   11CHTO   C68 4427   6.947   7.574   1.830
   11CHTO  H125 4428   7.055   7.601   1.829
   11CHTO   C72 4429   6.933   7.444   1.912
   11CHTO   O48 4430   7.015   7.337   1.862
   11CHTO  H105 4431   7.105   7.357   1.876
   11CHTO   O38 4432   6.714   7.664   1.616
   11CHTO   C55 4433   6.644   7.590   1.515
   11CHTO  H112 4434   6.715   7.531   1.455
   11CHTO   C56 4435   6.559   7.689   1.425
   11CHTO  H113 4436   6.502   7.754   1.494
   11CHTO   O42 4437   6.648   7.776   1.353
   11CHTO  H100 4438   6.701   7.726   1.294
   11CHTO   C57 4439   6.460   7.612   1.328
   11CHTO  H114 4440   6.522   7.561   1.254
   11CHTO   N10 4441   6.365   7.700   1.256
   11CHTO  H106 4442   6.341   7.787   1.315
   11CHTO  H107 4443   6.409   7.732   1.162
   11CHTO   C58 4444   6.383   7.505   1.410
   11CHTO  H115 4445   6.319   7.557   1.485
   11CHTO   O37 4446   6.475   7.418   1.478
   11CHTO   C59 4447   6.550   7.484   1.581
   11CHTO  H116 4448   6.483   7.532   1.652
   11CHTO   C70 4449   6.632   7.378   1.655
   11CHTO   O46 4450   6.550   7.284   1.725
   11CHTO  H103 4451   6.604   7.221   1.769
   11CHTO   O39 4452   6.291   7.410   1.312
   11CHTO   C60 4453   6.214   7.313   1.386
   11CHTO  H117 4454   6.279   7.265   1.458
   11CHTO   C62 4455   6.096   7.378   1.464
   11CHTO  H119 4456   6.141   7.455   1.531
   11CHTO   O43 4457   6.007   7.445   1.372
   11CHTO  H101 4458   5.939   7.488   1.420
   11CHTO   C66 4459   6.026   7.266   1.554
   11CHTO  H123 4460   6.102   7.219   1.617
   11CHTO   N12 4461   5.927   7.324   1.648
   11CHTO  H110 4462   5.883   7.246   1.708
   11CHTO  H111 4463   5.850   7.377   1.592
   11CHTO   C69 4464   5.969   7.155   1.461
   11CHTO  H126 4465   5.889   7.197   1.396
   11CHTO   O41 4466   6.085   7.097   1.371
   11CHTO   C64 4467   6.163   7.202   1.290
   11CHTO  H121 4468   6.096   7.248   1.214
   11CHTO   C71 4469   6.281   7.134   1.218
   11CHTO   O47 4470   6.238   7.031   1.129
   11CHTO  H104 4471   6.203   6.959   1.178
   11CHTO   O34 4472   5.910   7.039   1.541
   11CHTO   C49 4473   5.779   6.995   1.599
   11CHTO   H91 4474   5.787   7.007   1.707
   11CHTO   C47 4475   5.760   6.846   1.564
   11CHTO   H89 4476   5.668   6.812   1.618
   11CHTO   O33 4477   5.872   6.771   1.614
   11CHTO   H70 4478   5.951   6.795   1.568
   11CHTO   C45 4479   5.737   6.832   1.405
   11CHTO   H87 4480   5.821   6.882   1.354
   11CHTO    N8 4481   5.733   6.691   1.358
   11CHTO   H75 4482   5.736   6.622   1.441
   11CHTO   H76 4483   5.645   6.672   1.299
   11CHTO   C43 4484   5.607   6.917   1.365
   11CHTO   H85 4485   5.597   6.910   1.257
   11CHTO   O29 4486   5.619   7.053   1.410
   11CHTO   C50 4487   5.660   7.080   1.545
   11CHTO   H92 4488   5.691   7.185   1.547
   11CHTO   C54 4489   5.537   7.081   1.641
   11CHTO   O36 4490   5.571   7.124   1.773
   11CHTO   H72 4491   5.625   7.059   1.815
   11CHTO   O27 4492   5.487   6.858   1.419
   11CHTO   C37 4493   5.351   6.839   1.459
   11CHTO   H79 4494   5.334   6.887   1.556
   11CHTO   C38 4495   5.253   6.906   1.358
   11CHTO   H80 4496   5.282   6.876   1.256
   11CHTO   O31 4497   5.270   7.048   1.371
   11CHTO   H68 4498   5.218   7.093   1.307
   11CHTO   C39 4499   5.103   6.862   1.384
   11CHTO   H81 4500   5.073   6.902   1.481
   11CHTO    N7 4501   5.006   6.916   1.283
   11CHTO   H73 4502   5.007   7.024   1.286
   11CHTO   H74 4503   5.033   6.881   1.184
   11CHTO   C40 4504   5.096   6.705   1.393
   11CHTO   H82 4505   5.123   6.661   1.297
   11CHTO   O26 4506   5.183   6.661   1.498
   11CHTO   C41 4507   5.324   6.687   1.472
   11CHTO   H83 4508   5.355   6.635   1.380
   11CHTO   C52 4509   5.405   6.630   1.590
   11CHTO   O35 4510   5.382   6.495   1.609
   11CHTO   H71 4511   5.433   6.464   1.681
   11CHTO   O28 4512   4.969   6.654   1.436
   11CHTO   C42 4513   4.921   6.523   1.391
   11CHTO   H84 4514   5.006   6.477   1.339
   11CHTO   C44 4515   4.805   6.529   1.287
   11CHTO   H86 4516   4.727   6.595   1.326
   11CHTO   O32 4517   4.860   6.592   1.169
   11CHTO   H69 4518   4.793   6.606   1.106
   11CHTO   C48 4519   4.741   6.388   1.255
   11CHTO   H90 4520   4.814   6.329   1.199
   11CHTO    N9 4521   4.621   6.403   1.165
   11CHTO   H77 4522   4.532   6.364   1.212
   11CHTO   H78 4523   4.638   6.352   1.071
   11CHTO   C51 4524   4.709   6.314   1.389
   11CHTO   H93 4525   4.637   6.376   1.445
   11CHTO   O30 4526   4.832   6.298   1.461
   11CHTO   C46 4527   4.886   6.429   1.511
   11CHTO   H88 4528   4.809   6.476   1.572
   11CHTO   C53 4529   5.009   6.396   1.599
   11CHTO   O72 4530   5.112   6.328   1.527
   11CHTO  H199 4531   5.083   6.242   1.503
   11CHTO   O22 4532   4.656   6.181   1.370
   11CHTO   C31 4533   4.615   6.097   1.484
   11CHTO   H59 4534   4.683   6.124   1.568
   11CHTO   C29 4535   4.471   6.121   1.532
   11CHTO   H57 4536   4.403   6.102   1.447
   11CHTO   O21 4537   4.457   6.260   1.568
   11CHTO   H37 4538   4.367   6.280   1.585
   11CHTO   C27 4539   4.431   6.025   1.652
   11CHTO   H55 4540   4.492   6.051   1.739
   11CHTO    N5 4541   4.288   6.038   1.690
   11CHTO   H43 4542   4.225   6.005   1.609
   11CHTO   H44 4543   4.268   5.980   1.779
   11CHTO   C25 4544   4.468   5.877   1.617
   11CHTO   H53 4545   4.403   5.841   1.535
   11CHTO   O17 4546   4.607   5.868   1.574
   11CHTO   C32 4547   4.639   5.945   1.457
   11CHTO   H60 4548   4.577   5.913   1.373
   11CHTO   C36 4549   4.787   5.913   1.425
   11CHTO   O25 4550   4.831   5.973   1.304
   11CHTO   H40 4551   4.788   5.933   1.231
   11CHTO   O15 4552   4.452   5.783   1.743
   11CHTO   C19 4553   4.380   5.660   1.773
   11CHTO   H47 4554   4.419   5.630   1.871
   11CHTO   C20 4555   4.226   5.678   1.784
   11CHTO   H48 4556   4.183   5.723   1.693
   11CHTO   O19 4557   4.202   5.770   1.893
   11CHTO   H35 4558   4.230   5.857   1.869
   11CHTO   C21 4559   4.151   5.541   1.811
   11CHTO   H49 4560   4.178   5.506   1.910
   11CHTO    N4 4561   4.003   5.555   1.809
   11CHTO   H41 4562   3.970   5.593   1.713
   11CHTO   H42 4563   3.971   5.623   1.886
   11CHTO   C22 4564   4.201   5.435   1.710
   11CHTO   H50 4565   4.169   5.464   1.609
   11CHTO   O14 4566   4.345   5.424   1.714
   11CHTO   C23 4567   4.415   5.544   1.675
   11CHTO   H51 4568   4.386   5.567   1.571
   11CHTO   C34 4569   4.566   5.515   1.677
   11CHTO   O23 4570   4.602   5.413   1.584
   11CHTO   H38 4571   4.694   5.397   1.588
   11CHTO   O16 4572   4.155   5.302   1.742
   11CHTO   C24 4573   4.124   5.212   1.614
   11CHTO   H52 4574   4.158   5.259   1.522
   11CHTO   C26 4575   3.974   5.182   1.606
   11CHTO   H54 4576   3.943   5.126   1.698
   11CHTO   O20 4577   3.902   5.307   1.603
   11CHTO   H36 4578   3.810   5.292   1.608
   11CHTO   C30 4579   3.942   5.095   1.481
   11CHTO   H58 4580   3.956   5.157   1.392
   11CHTO    N6 4581   3.800   5.051   1.477
   11CHTO   H45 4582   3.735   5.138   1.476
   11CHTO   H46 4583   3.781   4.993   1.389
   11CHTO   C33 4584   4.040   4.973   1.466
   11CHTO   H61 4585   4.007   4.891   1.533
   11CHTO   O18 4586   4.176   5.006   1.501
   11CHTO   C28 4587   4.198   5.076   1.624
   11CHTO   H56 4588   4.157   5.020   1.708
   11CHTO   C35 4589   4.350   5.094   1.647
   11CHTO   O24 4590   4.416   4.968   1.665
   11CHTO   H39 4591   4.508   4.982   1.678
   11CHTO    O9 4592   4.032   4.918   1.333
   11CHTO   C13 4593   4.096   5.019   1.219
   11CHTO   H26 4594   4.143   5.106   1.271
   11CHTO   C11 4595   3.983   5.066   1.119
   11CHTO   H24 4596   3.901   5.110   1.177
   11CHTO    O8 4597   3.929   4.950   1.051
   11CHTO    H3 4598   3.994   4.911   0.996
   11CHTO    C9 4599   4.042   5.177   1.027
   11CHTO   H22 4600   4.048   5.266   1.092
   11CHTO    N2 4601   3.950   5.221   0.919
   11CHTO   H10 4602   3.866   5.153   0.909
   11CHTO   H11 4603   3.914   5.321   0.937
   11CHTO    C7 4604   4.190   5.141   0.984
   11CHTO   H20 4605   4.252   5.196   1.058
   11CHTO    O4 4606   4.217   4.999   0.998
   11CHTO   C14 4607   4.216   4.953   1.135
   11CHTO   H27 4608   4.312   4.981   1.181
   11CHTO   C18 4609   4.211   4.798   1.130
   11CHTO   O13 4610   4.239   4.739   1.258
   11CHTO    H7 4611   4.328   4.754   1.282
   11CHTO    O2 4612   4.235   5.189   0.833
   11CHTO    C1 4613   4.329   5.298   0.832
   11CHTO   H14 4614   4.409   5.276   0.907
   11CHTO    C2 4615   4.267   5.441   0.864
   11CHTO   H15 4616   4.181   5.452   0.797
   11CHTO    O6 4617   4.223   5.445   1.001
   11CHTO    H1 4618   4.152   5.385   1.014
   11CHTO    C3 4619   4.374   5.559   0.838
   11CHTO   H16 4620   4.451   5.553   0.915
   11CHTO    N1 4621   4.313   5.696   0.851
   11CHTO    H8 4622   4.317   5.750   0.757
   11CHTO    H9 4623   4.210   5.690   0.884
   11CHTO    C4 4624   4.448   5.538   0.701
   11CHTO   H17 4625   4.379   5.558   0.619
   11CHTO    O1 4626   4.500   5.404   0.690
   11CHTO    C5 4627   4.399   5.302   0.693
   11CHTO   H18 4628   4.323   5.325   0.619
   11CHTO   C16 4629   4.465   5.166   0.656
   11CHTO   O11 4630   4.570   5.128   0.745
   11CHTO    H5 4631   4.643   5.186   0.736
   11CHTO    O3 4632   4.562   5.626   0.694
   11CHTO    C6 4633   4.629   5.638   0.565
   11CHTO   H19 4634   4.613   5.551   0.500
   11CHTO    C8 4635   4.581   5.767   0.489
   11CHTO   H21 4636   4.589   5.851   0.558
   11CHTO    O7 4637   4.442   5.748   0.454
   11CHTO    H2 4638   4.433   5.677   0.393
   11CHTO   C12 4639   4.671   5.795   0.362
   11CHTO   H25 4640   4.646   5.716   0.289
   11CHTO    N3 4641   4.634   5.926   0.298
   11CHTO   H12 4642   4.605   5.911   0.195
   11CHTO   H13 4643   4.716   5.997   0.304
   11CHTO   C15 4644   4.824   5.783   0.398
   11CHTO   H28 4645   4.857   5.867   0.458
   11CHTO   O10 4646   4.914   5.771   0.271
   11CHTO    H4 4647   4.883   5.702   0.216
   11CHTO    O5 4648   4.852   5.659   0.466
   11CHTO   C10 4649   4.781   5.647   0.590
   11CHTO   H23 4650   4.802   5.735   0.652
   11CHTO   C17 4651   4.834   5.525   0.667
   11CHTO   O12 4652   4.972   5.540   0.702
   11CHTO    H6 4653   4.982   5.607   0.767
   12CHTO  H203 4654   4.962   1.899   0.111
   12CHTO   O82 4655   4.884   1.867   0.153
   12CHTO  C123 4656   4.916   1.758   0.240
   12CHTO  H227 4657   4.987   1.793   0.317
   12CHTO   O77 4658   4.788   1.726   0.300
   12CHTO  C118 4659   4.793   1.622   0.399
   12CHTO  H222 4660   4.866   1.650   0.476
   12CHTO  C125 4661   4.651   1.611   0.467
   12CHTO   O84 4662   4.548   1.584   0.370
   12CHTO  H205 4663   4.466   1.576   0.414
   12CHTO  C114 4664   4.838   1.489   0.335
   12CHTO  H218 4665   4.765   1.460   0.259
   12CHTO  C116 4666   4.976   1.507   0.262
   12CHTO  H220 4667   5.055   1.523   0.338
   12CHTO   O79 4668   5.009   1.385   0.194
   12CHTO  H201 4669   5.095   1.391   0.156
   12CHTO  C120 4670   4.972   1.631   0.163
   12CHTO  H224 4671   4.902   1.603   0.081
   12CHTO   N21 4672   5.105   1.657   0.101
   12CHTO  H211 4673   5.092   1.702   0.004
   12CHTO  H212 4674   5.165   1.720   0.165
   12CHTO   O75 4675   4.837   1.395   0.443
   12CHTO  C112 4676   4.854   1.231   0.406
   12CHTO  H216 4677   4.961   1.206   0.408
   12CHTO   O73 4678   4.796   1.207   0.277
   12CHTO  C113 4679   4.817   1.073   0.230
   12CHTO  H217 4680   4.927   1.050   0.233
   12CHTO  C124 4681   4.773   1.066   0.083
   12CHTO   O83 4682   4.853   1.148   2.871
   12CHTO  H204 4683   4.940   1.112   2.865
   12CHTO  C109 4684   4.742   0.971   0.320
   12CHTO  H213 4685   4.634   0.990   0.306
   12CHTO  C110 4686   4.782   0.992   0.470
   12CHTO  H214 4687   4.883   0.953   0.484
   12CHTO   O78 4688   4.695   0.912   0.553
   12CHTO  H200 4689   4.606   0.940   0.544
   12CHTO  C111 4690   4.778   1.142   0.512
   12CHTO  H215 4691   4.672   1.175   0.514
   12CHTO   N19 4692   4.832   1.166   0.649
   12CHTO  H207 4693   4.824   1.271   0.674
   12CHTO  H208 4694   4.935   1.135   0.654
   12CHTO   O74 4695   4.772   0.833   0.281
   12CHTO  C115 4696   4.652   0.753   0.200
   12CHTO  H219 4697   4.557   0.808   0.202
   12CHTO   O76 4698   4.687   0.735   0.047
   12CHTO  C122 4699   4.598   0.653   2.844
   12CHTO  H226 4700   4.645   0.639   2.746
   12CHTO  C126 4701   4.462   0.726   2.817
   12CHTO   O85 4702   4.479   0.848   2.743
   12CHTO  H206 4703   4.396   0.889   2.731
   12CHTO  C121 4704   4.578   0.511   0.035
   12CHTO  H225 4705   4.498   0.458   2.853
   12CHTO   O81 4706   4.699   0.434   0.022
   12CHTO  H202 4707   4.717   0.418   2.805
   12CHTO  C119 4708   4.535   0.520   0.185
   12CHTO  H223 4709   4.436   0.565   0.184
   12CHTO  C117 4710   4.629   0.614   0.271
   12CHTO  H221 4711   4.729   0.575   0.289
   12CHTO   N20 4712   4.570   0.634   0.407
   12CHTO  H209 4713   4.558   0.539   0.457
   12CHTO  H210 4714   4.475   0.684   0.400
   12CHTO   O80 4715   4.504   0.376   0.248
   12CHTO  C103 4716   4.357   0.335   0.281
   12CHTO  H190 4717   4.306   0.417   0.331
   12CHTO  C101 4718   4.270   0.287   0.159
   12CHTO  H188 4719   4.327   0.213   0.102
   12CHTO   O68 4720   4.243   0.409   0.066
   12CHTO  H168 4721   4.198   0.381   2.862
   12CHTO   C99 4722   4.134   0.219   0.208
   12CHTO  H186 4723   4.072   0.296   0.259
   12CHTO   N17 4724   4.050   0.163   0.097
   12CHTO  H174 4725   4.027   0.241   0.026
   12CHTO  H175 4726   4.102   0.081   0.049
   12CHTO   C97 4727   4.165   0.112   0.316
   12CHTO  H184 4728   4.220   0.029   0.269
   12CHTO   O64 4729   4.240   0.171   0.424
   12CHTO  C104 4730   4.371   0.218   0.385
   12CHTO  H191 4731   4.431   0.138   0.342
   12CHTO  C108 4732   4.445   0.264   0.511
   12CHTO   O71 4733   4.468   0.155   0.601
   12CHTO  H171 4734   4.515   0.185   0.677
   12CHTO   O62 4735   4.046   0.062   0.381
   12CHTO   C91 4736   4.058   9.937   0.453
   12CHTO  H178 4737   4.164   9.915   0.467
   12CHTO   C92 4738   3.998   9.821   0.367
   12CHTO  H179 4739   3.894   9.846   0.341
   12CHTO   O66 4740   4.071   9.815   0.243
   12CHTO  H166 4741   4.033   9.750   0.186
   12CHTO   C93 4742   4.005   9.682   0.443
   12CHTO  H180 4743   4.111   9.652   0.447
   12CHTO   N16 4744   3.936   9.572   0.372
   12CHTO  H172 4745   3.982   9.556   0.276
   12CHTO  H173 4746   3.831   9.596   0.359
   12CHTO   C94 4747   3.952   9.696   0.591
   12CHTO  H181 4748   3.844   9.712   0.594
   12CHTO   O61 4749   4.010   9.809   0.659
   12CHTO   C95 4750   3.988   9.935   0.594
   12CHTO  H182 4751   3.881   9.950   0.582
   12CHTO  C106 4752   4.039   0.050   0.688
   12CHTO   O69 4753   4.179   0.039   0.716
   12CHTO  H169 4754   4.194   9.964   0.771
   12CHTO   O63 4755   3.987   9.558   0.676
   12CHTO   C96 4756   4.112   9.561   0.777
   12CHTO  H183 4757   4.103   9.649   0.840
   12CHTO   C98 4758   4.253   9.563   0.711
   12CHTO  H185 4759   4.257   9.487   0.631
   12CHTO   O67 4760   4.271   9.689   0.645
   12CHTO  H167 4761   4.211   9.698   0.574
   12CHTO  C102 4762   4.373   9.538   0.816
   12CHTO  H189 4763   4.378   9.629   0.878
   12CHTO   N18 4764   4.508   9.524   0.755
   12CHTO  H176 4765   4.503   9.536   0.648
   12CHTO  H177 4766   4.553   9.429   0.779
   12CHTO  C105 4767   4.338   9.420   0.910
   12CHTO  H192 4768   4.345   9.326   0.854
   12CHTO   O65 4769   4.206   9.430   0.964
   12CHTO  C100 4770   4.099   9.435   0.869
   12CHTO  H187 4771   4.102   9.344   0.807
   12CHTO  C107 4772   3.967   9.435   0.948
   12CHTO   O70 4773   3.952   9.316   1.026
   12CHTO  H170 4774   4.014   9.316   1.096
   12CHTO   O57 4775   4.450   9.420   1.036
   12CHTO   C85 4776   4.409   9.454   1.170
   12CHTO  H157 4777   4.311   9.506   1.162
   12CHTO   C83 4778   4.506   9.561   1.228
   12CHTO  H155 4779   4.499   9.651   1.166
   12CHTO   O56 4780   4.643   9.515   1.217
   12CHTO  H135 4781   4.657   9.440   1.270
   12CHTO   C81 4782   4.461   9.596   1.373
   12CHTO  H153 4783   4.357   9.630   1.369
   12CHTO   N14 4784   4.535   9.711   1.432
   12CHTO  H141 4785   4.526   9.796   1.368
   12CHTO  H142 4786   4.494   9.735   1.528
   12CHTO   C79 4787   4.466   9.466   1.463
   12CHTO  H151 4788   4.429   9.494   1.561
   12CHTO   O52 4789   4.376   9.365   1.409
   12CHTO   C86 4790   4.402   9.330   1.269
   12CHTO  H158 4791   4.499   9.276   1.271
   12CHTO   C90 4792   4.297   9.226   1.223
   12CHTO   O60 4793   4.163   9.274   1.238
   12CHTO  H138 4794   4.141   9.281   1.329
   12CHTO   O50 4795   4.598   9.411   1.478
   12CHTO   C73 4796   4.655   9.328   1.580
   12CHTO  H145 4797   4.581   9.254   1.615
   12CHTO   C74 4798   4.701   9.415   1.701
   12CHTO  H146 4799   4.612   9.469   1.738
   12CHTO   O54 4800   4.743   9.327   1.807
   12CHTO  H133 4801   4.670   9.279   1.841
   12CHTO   C75 4802   4.813   9.514   1.652
   12CHTO  H147 4803   4.770   9.581   1.575
   12CHTO   N13 4804   4.865   9.604   1.757
   12CHTO  H139 4805   4.907   9.546   1.838
   12CHTO  H140 4806   4.785   9.665   1.796
   12CHTO   C76 4807   4.931   9.432   1.581
   12CHTO  H148 4808   4.979   9.371   1.657
   12CHTO   O49 4809   4.877   9.345   1.476
   12CHTO   C77 4810   4.777   9.252   1.521
   12CHTO  H149 4811   4.820   9.187   1.598
   12CHTO   C88 4812   4.742   9.161   1.403
   12CHTO   O58 4813   4.645   9.059   1.440
   12CHTO  H136 4814   4.625   9.006   1.366
   12CHTO   O51 4815   5.037   9.532   1.503
   12CHTO   C78 4816   5.134   9.454   1.397
   12CHTO  H150 4817   5.077   9.378   1.340
   12CHTO   C80 4818   5.251   9.385   1.469
   12CHTO  H152 4819   5.306   9.462   1.527
   12CHTO   O55 4820   5.194   9.290   1.560
   12CHTO  H134 4821   5.261   9.252   1.614
   12CHTO   C84 4822   5.349   9.316   1.367
   12CHTO  H156 4823   5.295   9.234   1.320
   12CHTO   N15 4824   5.468   9.253   1.435
   12CHTO  H143 4825   5.530   9.205   1.362
   12CHTO  H144 4826   5.525   9.328   1.485
   12CHTO   C87 4827   5.391   9.417   1.257
   12CHTO  H159 4828   5.456   9.493   1.302
   12CHTO   O53 4829   5.265   9.485   1.195
   12CHTO   C82 4830   5.187   9.555   1.293
   12CHTO  H154 4831   5.248   9.631   1.342
   12CHTO   C89 4832   5.070   9.628   1.224
   12CHTO   O59 4833   5.117   9.729   1.134
   12CHTO  H137 4834   5.159   9.689   1.059
   12CHTO   O45 4835   5.475   9.336   1.135
   12CHTO   C67 4836   5.524   9.408   1.021
   12CHTO  H124 4837   5.610   9.353   0.983
   12CHTO   C65 4838   5.416   9.415   0.906
   12CHTO  H122 4839   5.319   9.414   0.956
   12CHTO   O44 4840   5.432   9.294   0.830
   12CHTO  H102 4841   5.362   9.286   0.769
   12CHTO   C63 4842   5.419   9.551   0.826
   12CHTO  H120 4843   5.372   9.628   0.887
   12CHTO   N11 4844   5.334   9.557   0.702
   12CHTO  H108 4845   5.234   9.527   0.725
   12CHTO  H109 4846   5.375   9.492   0.628
   12CHTO   C61 4847   5.568   9.597   0.806
   12CHTO  H118 4848   5.564   9.695   0.757
   12CHTO   O40 4849   5.636   9.617   0.934
   12CHTO   C68 4850   5.580   9.553   1.053
   12CHTO  H125 4851   5.498   9.616   1.093
   12CHTO   C72 4852   5.691   9.549   1.161
   12CHTO   O48 4853   5.730   9.680   1.203
   12CHTO  H105 4854   5.776   9.724   1.133
   12CHTO   O38 4855   5.644   9.505   0.723
   12CHTO   C55 4856   5.777   9.549   0.688
   12CHTO  H112 4857   5.812   9.625   0.760
   12CHTO   C56 4858   5.787   9.600   0.539
   12CHTO  H113 4859   5.764   9.515   0.473
   12CHTO   O42 4860   5.685   9.699   0.514
   12CHTO  H100 4861   5.687   9.725   0.424
   12CHTO   C57 4862   5.933   9.655   0.514
   12CHTO  H114 4863   5.946   9.741   0.580
   12CHTO   N10 4864   5.959   9.704   0.376
   12CHTO  H106 4865   5.899   9.649   0.305
   12CHTO  H107 4866   5.934   9.809   0.368
   12CHTO   C58 4867   6.038   9.547   0.552
   12CHTO  H115 4868   6.042   9.469   0.473
   12CHTO   O37 4869   6.011   9.485   0.679
   12CHTO   C59 4870   5.880   9.432   0.700
   12CHTO  H116 4871   5.859   9.355   0.626
   12CHTO   C70 4872   5.877   9.365   0.838
   12CHTO   O46 4873   5.921   9.451   0.944
   12CHTO  H103 4874   5.917   9.404   1.026
   12CHTO   O39 4875   6.185   9.616   0.573
   12CHTO   C60 4876   6.293   9.521   0.576
   12CHTO  H117 4877   6.253   9.420   0.575
   12CHTO   C62 4878   6.384   9.537   0.451
   12CHTO  H119 4879   6.317   9.520   0.363
   12CHTO   O43 4880   6.436   9.671   0.444
   12CHTO  H101 4881   6.367   9.732   0.430
   12CHTO   C66 4882   6.498   9.423   0.453
   12CHTO  H123 4883   6.449   9.326   0.457
   12CHTO   N12 4884   6.579   9.421   0.328
   12CHTO  H110 4885   6.547   9.497   0.259
   12CHTO  H111 4886   6.684   9.431   0.350
   12CHTO   C69 4887   6.583   9.438   0.582
   12CHTO  H126 4888   6.638   9.534   0.581
   12CHTO   O41 4889   6.489   9.432   0.707
   12CHTO   C64 4890   6.378   9.535   0.706
   12CHTO  H121 4891   6.421   9.637   0.711
   12CHTO   C71 4892   6.292   9.513   0.833
   12CHTO   O47 4893   6.368   9.532   0.953
   12CHTO  H104 4894   6.390   9.623   0.963
   12CHTO   O34 4895   6.683   9.324   0.595
   12CHTO   C49 4896   6.783   9.246   0.675
   12CHTO   H91 4897   6.875   9.305   0.676
   12CHTO   C47 4898   6.805   9.112   0.602
   12CHTO   H89 4899   6.886   9.061   0.660
   12CHTO   O33 4900   6.853   9.133   0.468
   12CHTO   H70 4901   6.937   9.176   0.469
   12CHTO   C45 4902   6.669   9.024   0.600
   12CHTO   H87 4903   6.612   9.050   0.510
   12CHTO    N8 4904   6.703   8.879   0.593
   12CHTO   H75 4905   6.809   8.863   0.608
   12CHTO   H76 4906   6.673   8.839   0.498
   12CHTO   C43 4907   6.572   9.068   0.723
   12CHTO   H85 4908   6.519   9.155   0.686
   12CHTO   O29 4909   6.652   9.099   0.839
   12CHTO   C50 4910   6.737   9.214   0.821
   12CHTO   H92 4911   6.683   9.303   0.859
   12CHTO   C54 4912   6.859   9.202   0.915
   12CHTO   O36 4913   6.820   9.197   1.053
   12CHTO   H72 4914   6.776   9.116   1.071
   12CHTO   O27 4915   6.467   8.974   0.752
   12CHTO   C37 4916   6.343   8.975   0.825
   12CHTO   H79 4917   6.288   8.882   0.804
   12CHTO   C38 4918   6.367   8.980   0.979
   12CHTO   H80 4919   6.432   9.066   1.002
   12CHTO   O31 4920   6.436   8.859   1.016
   12CHTO   H68 4921   6.383   8.784   1.000
   12CHTO   C39 4922   6.231   8.995   1.058
   12CHTO   H81 4923   6.175   8.903   1.043
   12CHTO    N7 4924   6.249   9.011   1.207
   12CHTO   H73 4925   6.153   9.019   1.255
   12CHTO   H74 4926   6.303   8.926   1.246
   12CHTO   C40 4927   6.146   9.114   0.998
   12CHTO   H82 4928   6.194   9.208   1.025
   12CHTO   O26 4929   6.132   9.100   0.855
   12CHTO   C41 4930   6.256   9.095   0.780
   12CHTO   H83 4931   6.312   9.189   0.795
   12CHTO   C52 4932   6.220   9.085   0.630
   12CHTO   O35 4933   6.142   9.196   0.584
   12CHTO   H71 4934   6.125   9.186   0.492
   12CHTO   O28 4935   6.011   9.122   1.049
   12CHTO   C42 4936   5.898   9.028   1.041
   12CHTO   H84 4937   5.920   8.952   1.116
   12CHTO   C44 4938   5.876   8.951   0.905
   12CHTO   H86 4939   5.875   9.023   0.824
   12CHTO   O32 4940   5.990   8.864   0.885
   12CHTO   H69 4941   5.994   8.799   0.952
   12CHTO   C48 4942   5.742   8.867   0.899
   12CHTO   H90 4943   5.752   8.782   0.966
   12CHTO    N9 4944   5.718   8.809   0.762
   12CHTO   H77 4945   5.798   8.833   0.694
   12CHTO   H78 4946   5.706   8.701   0.769
   12CHTO   C51 4947   5.620   8.953   0.949
   12CHTO   H93 4948   5.602   9.035   0.879
   12CHTO   O30 4949   5.649   9.000   1.081
   12CHTO   C46 4950   5.765   9.098   1.084
   12CHTO   H88 4951   5.743   9.180   1.015
   12CHTO   C53 4952   5.773   9.153   1.229
   12CHTO   O72 4953   5.864   9.263   1.242
   12CHTO  H199 4954   5.952   9.232   1.230
   12CHTO   O22 4955   5.501   8.872   0.964
   12CHTO   C31 4956   5.361   8.918   0.950
   12CHTO   H59 4957   5.298   8.830   0.979
   12CHTO   C29 4958   5.318   9.035   1.041
   12CHTO   H57 4959   5.375   9.124   1.012
   12CHTO   O21 4960   5.354   9.004   1.177
   12CHTO   H37 4961   5.340   9.078   1.232
   12CHTO   C27 4962   5.163   9.065   1.026
   12CHTO   H55 4963   5.107   8.978   1.064
   12CHTO    N5 4964   5.118   9.185   1.100
   12CHTO   H43 4965   5.051   9.157   1.180
   12CHTO   H44 4966   5.202   9.241   1.139
   12CHTO   C25 4967   5.124   9.078   0.874
   12CHTO   H53 4968   5.165   9.173   0.834
   12CHTO   O17 4969   5.177   8.969   0.794
   12CHTO   C32 4970   5.320   8.952   0.803
   12CHTO   H60 4971   5.369   9.044   0.773
   12CHTO   C36 4972   5.361   8.842   0.701
   12CHTO   O25 4973   5.316   8.711   0.738
   12CHTO   H40 4974   5.361   8.683   0.816
   12CHTO   O15 4975   4.966   9.079   0.859
   12CHTO   C19 4976   4.852   9.139   0.792
   12CHTO   H47 4977   4.867   9.247   0.806
   12CHTO   C20 4978   4.845   9.110   0.639
   12CHTO   H48 4979   4.841   9.001   0.619
   12CHTO   O19 4980   4.967   9.160   0.582
   12CHTO   H35 4981   4.972   9.139   0.491
   12CHTO   C21 4982   4.717   9.177   0.573
   12CHTO   H49 4983   4.728   9.285   0.580
   12CHTO    N4 4984   4.703   9.144   0.428
   12CHTO   H41 4985   4.695   9.037   0.415
   12CHTO   H42 4986   4.789   9.180   0.374
   12CHTO   C22 4987   4.592   9.137   0.655
   12CHTO   H50 4988   4.578   9.029   0.648
   12CHTO   O14 4989   4.610   9.174   0.793
   12CHTO   C23 4990   4.717   9.104   0.859
   12CHTO   H51 4991   4.694   8.997   0.853
   12CHTO   C34 4992   4.716   9.144   1.007
   12CHTO   O23 4993   4.596   9.101   1.072
   12CHTO   H38 4994   4.598   9.127   1.162
   12CHTO   O16 4995   4.472   9.209   0.617
   12CHTO   C24 4996   4.354   9.112   0.561
   12CHTO   H52 4997   4.392   9.014   0.533
   12CHTO   C26 4998   4.288   9.177   0.437
   12CHTO   H54 4999   4.244   9.276   0.468
   12CHTO   O20 5000   4.389   9.202   0.337
   12CHTO   H36 5001   4.448   9.270   0.366
   12CHTO   C30 5002   4.174   9.087   0.381
   12CHTO   H58 5003   4.219   8.997   0.337
   12CHTO    N6 5004   4.099   9.151   0.269
   12CHTO   H45 5005   4.139   9.249   0.246
   12CHTO   H46 5006   3.994   9.161   0.292
   12CHTO   C33 5007   4.078   9.038   0.495
   12CHTO   H61 5008   4.011   9.121   0.524
   12CHTO   O18 5009   4.150   8.998   0.613
   12CHTO   C28 5010   4.244   9.091   0.668
   12CHTO   H56 5011   4.195   9.186   0.688
   12CHTO   C35 5012   4.297   9.035   0.802
   12CHTO   O24 5013   4.362   8.908   0.790
   12CHTO   H39 5014   4.392   8.879   0.875
   12CHTO    O9 5015   3.990   8.934   0.449
   12CHTO   C13 5016   4.062   8.784   0.429
   12CHTO   H26 5017   4.169   8.799   0.403
   12CHTO   C11 5018   3.984   8.704   0.317
   12CHTO   H24 5019   3.998   8.759   0.222
   12CHTO    O8 5020   3.843   8.702   0.345
   12CHTO    H3 5021   3.808   8.788   0.342
   12CHTO    C9 5022   4.049   8.564   0.304
   12CHTO   H22 5023   4.156   8.583   0.286
   12CHTO    N2 5024   4.005   8.487   0.185
   12CHTO   H10 5025   3.922   8.536   0.135
   12CHTO   H11 5026   3.978   8.386   0.211
   12CHTO    C7 5027   4.035   8.486   0.440
   12CHTO   H20 5028   4.099   8.397   0.426
   12CHTO    O4 5029   4.086   8.561   0.553
   12CHTO   C14 5030   4.065   8.703   0.567
   12CHTO   H27 5031   4.153   8.739   0.624
   12CHTO   C18 5032   3.940   8.730   0.654
   12CHTO   O13 5033   3.961   8.684   0.788
   12CHTO    H7 5034   3.885   8.702   0.840
   12CHTO    O2 5035   3.877   8.439   0.471
   12CHTO    C1 5036   3.858   8.349   0.582
   12CHTO   H14 5037   3.916   8.386   0.670
   12CHTO    C2 5038   3.898   8.198   0.554
   12CHTO   H15 5039   3.843   8.168   0.463
   12CHTO    O6 5040   4.039   8.189   0.530
   12CHTO    H1 5041   4.062   8.102   0.503
   12CHTO    C3 5042   3.856   8.103   0.677
   12CHTO   H16 5043   3.921   8.127   0.762
   12CHTO    N1 5044   3.876   7.957   0.646
   12CHTO    H8 5045   3.814   7.928   0.562
   12CHTO    H9 5046   3.851   7.897   0.732
   12CHTO    C4 5047   3.709   8.133   0.726
   12CHTO   H17 5048   3.638   8.092   0.654
   12CHTO    O1 5049   3.686   8.275   0.743
   12CHTO    C5 5050   3.708   8.352   0.624
   12CHTO   H18 5051   3.650   8.309   0.541
   12CHTO   C16 5052   3.657   8.496   0.650
   12CHTO   O11 5053   3.515   8.499   0.665
   12CHTO    H5 5054   3.474   8.481   0.582
   12CHTO    O3 5055   3.687   8.077   0.857
   12CHTO    C6 5056   3.551   8.035   0.890
   12CHTO   H19 5057   3.475   8.082   0.827
   12CHTO    C8 5058   3.539   7.879   0.875
   12CHTO   H21 5059   3.623   7.833   0.926
   12CHTO    O7 5060   3.545   7.849   0.734
   12CHTO    H2 5061   3.631   7.866   0.701
   12CHTO   C12 5062   3.405   7.824   0.940
   12CHTO   H25 5063   3.322   7.861   0.876
   12CHTO    N3 5064   3.398   7.674   0.936
   12CHTO   H12 5065   3.482   7.633   0.991
   12CHTO   H13 5066   3.399   7.640   0.834
   12CHTO   C15 5067   3.387   7.884   1.084
   12CHTO   H28 5068   3.462   7.846   1.153
   12CHTO   O10 5069   3.247   7.860   1.143
   12CHTO    H4 5070   3.233   7.768   1.156
   12CHTO    O5 5071   3.392   8.027   1.079
   12CHTO   C10 5072   3.520   8.077   1.036
   12CHTO   H23 5073   3.597   8.038   1.103
   12CHTO   C17 5074   3.519   8.230   1.051
   12CHTO   O12 5075   3.503   8.270   1.187
   12CHTO    H6 5076   3.502   8.363   1.193
   13CHTO  H203 5077   7.023   4.126   2.244
   13CHTO   O82 5078   7.113   4.153   2.236
   13CHTO  C123 5079   7.143   4.260   2.328
   13CHTO  H227 5080   7.249   4.287   2.317
   13CHTO   O77 5081   7.059   4.370   2.280
   13CHTO  C118 5082   7.072   4.492   2.354
   13CHTO  H222 5083   7.178   4.524   2.355
   13CHTO  C125 5084   6.986   4.602   2.282
   13CHTO   O84 5085   7.033   4.627   2.149
   13CHTO  H205 5086   7.013   4.554   2.094
   13CHTO  C114 5087   7.024   4.467   2.499
   13CHTO  H218 5088   6.921   4.431   2.496
   13CHTO  C116 5089   7.110   4.355   2.566
   13CHTO  H220 5090   7.214   4.391   2.578
   13CHTO   O79 5091   7.058   4.332   2.698
   13CHTO  H201 5092   7.113   4.271   2.744
   13CHTO  C120 5093   7.107   4.224   2.477
   13CHTO  H224 5094   7.004   4.184   2.483
   13CHTO   N21 5095   7.197   4.118   2.531
   13CHTO  H211 5096   7.145   4.057   2.602
   13CHTO  H212 5097   7.285   4.162   2.576
   13CHTO   O75 5098   7.033   4.594   2.567
   13CHTO  C112 5099   6.894   4.632   2.645
   13CHTO  H216 5100   6.866   4.549   2.712
   13CHTO   O73 5101   6.794   4.655   2.544
   13CHTO  C113 5102   6.665   4.694   2.593
   13CHTO  H217 5103   6.629   4.617   2.665
   13CHTO  C124 5104   6.567   4.697   2.476
   13CHTO   O83 5105   6.602   4.791   2.373
   13CHTO  H204 5106   6.593   4.879   2.406
   13CHTO  C109 5107   6.677   4.831   2.666
   13CHTO  H213 5108   6.716   4.903   2.592
   13CHTO  C110 5109   6.778   4.815   2.784
   13CHTO  H214 5110   6.737   4.745   2.857
   13CHTO   O78 5111   6.792   4.942   2.850
   13CHTO  H200 5112   6.712   4.965   0.019
   13CHTO  C111 5113   6.915   4.763   2.731
   13CHTO  H215 5114   6.959   4.840   2.665
   13CHTO   N19 5115   7.015   4.738   2.838
   13CHTO  H207 5116   7.108   4.704   2.795
   13CHTO  H208 5117   7.033   4.828   0.020
   13CHTO   O74 5118   6.546   4.875   2.712
   13CHTO  C115 5119   6.524   5.032   2.694
   13CHTO  H219 5120   6.618   5.087   2.704
   13CHTO   O76 5121   6.474   5.067   2.548
   13CHTO  C122 5122   6.338   5.027   2.527
   13CHTO  H226 5123   6.334   4.919   2.537
   13CHTO  C126 5124   6.302   5.057   2.377
   13CHTO   O85 5125   6.170   5.013   2.342
   13CHTO  H206 5126   6.106   5.063   2.389
   13CHTO  C121 5127   6.238   5.097   2.628
   13CHTO  H225 5128   6.176   5.170   2.572
   13CHTO   O81 5129   6.149   4.997   2.681
   13CHTO  H202 5130   6.080   5.038   2.730
   13CHTO  C119 5131   6.312   5.172   2.744
   13CHTO  H223 5132   6.363   5.257   2.697
   13CHTO  C117 5133   6.422   5.078   2.806
   13CHTO  H221 5134   6.383   4.986   2.849
   13CHTO   N20 5135   6.494   5.146   0.045
   13CHTO  H209 5136   6.478   5.092   0.138
   13CHTO  H210 5137   6.600   5.155   0.026
   13CHTO   O80 5138   6.212   5.248   2.852
   13CHTO  C103 5139   6.100   5.357   2.802
   13CHTO  H190 5140   6.079   5.426   0.010
   13CHTO  C101 5141   6.131   5.445   2.675
   13CHTO  H188 5142   6.160   5.381   2.592
   13CHTO   O68 5143   6.252   5.540   2.707
   13CHTO  H168 5144   6.329   5.489   2.724
   13CHTO   C99 5145   6.001   5.528   2.630
   13CHTO  H186 5146   5.975   5.600   2.711
   13CHTO   N17 5147   6.020   5.609   2.505
   13CHTO  H174 5148   5.946   5.585   2.430
   13CHTO  H175 5149   6.020   5.714   2.528
   13CHTO   C97 5150   5.879   5.432   2.619
   13CHTO  H184 5151   5.897   5.362   2.536
   13CHTO   O64 5152   5.861   5.362   2.744
   13CHTO  C104 5153   5.969   5.274   2.777
   13CHTO  H191 5154   5.987   5.202   2.698
   13CHTO  C108 5155   5.931   5.192   0.027
   13CHTO   O71 5156   5.819   5.107   2.873
   13CHTO  H171 5157   5.800   5.055   0.074
   13CHTO   O62 5158   5.753   5.501   2.600
   13CHTO   C91 5159   5.643   5.420   2.554
   13CHTO  H178 5160   5.671   5.314   2.561
   13CHTO   C92 5161   5.613   5.448   2.403
   13CHTO  H179 5162   5.596   5.556   2.390
   13CHTO   O66 5163   5.733   5.418   2.329
   13CHTO  H166 5164   5.722   5.441   2.238
   13CHTO   C93 5165   5.491   5.364   2.349
   13CHTO  H180 5166   5.525   5.259   2.343
   13CHTO   N16 5167   5.451   5.402   2.210
   13CHTO  H172 5168   5.350   5.440   2.207
   13CHTO  H173 5169   5.462   5.317   2.144
   13CHTO   C94 5170   5.368   5.370   2.448
   13CHTO  H181 5171   5.319   5.468   2.446
   13CHTO   O61 5172   5.409   5.347   2.584
   13CHTO   C95 5173   5.508   5.438   2.633
   13CHTO  H182 5174   5.472   5.540   2.621
   13CHTO  C106 5175   5.527   5.413   2.786
   13CHTO   O69 5176   5.408   5.444   2.859
   13CHTO  H169 5177   5.422   5.431   0.076
   13CHTO   O63 5178   5.262   5.252   2.409
   13CHTO   C96 5179   5.115   5.262   2.475
   13CHTO  H183 5180   5.051   5.192   2.420
   13CHTO   C98 5181   5.046   5.401   2.469
   13CHTO  H185 5182   5.109   5.476   2.519
   13CHTO   O67 5183   5.040   5.441   2.331
   13CHTO  H167 5184   4.984   5.384   2.282
   13CHTO  C102 5185   4.899   5.398   2.535
   13CHTO  H189 5186   4.837   5.338   2.467
   13CHTO   N18 5187   4.832   5.530   2.545
   13CHTO  H176 5188   4.819   5.572   2.446
   13CHTO  H177 5189   4.890   5.597   2.606
   13CHTO  C105 5190   4.903   5.325   2.673
   13CHTO  H192 5191   4.948   5.392   2.747
   13CHTO   O65 5192   4.980   5.203   2.673
   13CHTO  C100 5193   5.115   5.216   2.625
   13CHTO  H187 5194   5.167   5.292   2.686
   13CHTO  C107 5195   5.188   5.081   2.644
   13CHTO   O70 5196   5.206   5.051   2.783
   13CHTO  H170 5197   5.253   4.970   2.792
   13CHTO   O57 5198   4.743   5.291   2.715
   13CHTO   C85 5199   4.670   5.188   2.646
   13CHTO  H157 5200   4.743   5.138   2.578
   13CHTO   C83 5201   4.564   5.253   2.552
   13CHTO  H155 5202   4.616   5.315   2.478
   13CHTO   O56 5203   4.480   5.342   2.628
   13CHTO  H135 5204   4.421   5.388   2.571
   13CHTO   C81 5205   4.487   5.140   2.476
   13CHTO  H153 5206   4.561   5.079   2.424
   13CHTO   N14 5207   4.399   5.191   2.369
   13CHTO  H141 5208   4.455   5.252   2.301
   13CHTO  H142 5209   4.356   5.110   2.315
   13CHTO   C79 5210   4.413   5.048   2.580
   13CHTO  H151 5211   4.369   4.965   2.524
   13CHTO   O52 5212   4.511   4.988   2.671
   13CHTO   C86 5213   4.597   5.084   2.740
   13CHTO  H158 5214   4.529   5.136   2.811
   13CHTO   C90 5215   4.699   5.008   2.828
   13CHTO   O60 5216   4.790   4.931   2.749
   13CHTO  H138 5217   4.851   4.887   2.805
   13CHTO   O50 5218   4.309   5.113   2.657
   13CHTO   C73 5219   4.166   5.098   2.650
   13CHTO  H145 5220   4.139   5.021   2.576
   13CHTO   C74 5221   4.099   5.233   2.607
   13CHTO  H146 5222   4.144   5.262   2.510
   13CHTO   O54 5223   3.959   5.210   2.582
   13CHTO  H133 5224   3.948   5.155   2.507
   13CHTO   C75 5225   4.125   5.342   2.719
   13CHTO  H147 5226   4.234   5.355   2.728
   13CHTO   N13 5227   4.073   5.477   2.686
   13CHTO  H139 5228   4.026   5.478   2.589
   13CHTO  H140 5229   4.000   5.509   2.759
   13CHTO   C76 5230   4.071   5.287   2.859
   13CHTO  H148 5231   3.963   5.274   2.848
   13CHTO   O49 5232   4.130   5.157   0.016
   13CHTO   C77 5233   4.108   5.056   2.789
   13CHTO  H149 5234   4.001   5.040   2.779
   13CHTO   C88 5235   4.163   4.922   2.840
   13CHTO   O58 5236   4.306   4.930   0.014
   13CHTO  H136 5237   4.362   4.949   2.815
   13CHTO   O51 5238   4.105   5.391   0.117
   13CHTO   C78 5239   4.261   5.409   0.182
   13CHTO  H150 5240   4.254   5.467   0.277
   13CHTO   C80 5241   4.355   5.485   0.085
   13CHTO  H152 5242   4.359   5.430   2.864
   13CHTO   O55 5243   4.296   5.615   0.063
   13CHTO  H134 5244   4.217   5.607   0.012
   13CHTO   C84 5245   4.501   5.498   0.143
   13CHTO  H156 5246   4.497   5.561   0.231
   13CHTO   N15 5247   4.596   5.564   0.045
   13CHTO  H143 5248   4.693   5.571   0.089
   13CHTO  H144 5249   4.561   5.662   0.022
   13CHTO   C87 5250   4.552   5.358   0.185
   13CHTO  H159 5251   4.566   5.295   0.097
   13CHTO   O53 5252   4.451   5.294   0.281
   13CHTO   C82 5253   4.323   5.273   0.220
   13CHTO  H154 5254   4.335   5.209   0.132
   13CHTO   C89 5255   4.232   5.198   0.319
   13CHTO   O59 5256   4.280   5.065   0.343
   13CHTO  H137 5257   4.361   5.068   0.391
   13CHTO   O45 5258   4.687   5.368   0.265
   13CHTO   C67 5259   4.759   5.244   0.269
   13CHTO  H124 5260   4.698   5.161   0.234
   13CHTO   C65 5261   4.887   5.255   0.181
   13CHTO  H122 5262   4.853   5.297   0.086
   13CHTO   O44 5263   4.943   5.125   0.157
   13CHTO  H102 5264   4.978   5.089   0.237
   13CHTO   C63 5265   4.984   5.362   0.243
   13CHTO  H120 5266   4.930   5.456   0.253
   13CHTO   N11 5267   5.100   5.402   0.156
   13CHTO  H108 5268   5.152   5.484   0.201
   13CHTO  H109 5269   5.166   5.319   0.145
   13CHTO   C61 5270   5.023   5.316   0.388
   13CHTO  H118 5271   5.076   5.402   0.432
   13CHTO   O40 5272   4.906   5.292   0.471
   13CHTO   C68 5273   4.795   5.211   0.420
   13CHTO  H125 5274   4.706   5.239   0.481
   13CHTO   C72 5275   4.821   5.060   0.447
   13CHTO   O48 5276   4.709   4.978   0.414
   13CHTO  H105 5277   4.729   4.888   0.433
   13CHTO   O38 5278   5.106   5.198   0.393
   13CHTO   C55 5279   5.210   5.186   0.493
   13CHTO  H112 5280   5.232   5.079   0.496
   13CHTO   C56 5281   5.172   5.243   0.638
   13CHTO  H113 5282   5.133   5.345   0.625
   13CHTO   O42 5283   5.065   5.164   0.693
   13CHTO  H100 5284   4.987   5.175   0.642
   13CHTO   C57 5285   5.297   5.246   0.735
   13CHTO  H114 5286   5.322   5.142   0.759
   13CHTO   N10 5287   5.270   5.317   0.863
   13CHTO  H106 5288   5.198   5.396   0.848
   13CHTO  H107 5289   5.232   5.247   0.936
   13CHTO   C58 5290   5.417   5.310   0.661
   13CHTO  H115 5291   5.394   5.417   0.639
   13CHTO   O37 5292   5.444   5.241   0.538
   13CHTO   C59 5293   5.341   5.251   0.440
   13CHTO  H116 5294   5.324   5.356   0.414
   13CHTO   C70 5295   5.386   5.177   0.313
   13CHTO   O46 5296   5.502   5.233   0.252
   13CHTO  H103 5297   5.576   5.222   0.308
   13CHTO   O39 5298   5.554   5.299   0.748
   13CHTO   C60 5299   5.649   5.401   0.714
   13CHTO  H117 5300   5.628   5.439   0.614
   13CHTO   C62 5301   5.640   5.521   0.813
   13CHTO  H119 5302   5.536   5.560   0.805
   13CHTO   O43 5303   5.660   5.475   0.948
   13CHTO  H101 5304   5.747   5.441   0.959
   13CHTO   C66 5305   5.744   5.636   0.768
   13CHTO  H123 5306   5.721   5.665   0.666
   13CHTO   N12 5307   5.732   5.760   0.849
   13CHTO  H110 5308   5.706   5.844   0.786
   13CHTO  H111 5309   5.661   5.748   0.929
   13CHTO   C69 5310   5.888   5.578   0.769
   13CHTO  H126 5311   5.914   5.546   0.872
   13CHTO   O41 5312   5.894   5.453   0.673
   13CHTO   C64 5313   5.793   5.343   0.710
   13CHTO  H121 5314   5.818   5.301   0.811
   13CHTO   C71 5315   5.801   5.228   0.607
   13CHTO   O47 5316   5.931   5.167   0.608
   13CHTO  H104 5317   5.934   5.099   0.545
   13CHTO   O34 5318   5.995   5.685   0.720
   13CHTO   C49 5319   6.147   5.701   0.744
   13CHTO   H91 5320   6.192   5.604   0.721
   13CHTO   C47 5321   6.174   5.739   0.891
   13CHTO   H89 5322   6.285   5.732   0.902
   13CHTO   O33 5323   6.114   5.644   0.980
   13CHTO   H70 5324   6.142   5.660   1.068
   13CHTO   C45 5325   6.120   5.888   0.925
   13CHTO   H87 5326   6.022   5.880   0.975
   13CHTO    N8 5327   6.215   5.952   1.020
   13CHTO   H75 5328   6.179   6.050   1.048
   13CHTO   H76 5329   6.226   5.891   1.108
   13CHTO   C43 5330   6.089   5.970   0.790
   13CHTO   H85 5331   5.993   5.934   0.755
   13CHTO   O29 5332   6.193   5.948   0.693
   13CHTO   C50 5333   6.212   5.811   0.654
   13CHTO   H92 5334   6.171   5.799   0.552
   13CHTO   C54 5335   6.364   5.786   0.635
   13CHTO   O36 5336   6.418   5.866   0.529
   13CHTO   H72 5337   6.387   5.834   0.446
   13CHTO   O27 5338   6.069   6.111   0.811
   13CHTO   C37 5339   5.963   6.206   0.815
   13CHTO   H79 5340   5.881   6.175   0.749
   13CHTO   C38 5341   5.904   6.218   0.959
   13CHTO   H80 5342   5.988   6.229   1.030
   13CHTO   O31 5343   5.836   6.094   0.987
   13CHTO   H68 5344   5.807   6.093   1.076
   13CHTO   C39 5345   5.807   6.342   0.973
   13CHTO   H81 5346   5.719   6.321   0.912
   13CHTO    N7 5347   5.760   6.365   1.114
   13CHTO   H73 5348   5.845   6.385   1.178
   13CHTO   H74 5349   5.690   6.447   1.117
   13CHTO   C40 5350   5.876   6.471   0.912
   13CHTO   H82 5351   5.961   6.501   0.974
   13CHTO   O26 5352   5.915   6.445   0.777
   13CHTO   C41 5353   6.018   6.343   0.765
   13CHTO   H83 5354   6.105   6.372   0.826
   13CHTO   C52 5355   6.063   6.334   0.618
   13CHTO   O35 5356   6.128   6.451   0.573
   13CHTO   H71 5357   6.153   6.440   0.483
   13CHTO   O28 5358   5.785   6.583   0.903
   13CHTO   C42 5359   5.831   6.712   0.852
   13CHTO   H84 5360   5.925   6.691   0.800
   13CHTO   C44 5361   5.864   6.820   0.959
   13CHTO   H86 5362   5.775   6.836   1.021
   13CHTO   O32 5363   5.968   6.767   1.043
   13CHTO   H69 5364   5.985   6.825   1.115
   13CHTO   C48 5365   5.904   6.960   0.895
   13CHTO   H90 5366   6.001   6.948   0.847
   13CHTO    N9 5367   5.924   7.068   0.997
   13CHTO   H77 5368   5.853   7.149   0.983
   13CHTO   H78 5369   5.916   7.029   1.098
   13CHTO   C51 5370   5.799   6.998   0.784
   13CHTO   H93 5371   5.703   7.015   0.833
   13CHTO   O30 5372   5.793   6.891   0.689
   13CHTO   C46 5373   5.733   6.770   0.746
   13CHTO   H88 5374   5.639   6.796   0.795
   13CHTO   C53 5375   5.705   6.670   0.631
   13CHTO   O72 5376   5.605   6.722   0.542
   13CHTO  H199 5377   5.589   6.660   0.474
   13CHTO   O22 5378   5.837   7.114   0.706
   13CHTO   C31 5379   5.732   7.192   0.636
   13CHTO   H59 5380   5.786   7.262   0.570
   13CHTO   C29 5381   5.638   7.108   0.546
   13CHTO   H57 5382   5.596   7.027   0.608
   13CHTO   O21 5383   5.719   7.045   0.445
   13CHTO   H37 5384   5.778   6.983   0.484
   13CHTO   C27 5385   5.520   7.192   0.484
   13CHTO   H55 5386   5.562   7.266   0.414
   13CHTO    N5 5387   5.423   7.107   0.409
   13CHTO   H43 5388   5.376   7.037   0.476
   13CHTO   H44 5389   5.348   7.169   0.362
   13CHTO   C25 5390   5.450   7.272   0.599
   13CHTO   H53 5391   5.406   7.202   0.672
   13CHTO   O17 5392   5.548   7.356   0.668
   13CHTO   C32 5393   5.650   7.282   0.735
   13CHTO   H60 5394   5.603   7.218   0.810
   13CHTO   C36 5395   5.741   7.382   0.811
   13CHTO   O25 5396   5.802   7.478   0.723
   13CHTO   H40 5397   5.858   7.534   0.773
   13CHTO   O15 5398   5.343   7.363   0.548
   13CHTO   C19 5399   5.232   7.451   0.519
   13CHTO   H47 5400   5.222   7.512   0.610
   13CHTO   C20 5401   5.259   7.545   0.397
   13CHTO   H48 5402   5.275   7.488   0.305
   13CHTO   O19 5403   5.381   7.618   0.425
   13CHTO   H35 5404   5.371   7.672   0.501
   13CHTO   C21 5405   5.139   7.645   0.374
   13CHTO   H49 5406   5.136   7.716   0.456
   13CHTO    N4 5407   5.154   7.726   0.249
   13CHTO   H41 5408   5.071   7.794   0.239
   13CHTO   H42 5409   5.245   7.783   0.254
   13CHTO   C22 5410   5.003   7.569   0.378
   13CHTO   H50 5411   4.992   7.510   0.286
   13CHTO   O14 5412   4.995   7.482   0.492
   13CHTO   C23 5413   5.096   7.380   0.498
   13CHTO   H51 5414   5.093   7.323   0.404
   13CHTO   C34 5415   5.056   7.286   0.613
   13CHTO   O23 5416   5.133   7.165   0.613
   13CHTO   H38 5417   5.221   7.184   0.638
   13CHTO   O16 5418   4.895   7.662   0.392
   13CHTO   C24 5419   4.749   7.600   0.408
   13CHTO   H52 5420   4.752   7.494   0.432
   13CHTO   C26 5421   4.670   7.620   0.277
   13CHTO   H54 5422   4.682   7.726   0.244
   13CHTO   O20 5423   4.730   7.536   0.176
   13CHTO   H36 5424   4.817   7.567   0.155
   13CHTO   C30 5425   4.518   7.592   0.296
   13CHTO   H58 5426   4.503   7.486   0.322
   13CHTO    N6 5427   4.440   7.614   0.171
   13CHTO   H45 5428   4.504   7.645   0.089
   13CHTO   H46 5429   4.363   7.689   0.186
   13CHTO   C33 5430   4.467   7.676   0.417
   13CHTO   H61 5431   4.488   7.782   0.397
   13CHTO   O18 5432   4.542   7.636   0.534
   13CHTO   C28 5433   4.681   7.672   0.528
   13CHTO   H56 5434   4.691   7.780   0.515
   13CHTO   C35 5435   4.749   7.634   0.662
   13CHTO   O24 5436   4.740   7.495   0.696
   13CHTO   H39 5437   4.651   7.473   0.715
   13CHTO    O9 5438   4.325   7.669   0.441
   13CHTO   C13 5439   4.271   7.537   0.516
   13CHTO   H26 5440   4.355   7.465   0.527
   13CHTO   C11 5441   4.153   7.477   0.429
   13CHTO   H24 5442   4.196   7.444   0.332
   13CHTO    O8 5443   4.057   7.580   0.402
   13CHTO    H3 5444   3.991   7.548   0.343
   13CHTO    C9 5445   4.095   7.352   0.503
   13CHTO   H22 5446   4.178   7.280   0.508
   13CHTO    N2 5447   3.992   7.281   0.423
   13CHTO   H10 5448   4.031   7.257   0.325
   13CHTO   H11 5449   3.903   7.341   0.415
   13CHTO    C7 5450   4.055   7.390   0.652
   13CHTO   H20 5451   4.121   7.324   0.713
   13CHTO    O4 5452   4.083   7.527   0.684
   13CHTO   C14 5453   4.220   7.568   0.665
   13CHTO   H27 5454   4.283   7.512   0.738
   13CHTO   C18 5455   4.226   7.717   0.706
   13CHTO   O13 5456   4.360   7.763   0.725
   13CHTO    H7 5457   4.396   7.724   0.803
   13CHTO    O2 5458   3.899   7.357   0.696
   13CHTO    C1 5459   3.889   7.334   0.838
   13CHTO   H14 5460   3.981   7.370   0.889
   13CHTO    C2 5461   3.866   7.182   0.876
   13CHTO   H15 5462   3.774   7.151   0.825
   13CHTO    O6 5463   3.977   7.105   0.826
   13CHTO    H1 5464   3.977   7.104   0.732
   13CHTO    C3 5465   3.851   7.167   1.035
   13CHTO   H16 5466   3.950   7.187   1.079
   13CHTO    N1 5467   3.816   7.027   1.077
   13CHTO    H8 5468   3.808   6.961   0.992
   13CHTO    H9 5469   3.722   7.025   1.132
   13CHTO    C4 5470   3.754   7.275   1.096
   13CHTO   H17 5471   3.651   7.243   1.083
   13CHTO    O1 5472   3.772   7.407   1.040
   13CHTO    C5 5473   3.772   7.417   0.897
   13CHTO   H18 5474   3.678   7.377   0.858
   13CHTO   C16 5475   3.780   7.568   0.859
   13CHTO   O11 5476   3.897   7.632   0.912
   13CHTO    H5 5477   3.891   7.637   1.006
   13CHTO    O3 5478   3.785   7.295   1.235
   13CHTO    C6 5479   3.673   7.329   1.323
   13CHTO   H19 5480   3.581   7.350   1.268
   13CHTO    C8 5481   3.645   7.210   1.420
   13CHTO   H21 5482   3.740   7.182   1.468
   13CHTO    O7 5483   3.598   7.100   1.339
   13CHTO    H2 5484   3.590   7.023   1.392
   13CHTO   C12 5485   3.541   7.249   1.532
   13CHTO   H25 5486   3.444   7.260   1.481
   13CHTO    N3 5487   3.524   7.138   1.632
   13CHTO   H12 5488   3.421   7.106   1.636
   13CHTO   H13 5489   3.558   7.169   1.730
   13CHTO   C15 5490   3.579   7.387   1.596
   13CHTO   H28 5491   3.668   7.380   1.659
   13CHTO   O10 5492   3.463   7.449   1.678
   13CHTO    H4 5493   3.443   7.394   1.751
   13CHTO    O5 5494   3.597   7.486   1.494
   13CHTO   C10 5495   3.706   7.457   1.406
   13CHTO   H23 5496   3.797   7.442   1.465
   13CHTO   C17 5497   3.726   7.584   1.320
   13CHTO   O12 5498   3.853   7.584   1.255
   13CHTO    H6 5499   3.861   7.662   1.203
   14CHTO  H203 5500   5.855   4.631   0.165
   14CHTO   O82 5501   5.871   4.703   0.107
   14CHTO  C123 5502   5.747   4.753   0.053
   14CHTO  H227 5503   5.769   4.841   2.863
   14CHTO   O77 5504   5.699   4.643   2.844
   14CHTO  C118 5505   5.576   4.669   2.773
   14CHTO  H222 5506   5.588   4.757   2.708
   14CHTO  C125 5507   5.546   4.543   2.684
   14CHTO   O84 5508   5.649   4.523   2.586
   14CHTO  H205 5509   5.629   4.447   2.535
   14CHTO  C114 5510   5.463   4.694   0.001
   14CHTO  H218 5511   5.451   4.605   0.063
   14CHTO  C116 5512   5.500   4.812   0.096
   14CHTO  H220 5513   5.503   4.907   0.037
   14CHTO   O79 5514   5.395   4.828   0.193
   14CHTO  H201 5515   5.388   4.752   0.247
   14CHTO  C120 5516   5.641   4.788   0.164
   14CHTO  H224 5517   5.628   4.701   0.231
   14CHTO   N21 5518   5.684   4.902   0.249
   14CHTO  H211 5519   5.646   4.996   0.210
   14CHTO  H212 5520   5.791   4.905   0.259
   14CHTO   O75 5521   5.344   4.719   2.798
   14CHTO  C112 5522   5.220   4.609   2.823
   14CHTO  H216 5523   5.238   4.554   0.043
   14CHTO   O73 5524   5.219   4.521   2.709
   14CHTO  C113 5525   5.116   4.421   2.709
   14CHTO  H217 5526   5.124   4.361   2.803
   14CHTO  C124 5527   5.139   4.326   2.591
   14CHTO   O83 5528   5.261   4.252   2.603
   14CHTO  H204 5529   5.271   4.196   2.529
   14CHTO  C109 5530   4.977   4.491   2.704
   14CHTO  H213 5531   4.976   4.552   2.613
   14CHTO  C110 5532   4.964   4.582   2.829
   14CHTO  H214 5533   4.965   4.519   0.045
   14CHTO   O78 5534   4.835   4.647   2.824
   14CHTO  H200 5535   4.821   4.697   0.028
   14CHTO  C111 5536   5.081   4.684   2.834
   14CHTO  H215 5537   5.073   4.751   2.747
   14CHTO   N19 5538   5.080   4.771   0.080
   14CHTO  H207 5539   5.084   4.711   0.170
   14CHTO  H208 5540   4.990   4.831   0.081
   14CHTO   O74 5541   4.868   4.393   2.698
   14CHTO  C115 5542   4.788   4.393   2.556
   14CHTO  H219 5543   4.832   4.463   2.484
   14CHTO   O76 5544   4.797   4.253   2.484
   14CHTO  C122 5545   4.707   4.157   2.540
   14CHTO  H226 5546   4.730   4.147   2.646
   14CHTO  C126 5547   4.734   4.017   2.476
   14CHTO   O85 5548   4.867   3.969   2.502
   14CHTO  H206 5549   4.930   4.024   2.458
   14CHTO  C121 5550   4.556   4.201   2.520
   14CHTO  H225 5551   4.513   4.145   2.434
   14CHTO   O81 5552   4.481   4.164   2.637
   14CHTO  H202 5553   4.389   4.174   2.622
   14CHTO  C119 5554   4.542   4.354   2.491
   14CHTO  H223 5555   4.576   4.368   2.388
   14CHTO  C117 5556   4.638   4.437   2.584
   14CHTO  H221 5557   4.624   4.421   2.691
   14CHTO   N20 5558   4.620   4.585   2.563
   14CHTO  H209 5559   4.586   4.631   2.655
   14CHTO  H210 5560   4.712   4.631   2.530
   14CHTO   O80 5561   4.387   4.402   2.479
   14CHTO  C103 5562   4.325   4.429   2.338
   14CHTO  H190 5563   4.400   4.470   2.271
   14CHTO  C101 5564   4.257   4.306   2.267
   14CHTO  H188 5565   4.182   4.263   2.334
   14CHTO   O68 5566   4.363   4.198   2.238
   14CHTO  H168 5567   4.322   4.121   2.202
   14CHTO   C99 5568   4.183   4.354   2.134
   14CHTO  H186 5569   4.259   4.394   2.063
   14CHTO   N17 5570   4.109   4.246   2.060
   14CHTO  H174 5571   4.028   4.208   2.120
   14CHTO  H175 5572   4.073   4.283   1.965
   14CHTO   C97 5573   4.088   4.474   2.166
   14CHTO  H184 5574   4.001   4.437   2.222
   14CHTO   O64 5575   4.157   4.579   2.236
   14CHTO  C104 5576   4.216   4.540   2.361
   14CHTO  H191 5577   4.139   4.502   2.428
   14CHTO  C108 5578   4.272   4.666   2.429
   14CHTO   O71 5579   4.372   4.731   2.349
   14CHTO  H171 5580   4.404   4.807   2.394
   14CHTO   O62 5581   4.049   4.542   2.045
   14CHTO   C91 5582   3.909   4.558   2.021
   14CHTO  H178 5583   3.862   4.460   2.030
   14CHTO   C92 5584   3.894   4.600   1.871
   14CHTO  H179 5585   3.945   4.526   1.807
   14CHTO   O66 5586   3.755   4.591   1.835
   14CHTO  H166 5587   3.726   4.502   1.837
   14CHTO   C93 5588   3.945   4.747   1.844
   14CHTO  H180 5589   3.890   4.785   1.757
   14CHTO   N16 5590   4.089   4.755   1.807
   14CHTO  H172 5591   4.100   4.798   1.708
   14CHTO  H173 5592   4.135   4.657   1.811
   14CHTO   C94 5593   3.915   4.841   1.968
   14CHTO  H181 5594   4.000   4.847   2.037
   14CHTO   O61 5595   3.805   4.788   2.046
   14CHTO   C95 5596   3.835   4.665   2.115
   14CHTO  H182 5597   3.899   4.688   2.200
   14CHTO  C106 5598   3.701   4.610   2.173
   14CHTO   O69 5599   3.722   4.491   2.251
   14CHTO  H169 5600   3.640   4.459   2.282
   14CHTO   O63 5601   3.878   4.985   1.916
   14CHTO   C96 5602   3.852   5.089   2.033
   14CHTO  H183 5603   3.865   5.038   2.129
   14CHTO   C98 5604   3.710   5.151   2.030
   14CHTO  H185 5605   3.688   5.189   1.929
   14CHTO   O67 5606   3.616   5.043   2.052
   14CHTO  H167 5607   3.626   5.008   2.138
   14CHTO  C102 5608   3.691   5.268   2.139
   14CHTO  H189 5609   3.700   5.220   2.237
   14CHTO   N18 5610   3.557   5.334   2.138
   14CHTO  H176 5611   3.565   5.439   2.113
   14CHTO  H177 5612   3.491   5.285   2.068
   14CHTO  C105 5613   3.809   5.369   2.124
   14CHTO  H192 5614   3.800   5.422   2.029
   14CHTO   O65 5615   3.937   5.303   2.128
   14CHTO  C100 5616   3.960   5.204   2.026
   14CHTO  H187 5617   3.954   5.253   1.927
   14CHTO  C107 5618   4.103   5.147   2.044
   14CHTO   O70 5619   4.202   5.250   2.030
   14CHTO  H170 5620   4.287   5.213   2.043
   14CHTO   O57 5621   3.804   5.476   2.254
   14CHTO   C85 5622   3.755   5.611   2.241
   14CHTO  H157 5623   3.650   5.602   2.204
   14CHTO   C83 5624   3.832   5.690   2.130
   14CHTO  H155 5625   3.816   5.638   2.035
   14CHTO   O56 5626   3.974   5.685   2.156
   14CHTO  H135 5627   4.005   5.597   2.150
   14CHTO   C81 5628   3.773   5.833   2.119
   14CHTO  H153 5629   3.666   5.824   2.098
   14CHTO   N14 5630   3.826   5.908   2.002
   14CHTO  H141 5631   3.748   5.926   1.930
   14CHTO  H142 5632   3.868   6.001   2.032
   14CHTO   C79 5633   3.789   5.909   2.256
   14CHTO  H151 5634   3.737   6.004   2.247
   14CHTO   O52 5635   3.722   5.834   2.363
   14CHTO   C86 5636   3.763   5.694   2.375
   14CHTO  H158 5637   3.867   5.699   2.413
   14CHTO   C90 5638   3.681   5.624   2.487
   14CHTO   O60 5639   3.705   5.684   2.615
   14CHTO  H138 5640   3.669   5.770   2.617
   14CHTO   O50 5641   3.926   5.935   2.293
   14CHTO   C73 5642   3.984   6.035   2.379
   14CHTO  H145 5643   3.924   6.046   2.470
   14CHTO   C74 5644   3.991   6.173   2.306
   14CHTO  H146 5645   3.888   6.200   2.279
   14CHTO   O54 5646   4.036   6.271   2.401
   14CHTO  H133 5647   4.037   6.356   2.361
   14CHTO   C75 5648   4.083   6.159   2.179
   14CHTO  H147 5649   4.038   6.086   2.111
   14CHTO   N13 5650   4.096   6.284   2.100
   14CHTO  H139 5651   4.160   6.267   2.015
   14CHTO  H140 5652   3.999   6.315   2.064
   14CHTO   C76 5653   4.226   6.100   2.222
   14CHTO  H148 5654   4.280   6.176   2.278
   14CHTO   O49 5655   4.213   5.978   2.303
   14CHTO   C77 5656   4.129   5.991   2.419
   14CHTO  H149 5657   4.171   6.065   2.487
   14CHTO   C88 5658   4.127   5.859   2.496
   14CHTO   O58 5659   4.262   5.825   2.547
   14CHTO  H136 5660   4.258   5.745   2.595
   14CHTO   O51 5661   4.303   6.051   2.094
   14CHTO   C78 5662   4.456   6.069   2.102
   14CHTO  H150 5663   4.488   6.097   2.205
   14CHTO   C80 5664   4.499   6.179   2.004
   14CHTO  H152 5665   4.445   6.165   1.909
   14CHTO   O55 5666   4.454   6.305   2.057
   14CHTO  H134 5667   4.469   6.374   1.995
   14CHTO   C84 5668   4.656   6.183   1.977
   14CHTO  H156 5669   4.703   6.224   2.065
   14CHTO   N15 5670   4.693   6.272   1.861
   14CHTO  H143 5671   4.606   6.317   1.818
   14CHTO  H144 5672   4.759   6.349   1.894
   14CHTO   C87 5673   4.713   6.040   1.957
   14CHTO  H159 5674   4.681   5.998   1.861
   14CHTO   O53 5675   4.664   5.952   2.072
   14CHTO   C82 5676   4.522   5.934   2.068
   14CHTO  H154 5677   4.491   5.899   1.970
   14CHTO   C89 5678   4.483   5.824   2.170
   14CHTO   O59 5679   4.539   5.698   2.132
   14CHTO  H137 5680   4.514   5.633   2.195
   14CHTO   O45 5681   4.876   6.040   1.961
   14CHTO   C67 5682   4.933   5.908   1.959
   14CHTO  H124 5683   4.862   5.834   1.995
   14CHTO   C65 5684   4.975   5.870   1.813
   14CHTO  H122 5685   4.891   5.901   1.749
   14CHTO   O44 5686   4.991   5.728   1.804
   14CHTO  H102 5687   5.006   5.703   1.715
   14CHTO   C63 5688   5.097   5.958   1.767
   14CHTO  H120 5689   5.071   6.063   1.778
   14CHTO   N11 5690   5.135   5.948   1.622
   14CHTO  H108 5691   5.079   5.870   1.574
   14CHTO  H109 5692   5.116   6.041   1.572
   14CHTO   C61 5693   5.217   5.931   1.866
   14CHTO  H118 5694   5.297   6.002   1.839
   14CHTO   O40 5695   5.179   5.964   2.003
   14CHTO   C68 5696   5.057   5.905   2.059
   14CHTO  H125 5697   5.029   5.969   2.145
   14CHTO   C72 5698   5.085   5.763   2.117
   14CHTO   O48 5699   4.976   5.713   2.193
   14CHTO  H105 5700   4.999   5.629   2.230
   14CHTO   O38 5701   5.268   5.796   1.867
   14CHTO   C55 5702   5.393   5.768   1.803
   14CHTO  H112 5703   5.422   5.850   1.735
   14CHTO   C56 5704   5.380   5.630   1.725
   14CHTO  H113 5705   5.344   5.555   1.799
   14CHTO   O42 5706   5.278   5.639   1.624
   14CHTO  H100 5707   5.194   5.654   1.664
   14CHTO   C57 5708   5.518   5.584   1.663
   14CHTO  H114 5709   5.537   5.651   1.580
   14CHTO   N10 5710   5.516   5.446   1.608
   14CHTO  H106 5711   5.418   5.421   1.571
   14CHTO  H107 5712   5.588   5.438   1.527
   14CHTO   C58 5713   5.633   5.599   1.767
   14CHTO  H115 5714   5.625   5.518   1.843
   14CHTO   O37 5715   5.631   5.727   1.833
   14CHTO   C59 5716   5.510   5.754   1.905
   14CHTO  H116 5717   5.489   5.673   1.976
   14CHTO   C70 5718   5.531   5.883   1.987
   14CHTO   O46 5719   5.629   5.868   2.090
   14CHTO  H103 5720   5.714   5.856   2.052
   14CHTO   O39 5721   5.777   5.592   1.691
   14CHTO   C60 5722   5.888   5.570   1.780
   14CHTO  H117 5723   5.870   5.621   1.874
   14CHTO   C62 5724   5.906   5.418   1.811
   14CHTO  H119 5725   5.813   5.386   1.863
   14CHTO   O43 5726   5.917   5.343   1.688
   14CHTO  H101 5727   5.993   5.368   1.641
   14CHTO   C66 5728   6.032   5.399   1.909
   14CHTO  H123 5729   6.017   5.463   1.997
   14CHTO   N12 5730   6.043   5.261   1.961
   14CHTO  H110 5731   5.955   5.235   2.018
   14CHTO  H111 5732   6.058   5.192   1.879
   14CHTO   C69 5733   6.160   5.449   1.836
   14CHTO  H126 5734   6.175   5.391   1.742
   14CHTO   O41 5735   6.141   5.600   1.803
   14CHTO   C64 5736   6.016   5.631   1.718
   14CHTO  H121 5737   6.030   5.590   1.616
   14CHTO   C71 5738   6.003   5.785   1.708
   14CHTO   O47 5739   6.114   5.842   1.638
   14CHTO  H104 5740   6.109   5.819   1.547
   14CHTO   O34 5741   6.286   5.434   1.923
   14CHTO   C49 5742   6.435   5.444   1.903
   14CHTO   H91 5743   6.462   5.370   1.828
   14CHTO   C47 5744   6.501   5.411   2.038
   14CHTO   H89 5745   6.611   5.411   2.017
   14CHTO   O33 5746   6.463   5.280   2.082
   14CHTO   H70 5747   6.496   5.215   2.022
   14CHTO   C45 5748   6.462   5.522   2.149
   14CHTO   H87 5749   6.366   5.493   2.194
   14CHTO    N8 5750   6.566   5.521   2.256
   14CHTO   H75 5751   6.535   5.586   2.337
   14CHTO   H76 5752   6.660   5.555   2.216
   14CHTO   C43 5753   6.434   5.665   2.079
   14CHTO   H85 5754   6.327   5.663   2.054
   14CHTO   O29 5755   6.516   5.680   1.962
   14CHTO   C50 5756   6.483   5.586   1.857
   14CHTO   H92 5757   6.403   5.630   1.795
   14CHTO   C54 5758   6.603   5.575   1.760
   14CHTO   O36 5759   6.631   5.701   1.696
   14CHTO   H72 5760   6.704   5.691   1.638
   14CHTO   O27 5761   6.448   5.779   2.165
   14CHTO   C37 5762   6.384   5.906   2.185
   14CHTO   H79 5763   6.460   5.983   2.207
   14CHTO   C38 5764   6.308   5.953   2.057
   14CHTO   H80 5765   6.242   5.871   2.024
   14CHTO   O31 5766   6.407   5.976   1.955
   14CHTO   H68 5767   6.365   5.997   1.873
   14CHTO   C39 5768   6.221   6.082   2.085
   14CHTO   H81 5769   6.290   6.164   2.107
   14CHTO    N7 5770   6.138   6.123   1.967
   14CHTO   H73 5771   6.081   6.212   1.991
   14CHTO   H74 5772   6.202   6.143   1.882
   14CHTO   C40 5773   6.133   6.059   2.214
   14CHTO   H82 5774   6.057   5.983   2.194
   14CHTO   O26 5775   6.217   6.023   2.324
   14CHTO   C41 5776   6.287   5.896   2.305
   14CHTO   H83 5777   6.214   5.817   2.286
   14CHTO   C52 5778   6.360   5.861   2.437
   14CHTO   O35 5779   6.458   5.966   2.480
   14CHTO   H71 5780   6.498   5.940   2.561
   14CHTO   O28 5781   6.068   6.180   2.260
   14CHTO   C42 5782   5.945   6.173   2.339
   14CHTO   H84 5783   5.930   6.277   2.371
   14CHTO   C44 5784   5.950   6.088   2.470
   14CHTO   H86 5785   5.978   5.985   2.444
   14CHTO   O32 5786   6.056   6.142   2.552
   14CHTO   H69 5787   6.035   6.229   2.579
   14CHTO   C48 5788   5.812   6.083   2.547
   14CHTO   H90 5789   5.792   6.183   2.585
   14CHTO    N9 5790   5.813   5.992   2.667
   14CHTO   H77 5791   5.910   5.946   2.679
   14CHTO   H78 5792   5.786   6.046   2.756
   14CHTO   C51 5793   5.696   6.046   2.446
   14CHTO   H93 5794   5.710   5.943   2.413
   14CHTO   O30 5795   5.698   6.138   2.337
   14CHTO   C46 5796   5.821   6.134   2.254
   14CHTO   H88 5797   5.834   6.032   2.215
   14CHTO   C53 5798   5.801   6.233   2.137
   14CHTO   O72 5799   5.695   6.191   2.050
   14CHTO  H199 5800   5.720   6.113   2.003
   14CHTO   O22 5801   5.566   6.063   2.506
   14CHTO   C31 5802   5.441   6.013   2.446
   14CHTO   H59 5803   5.469   5.967   2.348
   14CHTO   C29 5804   5.374   5.903   2.530
   14CHTO   H57 5805   5.370   5.940   2.634
   14CHTO   O21 5806   5.461   5.788   2.532
   14CHTO   H37 5807   5.542   5.809   2.573
   14CHTO   C27 5808   5.227   5.867   2.484
   14CHTO   H55 5809   5.232   5.815   2.387
   14CHTO    N5 5810   5.157   5.778   2.580
   14CHTO   H43 5811   5.214   5.687   2.594
   14CHTO   H44 5812   5.058   5.753   2.543
   14CHTO   C25 5813   5.146   5.999   2.461
   14CHTO   H53 5814   5.139   6.054   2.556
   14CHTO   O17 5815   5.217   6.080   2.364
   14CHTO   C32 5816   5.343   6.130   2.412
   14CHTO   H60 5817   5.326   6.188   2.503
   14CHTO   C36 5818   5.397   6.226   2.304
   14CHTO   O25 5819   5.413   6.162   2.176
   14CHTO   H40 5820   5.481   6.098   2.181
   14CHTO   O15 5821   4.999   5.976   2.403
   14CHTO   C19 5822   4.871   6.044   2.384
   14CHTO   H47 5823   4.830   5.997   2.293
   14CHTO   C20 5824   4.770   6.024   2.502
   14CHTO   H48 5825   4.811   6.062   2.597
   14CHTO   O19 5826   4.751   5.882   2.516
   14CHTO   H35 5827   4.698   5.864   2.591
   14CHTO   C21 5828   4.632   6.097   2.475
   14CHTO   H49 5829   4.581   6.045   2.393
   14CHTO    N4 5830   4.539   6.092   2.591
   14CHTO   H41 5831   4.585   6.138   2.677
   14CHTO   H42 5832   4.516   5.989   2.614
   14CHTO   C22 5833   4.656   6.243   2.426
   14CHTO   H50 5834   4.693   6.303   2.510
   14CHTO   O14 5835   4.751   6.243   2.319
   14CHTO   C23 5836   4.882   6.196   2.353
   14CHTO   H51 5837   4.917   6.253   2.441
   14CHTO   C34 5838   4.974   6.230   2.235
   14CHTO   O23 5839   4.994   6.371   2.224
   14CHTO   H38 5840   5.045   6.402   2.296
   14CHTO   O16 5841   4.538   6.303   2.369
   14CHTO   C24 5842   4.534   6.474   2.343
   14CHTO   H52 5843   4.462   6.502   2.266
   14CHTO   C26 5844   4.672   6.528   2.299
   14CHTO   H54 5845   4.749   6.491   2.372
   14CHTO   O20 5846   4.701   6.472   2.169
   14CHTO   H36 5847   4.789   6.491   2.144
   14CHTO   C30 5848   4.680   6.683   2.294
   14CHTO   H58 5849   4.626   6.719   2.205
   14CHTO    N6 5850   4.820   6.730   2.278
   14CHTO   H45 5851   4.823   6.838   2.273
   14CHTO   H46 5852   4.862   6.690   2.187
   14CHTO   C33 5853   4.611   6.750   2.417
   14CHTO   H61 5854   4.676   6.743   2.505
   14CHTO   O18 5855   4.485   6.687   2.447
   14CHTO   C28 5856   4.490   6.546   2.474
   14CHTO   H56 5857   4.561   6.523   2.553
   14CHTO   C35 5858   4.347   6.503   2.517
   14CHTO   O24 5859   4.338   6.368   2.563
   14CHTO   H39 5860   4.250   6.349   2.586
   14CHTO    O9 5861   4.593   6.892   2.392
   14CHTO   C13 5862   4.613   6.990   2.517
   14CHTO   H26 5863   4.619   6.929   2.609
   14CHTO   C11 5864   4.491   7.091   2.521
   14CHTO   H24 5865   4.400   7.032   2.545
   14CHTO    O8 5866   4.469   7.152   2.393
   14CHTO    H3 5867   4.447   7.087   2.329
   14CHTO    C9 5868   4.517   7.192   2.636
   14CHTO   H22 5869   4.533   7.131   2.726
   14CHTO    N2 5870   4.400   7.277   2.669
   14CHTO   H10 5871   4.421   7.337   2.756
   14CHTO   H11 5872   4.313   7.215   2.687
   14CHTO    C7 5873   4.649   7.272   2.607
   14CHTO   H20 5874   4.665   7.334   2.698
   14CHTO    O4 5875   4.762   7.183   2.591
   14CHTO   C14 5876   4.752   7.068   2.505
   14CHTO   H27 5877   4.831   6.997   2.540
   14CHTO   C18 5878   4.787   7.106   2.359
   14CHTO   O13 5879   4.925   7.141   2.347
   14CHTO    H7 5880   4.944   7.163   2.258
   14CHTO    O2 5881   4.638   7.371   2.472
   14CHTO    C1 5882   4.704   7.500   2.478
   14CHTO   H14 5883   4.705   7.542   2.376
   14CHTO    C2 5884   4.853   7.499   2.532
   14CHTO   H15 5885   4.851   7.451   2.631
   14CHTO    O6 5886   4.933   7.422   2.442
   14CHTO    H1 5887   5.020   7.412   2.476
   14CHTO    C3 5888   4.910   7.649   2.545
   14CHTO   H16 5889   4.923   7.690   2.443
   14CHTO    N1 5890   5.044   7.653   2.612
   14CHTO    H8 5891   5.081   7.755   2.615
   14CHTO    H9 5892   5.037   7.614   2.712
   14CHTO    C4 5893   4.805   7.744   2.616
   14CHTO   H17 5894   4.800   7.717   2.722
   14CHTO    O1 5895   4.676   7.731   2.555
   14CHTO    C5 5896   4.619   7.600   2.563
   14CHTO   H18 5897   4.619   7.565   2.667
   14CHTO   C16 5898   4.473   7.610   2.514
   14CHTO   O11 5899   4.396   7.695   2.599
   14CHTO    H5 5900   4.308   7.700   2.566
   14CHTO    O3 5901   4.841   7.882   2.599
   14CHTO    C6 5902   4.778   7.976   2.693
   14CHTO   H19 5903   4.685   7.937   2.735
   14CHTO    C8 5904   4.875   8.008   2.811
   14CHTO   H21 5905   4.971   8.039   2.770
   14CHTO    O7 5906   4.891   7.887   0.013
   14CHTO    H2 5907   4.957   7.898   0.078
   14CHTO   C12 5908   4.817   8.127   0.025
   14CHTO   H25 5909   4.720   8.091   0.066
   14CHTO    N3 5910   4.905   8.159   0.142
   14CHTO   H12 5911   4.862   8.240   0.199
   14CHTO   H13 5912   4.918   8.071   0.204
   14CHTO   C15 5913   4.789   8.248   2.804
   14CHTO   H28 5914   4.881   8.284   2.757
   14CHTO   O10 5915   4.718   8.368   2.874
   14CHTO    H4 5916   4.640   8.338   0.043
   14CHTO    O5 5917   4.694   8.210   2.703
   14CHTO   C10 5918   4.740   8.106   2.615
   14CHTO   H23 5919   4.827   8.142   2.560
   14CHTO   C17 5920   4.629   8.078   2.513
   14CHTO   O12 5921   4.599   8.193   2.433
   14CHTO    H6 5922   4.670   8.210   2.374
   15CHTO  H203 5923   6.108   4.669   2.815
   15CHTO   O82 5924   6.057   4.722   2.756
   15CHTO  C123 5925   6.037   4.652   2.632
   15CHTO  H227 5926   5.984   4.558   2.653
   15CHTO   O77 5927   5.952   4.743   2.557
   15CHTO  C118 5928   5.908   4.693   2.430
   15CHTO  H222 5929   5.856   4.597   2.443
   15CHTO  C125 5930   5.808   4.798   2.371
   15CHTO   O84 5931   5.691   4.811   2.453
   15CHTO  H205 5932   5.635   4.876   2.416
   15CHTO  C114 5933   6.030   4.672   2.338
   15CHTO  H218 5934   6.079   4.768   2.323
   15CHTO  C116 5935   6.137   4.579   2.406
   15CHTO  H220 5936   6.099   4.475   2.411
   15CHTO   O79 5937   6.254   4.575   2.322
   15CHTO  H201 5938   6.292   4.661   2.315
   15CHTO  C120 5939   6.171   4.627   2.553
   15CHTO  H224 5940   6.227   4.723   2.543
   15CHTO   N21 5941   6.259   4.532   2.625
   15CHTO  H211 5942   6.319   4.585   2.697
   15CHTO  H212 5943   6.323   4.479   2.555
   15CHTO   O75 5944   5.975   4.630   2.210
   15CHTO  C112 5945   5.987   4.468   2.166
   15CHTO  H216 5946   5.989   4.406   2.256
   15CHTO   O73 5947   6.107   4.454   2.088
   15CHTO  C113 5948   6.139   4.318   2.055
   15CHTO  H217 5949   6.152   4.261   2.150
   15CHTO  C124 5950   6.275   4.315   1.983
   15CHTO   O83 5951   6.276   4.386   1.858
   15CHTO  H204 5952   6.263   4.478   1.874
   15CHTO  C109 5953   6.026   4.252   1.971
   15CHTO  H213 5954   6.025   4.304   1.873
   15CHTO  C110 5955   5.888   4.270   2.043
   15CHTO  H214 5956   5.890   4.210   2.134
   15CHTO   O78 5957   5.784   4.214   1.961
   15CHTO  H200 5958   5.777   4.261   1.880
   15CHTO  C111 5959   5.865   4.420   2.078
   15CHTO  H215 5960   5.864   4.478   1.985
   15CHTO   N19 5961   5.737   4.447   2.148
   15CHTO  H207 5962   5.654   4.419   2.085
   15CHTO  H208 5963   5.733   4.391   2.241
   15CHTO   O74 5964   6.058   4.111   1.950
   15CHTO  C115 5965   6.028   4.057   1.802
   15CHTO  H219 5966   5.957   4.122   1.749
   15CHTO   O76 5967   6.156   4.059   1.713
   15CHTO  C122 5968   6.255   3.967   1.761
   15CHTO  H226 5969   6.280   3.996   1.863
   15CHTO  C126 5970   6.386   3.988   1.677
   15CHTO   O85 5971   6.493   3.905   1.721
   15CHTO  H206 5972   6.570   3.922   1.670
   15CHTO  C121 5973   6.203   3.817   1.757
   15CHTO  H225 5974   6.255   3.763   1.674
   15CHTO   O81 5975   6.241   3.754   1.880
   15CHTO  H202 5976   6.227   3.662   1.875
   15CHTO  C119 5977   6.049   3.805   1.735
   15CHTO  H223 5978   6.032   3.824   1.629
   15CHTO  C117 5979   5.967   3.912   1.818
   15CHTO  H221 5980   5.969   3.894   1.925
   15CHTO   N20 5981   5.822   3.908   1.781
   15CHTO  H209 5982   5.809   3.940   1.678
   15CHTO  H210 5983   5.765   3.972   1.847
   15CHTO   O80 5984   5.995   3.653   1.750
   15CHTO  C103 5985   5.972   3.557   1.620
   15CHTO  H190 5986   5.906   3.475   1.649
   15CHTO  C101 5987   5.911   3.620   1.489
   15CHTO  H188 5988   5.979   3.695   1.449
   15CHTO   O68 5989   5.775   3.687   1.523
   15CHTO  H168 5990   5.714   3.623   1.554
   15CHTO   C99 5991   5.892   3.504   1.380
   15CHTO  H186 5992   5.814   3.433   1.417
   15CHTO   N17 5993   5.843   3.553   1.246
   15CHTO  H174 5994   5.821   3.469   1.182
   15CHTO  H175 5995   5.756   3.615   1.260
   15CHTO   C97 5996   6.022   3.418   1.364
   15CHTO  H184 5997   6.092   3.472   1.298
   15CHTO   O64 5998   6.083   3.384   1.490
   15CHTO  C104 5999   6.109   3.493   1.579
   15CHTO  H191 6000   6.172   3.569   1.532
   15CHTO  C108 6001   6.188   3.444   1.701
   15CHTO   O71 6002   6.317   3.393   1.662
   15CHTO  H171 6003   6.361   3.361   1.738
   15CHTO   O62 6004   5.987   3.291   1.304
   15CHTO   C91 6005   6.089   3.214   1.239
   15CHTO  H178 6006   6.165   3.284   1.202
   15CHTO   C92 6007   6.026   3.147   1.112
   15CHTO  H179 6008   5.969   3.222   1.054
   15CHTO   O66 6009   6.132   3.106   1.024
   15CHTO  H166 6010   6.188   3.043   1.066
   15CHTO   C93 6011   5.938   3.020   1.145
   15CHTO  H180 6012   5.931   2.963   1.051
   15CHTO   N16 6013   5.798   3.053   1.180
   15CHTO  H172 6014   5.729   3.001   1.115
   15CHTO  H173 6015   5.777   3.030   1.284
   15CHTO   C94 6016   6.008   2.929   1.254
   15CHTO  H181 6017   5.957   2.933   1.351
   15CHTO   O61 6018   6.144   2.969   1.279
   15CHTO   C95 6019   6.157   3.103   1.331
   15CHTO  H182 6020   6.111   3.108   1.429
   15CHTO  C106 6021   6.310   3.134   1.352
   15CHTO   O69 6022   6.364   3.049   1.454
   15CHTO  H169 6023   6.455   3.069   1.466
   15CHTO   O63 6024   6.008   2.781   1.201
   15CHTO   C96 6025   6.056   2.670   1.303
   15CHTO  H183 6026   6.060   2.713   1.403
   15CHTO   C98 6027   6.197   2.613   1.268
   15CHTO  H185 6028   6.206   2.605   1.158
   15CHTO   O67 6029   6.292   2.714   1.306
   15CHTO  H167 6030   6.379   2.687   1.283
   15CHTO  C102 6031   6.229   2.471   1.336
   15CHTO  H189 6032   6.237   2.490   1.444
   15CHTO   N18 6033   6.360   2.411   1.296
   15CHTO  H176 6034   6.346   2.316   1.246
   15CHTO  H177 6035   6.423   2.398   1.382
   15CHTO  C105 6036   6.107   2.379   1.310
   15CHTO  H192 6037   6.090   2.373   1.202
   15CHTO   O65 6038   5.990   2.437   1.371
   15CHTO  C100 6039   5.946   2.556   1.304
   15CHTO  H187 6040   5.923   2.530   1.200
   15CHTO  C107 6041   5.816   2.607   1.370
   15CHTO   O70 6042   5.711   2.510   1.357
   15CHTO  H170 6043   5.633   2.543   1.398
   15CHTO   O57 6044   6.134   2.223   1.367
   15CHTO   C85 6045   6.134   2.188   1.506
   15CHTO  H157 6046   6.128   2.282   1.564
   15CHTO   C83 6047   6.273   2.125   1.541
   15CHTO  H155 6048   6.350   2.201   1.526
   15CHTO   O56 6049   6.303   2.019   1.447
   15CHTO  H135 6050   6.311   2.054   1.361
   15CHTO   C81 6051   6.275   2.080   1.690
   15CHTO  H153 6052   6.257   2.168   1.752
   15CHTO   N14 6053   6.410   2.033   1.733
   15CHTO  H141 6054   6.410   2.015   1.839
   15CHTO  H142 6055   6.436   1.943   1.682
   15CHTO   C79 6056   6.161   1.975   1.718
   15CHTO  H151 6057   6.159   1.957   1.826
   15CHTO   O52 6058   6.031   2.032   1.683
   15CHTO   C86 6059   6.021   2.086   1.547
   15CHTO  H158 6060   6.023   1.995   1.482
   15CHTO   C90 6061   5.881   2.149   1.527
   15CHTO   O60 6062   5.777   2.052   1.544
   15CHTO  H138 6063   5.694   2.093   1.533
   15CHTO   O50 6064   6.179   1.848   1.653
   15CHTO   C73 6065   6.123   1.718   1.629
   15CHTO  H145 6066   6.035   1.727   1.563
   15CHTO   C74 6067   6.079   1.649   1.762
   15CHTO  H146 6068   6.006   1.715   1.811
   15CHTO   O54 6069   6.008   1.528   1.729
   15CHTO  H133 6070   5.927   1.548   1.687
   15CHTO   C75 6071   6.205   1.624   1.852
   15CHTO  H147 6072   6.250   1.721   1.877
   15CHTO   N13 6073   6.176   1.561   1.983
   15CHTO  H139 6074   6.128   1.465   1.968
   15CHTO  H140 6075   6.109   1.624   2.040
   15CHTO   C76 6076   6.315   1.542   1.770
   15CHTO  H148 6077   6.277   1.441   1.752
   15CHTO   O49 6078   6.343   1.607   1.642
   15CHTO   C77 6079   6.230   1.630   1.558
   15CHTO  H149 6080   6.184   1.535   1.529
   15CHTO   C88 6081   6.282   1.693   1.428
   15CHTO   O58 6082   6.176   1.717   1.331
   15CHTO  H136 6083   6.118   1.783   1.363
   15CHTO   O51 6084   6.456   1.542   1.850
   15CHTO   C78 6085   6.578   1.478   1.771
   15CHTO  H150 6086   6.551   1.461   1.664
   15CHTO   C80 6087   6.620   1.344   1.835
   15CHTO  H152 6088   6.636   1.360   1.944
   15CHTO   O55 6089   6.510   1.253   1.818
   15CHTO  H134 6090   6.528   1.172   1.861
   15CHTO   C84 6091   6.754   1.290   1.770
   15CHTO  H156 6092   6.735   1.271   1.664
   15CHTO   N15 6093   6.801   1.159   1.829
   15CHTO  H143 6094   6.734   1.126   1.905
   15CHTO  H144 6095   6.899   1.168   1.870
   15CHTO   C87 6096   6.862   1.401   1.780
   15CHTO  H159 6097   6.883   1.423   1.885
   15CHTO   O53 6098   6.809   1.525   1.709
   15CHTO   C82 6099   6.693   1.580   1.774
   15CHTO  H154 6100   6.718   1.607   1.877
   15CHTO   C89 6101   6.656   1.713   1.701
   15CHTO   O59 6102   6.631   1.694   1.561
   15CHTO  H137 6103   6.710   1.670   1.517
   15CHTO   O45 6104   7.002   1.362   1.705
   15CHTO   C67 6105   7.102   1.465   1.723
   15CHTO  H124 6106   7.053   1.555   1.759
   15CHTO   C65 6107   7.210   1.421   1.828
   15CHTO  H122 6108   7.214   1.312   1.823
   15CHTO   O44 6109   7.158   1.460   1.957
   15CHTO  H102 6110   7.164   1.553   1.968
   15CHTO   C63 6111   7.356   1.469   1.791
   15CHTO  H120 6112   7.394   1.405   1.711
   15CHTO   N11 6113   7.462   1.449   1.895
   15CHTO  H108 6114   7.417   1.422   1.989
   15CHTO  H109 6115   7.520   1.537   1.908
   15CHTO   C61 6116   7.348   1.614   1.730
   15CHTO  H118 6117   7.450   1.639   1.696
   15CHTO   O40 6118   7.263   1.619   1.611
   15CHTO   C68 6119   7.170   1.508   1.587
   15CHTO  H125 6120   7.226   1.423   1.542
   15CHTO   C72 6121   7.069   1.557   1.480
   15CHTO   O48 6122   6.980   1.454   1.435
   15CHTO  H105 6123   6.921   1.490   1.371
   15CHTO   O38 6124   7.305   1.711   1.828
   15CHTO   C55 6125   7.299   1.849   1.787
   15CHTO  H112 6126   7.279   1.856   1.679
   15CHTO   C56 6127   7.432   1.926   1.827
   15CHTO  H113 6128   7.447   1.913   1.936
   15CHTO   O42 6129   7.546   1.865   1.764
   15CHTO  H100 6130   7.538   1.870   1.670
   15CHTO   C57 6131   7.421   2.080   1.791
   15CHTO  H114 6132   7.420   2.087   1.682
   15CHTO   N10 6133   7.536   2.162   1.837
   15CHTO  H106 6134   7.507   2.264   1.855
   15CHTO  H107 6135   7.578   2.120   1.928
   15CHTO   C58 6136   7.287   2.138   1.845
   15CHTO  H115 6137   7.293   2.147   1.956
   15CHTO   O37 6138   7.175   2.055   1.810
   15CHTO   C59 6139   7.180   1.920   1.857
   15CHTO  H116 6140   7.191   1.918   1.966
   15CHTO   C70 6141   7.046   1.855   1.819
   15CHTO   O46 6142   7.013   1.744   1.904
   15CHTO  H103 6143   7.072   1.673   1.889
   15CHTO   O39 6144   7.258   2.293   1.778
   15CHTO   C60 6145   7.192   2.289   1.650
   15CHTO  H117 6146   7.217   2.196   1.600
   15CHTO   C62 6147   7.037   2.296   1.667
   15CHTO  H119 6148   7.009   2.215   1.737
   15CHTO   O43 6149   7.000   2.421   1.729
   15CHTO  H101 6150   7.022   2.493   1.673
   15CHTO   C66 6151   6.968   2.268   1.526
   15CHTO  H123 6152   7.000   2.171   1.490
   15CHTO   N12 6153   6.820   2.260   1.536
   15CHTO  H110 6154   6.779   2.354   1.572
   15CHTO  H111 6155   6.778   2.234   1.440
   15CHTO   C69 6156   7.015   2.373   1.421
   15CHTO  H126 6157   6.972   2.473   1.444
   15CHTO   O41 6158   7.174   2.383   1.419
   15CHTO   C64 6159   7.238   2.404   1.556
   15CHTO  H121 6160   7.205   2.502   1.597
   15CHTO   C71 6161   7.391   2.409   1.536
   15CHTO   O47 6162   7.458   2.458   1.653
   15CHTO  H104 6163   7.550   2.461   1.637
   15CHTO   O34 6164   6.969   2.331   1.281
   15CHTO   C49 6165   6.931   2.352   1.141
   15CHTO   H91 6166   6.934   2.254   1.094
   15CHTO   C47 6167   7.034   2.445   1.073
   15CHTO   H89 6168   7.009   2.446   0.964
   15CHTO   O33 6169   7.165   2.388   1.089
   15CHTO   H70 6170   7.228   2.438   1.041
   15CHTO   C45 6171   7.020   2.593   1.134
   15CHTO   H87 6172   7.033   2.587   1.243
   15CHTO    N8 6173   7.122   2.687   1.081
   15CHTO   H75 6174   7.076   2.775   1.038
   15CHTO   H76 6175   7.191   2.715   1.159
   15CHTO   C43 6176   6.869   2.645   1.113
   15CHTO   H85 6177   6.862   2.740   1.166
   15CHTO   O29 6178   6.774   2.549   1.166
   15CHTO   C50 6179   6.788   2.410   1.128
   15CHTO   H92 6180   6.724   2.353   1.197
   15CHTO   C54 6181   6.723   2.383   0.990
   15CHTO   O36 6182   6.723   2.243   0.956
   15CHTO   H72 6183   6.683   2.232   0.872
   15CHTO   O27 6184   6.839   2.674   0.976
   15CHTO   C37 6185   6.734   2.721   0.890
   15CHTO   H79 6186   6.674   2.636   0.853
   15CHTO   C38 6187   6.637   2.816   0.967
   15CHTO   H80 6188   6.697   2.891   1.019
   15CHTO   O31 6189   6.567   2.737   1.065
   15CHTO   H68 6190   6.626   2.708   1.132
   15CHTO   C39 6191   6.534   2.887   0.871
   15CHTO   H81 6192   6.465   2.811   0.838
   15CHTO    N7 6193   6.453   2.994   0.939
   15CHTO   H73 6194   6.518   3.072   0.977
   15CHTO   H74 6195   6.380   3.035   0.871
   15CHTO   C40 6196   6.605   2.943   0.742
   15CHTO   H82 6197   6.662   3.034   0.767
   15CHTO   O26 6198   6.689   2.843   0.682
   15CHTO   C41 6199   6.796   2.794   0.767
   15CHTO   H83 6200   6.859   2.878   0.801
   15CHTO   C52 6201   6.883   2.701   0.679
   15CHTO   O35 6202   7.008   2.654   0.745
   15CHTO   H71 6203   6.986   2.600   0.819
   15CHTO   O28 6204   6.511   2.969   0.636
   15CHTO   C42 6205   6.518   3.085   0.546
   15CHTO   H84 6206   6.486   3.043   0.450
   15CHTO   C44 6207   6.659   3.148   0.521
   15CHTO   H86 6208   6.702   3.176   0.617
   15CHTO   O32 6209   6.740   3.044   0.463
   15CHTO   H69 6210   6.829   3.073   0.453
   15CHTO   C48 6211   6.654   3.278   0.430
   15CHTO   H90 6212   6.625   3.248   0.330
   15CHTO    N9 6213   6.790   3.341   0.417
   15CHTO   H77 6214   6.784   3.428   0.353
   15CHTO   H78 6215   6.828   3.369   0.514
   15CHTO   C51 6216   6.546   3.377   0.487
   15CHTO   H93 6217   6.576   3.405   0.588
   15CHTO   O30 6218   6.419   3.311   0.486
   15CHTO   C46 6219   6.413   3.193   0.585
   15CHTO   H88 6220   6.435   3.230   0.685
   15CHTO   C53 6221   6.270   3.134   0.580
   15CHTO   O72 6222   6.172   3.231   0.620
   15CHTO  H199 6223   6.087   3.191   0.618
   15CHTO   O22 6224   6.530   3.494   0.404
   15CHTO   C31 6225   6.465   3.619   0.448
   15CHTO   H59 6226   6.487   3.694   0.369
   15CHTO   C29 6227   6.311   3.610   0.458
   15CHTO   H57 6228   6.287   3.530   0.531
   15CHTO   O21 6229   6.260   3.566   0.331
   15CHTO   H37 6230   6.272   3.632   0.266
   15CHTO   C27 6231   6.245   3.745   0.508
   15CHTO   H55 6232   6.259   3.822   0.430
   15CHTO    N5 6233   6.099   3.731   0.533
   15CHTO   H43 6234   6.057   3.827   0.559
   15CHTO   H44 6235   6.082   3.661   0.613
   15CHTO   C25 6236   6.320   3.797   0.636
   15CHTO   H53 6237   6.304   3.726   0.718
   15CHTO   O17 6238   6.463   3.806   0.607
   15CHTO   C32 6239   6.523   3.678   0.580
   15CHTO   H60 6240   6.502   3.610   0.662
   15CHTO   C36 6241   6.676   3.699   0.572
   15CHTO   O25 6242   6.730   3.743   0.697
   15CHTO   H40 6243   6.725   3.673   0.760
   15CHTO   O15 6244   6.269   3.943   0.682
   15CHTO   C19 6245   6.292   4.073   0.745
   15CHTO   H47 6246   6.356   4.126   0.673
   15CHTO   C20 6247   6.162   4.157   0.768
   15CHTO   H48 6248   6.092   4.106   0.837
   15CHTO   O19 6249   6.093   4.169   0.642
   15CHTO   H35 6250   6.145   4.217   0.581
   15CHTO   C21 6251   6.195   4.299   0.830
   15CHTO   H49 6252   6.256   4.354   0.758
   15CHTO    N4 6253   6.075   4.382   0.859
   15CHTO   H41 6254   5.984   4.330   0.833
   15CHTO   H42 6255   6.080   4.475   0.804
   15CHTO   C22 6256   6.283   4.278   0.956
   15CHTO   H50 6257   6.223   4.230   1.034
   15CHTO   O14 6258   6.399   4.199   0.927
   15CHTO   C23 6259   6.372   4.066   0.878
   15CHTO   H51 6260   6.317   4.012   0.957
   15CHTO   C34 6261   6.507   3.995   0.862
   15CHTO   O23 6262   6.568   3.970   0.989
   15CHTO   H38 6263   6.519   3.904   1.035
   15CHTO   O16 6264   6.338   4.403   1.004
   15CHTO   C24 6265   6.364   4.408   1.161
   15CHTO   H52 6266   6.345   4.312   1.208
   15CHTO   C26 6267   6.272   4.515   1.223
   15CHTO   H54 6268   6.281   4.609   1.163
   15CHTO   O20 6269   6.136   4.468   1.210
   15CHTO   H36 6270   6.076   4.536   1.236
   15CHTO   C30 6271   6.309   4.547   1.371
   15CHTO   H58 6272   6.285   4.461   1.435
   15CHTO    N6 6273   6.229   4.661   1.425
   15CHTO   H45 6274   6.249   4.751   1.367
   15CHTO   H46 6275   6.256   4.680   1.528
   15CHTO   C33 6276   6.463   4.571   1.384
   15CHTO   H61 6277   6.491   4.662   1.329
   15CHTO   O18 6278   6.531   4.459   1.326
   15CHTO   C28 6279   6.513   4.443   1.186
   15CHTO   H56 6280   6.537   4.536   1.133
   15CHTO   C35 6281   6.609   4.333   1.136
   15CHTO   O24 6282   6.590   4.206   1.199
   15CHTO   H39 6283   6.651   4.144   1.165
   15CHTO    O9 6284   6.505   4.593   1.521
   15CHTO   C13 6285   6.644   4.685   1.542
   15CHTO   H26 6286   6.612   4.791   1.546
   15CHTO   C11 6287   6.754   4.660   1.430
   15CHTO   H24 6288   6.713   4.697   1.334
   15CHTO    O8 6289   6.783   4.520   1.414
   15CHTO    H3 6290   6.707   4.474   1.385
   15CHTO    C9 6291   6.878   4.745   1.466
   15CHTO   H22 6292   6.841   4.848   1.481
   15CHTO    N2 6293   6.978   4.756   1.357
   15CHTO   H10 6294   6.932   4.794   1.268
   15CHTO   H11 6295   7.059   4.821   1.388
   15CHTO    C7 6296   6.937   4.693   1.602
   15CHTO   H20 6297   7.018   4.765   1.625
   15CHTO    O4 6298   6.840   4.697   1.708
   15CHTO   C14 6299   6.703   4.655   1.687
   15CHTO   H27 6300   6.642   4.714   1.760
   15CHTO   C18 6301   6.688   4.506   1.727
   15CHTO   O13 6302   6.715   4.485   1.867
   15CHTO    H7 6303   6.647   4.524   1.918
   15CHTO    O2 6304   7.000   4.540   1.590
   15CHTO    C1 6305   7.079   4.491   1.699
   15CHTO   H14 6306   7.019   4.497   1.793
   15CHTO    C2 6307   7.217   4.568   1.722
   15CHTO   H15 6308   7.262   4.578   1.622
   15CHTO    O6 6309   7.190   4.698   1.776
   15CHTO    H1 6310   7.269   4.749   1.779
   15CHTO    C3 6311   7.317   4.488   1.820
   15CHTO   H16 6312   7.278   4.495   1.923
   15CHTO    N1 6313   7.455   4.548   1.823
   15CHTO    H8 6314   7.529   4.477   1.788
   15CHTO    H9 6315   7.460   4.637   1.762
   15CHTO    C4 6316   7.318   4.335   1.785
   15CHTO   H17 6317   7.367   4.321   1.688
   15CHTO    O1 6318   7.184   4.283   1.780
   15CHTO    C5 6319   7.105   4.339   1.674
   15CHTO   H18 6320   7.158   4.329   1.579
   15CHTO   C16 6321   6.976   4.253   1.668
   15CHTO   O11 6322   6.902   4.274   1.547
   15CHTO    H5 6323   6.949   4.237   1.475
   15CHTO    O3 6324   7.384   4.257   1.887
   15CHTO    C6 6325   7.442   4.131   1.840
   15CHTO   H19 6326   7.401   4.099   1.744
   15CHTO    C8 6327   7.596   4.144   1.825
   15CHTO   H21 6328   7.638   4.178   1.920
   15CHTO    O7 6329   7.620   4.243   1.724
   15CHTO    H2 6330   7.712   4.260   1.716
   15CHTO   C12 6331   7.660   4.004   1.787
   15CHTO   H25 6332   7.622   3.979   1.685
   15CHTO    N3 6333   7.809   4.012   1.777
   15CHTO   H12 6334   7.837   4.083   1.700
   15CHTO   H13 6335   7.850   3.915   1.753
   15CHTO   C15 6336   7.610   3.894   1.888
   15CHTO   H28 6337   7.654   3.907   1.987
   15CHTO   O10 6338   7.640   3.750   1.837
   15CHTO    H4 6339   7.605   3.738   1.751
   15CHTO    O5 6340   7.467   3.893   1.898
   15CHTO   C10 6341   7.410   4.017   1.942
   15CHTO   H23 6342   7.453   4.043   2.039
   15CHTO   C17 6343   7.259   3.998   1.964
   15CHTO   O12 6344   7.189   3.959   1.845
   15CHTO    H6 6345   7.190   4.030   1.784
   16CHTO  H203 6346   5.414   4.605   1.044
   16CHTO   O82 6347   5.469   4.551   0.991
   16CHTO  C123 6348   5.534   4.451   1.071
   16CHTO  H227 6349   5.457   4.389   1.120
   16CHTO   O77 6350   5.608   4.372   0.974
   16CHTO  C118 6351   5.663   4.251   1.028
   16CHTO  H222 6352   5.582   4.187   1.068
   16CHTO  C125 6353   5.735   4.175   0.911
   16CHTO   O84 6354   5.643   4.137   0.808
   16CHTO  H205 6355   5.690   4.095   0.738
   16CHTO  C114 6356   5.765   4.282   1.140
   16CHTO  H218 6357   5.855   4.324   1.095
   16CHTO  C116 6358   5.712   4.387   1.244
   16CHTO  H220 6359   5.644   4.336   1.316
   16CHTO   O79 6360   5.825   4.434   1.320
   16CHTO  H201 6361   5.858   4.366   1.375
   16CHTO  C120 6362   5.636   4.508   1.176
   16CHTO  H224 6363   5.713   4.570   1.124
   16CHTO   N21 6364   5.571   4.597   1.277
   16CHTO  H211 6365   5.471   4.562   1.300
   16CHTO  H212 6366   5.631   4.603   1.367
   16CHTO   O75 6367   5.793   4.155   1.202
   16CHTO  C112 6368   5.945   4.094   1.181
   16CHTO  H216 6369   6.009   4.171   1.135
   16CHTO   O73 6370   5.932   3.979   1.097
   16CHTO  C113 6371   6.059   3.921   1.061
   16CHTO  H217 6372   6.122   4.000   1.017
   16CHTO  C124 6373   6.037   3.813   0.954
   16CHTO   O83 6374   5.984   3.866   0.832
   16CHTO  H204 6375   6.048   3.919   0.790
   16CHTO  C109 6376   6.129   3.864   1.186
   16CHTO  H213 6377   6.068   3.780   1.222
   16CHTO  C110 6378   6.141   3.974   1.296
   16CHTO  H214 6379   6.219   4.044   1.266
   16CHTO   O78 6380   6.188   3.911   1.417
   16CHTO  H200 6381   6.125   3.849   1.449
   16CHTO  C111 6382   6.007   4.050   1.319
   16CHTO  H215 6383   5.936   3.981   1.368
   16CHTO   N19 6384   6.023   4.167   1.409
   16CHTO  H207 6385   6.060   4.134   1.505
   16CHTO  H208 6386   5.928   4.216   1.422
   16CHTO   O74 6387   6.262   3.815   1.151
   16CHTO  C115 6388   6.294   3.674   1.211
   16CHTO  H219 6389   6.242   3.657   1.305
   16CHTO   O76 6390   6.243   3.558   1.116
   16CHTO  C122 6391   6.319   3.552   0.995
   16CHTO  H226 6392   6.311   3.649   0.946
   16CHTO  C126 6393   6.250   3.449   0.900
   16CHTO   O85 6394   6.313   3.447   0.772
   16CHTO  H206 6395   6.271   3.384   0.717
   16CHTO  C121 6396   6.471   3.516   1.024
   16CHTO  H225 6397   6.490   3.411   0.992
   16CHTO   O81 6398   6.555   3.602   0.945
   16CHTO  H202 6399   6.644   3.574   0.950
   16CHTO  C119 6400   6.506   3.529   1.176
   16CHTO  H223 6401   6.450   3.450   1.225
   16CHTO  C117 6402   6.452   3.666   1.234
   16CHTO  H221 6403   6.493   3.755   1.186
   16CHTO   N20 6404   6.484   3.681   1.379
   16CHTO  H209 6405   6.439   3.601   1.436
   16CHTO  H210 6406   6.592   3.681   1.393
   16CHTO   O80 6407   6.656   3.487   1.208
   16CHTO  C103 6408   6.695   3.336   1.201
   16CHTO  H190 6409   6.607   3.275   1.179
   16CHTO  C101 6410   6.809   3.295   1.100
   16CHTO  H188 6411   6.897   3.357   1.119
   16CHTO   O68 6412   6.759   3.325   0.953
   16CHTO  H168 6413   6.685   3.271   0.933
   16CHTO   C99 6414   6.849   3.140   1.119
   16CHTO  H186 6415   6.760   3.079   1.095
   16CHTO   N17 6416   6.960   3.094   1.030
   16CHTO  H174 6417   6.974   2.987   1.041
   16CHTO  H175 6418   6.938   3.120   0.927
   16CHTO   C97 6419   6.879   3.111   1.270
   16CHTO  H184 6420   6.972   3.164   1.297
   16CHTO   O64 6421   6.767   3.156   1.348
   16CHTO  C104 6422   6.743   3.297   1.346
   16CHTO  H191 6423   6.832   3.354   1.371
   16CHTO  C108 6424   6.639   3.330   1.454
   16CHTO   O71 6425   6.688   3.298   1.584
   16CHTO  H171 6426   6.623   3.318   1.648
   16CHTO   O62 6427   6.896   2.969   1.295
   16CHTO   C91 6428   6.889   2.922   1.432
   16CHTO  H178 6429   6.857   3.004   1.497
   16CHTO   C92 6430   7.028   2.879   1.488
   16CHTO  H179 6431   7.068   2.797   1.426
   16CHTO   O66 6432   7.120   2.988   1.472
   16CHTO  H166 6433   7.093   3.062   1.523
   16CHTO   C93 6434   7.016   2.835   1.640
   16CHTO  H180 6435   6.999   2.927   1.698
   16CHTO   N16 6436   7.141   2.777   1.695
   16CHTO  H172 6437   7.221   2.850   1.690
   16CHTO  H173 6438   7.168   2.688   1.640
   16CHTO   C94 6439   6.894   2.737   1.664
   16CHTO  H181 6440   6.914   2.637   1.625
   16CHTO   O61 6441   6.777   2.783   1.596
   16CHTO   C95 6442   6.791   2.803   1.455
   16CHTO  H182 6443   6.831   2.712   1.410
   16CHTO  C106 6444   6.650   2.828   1.393
   16CHTO   O69 6445   6.567   2.713   1.410
   16CHTO  H169 6446   6.482   2.729   1.373
   16CHTO   O63 6447   6.859   2.730   1.828
   16CHTO   C96 6448   6.704   2.689   1.868
   16CHTO  H183 6449   6.706   2.660   1.973
   16CHTO   C98 6450   6.642   2.571   1.789
   16CHTO  H185 6451   6.655   2.586   1.681
   16CHTO   O67 6452   6.719   2.454   1.820
   16CHTO  H167 6453   6.690   2.381   1.769
   16CHTO  C102 6454   6.486   2.549   1.824
   16CHTO  H189 6455   6.483   2.521   1.930
   16CHTO   N18 6456   6.420   2.438   1.750
   16CHTO  H176 6457   6.490   2.388   1.685
   16CHTO  H177 6458   6.336   2.474   1.693
   16CHTO  C105 6459   6.415   2.686   1.807
   16CHTO  H192 6460   6.425   2.718   1.703
   16CHTO   O65 6461   6.474   2.787   1.891
   16CHTO  C100 6462   6.611   2.817   1.858
   16CHTO  H187 6463   6.613   2.855   1.755
   16CHTO  C107 6464   6.660   2.932   1.949
   16CHTO   O70 6465   6.658   2.897   2.088
   16CHTO  H170 6466   6.724   2.833   2.106
   16CHTO   O57 6467   6.255   2.669   1.846
   16CHTO   C85 6468   6.163   2.734   1.758
   16CHTO  H157 6469   6.212   2.737   1.658
   16CHTO   C83 6470   6.143   2.883   1.799
   16CHTO  H155 6471   6.241   2.930   1.803
   16CHTO   O56 6472   6.088   2.889   1.933
   16CHTO  H135 6473   6.083   2.978   1.961
   16CHTO   C81 6474   6.058   2.953   1.690
   16CHTO  H153 6475   6.111   2.944   1.595
   16CHTO   N14 6476   6.047   3.099   1.712
   16CHTO  H141 6477   5.996   3.145   1.630
   16CHTO  H142 6478   6.145   3.142   1.720
   16CHTO   C79 6479   5.917   2.882   1.674
   16CHTO  H151 6480   5.874   2.919   1.581
   16CHTO   O52 6481   5.930   2.736   1.657
   16CHTO   C86 6482   6.020   2.668   1.750
   16CHTO  H158 6483   5.968   2.669   1.848
   16CHTO   C90 6484   6.034   2.519   1.711
   16CHTO   O60 6485   5.908   2.451   1.713
   16CHTO  H138 6486   5.921   2.361   1.690
   16CHTO   O50 6487   5.825   2.912   1.780
   16CHTO   C73 6488   5.682   2.901   1.794
   16CHTO  H145 6489   5.656   2.798   1.820
   16CHTO   C74 6490   5.609   2.940   1.662
   16CHTO  H146 6491   5.649   2.876   1.581
   16CHTO   O54 6492   5.470   2.906   1.674
   16CHTO  H133 6493   5.460   2.813   1.679
   16CHTO   C75 6494   5.632   3.094   1.631
   16CHTO  H147 6495   5.740   3.111   1.620
   16CHTO   N13 6496   5.572   3.142   1.504
   16CHTO  H139 6497   5.498   3.219   1.523
   16CHTO  H140 6498   5.524   3.061   1.451
   16CHTO   C76 6499   5.584   3.178   1.759
   16CHTO  H148 6500   5.477   3.161   1.771
   16CHTO   O49 6501   5.655   3.133   1.878
   16CHTO   C77 6502   5.634   2.994   1.910
   16CHTO  H149 6503   5.529   2.976   1.929
   16CHTO   C88 6504   5.708   2.966   2.042
   16CHTO   O58 6505   5.676   2.836   2.092
   16CHTO  H136 6506   5.723   2.821   2.172
   16CHTO   O51 6507   5.620   3.331   1.745
   16CHTO   C78 6508   5.540   3.418   1.848
   16CHTO  H150 6509   5.492   3.353   1.925
   16CHTO   C80 6510   5.431   3.499   1.776
   16CHTO  H152 6511   5.479   3.560   1.696
   16CHTO   O55 6512   5.341   3.405   1.713
   16CHTO  H134 6513   5.383   3.362   1.641
   16CHTO   C84 6514   5.354   3.594   1.876
   16CHTO  H156 6515   5.299   3.531   1.945
   16CHTO   N15 6516   5.252   3.682   1.807
   16CHTO  H143 6517   5.300   3.744   1.734
   16CHTO  H144 6518   5.178   3.622   1.759
   16CHTO   C87 6519   5.455   3.679   1.958
   16CHTO  H159 6520   5.502   3.754   1.895
   16CHTO   O53 6521   5.563   3.584   2.020
   16CHTO   C82 6522   5.637   3.511   1.922
   16CHTO  H154 6523   5.688   3.579   1.854
   16CHTO   C89 6524   5.748   3.433   1.998
   16CHTO   O59 6525   5.847   3.379   1.910
   16CHTO  H137 6526   5.810   3.311   1.857
   16CHTO   O45 6527   5.378   3.754   2.083
   16CHTO   C67 6528   5.467   3.832   2.165
   16CHTO  H124 6529   5.570   3.815   2.133
   16CHTO   C65 6530   5.436   3.985   2.150
   16CHTO  H122 6531   5.329   3.993   2.130
   16CHTO   O44 6532   5.508   4.031   2.034
   16CHTO  H102 6533   5.474   3.991   1.956
   16CHTO   C63 6534   5.457   4.065   2.285
   16CHTO  H120 6535   5.371   4.046   2.350
   16CHTO   N11 6536   5.453   4.214   2.276
   16CHTO  H108 6537   5.538   4.250   2.222
   16CHTO  H109 6538   5.364   4.245   2.226
   16CHTO   C61 6539   5.582   4.006   2.361
   16CHTO  H118 6540   5.590   4.059   2.457
   16CHTO   O40 6541   5.563   3.864   2.393
   16CHTO   C68 6542   5.462   3.789   2.318
   16CHTO  H125 6543   5.362   3.811   2.360
   16CHTO   C72 6544   5.490   3.639   2.342
   16CHTO   O48 6545   5.389   3.553   2.289
   16CHTO  H105 6546   5.389   3.557   2.195
   16CHTO   O38 6547   5.704   4.024   2.286
   16CHTO   C55 6548   5.828   3.975   2.341
   16CHTO  H112 6549   5.808   3.895   2.414
   16CHTO   C56 6550   5.912   4.094   2.407
   16CHTO  H113 6551   5.908   4.179   2.337
   16CHTO   O42 6552   5.843   4.138   2.526
   16CHTO  H100 6553   5.886   4.213   2.562
   16CHTO   C57 6554   6.062   4.053   2.437
   16CHTO  H114 6555   6.060   3.982   2.519
   16CHTO   N10 6556   6.147   4.167   2.480
   16CHTO  H106 6557   6.114   4.259   2.433
   16CHTO  H107 6558   6.251   4.150   2.455
   16CHTO   C58 6559   6.122   3.984   2.312
   16CHTO  H115 6560   6.124   4.056   2.227
   16CHTO   O37 6561   6.040   3.871   2.276
   16CHTO   C59 6562   5.910   3.907   2.228
   16CHTO  H116 6563   5.919   3.972   2.141
   16CHTO   C70 6564   5.842   3.777   2.183
   16CHTO   O46 6565   5.915   3.707   2.082
   16CHTO  H103 6566   5.869   3.629   2.058
   16CHTO   O39 6567   6.272   3.923   2.338
   16CHTO   C60 6568   6.346   3.896   2.218
   16CHTO  H117 6569   6.283   3.914   2.130
   16CHTO   C62 6570   6.469   3.991   2.206
   16CHTO  H119 6571   6.429   4.094   2.201
   16CHTO   O43 6572   6.549   3.979   2.326
   16CHTO  H101 6573   6.621   4.040   2.323
   16CHTO   C66 6574   6.551   3.958   2.071
   16CHTO  H123 6575   6.484   3.972   1.986
   16CHTO   N12 6576   6.665   4.051   2.049
   16CHTO  H110 6577   6.628   4.153   2.040
   16CHTO  H111 6578   6.736   4.043   2.129
   16CHTO   C69 6579   6.596   3.810   2.072
   16CHTO  H126 6580   6.664   3.791   2.158
   16CHTO   O41 6581   6.471   3.723   2.086
   16CHTO   C64 6582   6.391   3.747   2.212
   16CHTO  H121 6583   6.453   3.724   2.301
   16CHTO   C71 6584   6.270   3.652   2.211
   16CHTO   O47 6585   6.312   3.515   2.206
   16CHTO  H104 6586   6.236   3.459   2.203
   16CHTO   O34 6587   6.673   3.768   1.937
   16CHTO   C49 6588   6.782   3.662   1.893
   16CHTO   H91 6589   6.837   3.708   1.811
   16CHTO   C47 6590   6.714   3.532   1.845
   16CHTO   H89 6591   6.795   3.469   1.801
   16CHTO   O33 6592   6.620   3.566   1.741
   16CHTO   H70 6593   6.666   3.597   1.665
   16CHTO   C45 6594   6.646   3.456   1.969
   16CHTO   H87 6595   6.570   3.522   2.012
   16CHTO    N8 6596   6.577   3.331   1.927
   16CHTO   H75 6597   6.650   3.258   1.893
   16CHTO   H76 6598   6.521   3.290   2.010
   16CHTO   C43 6599   6.752   3.433   2.088
   16CHTO   H85 6600   6.693   3.399   2.174
   16CHTO   O29 6601   6.824   3.554   2.118
   16CHTO   C50 6602   6.880   3.631   2.010
   16CHTO   H92 6603   6.911   3.728   2.053
   16CHTO   C54 6604   7.015   3.570   1.962
   16CHTO   O36 6605   7.083   3.654   1.868
   16CHTO   H72 6606   7.163   3.614   1.842
   16CHTO   O27 6607   6.845   3.326   2.062
   16CHTO   C37 6608   6.945   3.254   2.138
   16CHTO   H79 6609   7.037   3.315   2.146
   16CHTO   C38 6610   6.895   3.226   2.283
   16CHTO   H80 6611   6.795   3.179   2.277
   16CHTO   O31 6612   6.883   3.353   2.350
   16CHTO   H68 6613   6.844   3.341   2.435
   16CHTO   C39 6614   6.993   3.130   2.361
   16CHTO   H81 6615   7.086   3.185   2.376
   16CHTO    N7 6616   6.943   3.091   2.498
   16CHTO   H73 6617   7.012   3.124   2.574
   16CHTO   H74 6618   6.845   3.132   2.516
   16CHTO   C40 6619   7.028   3.003   2.274
   16CHTO   H82 6620   6.940   2.939   2.266
   16CHTO   O26 6621   7.076   3.045   2.145
   16CHTO   C41 6622   6.979   3.120   2.067
   16CHTO   H83 6623   6.888   3.060   2.055
   16CHTO   C52 6624   7.041   3.141   1.926
   16CHTO   O35 6625   6.945   3.196   1.828
   16CHTO   H71 6626   6.988   3.207   1.745
   16CHTO   O28 6627   7.136   2.928   2.334
   16CHTO   C42 6628   7.168   2.789   2.300
   16CHTO   H84 6629   7.242   2.761   2.376
   16CHTO   C44 6630   7.237   2.765   2.162
   16CHTO   H86 6631   7.168   2.796   2.083
   16CHTO   O32 6632   7.353   2.850   2.159
   16CHTO   H69 6633   7.395   2.844   2.075
   16CHTO   C48 6634   7.273   2.612   2.139
   16CHTO   H90 6635   7.348   2.583   2.213
   16CHTO    N9 6636   7.336   2.587   2.005
   16CHTO   H77 6637   7.362   2.483   1.995
   16CHTO   H78 6638   7.268   2.617   1.926
   16CHTO   C51 6639   7.144   2.524   2.162
   16CHTO   H93 6640   7.070   2.556   2.087
   16CHTO   O30 6641   7.097   2.547   2.296
   16CHTO   C46 6642   7.048   2.690   2.317
   16CHTO   H88 6643   6.973   2.712   2.242
   16CHTO   C53 6644   6.983   2.699   2.458
   16CHTO   O72 6645   7.074   2.665   2.563
   16CHTO  H199 6646   7.140   2.732   2.571
   16CHTO   O22 6647   7.169   2.382   2.151
   16CHTO   C31 6648   7.063   2.281   2.172
   16CHTO   H59 6649   7.003   2.317   2.259
   16CHTO   C29 6650   6.965   2.265   2.054
   16CHTO   H57 6651   7.025   2.236   1.966
   16CHTO   O21 6652   6.906   2.393   2.024
   16CHTO   H37 6653   6.858   2.389   1.944
   16CHTO   C27 6654   6.854   2.154   2.080
   16CHTO   H55 6655   6.785   2.192   2.157
   16CHTO    N5 6656   6.774   2.124   1.958
   16CHTO   H43 6657   6.695   2.055   1.982
   16CHTO   H44 6658   6.838   2.082   1.881
   16CHTO   C25 6659   6.920   2.025   2.139
   16CHTO   H53 6660   6.980   1.976   2.062
   16CHTO   O17 6661   7.008   2.057   2.250
   16CHTO   C32 6662   7.118   2.141   2.212
   16CHTO   H60 6663   7.170   2.098   2.127
   16CHTO   C36 6664   7.215   2.146   2.332
   16CHTO   O25 6665   7.340   2.206   2.296
   16CHTO   H40 6666   7.398   2.205   2.370
   16CHTO   O15 6667   6.812   1.922   2.190
   16CHTO   C19 6668   6.700   1.910   2.282
   16CHTO   H47 6669   6.706   1.806   2.317
   16CHTO   C20 6670   6.707   2.004   2.407
   16CHTO   H48 6671   6.710   2.110   2.377
   16CHTO   O19 6672   6.830   1.974   2.476
   16CHTO   H35 6673   6.903   2.002   2.425
   16CHTO   C21 6674   6.583   1.983   2.502
   16CHTO   H49 6675   6.589   1.883   2.545
   16CHTO    N4 6676   6.580   2.078   2.617
   16CHTO   H41 6677   6.495   2.058   2.679
   16CHTO   H42 6678   6.670   2.067   2.676
   16CHTO   C22 6679   6.452   1.989   2.419
   16CHTO   H50 6680   6.439   2.091   2.382
   16CHTO   O14 6681   6.457   1.898   2.308
   16CHTO   C23 6682   6.561   1.923   2.213
   16CHTO   H51 6683   6.546   2.024   2.171
   16CHTO   C34 6684   6.548   1.822   2.098
   16CHTO   O23 6685   6.425   1.838   2.028
   16CHTO   H38 6686   6.426   1.918   1.979
   16CHTO   O16 6687   6.338   1.946   2.495
   16CHTO   C24 6688   6.203   2.012   2.444
   16CHTO   H52 6689   6.213   2.057   2.345
   16CHTO   C26 6690   6.158   2.121   2.545
   16CHTO   H54 6691   6.150   2.074   2.646
   16CHTO   O20 6692   6.261   2.221   2.552
   16CHTO   H36 6693   6.270   2.265   2.470
   16CHTO   C30 6694   6.019   2.179   2.505
   16CHTO   H58 6695   6.027   2.232   2.409
   16CHTO    N6 6696   5.972   2.280   2.604
   16CHTO   H45 6697   5.959   2.234   2.701
   16CHTO   H46 6698   5.877   2.321   2.573
   16CHTO   C33 6699   5.918   2.062   2.484
   16CHTO   H61 6700   5.901   2.011   2.580
   16CHTO   O18 6701   5.972   1.967   2.391
   16CHTO   C28 6702   6.093   1.903   2.432
   16CHTO   H56 6703   6.081   1.855   2.529
   16CHTO   C35 6704   6.133   1.797   2.327
   16CHTO   O24 6705   6.037   1.691   2.316
   16CHTO   H39 6706   6.037   1.639   2.394
   16CHTO    O9 6707   5.788   2.109   2.442
   16CHTO   C13 6708   5.668   2.088   2.551
   16CHTO   H26 6709   5.699   2.139   2.645
   16CHTO   C11 6710   5.641   1.933   2.573
   16CHTO   H24 6711   5.723   1.893   2.635
   16CHTO    O8 6712   5.641   1.863   2.447
   16CHTO    H3 6713   5.726   1.867   2.408
   16CHTO    C9 6714   5.507   1.919   2.650
   16CHTO   H22 6715   5.517   1.985   2.738
   16CHTO    N2 6716   5.485   1.785   2.708
   16CHTO   H10 6717   5.570   1.756   2.769
   16CHTO   H11 6718   5.395   1.784   2.767
   16CHTO    C7 6719   5.389   1.975   2.560
   16CHTO   H20 6720   5.324   2.028   2.633
   16CHTO    O4 6721   5.434   2.069   2.460
   16CHTO   C14 6722   5.534   2.163   2.505
   16CHTO   H27 6723   5.492   2.218   2.592
   16CHTO   C18 6724   5.556   2.267   2.392
   16CHTO   O13 6725   5.642   2.373   2.435
   16CHTO    H7 6726   5.598   2.425   2.500
   16CHTO    O2 6727   5.299   1.852   2.482
   16CHTO    C1 6728   5.183   1.886   2.403
   16CHTO   H14 6729   5.121   1.795   2.395
   16CHTO    C2 6730   5.217   1.938   2.257
   16CHTO   H15 6731   5.284   2.024   2.268
   16CHTO    O6 6732   5.285   1.832   2.187
   16CHTO    H1 6733   5.370   1.818   2.224
   16CHTO    C3 6734   5.083   1.982   2.180
   16CHTO   H16 6735   5.018   1.894   2.167
   16CHTO    N1 6736   5.110   2.037   2.043
   16CHTO    H8 6737   5.216   2.036   2.021
   16CHTO    H9 6738   5.072   2.138   2.033
   16CHTO    C4 6739   5.002   2.081   2.272
   16CHTO   H17 6740   5.061   2.172   2.285
   16CHTO    O1 6741   4.976   2.020   2.399
   16CHTO    C5 6742   5.093   1.990   2.477
   16CHTO   H18 6743   5.151   2.082   2.492
   16CHTO   C16 6744   5.046   1.938   2.615
   16CHTO   O11 6745   4.977   2.039   2.689
   16CHTO    H5 6746   5.037   2.107   2.714
   16CHTO    O3 6747   4.871   2.112   2.220
   16CHTO    C6 6748   4.820   2.243   2.264
   16CHTO   H19 6749   4.885   2.292   2.337
   16CHTO    C8 6750   4.807   2.340   2.142
   16CHTO   H21 6751   4.739   2.295   2.069
   16CHTO    O7 6752   4.938   2.354   2.083
   16CHTO    H2 6753   4.964   2.274   2.042
   16CHTO   C12 6754   4.748   2.479   2.190
   16CHTO   H25 6755   4.824   2.522   2.260
   16CHTO    N3 6756   4.732   2.575   2.077
   16CHTO   H12 6757   4.828   2.593   2.030
   16CHTO   H13 6758   4.691   2.668   2.114
   16CHTO   C15 6759   4.615   2.454   2.270
   16CHTO   H28 6760   4.534   2.422   2.204
   16CHTO   O10 6761   4.570   2.578   2.350
   16CHTO    H4 6762   4.549   2.648   2.291
   16CHTO    O5 6763   4.634   2.358   2.375
   16CHTO   C10 6764   4.680   2.229   2.331
   16CHTO   H23 6765   4.609   2.189   2.259
   16CHTO   C17 6766   4.683   2.135   2.452
   16CHTO   O12 6767   4.553   2.114   2.506
   16CHTO    H6 6768   4.558   2.056   2.580
   17CHTO  H203 6769   4.863   4.510   1.294
   17CHTO   O82 6770   4.875   4.594   1.334
   17CHTO  C123 6771   4.752   4.668   1.330
   17CHTO  H227 6772   4.674   4.610   1.382
   17CHTO   O77 6773   4.784   4.788   1.406
   17CHTO  C118 6774   4.679   4.886   1.415
   17CHTO  H222 6775   4.590   4.841   1.460
   17CHTO  C125 6776   4.729   5.005   1.505
   17CHTO   O84 6777   4.745   4.964   1.642
   17CHTO  H205 6778   4.661   4.945   1.679
   17CHTO  C114 6779   4.646   4.935   1.273
   17CHTO  H218 6780   4.737   4.974   1.228
   17CHTO  C116 6781   4.599   4.817   1.184
   17CHTO  H220 6782   4.503   4.776   1.224
   17CHTO   O79 6783   4.571   4.868   1.052
   17CHTO  H201 6784   4.536   4.799   0.998
   17CHTO  C120 6785   4.709   4.703   1.182
   17CHTO  H224 6786   4.796   4.744   1.126
   17CHTO   N21 6787   4.663   4.583   1.107
   17CHTO  H211 6788   4.557   4.569   1.116
   17CHTO  H212 6789   4.716   4.494   1.140
   17CHTO   O75 6790   4.546   5.038   1.290
   17CHTO  C112 6791   4.551   5.168   1.178
   17CHTO  H216 6792   4.470   5.154   1.105
   17CHTO   O73 6793   4.681   5.167   1.115
   17CHTO  C113 6794   4.708   5.277   1.028
   17CHTO  H217 6795   4.631   5.281   0.949
   17CHTO  C124 6796   4.842   5.250   0.958
   17CHTO   O83 6797   4.953   5.232   1.047
   17CHTO  H204 6798   4.971   5.312   1.092
   17CHTO  C109 6799   4.707   5.409   1.109
   17CHTO  H213 6800   4.784   5.400   1.187
   17CHTO  C110 6801   4.566   5.427   1.174
   17CHTO  H214 6802   4.493   5.441   1.094
   17CHTO   O78 6803   4.568   5.547   1.253
   17CHTO  H200 6804   4.483   5.565   1.287
   17CHTO  C111 6805   4.529   5.302   1.259
   17CHTO  H215 6806   4.596   5.298   1.346
   17CHTO   N19 6807   4.390   5.307   1.313
   17CHTO  H207 6808   4.371   5.220   1.374
   17CHTO  H208 6809   4.319   5.310   1.231
   17CHTO   O74 6810   4.739   5.522   1.022
   17CHTO  C115 6811   4.861   5.613   1.082
   17CHTO  H219 6812   4.840   5.647   1.184
   17CHTO   O76 6813   4.995   5.531   1.091
   17CHTO  C122 6814   5.116   5.601   1.125
   17CHTO  H226 6815   5.198   5.536   1.095
   17CHTO  C126 6816   5.130   5.617   1.281
   17CHTO   O85 6817   5.028   5.695   1.344
   17CHTO  H206 6818   5.034   5.784   1.316
   17CHTO  C121 6819   5.134   5.737   1.047
   17CHTO  H225 6820   5.213   5.796   1.099
   17CHTO   O81 6821   5.184   5.709   0.916
   17CHTO  H202 6822   5.121   5.660   0.866
   17CHTO  C119 6823   5.004   5.823   1.040
   17CHTO  H223 6824   4.985   5.857   1.141
   17CHTO  C117 6825   4.879   5.741   0.992
   17CHTO  H221 6826   4.884   5.702   0.890
   17CHTO   N20 6827   4.754   5.824   0.995
   17CHTO  H209 6828   4.670   5.766   0.959
   17CHTO  H210 6829   4.766   5.912   0.934
   17CHTO   O80 6830   5.028   5.960   0.963
   17CHTO  C103 6831   5.037   6.092   1.042
   17CHTO  H190 6832   4.962   6.097   1.120
   17CHTO  C101 6833   5.179   6.123   1.105
   17CHTO  H188 6834   5.256   6.094   1.034
   17CHTO   O68 6835   5.196   6.036   1.234
   17CHTO  H168 6836   5.196   5.945   1.211
   17CHTO   C99 6837   5.197   6.280   1.136
   17CHTO  H186 6838   5.124   6.310   1.214
   17CHTO   N17 6839   5.333   6.317   1.186
   17CHTO  H174 6840   5.336   6.422   1.212
   17CHTO  H175 6841   5.408   6.293   1.112
   17CHTO   C97 6842   5.158   6.360   1.009
   17CHTO  H184 6843   5.224   6.328   0.926
   17CHTO   O64 6844   5.020   6.332   0.979
   17CHTO  C104 6845   4.998   6.199   0.932
   17CHTO  H191 6846   5.056   6.180   0.841
   17CHTO  C108 6847   4.851   6.184   0.893
   17CHTO   O71 6848   4.814   6.272   0.787
   17CHTO  H171 6849   4.855   6.246   0.707
   17CHTO   O62 6850   5.162   6.503   1.022
   17CHTO   C91 6851   5.161   6.575   0.897
   17CHTO  H178 6852   5.124   6.508   0.819
   17CHTO   C92 6853   5.308   6.611   0.855
   17CHTO  H179 6854   5.373   6.522   0.866
   17CHTO   O66 6855   5.309   6.641   0.715
   17CHTO  H166 6856   5.254   6.715   0.696
   17CHTO   C93 6857   5.366   6.736   0.932
   17CHTO  H180 6858   5.446   6.778   0.870
   17CHTO   N16 6859   5.432   6.701   1.060
   17CHTO  H172 6860   5.472   6.789   1.107
   17CHTO  H173 6861   5.361   6.652   1.126
   17CHTO   C94 6862   5.254   6.846   0.952
   17CHTO  H181 6863   5.213   6.846   1.053
   17CHTO   O61 6864   5.142   6.824   0.865
   17CHTO   C95 6865   5.069   6.705   0.898
   17CHTO  H182 6866   5.026   6.717   0.998
   17CHTO  C106 6867   4.948   6.693   0.799
   17CHTO   O69 6868   4.863   6.583   0.833
   17CHTO  H169 6869   4.908   6.502   0.816
   17CHTO   O63 6870   5.315   6.987   0.918
   17CHTO   C96 6871   5.267   7.097   1.020
   17CHTO  H183 6872   5.250   7.049   1.116
   17CHTO   C98 6873   5.137   7.172   0.980
   17CHTO  H185 6874   5.148   7.216   0.880
   17CHTO   O67 6875   5.031   7.076   0.969
   17CHTO  H167 6876   5.046   7.018   0.897
   17CHTO  C102 6877   5.101   7.286   1.087
   17CHTO  H189 6878   5.075   7.233   1.180
   17CHTO   N18 6879   4.981   7.368   1.054
   17CHTO  H176 6880   4.995   7.417   0.958
   17CHTO  H177 6881   4.893   7.305   1.050
   17CHTO  C105 6882   5.226   7.374   1.115
   17CHTO  H192 6883   5.247   7.435   1.028
   17CHTO   O65 6884   5.343   7.295   1.144
   17CHTO  C100 6885   5.382   7.203   1.041
   17CHTO  H187 6886   5.399   7.258   0.948
   17CHTO  C107 6887   5.514   7.134   1.083
   17CHTO   O70 6888   5.619   7.230   1.102
   17CHTO  H170 6889   5.643   7.268   1.020
   17CHTO   O57 6890   5.193   7.467   1.244
   17CHTO   C85 6891   5.270   7.586   1.266
   17CHTO  H157 6892   5.299   7.624   1.165
   17CHTO   C83 6893   5.405   7.551   1.338
   17CHTO  H155 6894   5.463   7.486   1.272
   17CHTO   O56 6895   5.377   7.475   1.457
   17CHTO  H135 6896   5.338   7.392   1.435
   17CHTO   C81 6897   5.485   7.682   1.363
   17CHTO  H153 6898   5.501   7.730   1.266
   17CHTO   N14 6899   5.622   7.656   1.414
   17CHTO  H141 6900   5.696   7.686   1.342
   17CHTO  H142 6901   5.640   7.707   1.506
   17CHTO   C79 6902   5.401   7.780   1.453
   17CHTO  H151 6903   5.457   7.874   1.459
   17CHTO   O52 6904   5.274   7.812   1.388
   17CHTO   C86 6905   5.194   7.695   1.350
   17CHTO  H158 6906   5.159   7.652   1.446
   17CHTO   C90 6907   5.066   7.740   1.275
   17CHTO   O60 6908   4.981   7.819   1.358
   17CHTO  H138 6909   5.021   7.901   1.377
   17CHTO   O50 6910   5.379   7.733   1.587
   17CHTO   C73 6911   5.355   7.765   1.725
   17CHTO  H145 6912   5.353   7.874   1.740
   17CHTO   C74 6913   5.467   7.704   1.815
   17CHTO  H146 6914   5.562   7.749   1.783
   17CHTO   O54 6915   5.445   7.747   1.951
   17CHTO  H133 6916   5.459   7.839   1.959
   17CHTO   C75 6917   5.466   7.548   1.797
   17CHTO  H147 6918   5.493   7.525   1.692
   17CHTO   N13 6919   5.569   7.477   1.877
   17CHTO  H139 6920   5.635   7.420   1.814
   17CHTO  H140 6921   5.524   7.410   1.949
   17CHTO   C76 6922   5.318   7.488   1.819
   17CHTO  H148 6923   5.296   7.488   1.926
   17CHTO   O49 6924   5.214   7.564   1.748
   17CHTO   C77 6925   5.218   7.706   1.770
   17CHTO  H149 6926   5.204   7.727   1.876
   17CHTO   C88 6927   5.101   7.775   1.699
   17CHTO   O58 6928   4.975   7.727   1.747
   17CHTO  H136 6929   4.906   7.771   1.701
   17CHTO   O51 6930   5.312   7.347   1.755
   17CHTO   C78 6931   5.189   7.258   1.790
   17CHTO  H150 6932   5.105   7.319   1.830
   17CHTO   C80 6933   5.230   7.153   1.896
   17CHTO  H152 6934   5.333   7.119   1.873
   17CHTO   O55 6935   5.237   7.220   2.023
   17CHTO  H134 6936   5.151   7.248   2.050
   17CHTO   C84 6937   5.135   7.026   1.900
   17CHTO  H156 6938   5.039   7.057   1.941
   17CHTO   N15 6939   5.190   6.917   1.989
   17CHTO  H143 6940   5.120   6.895   2.067
   17CHTO  H144 6941   5.284   6.945   2.032
   17CHTO   C87 6942   5.114   6.977   1.755
   17CHTO  H159 6943   5.212   6.955   1.712
   17CHTO   O53 6944   5.048   7.090   1.679
   17CHTO   C82 6945   5.142   7.196   1.657
   17CHTO  H154 6946   5.228   7.159   1.600
   17CHTO   C89 6947   5.075   7.305   1.569
   17CHTO   O59 6948   5.040   7.255   1.440
   17CHTO  H137 6949   5.117   7.238   1.390
   17CHTO   O45 6950   5.024   6.840   1.736
   17CHTO   C67 6951   4.888   6.841   1.782
   17CHTO  H124 6952   4.880   6.897   1.875
   17CHTO   C65 6953   4.788   6.902   1.677
   17CHTO  H122 6954   4.848   6.934   1.592
   17CHTO   O44 6955   4.726   7.018   1.736
   17CHTO  H102 6956   4.666   6.992   1.803
   17CHTO   C63 6957   4.689   6.794   1.618
   17CHTO  H120 6958   4.747   6.718   1.567
   17CHTO   N11 6959   4.599   6.839   1.506
   17CHTO  H108 6960   4.602   6.945   1.496
   17CHTO  H109 6961   4.498   6.807   1.524
   17CHTO   C61 6962   4.616   6.720   1.738
   17CHTO  H118 6963   4.577   6.626   1.696
   17CHTO   O40 6964   4.705   6.683   1.848
   17CHTO   C68 6965   4.848   6.693   1.818
   17CHTO  H125 6966   4.870   6.627   1.732
   17CHTO   C72 6967   4.931   6.639   1.937
   17CHTO   O48 6968   4.919   6.498   1.955
   17CHTO  H105 6969   4.959   6.453   1.884
   17CHTO   O38 6970   4.508   6.800   1.792
   17CHTO   C55 6971   4.411   6.738   1.878
   17CHTO  H112 6972   4.461   6.667   1.946
   17CHTO   C56 6973   4.295   6.667   1.794
   17CHTO  H113 6974   4.262   6.739   1.718
   17CHTO   O42 6975   4.350   6.555   1.721
   17CHTO  H100 6976   4.284   6.517   1.666
   17CHTO   C57 6977   4.174   6.622   1.885
   17CHTO  H114 6978   4.210   6.540   1.948
   17CHTO   N10 6979   4.057   6.570   1.809
   17CHTO  H106 6980   4.091   6.521   1.718
   17CHTO  H107 6981   3.991   6.651   1.782
   17CHTO   C58 6982   4.133   6.739   1.978
   17CHTO  H115 6983   4.092   6.822   1.915
   17CHTO   O37 6984   4.246   6.787   2.052
   17CHTO   C59 6985   4.347   6.847   1.970
   17CHTO  H116 6986   4.304   6.928   1.910
   17CHTO   C70 6987   4.450   6.909   2.065
   17CHTO   O46 6988   4.549   6.991   2.000
   17CHTO  H103 6989   4.604   6.937   1.947
   17CHTO   O39 6990   4.021   6.694   2.088
   17CHTO   C60 6991   3.937   6.804   2.128
   17CHTO  H117 6992   3.994   6.896   2.122
   17CHTO   C62 6993   3.814   6.817   2.034
   17CHTO  H119 6994   3.855   6.830   1.931
   17CHTO   O43 6995   3.736   6.696   2.036
   17CHTO  H101 6996   3.785   6.625   2.000
   17CHTO   C66 6997   3.730   6.949   2.074
   17CHTO  H123 6998   3.797   7.035   2.070
   17CHTO   N12 6999   3.620   6.978   1.979
   17CHTO  H110 7000   3.616   6.905   1.899
   17CHTO  H111 7001   3.630   7.078   1.939
   17CHTO   C69 7002   3.680   6.936   2.220
   17CHTO  H126 7003   3.609   6.852   2.229
   17CHTO   O41 7004   3.804   6.910   2.315
   17CHTO   C64 7005   3.890   6.789   2.276
   17CHTO  H121 7006   3.832   6.696   2.288
   17CHTO   C71 7007   4.010   6.784   2.375
   17CHTO   O47 7008   4.086   6.664   2.362
   17CHTO  H104 7009   4.036   6.591   2.394
   17CHTO   O34 7010   3.608   7.070   2.268
   17CHTO   C49 7011   3.490   7.148   2.326
   17CHTO   H91 7012   3.531   7.242   2.365
   17CHTO   C47 7013   3.428   7.067   2.442
   17CHTO   H89 7014   3.354   7.136   2.488
   17CHTO   O33 7015   3.528   7.037   2.541
   17CHTO   H70 7016   3.559   7.116   2.581
   17CHTO   C45 7017   3.357   6.932   2.388
   17CHTO   H87 7018   3.433   6.852   2.385
   17CHTO    N8 7019   3.252   6.893   2.485
   17CHTO   H75 7020   3.173   6.966   2.486
   17CHTO   H76 7021   3.212   6.796   2.458
   17CHTO   C43 7022   3.309   6.951   2.235
   17CHTO   H85 7023   3.396   6.925   2.174
   17CHTO   O29 7024   3.268   7.087   2.213
   17CHTO   C50 7025   3.378   7.180   2.222
   17CHTO   H92 7026   3.425   7.184   2.122
   17CHTO   C54 7027   3.321   7.323   2.238
   17CHTO   O36 7028   3.247   7.338   2.360
   17CHTO   H72 7029   3.211   7.425   2.364
   17CHTO   O27 7030   3.208   6.857   2.192
   17CHTO   C37 7031   3.152   6.801   2.072
   17CHTO   H79 7032   3.042   6.802   2.078
   17CHTO   C38 7033   3.190   6.884   1.945
   17CHTO   H80 7034   3.299   6.896   1.942
   17CHTO   O31 7035   3.131   7.015   1.958
   17CHTO   H68 7036   3.037   7.009   1.959
   17CHTO   C39 7037   3.142   6.813   1.812
   17CHTO   H81 7038   3.033   6.819   1.810
   17CHTO    N7 7039   3.191   6.881   1.687
   17CHTO   H73 7040   3.299   6.880   1.685
   17CHTO   H74 7041   3.152   6.832   1.600
   17CHTO   C40 7042   3.180   6.660   1.811
   17CHTO   H82 7043   3.287   6.647   1.793
   17CHTO   O26 7044   3.140   6.597   1.934
   17CHTO   C41 7045   3.201   6.655   2.054
   17CHTO   H83 7046   3.310   6.654   2.043
   17CHTO   C52 7047   3.166   6.565   2.175
   17CHTO   O35 7048   3.019   6.552   2.197
   17CHTO   H71 7049   3.004   6.496   2.271
   17CHTO   O28 7050   3.106   6.588   1.710
   17CHTO   C42 7051   3.154   6.461   1.654
   17CHTO   H84 7052   3.068   6.425   1.597
   17CHTO   C44 7053   3.187   6.347   1.757
   17CHTO   H86 7054   3.263   6.385   1.826
   17CHTO   O32 7055   3.066   6.322   1.831
   17CHTO   H69 7056   3.082   6.260   1.899
   17CHTO   C48 7057   3.244   6.216   1.688
   17CHTO   H90 7058   3.165   6.172   1.627
   17CHTO    N9 7059   3.282   6.111   1.790
   17CHTO   H77 7060   3.196   6.084   1.848
   17CHTO   H78 7061   3.323   6.025   1.739
   17CHTO   C51 7062   3.364   6.256   1.595
   17CHTO   H93 7063   3.439   6.304   1.657
   17CHTO   O30 7064   3.314   6.345   1.494
   17CHTO   C46 7065   3.270   6.481   1.552
   17CHTO   H88 7066   3.356   6.526   1.603
   17CHTO   C53 7067   3.225   6.570   1.434
   17CHTO   O72 7068   3.333   6.596   1.343
   17CHTO  H199 7069   3.357   6.517   1.298
   17CHTO   O22 7070   3.420   6.145   1.523
   17CHTO   C31 7071   3.558   6.160   1.473
   17CHTO   H59 7072   3.575   6.270   1.460
   17CHTO   C29 7073   3.668   6.108   1.568
   17CHTO   H57 7074   3.664   5.998   1.569
   17CHTO   O21 7075   3.642   6.154   1.702
   17CHTO   H37 7076   3.563   6.115   1.735
   17CHTO   C27 7077   3.810   6.155   1.517
   17CHTO   H55 7078   3.815   6.264   1.526
   17CHTO    N5 7079   3.921   6.097   1.596
   17CHTO   H43 7080   3.907   6.118   1.701
   17CHTO   H44 7081   4.015   6.139   1.563
   17CHTO   C25 7082   3.828   6.122   1.364
   17CHTO   H53 7083   3.857   6.017   1.351
   17CHTO   O17 7084   3.709   6.143   1.282
   17CHTO   C32 7085   3.583   6.096   1.333
   17CHTO   H60 7086   3.584   5.988   1.343
   17CHTO   C36 7087   3.476   6.137   1.228
   17CHTO   O25 7088   3.349   6.077   1.253
   17CHTO   H40 7089   3.354   5.984   1.236
   17CHTO   O15 7090   3.945   6.218   1.302
   17CHTO   C19 7091   3.949   6.364   1.292
   17CHTO   H47 7092   4.007   6.381   1.199
   17CHTO   C20 7093   3.809   6.433   1.276
   17CHTO   H48 7094   3.739   6.402   1.355
   17CHTO   O19 7095   3.756   6.389   1.150
   17CHTO   H35 7096   3.667   6.418   1.140
   17CHTO   C21 7097   3.816   6.591   1.278
   17CHTO   H49 7098   3.862   6.625   1.185
   17CHTO    N4 7099   3.681   6.654   1.283
   17CHTO   H41 7100   3.630   6.625   1.374
   17CHTO   H42 7101   3.690   6.762   1.282
   17CHTO   C22 7102   3.909   6.640   1.393
   17CHTO   H50 7103   3.862   6.618   1.489
   17CHTO   O14 7104   4.037   6.574   1.385
   17CHTO   C23 7105   4.031   6.432   1.406
   17CHTO   H51 7106   3.985   6.415   1.505
   17CHTO   C34 7107   4.174   6.378   1.414
   17CHTO   O23 7108   4.251   6.403   1.296
   17CHTO   H38 7109   4.218   6.351   1.225
   17CHTO   O16 7110   3.935   6.781   1.380
   17CHTO   C24 7111   4.030   6.846   1.487
   17CHTO   H52 7112   4.091   6.771   1.538
   17CHTO   C26 7113   3.947   6.925   1.590
   17CHTO   H54 7114   3.876   6.991   1.535
   17CHTO   O20 7115   3.870   6.832   1.668
   17CHTO   H36 7116   3.804   6.791   1.615
   17CHTO   C30 7117   4.038   7.016   1.679
   17CHTO   H58 7118   4.103   6.954   1.742
   17CHTO    N6 7119   3.959   7.102   1.773
   17CHTO   H45 7120   3.853   7.084   1.763
   17CHTO   H46 7121   3.988   7.083   1.875
   17CHTO   C33 7122   4.132   7.100   1.588
   17CHTO   H61 7123   4.070   7.162   1.520
   17CHTO   O18 7124   4.208   7.007   1.507
   17CHTO   C28 7125   4.128   6.938   1.411
   17CHTO   H56 7126   4.070   7.009   1.351
   17CHTO   C35 7127   4.220   6.858   1.317
   17CHTO   O24 7128   4.302   6.945   1.237
   17CHTO   H39 7129   4.248   6.992   1.176
   17CHTO    O9 7130   4.218   7.192   1.658
   17CHTO   C13 7131   4.312   7.278   1.554
   17CHTO   H26 7132   4.318   7.222   1.458
   17CHTO   C11 7133   4.455   7.297   1.619
   17CHTO   H24 7134   4.503   7.198   1.625
   17CHTO    O8 7135   4.445   7.350   1.753
   17CHTO    H3 7136   4.401   7.288   1.809
   17CHTO    C9 7137   4.537   7.388   1.523
   17CHTO   H22 7138   4.527   7.342   1.423
   17CHTO    N2 7139   4.683   7.385   1.549
   17CHTO   H10 7140   4.704   7.431   1.644
   17CHTO   H11 7141   4.735   7.436   1.470
   17CHTO    C7 7142   4.470   7.532   1.517
   17CHTO   H20 7143   4.481   7.562   1.411
   17CHTO    O4 7144   4.330   7.531   1.553
   17CHTO   C14 7145   4.249   7.419   1.513
   17CHTO   H27 7146   4.240   7.422   1.403
   17CHTO   C18 7147   4.107   7.444   1.570
   17CHTO   O13 7148   4.047   7.557   1.507
   17CHTO    H7 7149   3.960   7.569   1.541
   17CHTO    O2 7150   4.544   7.642   1.611
   17CHTO    C1 7151   4.507   7.778   1.582
   17CHTO   H14 7152   4.421   7.780   1.511
   17CHTO    C2 7153   4.626   7.861   1.519
   17CHTO   H15 7154   4.711   7.851   1.588
   17CHTO    O6 7155   4.660   7.804   1.391
   17CHTO    H1 7156   4.697   7.719   1.403
   17CHTO    C3 7157   4.585   8.016   1.504
   17CHTO   H16 7158   4.507   8.026   1.427
   17CHTO    N1 7159   4.702   8.100   1.460
   17CHTO    H8 7160   4.671   8.203   1.449
   17CHTO    H9 7161   4.781   8.094   1.533
   17CHTO    C4 7162   4.520   8.069   1.638
   17CHTO   H17 7163   4.598   8.074   1.715
   17CHTO    O1 7164   4.415   7.981   1.680
   17CHTO    C5 7165   4.458   7.848   1.712
   17CHTO   H18 7166   4.541   7.851   1.782
   17CHTO   C16 7167   4.340   7.773   1.778
   17CHTO   O11 7168   4.303   7.834   1.902
   17CHTO    H5 7169   4.230   7.788   1.940
   17CHTO    O3 7170   4.456   8.197   1.621
   17CHTO    C6 7171   4.447   8.288   1.738
   17CHTO   H19 7172   4.373   8.366   1.719
   17CHTO    C8 7173   4.402   8.218   1.870
   17CHTO   H21 7174   4.465   8.131   1.888
   17CHTO    O7 7175   4.266   8.176   1.850
   17CHTO    H2 7176   4.236   8.125   1.923
   17CHTO   C12 7177   4.416   8.315   1.995
   17CHTO   H25 7178   4.343   8.396   1.979
   17CHTO    N3 7179   4.380   8.246   2.124
   17CHTO   H12 7180   4.296   8.296   2.171
   17CHTO   H13 7181   4.357   8.141   2.108
   17CHTO   C15 7182   4.560   8.376   1.996
   17CHTO   H28 7183   4.637   8.299   2.011
   17CHTO   O10 7184   4.579   8.487   2.101
   17CHTO    H4 7185   4.669   8.513   2.105
   17CHTO    O5 7186   4.584   8.446   1.873
   17CHTO   C10 7187   4.584   8.362   1.756
   17CHTO   H23 7188   4.664   8.289   1.767
   17CHTO   C17 7189   4.619   8.450   1.635
   17CHTO   O12 7190   4.525   8.556   1.614
   17CHTO    H6 7191   4.533   8.619   1.683
   18CHTO  H203 7192   5.653   7.860   2.443
   18CHTO   O82 7193   5.707   7.929   2.409
   18CHTO  C123 7194   5.702   7.929   2.265
   18CHTO  H227 7195   5.598   7.944   2.233
   18CHTO   O77 7196   5.783   8.045   2.230
   18CHTO  C118 7197   5.788   8.073   2.089
   18CHTO  H222 7198   5.685   8.085   2.052
   18CHTO  C125 7199   5.864   8.210   2.071
   18CHTO   O84 7200   5.998   8.204   2.121
   18CHTO  H205 7201   6.039   8.287   2.108
   18CHTO  C114 7202   5.856   7.957   2.014
   18CHTO  H218 7203   5.959   7.948   2.050
   18CHTO  C116 7204   5.784   7.821   2.045
   18CHTO  H220 7205   5.685   7.821   1.994
   18CHTO   O79 7206   5.861   7.715   1.985
   18CHTO  H201 7207   5.858   7.721   1.891
   18CHTO  C120 7208   5.765   7.799   2.201
   18CHTO  H224 7209   5.866   7.783   2.242
   18CHTO   N21 7210   5.685   7.677   2.231
   18CHTO  H211 7211   5.633   7.688   2.325
   18CHTO  H212 7212   5.615   7.656   2.152
   18CHTO   O75 7213   5.851   7.991   1.875
   18CHTO  C112 7214   5.999   7.997   1.800
   18CHTO  H216 7215   6.070   7.931   1.853
   18CHTO   O73 7216   6.042   8.134   1.805
   18CHTO  C113 7217   6.170   8.159   1.745
   18CHTO  H217 7218   6.246   8.093   1.792
   18CHTO  C124 7219   6.209   8.304   1.775
   18CHTO   O83 7220   6.227   8.328   1.915
   18CHTO  H204 7221   6.145   8.320   1.960
   18CHTO  C109 7222   6.163   8.131   1.592
   18CHTO  H213 7223   6.089   8.199   1.550
   18CHTO  C110 7224   6.118   7.982   1.571
   18CHTO  H214 7225   6.198   7.916   1.604
   18CHTO   O78 7226   6.099   7.959   1.430
   18CHTO  H200 7227   6.182   7.964   1.385
   18CHTO  C111 7228   5.987   7.951   1.650
   18CHTO  H215 7229   5.905   8.008   1.605
   18CHTO   N19 7230   5.947   7.808   1.644
   18CHTO  H207 7231   5.855   7.793   1.699
   18CHTO  H208 7232   5.932   7.778   1.541
   18CHTO   O74 7233   6.293   8.158   1.530
   18CHTO  C115 7234   6.283   8.215   1.371
   18CHTO  H219 7235   6.212   8.158   1.312
   18CHTO   O76 7236   6.231   8.366   1.366
   18CHTO  C122 7237   6.235   8.435   1.240
   18CHTO  H226 7238   6.232   8.541   1.263
   18CHTO  C126 7239   6.104   8.407   1.156
   18CHTO   O85 7240   6.082   8.270   1.121
   18CHTO  H206 7241   6.148   8.241   1.062
   18CHTO  C121 7242   6.365   8.409   1.153
   18CHTO  H225 7243   6.343   8.440   1.049
   18CHTO   O81 7244   6.471   8.493   1.201
   18CHTO  H202 7245   6.544   8.490   1.141
   18CHTO  C119 7246   6.407   8.259   1.153
   18CHTO  H223 7247   6.324   8.205   1.108
   18CHTO  C117 7248   6.424   8.206   1.300
   18CHTO  H221 7249   6.492   8.261   1.364
   18CHTO   N20 7250   6.472   8.064   1.303
   18CHTO  H209 7251   6.568   8.058   1.353
   18CHTO  H210 7252   6.479   8.022   1.204
   18CHTO   O80 7253   6.527   8.228   1.044
   18CHTO  C103 7254   6.494   8.142   0.909
   18CHTO  H190 7255   6.585   8.129   0.850
   18CHTO  C101 7256   6.431   7.999   0.935
   18CHTO  H188 7257   6.355   8.008   1.012
   18CHTO   O68 7258   6.541   7.909   0.988
   18CHTO  H168 7259   6.505   7.826   1.012
   18CHTO   C99 7260   6.362   7.940   0.803
   18CHTO  H186 7261   6.438   7.926   0.724
   18CHTO   N17 7262   6.293   7.808   0.824
   18CHTO  H174 7263   6.299   7.777   0.927
   18CHTO  H175 7264   6.337   7.733   0.759
   18CHTO   C97 7265   6.264   8.048   0.748
   18CHTO  H184 7266   6.193   8.072   0.829
   18CHTO   O64 7267   6.343   8.162   0.711
   18CHTO  C104 7268   6.396   8.233   0.825
   18CHTO  H191 7269   6.316   8.269   0.889
   18CHTO  C108 7270   6.471   8.357   0.775
   18CHTO   O71 7271   6.382   8.449   0.710
   18CHTO  H171 7272   6.431   8.523   0.678
   18CHTO   O62 7273   6.194   8.012   0.627
   18CHTO   C91 7274   6.051   8.034   0.627
   18CHTO  H178 7275   6.016   8.038   0.730
   18CHTO   C92 7276   5.977   7.912   0.561
   18CHTO  H179 7277   6.020   7.895   0.461
   18CHTO   O66 7278   6.010   7.794   0.637
   18CHTO  H166 7279   5.978   7.801   0.725
   18CHTO   C93 7280   5.820   7.930   0.553
   18CHTO  H180 7281   5.780   7.914   0.654
   18CHTO   N16 7282   5.754   7.826   0.469
   18CHTO  H172 7283   5.775   7.728   0.508
   18CHTO  H173 7284   5.647   7.843   0.467
   18CHTO   C94 7285   5.780   8.074   0.504
   18CHTO  H181 7286   5.798   8.088   0.397
   18CHTO   O61 7287   5.857   8.175   0.573
   18CHTO   C95 7288   5.998   8.164   0.554
   18CHTO  H182 7289   6.020   8.159   0.447
   18CHTO  C106 7290   6.064   8.296   0.608
   18CHTO   O69 7291   6.022   8.410   0.533
   18CHTO  H169 7292   6.057   8.406   0.446
   18CHTO   O63 7293   5.626   8.105   0.541
   18CHTO   C96 7294   5.554   8.189   0.429
   18CHTO  H183 7295   5.560   8.130   0.337
   18CHTO   C98 7296   5.617   8.330   0.401
   18CHTO  H185 7297   5.727   8.327   0.412
   18CHTO   O67 7298   5.593   8.362   0.263
   18CHTO  H167 7299   5.637   8.442   0.240
   18CHTO  C102 7300   5.554   8.446   0.493
   18CHTO  H189 7301   5.597   8.539   0.454
   18CHTO   N18 7302   5.591   8.443   0.637
   18CHTO  H176 7303   5.658   8.361   0.657
   18CHTO  H177 7304   5.503   8.433   0.699
   18CHTO  C105 7305   5.400   8.449   0.467
   18CHTO  H192 7306   5.347   8.481   0.557
   18CHTO   O65 7307   5.341   8.324   0.423
   18CHTO  C100 7308   5.401   8.202   0.470
   18CHTO  H187 7309   5.395   8.202   0.580
   18CHTO  C107 7310   5.320   8.081   0.419
   18CHTO   O70 7311   5.188   8.080   0.474
   18CHTO  H170 7312   5.141   8.006   0.441
   18CHTO   O57 7313   5.388   8.569   0.351
   18CHTO   C85 7314   5.267   8.615   0.286
   18CHTO  H157 7315   5.306   8.682   0.207
   18CHTO   C83 7316   5.184   8.709   0.380
   18CHTO  H155 7317   5.247   8.795   0.405
   18CHTO   O56 7318   5.156   8.642   0.504
   18CHTO  H135 7319   5.114   8.701   0.563
   18CHTO   C81 7320   5.059   8.758   0.303
   18CHTO  H153 7321   5.092   8.805   0.210
   18CHTO   N14 7322   4.985   8.865   0.375
   18CHTO  H141 7323   4.905   8.901   0.314
   18CHTO  H142 7324   5.052   8.947   0.397
   18CHTO   C79 7325   4.968   8.635   0.265
   18CHTO  H151 7326   4.884   8.674   0.207
   18CHTO   O52 7327   5.042   8.544   0.178
   18CHTO   C86 7328   5.174   8.501   0.227
   18CHTO  H158 7329   5.150   8.424   0.302
   18CHTO   C90 7330   5.251   8.429   0.113
   18CHTO   O60 7331   5.190   8.306   0.073
   18CHTO  H138 7332   5.107   8.324   0.031
   18CHTO   O50 7333   4.915   8.565   0.379
   18CHTO   C73 7334   4.821   8.470   0.431
   18CHTO  H145 7335   4.818   8.381   0.366
   18CHTO   C74 7336   4.678   8.531   0.438
   18CHTO  H146 7337   4.652   8.565   0.336
   18CHTO   O54 7338   4.585   8.425   0.470
   18CHTO  H133 7339   4.580   8.364   0.399
   18CHTO   C75 7340   4.675   8.650   0.542
   18CHTO  H147 7341   4.744   8.728   0.507
   18CHTO   N13 7342   4.543   8.716   0.557
   18CHTO  H139 7343   4.469   8.671   0.491
   18CHTO  H140 7344   4.550   8.821   0.532
   18CHTO   C76 7345   4.731   8.599   0.683
   18CHTO  H148 7346   4.661   8.526   0.724
   18CHTO   O49 7347   4.863   8.537   0.666
   18CHTO   C77 7348   4.865   8.426   0.574
   18CHTO  H149 7349   4.797   8.348   0.610
   18CHTO   C88 7350   5.005   8.363   0.571
   18CHTO   O58 7351   5.049   8.320   0.702
   18CHTO  H136 7352   4.996   8.249   0.732
   18CHTO   O51 7353   4.756   8.724   0.784
   18CHTO   C78 7354   4.778   8.680   0.936
   18CHTO  H150 7355   4.786   8.569   0.945
   18CHTO   C80 7356   4.660   8.728   1.023
   18CHTO  H152 7357   4.642   8.836   1.002
   18CHTO   O55 7358   4.544   8.655   0.979
   18CHTO  H134 7359   4.467   8.685   1.025
   18CHTO   C84 7360   4.688   8.709   1.178
   18CHTO  H156 7361   4.695   8.601   1.197
   18CHTO   N15 7362   4.577   8.761   1.264
   18CHTO  H143 7363   4.486   8.710   1.241
   18CHTO  H144 7364   4.600   8.745   1.367
   18CHTO   C87 7365   4.824   8.774   1.214
   18CHTO  H159 7366   4.821   8.882   1.198
   18CHTO   O53 7367   4.931   8.710   1.123
   18CHTO   C82 7368   4.911   8.740   0.985
   18CHTO  H154 7369   4.911   8.848   0.970
   18CHTO   C89 7370   5.031   8.684   0.906
   18CHTO   O59 7371   5.049   8.543   0.925
   18CHTO  H137 7372   5.125   8.515   0.878
   18CHTO   O45 7373   4.867   8.745   1.374
   18CHTO   C67 7374   5.008   8.749   1.404
   18CHTO  H124 7375   5.066   8.746   1.312
   18CHTO   C65 7376   5.045   8.880   1.482
   18CHTO  H122 7377   4.955   8.910   1.536
   18CHTO   O44 7378   5.074   8.979   1.381
   18CHTO  H102 7379   5.085   9.063   1.421
   18CHTO   C63 7380   5.154   8.856   1.594
   18CHTO  H120 7381   5.104   8.810   1.680
   18CHTO   N11 7382   5.212   8.979   1.657
   18CHTO  H108 7383   5.319   8.975   1.657
   18CHTO  H109 7384   5.177   8.992   1.757
   18CHTO   C61 7385   5.259   8.752   1.543
   18CHTO  H118 7386   5.328   8.733   1.627
   18CHTO   O40 7387   5.197   8.623   1.511
   18CHTO   C68 7388   5.053   8.621   1.485
   18CHTO  H125 7389   4.999   8.617   1.582
   18CHTO   C72 7390   5.023   8.488   1.411
   18CHTO   O48 7391   4.883   8.462   1.392
   18CHTO  H105 7392   4.847   8.526   1.333
   18CHTO   O38 7393   5.332   8.799   1.428
   18CHTO   C55 7394   5.458   8.734   1.404
   18CHTO  H112 7395   5.466   8.642   1.464
   18CHTO   C56 7396   5.579   8.833   1.433
   18CHTO  H113 7397   5.571   8.917   1.363
   18CHTO   O42 7398   5.567   8.888   1.566
   18CHTO  H100 7399   5.491   8.943   1.572
   18CHTO   C57 7400   5.715   8.755   1.415
   18CHTO  H114 7401   5.718   8.686   1.499
   18CHTO   N10 7402   5.837   8.839   1.427
   18CHTO  H106 7403   5.870   8.843   1.530
   18CHTO  H107 7404   5.818   8.939   1.392
   18CHTO   C58 7405   5.719   8.674   1.282
   18CHTO  H115 7406   5.754   8.740   1.199
   18CHTO   O37 7407   5.594   8.614   1.243
   18CHTO   C59 7408   5.474   8.690   1.256
   18CHTO  H116 7409   5.479   8.777   1.191
   18CHTO   C70 7410   5.357   8.603   1.208
   18CHTO   O46 7411   5.345   8.478   1.278
   18CHTO  H103 7412   5.418   8.423   1.257
   18CHTO   O39 7413   5.826   8.542   1.301
   18CHTO   C60 7414   5.772   8.439   1.387
   18CHTO  H117 7415   5.697   8.483   1.452
   18CHTO   C62 7416   5.703   8.325   1.306
   18CHTO  H119 7417   5.639   8.374   1.230
   18CHTO   O43 7418   5.799   8.244   1.236
   18CHTO  H101 7419   5.843   8.295   1.171
   18CHTO   C66 7420   5.610   8.244   1.407
   18CHTO  H123 7421   5.542   8.314   1.454
   18CHTO   N12 7422   5.521   8.147   1.339
   18CHTO  H110 7423   5.580   8.073   1.286
   18CHTO  H111 7424   5.455   8.100   1.410
   18CHTO   C69 7425   5.694   8.178   1.520
   18CHTO  H126 7426   5.738   8.082   1.483
   18CHTO   O41 7427   5.818   8.275   1.577
   18CHTO   C64 7428   5.881   8.378   1.479
   18CHTO  H121 7429   5.956   8.326   1.416
   18CHTO   C71 7430   5.957   8.486   1.560
   18CHTO   O47 7431   5.874   8.551   1.658
   18CHTO  H104 7432   5.852   8.490   1.726
   18CHTO   O34 7433   5.597   8.143   1.642
   18CHTO   C49 7434   5.574   8.243   1.766
   18CHTO   H91 7435   5.667   8.243   1.823
   18CHTO   C47 7436   5.458   8.190   1.852
   18CHTO   H89 7437   5.457   8.251   1.945
   18CHTO   O33 7438   5.487   8.053   1.888
   18CHTO   H70 7439   5.562   8.050   1.945
   18CHTO   C45 7440   5.320   8.207   1.772
   18CHTO   H87 7441   5.330   8.157   1.675
   18CHTO    N8 7442   5.204   8.147   1.843
   18CHTO   H75 7443   5.187   8.200   1.936
   18CHTO   H76 7444   5.116   8.152   1.781
   18CHTO   C43 7445   5.297   8.363   1.737
   18CHTO   H85 7446   5.206   8.368   1.677
   18CHTO   O29 7447   5.411   8.414   1.666
   18CHTO   C50 7448   5.543   8.389   1.720
   18CHTO   H92 7449   5.614   8.413   1.640
   18CHTO   C54 7450   5.581   8.493   1.828
   18CHTO   O36 7451   5.583   8.625   1.772
   18CHTO   H72 7452   5.495   8.653   1.753
   18CHTO   O27 7453   5.271   8.445   1.853
   18CHTO   C37 7454   5.195   8.519   1.950
   18CHTO   H79 7455   5.167   8.454   2.035
   18CHTO   C38 7456   5.282   8.635   2.009
   18CHTO   H80 7457   5.331   8.687   1.925
   18CHTO   O31 7458   5.384   8.575   2.091
   18CHTO   H68 7459   5.444   8.640   2.121
   18CHTO   C39 7460   5.196   8.740   2.091
   18CHTO   H81 7461   5.154   8.688   2.177
   18CHTO    N7 7462   5.276   8.855   2.145
   18CHTO   H73 7463   5.242   8.949   2.104
   18CHTO   H74 7464   5.382   8.842   2.124
   18CHTO   C40 7465   5.075   8.786   2.001
   18CHTO   H82 7466   5.115   8.831   1.910
   18CHTO   O26 7467   4.996   8.669   1.971
   18CHTO   C41 7468   5.065   8.574   1.884
   18CHTO   H83 7469   5.092   8.624   1.790
   18CHTO   C52 7470   4.964   8.462   1.850
   18CHTO   O35 7471   4.908   8.394   1.970
   18CHTO   H71 7472   4.856   8.455   2.020
   18CHTO   O28 7473   4.995   8.889   2.062
   18CHTO   C42 7474   4.849   8.899   2.072
   18CHTO   H84 7475   4.834   9.001   2.104
   18CHTO   C44 7476   4.781   8.809   2.179
   18CHTO   H86 7477   4.787   8.705   2.147
   18CHTO   O32 7478   4.855   8.825   2.301
   18CHTO   H69 7479   4.823   8.766   2.367
   18CHTO   C48 7480   4.628   8.848   2.195
   18CHTO   H90 7481   4.625   8.951   2.231
   18CHTO    N9 7482   4.556   8.767   2.299
   18CHTO   H77 7483   4.622   8.696   2.346
   18CHTO   H78 7484   4.471   8.716   2.256
   18CHTO   C51 7485   4.558   8.844   2.053
   18CHTO   H93 7486   4.553   8.740   2.020
   18CHTO   O30 7487   4.632   8.926   1.961
   18CHTO   C46 7488   4.772   8.882   1.938
   18CHTO   H88 7489   4.772   8.778   1.907
   18CHTO   C53 7490   4.830   8.971   1.825
   18CHTO   O72 7491   4.759   8.949   1.703
   18CHTO  H199 7492   4.672   8.986   1.709
   18CHTO   O22 7493   4.427   8.903   2.056
   18CHTO   C31 7494   4.329   8.890   1.946
   18CHTO   H59 7495   4.243   8.953   1.975
   18CHTO   C29 7496   4.378   8.943   1.808
   18CHTO   H57 7497   4.465   8.883   1.779
   18CHTO   O21 7498   4.423   9.078   1.825
   18CHTO   H37 7499   4.464   9.109   1.746
   18CHTO   C27 7500   4.266   8.929   1.697
   18CHTO   H55 7501   4.181   8.992   1.725
   18CHTO    N5 7502   4.314   8.973   1.562
   18CHTO   H43 7503   4.418   9.000   1.564
   18CHTO   H44 7504   4.297   8.897   1.488
   18CHTO   C25 7505   4.216   8.780   1.697
   18CHTO   H53 7506   4.301   8.714   1.669
   18CHTO   O17 7507   4.170   8.744   1.830
   18CHTO   C32 7508   4.273   8.746   1.931
   18CHTO   H60 7509   4.354   8.679   1.903
   18CHTO   C36 7510   4.211   8.697   2.064
   18CHTO   O25 7511   4.162   8.563   2.053
   18CHTO   H40 7512   4.126   8.536   2.135
   18CHTO   O15 7513   4.095   8.754   1.596
   18CHTO   C19 7514   4.080   8.677   1.472
   18CHTO   H47 7515   3.973   8.656   1.467
   18CHTO   C20 7516   4.121   8.758   1.344
   18CHTO   H48 7517   4.224   8.796   1.351
   18CHTO   O19 7518   4.033   8.872   1.337
   18CHTO   H35 7519   3.944   8.845   1.324
   18CHTO   C21 7520   4.111   8.671   1.212
   18CHTO   H49 7521   4.007   8.648   1.193
   18CHTO    N4 7522   4.162   8.743   1.092
   18CHTO   H41 7523   4.265   8.771   1.105
   18CHTO   H42 7524   4.103   8.832   1.075
   18CHTO   C22 7525   4.186   8.537   1.236
   18CHTO   H50 7526   4.292   8.558   1.251
   18CHTO   O14 7527   4.131   8.471   1.350
   18CHTO   C23 7528   4.153   8.538   1.475
   18CHTO   H51 7529   4.261   8.549   1.489
   18CHTO   C34 7530   4.098   8.443   1.582
   18CHTO   O23 7531   4.136   8.480   1.715
   18CHTO   H38 7532   4.228   8.468   1.726
   18CHTO   O16 7533   4.166   8.440   1.131
   18CHTO   C24 7534   4.299   8.398   1.052
   18CHTO   H52 7535   4.377   8.475   1.061
   18CHTO   C26 7536   4.264   8.377   0.904
   18CHTO   H54 7537   4.182   8.301   0.898
   18CHTO   O20 7538   4.213   8.501   0.851
   18CHTO   H36 7539   4.180   8.489   0.764
   18CHTO   C30 7540   4.386   8.325   0.823
   18CHTO   H58 7541   4.460   8.406   0.813
   18CHTO    N6 7542   4.348   8.288   0.683
   18CHTO   H45 7543   4.435   8.256   0.628
   18CHTO   H46 7544   4.275   8.209   0.685
   18CHTO   C33 7545   4.459   8.208   0.896
   18CHTO   H61 7546   4.399   8.115   0.889
   18CHTO   O18 7547   4.478   8.239   1.035
   18CHTO   C28 7548   4.359   8.267   1.109
   18CHTO   H56 7549   4.287   8.186   1.097
   18CHTO   C35 7550   4.396   8.275   1.260
   18CHTO   O24 7551   4.494   8.376   1.289
   18CHTO   H39 7552   4.513   8.375   1.381
   18CHTO    O9 7553   4.585   8.177   0.831
   18CHTO   C13 7554   4.684   8.080   0.914
   18CHTO   H26 7555   4.622   8.015   0.979
   18CHTO   C11 7556   4.784   8.169   1.000
   18CHTO   H24 7557   4.726   8.221   1.077
   18CHTO    O8 7558   4.844   8.271   0.918
   18CHTO    H3 7559   4.898   8.232   0.851
   18CHTO    C9 7560   4.884   8.074   1.071
   18CHTO   H22 7561   4.823   8.006   1.131
   18CHTO    N2 7562   4.971   8.143   1.170
   18CHTO   H10 7563   5.029   8.070   1.225
   18CHTO   H11 7564   5.037   8.212   1.119
   18CHTO    C7 7565   4.962   7.990   0.964
   18CHTO   H20 7566   5.022   7.918   1.024
   18CHTO    O4 7567   4.872   7.915   0.880
   18CHTO   C14 7568   4.760   7.982   0.816
   18CHTO   H27 7569   4.689   7.902   0.788
   18CHTO   C18 7570   4.805   8.051   0.684
   18CHTO   O13 7571   4.865   7.960   0.592
   18CHTO    H7 7572   4.800   7.901   0.559
   18CHTO    O2 7573   5.060   8.080   0.869
   18CHTO    C1 7574   5.192   8.031   0.837
   18CHTO   H14 7575   5.224   8.080   0.743
   18CHTO    C2 7576   5.209   7.874   0.820
   18CHTO   H15 7577   5.174   7.826   0.913
   18CHTO    O6 7578   5.126   7.830   0.710
   18CHTO    H1 7579   5.154   7.870   0.630
   18CHTO    C3 7580   5.363   7.835   0.795
   18CHTO   H16 7581   5.393   7.873   0.697
   18CHTO    N1 7582   5.385   7.687   0.794
   18CHTO    H8 7583   5.490   7.665   0.776
   18CHTO    H9 7584   5.325   7.641   0.716
   18CHTO    C4 7585   5.456   7.907   0.900
   18CHTO   H17 7586   5.444   7.860   0.998
   18CHTO    O1 7587   5.427   8.048   0.909
   18CHTO    C5 7588   5.292   8.082   0.945
   18CHTO   H18 7589   5.267   8.034   1.040
   18CHTO   C16 7590   5.287   8.236   0.965
   18CHTO   O11 7591   5.323   8.308   0.846
   18CHTO    H5 7592   5.257   8.295   0.780
   18CHTO    O3 7593   5.594   7.903   0.858
   18CHTO    C6 7594   5.694   7.912   0.964
   18CHTO   H19 7595   5.651   7.936   1.062
   18CHTO    C8 7596   5.769   7.775   0.975
   18CHTO   H21 7597   5.801   7.745   0.875
   18CHTO    O7 7598   5.673   7.680   1.026
   18CHTO    H2 7599   5.711   7.593   1.025
   18CHTO   C12 7600   5.897   7.786   1.068
   18CHTO   H25 7601   5.859   7.802   1.172
   18CHTO    N3 7602   5.974   7.658   1.070
   18CHTO   H12 7603   6.009   7.634   0.970
   18CHTO   H13 7604   6.058   7.666   1.137
   18CHTO   C15 7605   5.982   7.911   1.026
   18CHTO   H28 7606   6.027   7.897   0.927
   18CHTO   O10 7607   6.094   7.946   1.128
   18CHTO    H4 7608   6.149   8.013   1.093
   18CHTO    O5 7609   5.901   8.030   1.027
   18CHTO   C10 7610   5.795   8.025   0.930
   18CHTO   H23 7611   5.838   8.006   0.832
   18CHTO   C17 7612   5.729   8.163   0.924
   18CHTO   O12 7613   5.821   8.263   0.879
   18CHTO    H6 7614   5.778   8.347   0.878
   19CHTO  H203 7615   4.674   0.081   0.115
   19CHTO   O82 7616   4.662   0.008   0.172
   19CHTO  C123 7617   4.617   9.893   0.099
   19CHTO  H227 7618   4.534   9.924   0.032
   19CHTO   O77 7619   4.733   9.855   0.019
   19CHTO  C118 7620   4.710   9.746   2.803
   19CHTO  H222 7621   4.626   9.770   2.737
   19CHTO  C125 7622   4.840   9.727   2.714
   19CHTO   O84 7623   4.956   9.697   2.793
   19CHTO  H205 7624   4.948   9.612   2.830
   19CHTO  C114 7625   4.676   9.619   0.009
   19CHTO  H218 7626   4.762   9.593   0.072
   19CHTO  C116 7627   4.554   9.643   0.103
   19CHTO  H220 7628   4.462   9.654   0.040
   19CHTO   O79 7629   4.533   9.525   0.183
   19CHTO  H201 7630   4.607   9.510   0.239
   19CHTO  C120 7631   4.574   9.773   0.191
   19CHTO  H224 7632   4.656   9.750   0.263
   19CHTO   N21 7633   4.453   9.805   0.273
   19CHTO  H211 7634   4.385   9.867   0.217
   19CHTO  H212 7635   4.404   9.714   0.305
   19CHTO   O75 7636   4.654   9.517   2.784
   19CHTO  C112 7637   4.711   9.370   2.827
   19CHTO  H216 7638   4.692   9.353   0.060
   19CHTO   O73 7639   4.852   9.368   2.797
   19CHTO  C113 7640   4.915   9.243   2.828
   19CHTO  H217 7641   4.892   9.215   0.059
   19CHTO  C124 7642   5.067   9.264   2.818
   19CHTO   O83 7643   5.143   9.155   2.870
   19CHTO  H204 7644   5.131   9.078   2.817
   19CHTO  C109 7645   4.861   9.134   2.731
   19CHTO  H213 7646   4.884   9.168   2.629
   19CHTO  C110 7647   4.706   9.122   2.749
   19CHTO  H214 7648   4.687   9.075   2.847
   19CHTO   O78 7649   4.653   9.031   2.650
   19CHTO  H200 7650   4.668   9.065   2.564
   19CHTO  C111 7651   4.635   9.260   2.742
   19CHTO  H215 7652   4.637   9.295   2.637
   19CHTO   N19 7653   4.491   9.254   2.780
   19CHTO  H207 7654   4.470   9.315   2.867
   19CHTO  H208 7655   4.429   9.285   2.698
   19CHTO   O74 7656   4.926   9.005   2.754
   19CHTO  C115 7657   4.951   8.921   2.619
   19CHTO  H219 7658   4.861   8.916   2.558
   19CHTO   O76 7659   5.059   8.991   2.527
   19CHTO  C122 7660   5.193   8.958   2.565
   19CHTO  H226 7661   5.206   8.986   2.669
   19CHTO  C126 7662   5.293   9.048   2.484
   19CHTO   O85 7663   5.279   9.187   2.515
   19CHTO  H206 7664   5.196   9.219   2.485
   19CHTO  C121 7665   5.224   8.803   2.545
   19CHTO  H225 7666   5.271   8.787   2.446
   19CHTO   O81 7667   5.315   8.762   2.647
   19CHTO  H202 7668   5.398   8.805   2.636
   19CHTO  C119 7669   5.093   8.717   2.553
   19CHTO  H223 7670   5.045   8.728   2.456
   19CHTO  C117 7671   4.994   8.775   2.661
   19CHTO  H221 7672   5.036   8.784   2.762
   19CHTO   N20 7673   4.873   8.688   2.678
   19CHTO  H209 7674   4.819   8.681   2.584
   19CHTO  H210 7675   4.902   8.590   2.712
   19CHTO   O80 7676   5.123   8.556   2.557
   19CHTO  C103 7677   5.158   8.479   2.423
   19CHTO  H190 7678   5.142   8.543   2.336
   19CHTO  C101 7679   5.303   8.418   2.417
   19CHTO  H188 7680   5.323   8.366   2.511
   19CHTO   O68 7681   5.406   8.534   2.402
   19CHTO  H168 7682   5.402   8.590   2.477
   19CHTO   C99 7683   5.316   8.310   2.297
   19CHTO  H186 7684   5.301   8.362   2.200
   19CHTO   N17 7685   5.449   8.241   2.290
   19CHTO  H174 7686   5.512   8.270   2.374
   19CHTO  H175 7687   5.498   8.263   2.196
   19CHTO   C97 7688   5.200   8.208   2.307
   19CHTO  H184 7689   5.212   8.150   2.401
   19CHTO   O64 7690   5.074   8.278   2.303
   19CHTO  C104 7691   5.050   8.364   2.416
   19CHTO  H191 7692   5.052   8.307   2.509
   19CHTO  C108 7693   4.907   8.419   2.404
   19CHTO   O71 7694   4.887   8.494   2.283
   19CHTO  H171 7695   4.936   8.574   2.286
   19CHTO   O62 7696   5.192   8.118   2.194
   19CHTO   C91 7697   5.119   7.995   2.214
   19CHTO  H178 7698   5.076   7.995   2.314
   19CHTO   C92 7699   5.218   7.874   2.208
   19CHTO  H179 7700   5.272   7.877   2.112
   19CHTO   O66 7701   5.317   7.891   2.311
   19CHTO  H166 7702   5.372   7.964   2.292
   19CHTO   C93 7703   5.143   7.735   2.224
   19CHTO  H180 7704   5.108   7.729   2.328
   19CHTO   N16 7705   5.230   7.617   2.204
   19CHTO  H172 7706   5.309   7.617   2.278
   19CHTO  H173 7707   5.271   7.617   2.105
   19CHTO   C94 7708   5.017   7.728   2.129
   19CHTO  H181 7709   5.046   7.724   2.024
   19CHTO   O61 7710   4.936   7.845   2.145
   19CHTO   C95 7711   5.003   7.968   2.111
   19CHTO  H182 7712   5.044   7.959   2.011
   19CHTO  C106 7713   4.896   8.082   2.106
   19CHTO   O69 7714   4.830   8.102   2.232
   19CHTO  H169 7715   4.891   8.137   2.294
   19CHTO   O63 7716   4.922   7.603   2.166
   19CHTO   C96 7717   4.851   7.544   2.037
   19CHTO  H183 7718   4.930   7.520   1.966
   19CHTO   C98 7719   4.751   7.641   1.965
   19CHTO  H185 7720   4.799   7.738   1.945
   19CHTO   O67 7721   4.720   7.586   1.836
   19CHTO  H167 7722   4.679   7.502   1.845
   19CHTO  C102 7723   4.614   7.660   2.046
   19CHTO  H189 7724   4.541   7.695   1.972
   19CHTO   N18 7725   4.617   7.764   2.151
   19CHTO  H176 7726   4.637   7.860   2.107
   19CHTO  H177 7727   4.693   7.741   2.224
   19CHTO  C105 7728   4.564   7.522   2.100
   19CHTO  H192 7729   4.575   7.518   2.209
   19CHTO   O65 7730   4.636   7.408   2.048
   19CHTO  C100 7731   4.777   7.409   2.078
   19CHTO  H187 7732   4.786   7.396   2.187
   19CHTO  C107 7733   4.842   7.285   2.012
   19CHTO   O70 7734   4.828   7.284   1.870
   19CHTO  H170 7735   4.738   7.272   1.847
   19CHTO   O57 7736   4.409   7.516   2.061
   19CHTO   C85 7737   4.317   7.468   2.160
   19CHTO  H157 7738   4.376   7.446   2.252
   19CHTO   C83 7739   4.256   7.332   2.117
   19CHTO  H155 7740   4.339   7.262   2.100
   19CHTO   O56 7741   4.189   7.346   1.990
   19CHTO  H135 7742   4.159   7.263   1.959
   19CHTO   C81 7743   4.168   7.279   2.233
   19CHTO  H153 7744   4.230   7.272   2.322
   19CHTO   N14 7745   4.122   7.139   2.210
   19CHTO  H141 7746   4.206   7.076   2.191
   19CHTO  H142 7747   4.070   7.103   2.296
   19CHTO   C79 7748   4.049   7.379   2.263
   19CHTO  H151 7749   4.004   7.347   2.357
   19CHTO   O52 7750   4.099   7.516   2.287
   19CHTO   C86 7751   4.197   7.567   2.190
   19CHTO  H158 7752   4.138   7.587   2.099
   19CHTO   C90 7753   4.252   7.703   2.236
   19CHTO   O60 7754   4.153   7.806   2.235
   19CHTO  H138 7755   4.090   7.790   2.303
   19CHTO   O50 7756   3.945   7.381   2.164
   19CHTO   C73 7757   3.806   7.394   2.129
   19CHTO  H145 7758   3.754   7.299   2.146
   19CHTO   C74 7759   3.794   7.432   1.979
   19CHTO  H146 7760   3.842   7.351   1.921
   19CHTO   O54 7761   3.655   7.431   1.942
   19CHTO  H133 7762   3.645   7.449   1.850
   19CHTO   C75 7763   3.866   7.571   1.956
   19CHTO  H147 7764   3.973   7.558   1.977
   19CHTO   N13 7765   3.861   7.619   1.817
   19CHTO  H139 7766   3.910   7.548   1.751
   19CHTO  H140 7767   3.758   7.630   1.785
   19CHTO   C76 7768   3.811   7.682   2.059
   19CHTO  H148 7769   3.712   7.713   2.026
   19CHTO   O49 7770   3.804   7.631   2.196
   19CHTO   C77 7771   3.736   7.506   2.213
   19CHTO  H149 7772   3.633   7.516   2.179
   19CHTO   C88 7773   3.727   7.471   2.362
   19CHTO   O58 7774   3.646   7.573   2.437
   19CHTO  H136 7775   3.556   7.569   2.409
   19CHTO   O51 7776   3.914   7.805   2.069
   19CHTO   C78 7777   3.846   7.950   2.095
   19CHTO  H150 7778   3.735   7.943   2.095
   19CHTO   C80 7779   3.889   8.046   1.981
   19CHTO  H152 7780   4.000   8.037   1.968
   19CHTO   O55 7781   3.827   7.998   1.861
   19CHTO  H134 7782   3.858   8.046   1.787
   19CHTO   C84 7783   3.853   8.198   2.010
   19CHTO  H156 7784   3.744   8.206   2.010
   19CHTO   N15 7785   3.905   8.292   1.906
   19CHTO  H143 7786   3.823   8.344   1.859
   19CHTO  H144 7787   3.960   8.240   1.830
   19CHTO   C87 7788   3.905   8.236   2.151
   19CHTO  H159 7789   4.014   8.228   2.155
   19CHTO   O53 7790   3.841   8.139   2.247
   19CHTO   C82 7791   3.889   8.005   2.233
   19CHTO  H154 7792   3.998   8.003   2.245
   19CHTO   C89 7793   3.828   7.927   2.351
   19CHTO   O59 7794   3.904   7.810   2.384
   19CHTO  H137 7795   3.863   7.765   2.455
   19CHTO   O45 7796   3.861   8.393   2.197
   19CHTO   C67 7797   3.892   8.420   2.336
   19CHTO  H124 7798   3.973   8.357   2.370
   19CHTO   C65 7799   3.931   8.570   2.357
   19CHTO  H122 7800   4.007   8.591   2.281
   19CHTO   O44 7801   3.988   8.589   2.487
   19CHTO  H102 7802   4.022   8.676   2.495
   19CHTO   C63 7803   3.810   8.663   2.322
   19CHTO  H120 7804   3.781   8.645   2.218
   19CHTO   N11 7805   3.840   8.810   2.319
   19CHTO  H108 7806   3.926   8.828   2.257
   19CHTO  H109 7807   3.859   8.845   2.418
   19CHTO   C61 7808   3.682   8.625   2.408
   19CHTO  H118 7809   3.599   8.668   2.350
   19CHTO   O40 7810   3.658   8.482   2.413
   19CHTO   C68 7811   3.766   8.383   2.424
   19CHTO  H125 7812   3.722   8.290   2.385
   19CHTO   C72 7813   3.803   8.357   2.573
   19CHTO   O48 7814   3.892   8.246   2.590
   19CHTO  H105 7815   3.976   8.267   2.552
   19CHTO   O38 7816   3.677   8.673   2.544
   19CHTO   C55 7817   3.543   8.706   2.587
   19CHTO  H112 7818   3.469   8.657   2.522
   19CHTO   C56 7819   3.523   8.863   2.591
   19CHTO  H113 7820   3.596   8.904   2.663
   19CHTO   O42 7821   3.555   8.920   2.463
   19CHTO  H100 7822   3.645   8.907   2.443
   19CHTO   C57 7823   3.376   8.901   2.633
   19CHTO  H114 7824   3.313   8.874   2.548
   19CHTO   N10 7825   3.354   9.046   2.658
   19CHTO  H106 7826   3.251   9.071   2.637
   19CHTO  H107 7827   3.419   9.105   2.595
   19CHTO   C58 7828   3.329   8.818   2.757
   19CHTO  H115 7829   3.368   8.865   2.850
   19CHTO   O37 7830   3.370   8.681   2.754
   19CHTO   C59 7831   3.509   8.655   2.730
   19CHTO  H116 7832   3.570   8.705   2.805
   19CHTO   C70 7833   3.529   8.503   2.743
   19CHTO   O46 7834   3.504   8.455   0.002
   19CHTO  H103 7835   3.570   8.487   0.061
   19CHTO   O39 7836   3.159   8.815   2.761
   19CHTO   C60 7837   3.097   8.733   2.660
   19CHTO  H117 7838   3.163   8.726   2.573
   19CHTO   C62 7839   3.069   8.588   2.710
   19CHTO  H119 7840   3.167   8.545   2.739
   19CHTO   O43 7841   2.985   8.591   2.827
   19CHTO  H101 7842   3.031   8.630   0.025
   19CHTO   C66 7843   3.008   8.502   2.589
   19CHTO  H123 7844   3.078   8.505   2.505
   19CHTO   N12 7845   2.995   8.358   2.623
   19CHTO  H110 7846   2.927   8.346   2.707
   19CHTO  H111 7847   2.960   8.302   2.537
   19CHTO   C69 7848   2.875   8.566   2.541
   19CHTO  H126 7849   2.800   8.563   2.623
   19CHTO   O41 7850   2.902   8.714   2.500
   19CHTO   C64 7851   2.965   8.799   2.610
   19CHTO  H121 7852   2.895   8.807   2.696
   19CHTO   C71 7853   2.990   8.941   2.555
   19CHTO   O47 7854   2.867   9.005   2.520
   19CHTO  H104 7855   2.817   9.024   2.598
   19CHTO   O34 7856   2.816   8.491   2.417
   19CHTO   C49 7857   2.838   8.489   2.264
   19CHTO   H91 7858   2.800   8.584   2.225
   19CHTO   C47 7859   2.759   8.371   2.206
   19CHTO   H89 7860   2.768   8.377   2.095
   19CHTO   O33 7861   2.620   8.386   2.241
   19CHTO   H70 7862   2.608   8.378   2.333
   19CHTO   C45 7863   2.824   8.233   2.259
   19CHTO   H87 7864   2.819   8.233   2.369
   19CHTO    N8 7865   2.749   8.114   2.210
   19CHTO   H75 7866   2.756   8.108   2.103
   19CHTO   H76 7867   2.646   8.121   2.240
   19CHTO   C43 7868   2.981   8.227   2.224
   19CHTO   H85 7869   3.021   8.141   2.277
   19CHTO   O29 7870   3.048   8.349   2.262
   19CHTO   C50 7871   2.988   8.476   2.227
   19CHTO   H92 7872   3.042   8.554   2.282
   19CHTO   C54 7873   3.013   8.514   2.078
   19CHTO   O36 7874   3.153   8.522   2.048
   19CHTO   H72 7875   3.192   8.437   2.051
   19CHTO   O27 7876   3.007   8.202   2.084
   19CHTO   C37 7877   3.079   8.132   1.982
   19CHTO   H79 7878   3.069   8.024   1.996
   19CHTO   C38 7879   3.017   8.167   1.843
   19CHTO   H80 7880   3.016   8.277   1.832
   19CHTO   O31 7881   2.881   8.120   1.842
   19CHTO   H68 7882   2.878   8.026   1.849
   19CHTO   C39 7883   3.101   8.105   1.724
   19CHTO   H81 7884   3.092   7.996   1.732
   19CHTO    N7 7885   3.052   8.145   1.588
   19CHTO   H73 7886   3.022   8.058   1.531
   19CHTO   H74 7887   2.969   8.215   1.595
   19CHTO   C40 7888   3.254   8.140   1.743
   19CHTO   H82 7889   3.266   8.248   1.728
   19CHTO   O26 7890   3.298   8.099   1.873
   19CHTO   C41 7891   3.230   8.169   1.982
   19CHTO   H83 7892   3.241   8.278   1.969
   19CHTO   C52 7893   3.300   8.130   2.114
   19CHTO   O35 7894   3.441   8.173   2.118
   19CHTO   H71 7895   3.480   8.146   2.199
   19CHTO   O28 7896   3.338   8.070   1.650
   19CHTO   C42 7897   3.482   8.098   1.634
   19CHTO   H84 7898   3.518   8.113   1.736
   19CHTO   C44 7899   3.519   8.228   1.556
   19CHTO   H86 7900   3.474   8.223   1.456
   19CHTO   O32 7901   3.461   8.339   1.626
   19CHTO   H69 7902   3.367   8.337   1.619
   19CHTO   C48 7903   3.676   8.245   1.538
   19CHTO   H90 7904   3.720   8.253   1.638
   19CHTO    N9 7905   3.712   8.371   1.466
   19CHTO   H77 7906   3.676   8.457   1.521
   19CHTO   H78 7907   3.820   8.377   1.455
   19CHTO   C51 7908   3.733   8.116   1.468
   19CHTO   H93 7909   3.681   8.104   1.373
   19CHTO   O30 7910   3.709   8.006   1.556
   19CHTO   C46 7911   3.556   7.975   1.576
   19CHTO   H88 7912   3.513   7.949   1.479
   19CHTO   C53 7913   3.543   7.856   1.673
   19CHTO   O72 7914   3.607   7.740   1.620
   19CHTO  H199 7915   3.598   7.669   1.680
   19CHTO   O22 7916   3.876   8.121   1.448
   19CHTO   C31 7917   3.947   8.016   1.373
   19CHTO   H59 7918   3.883   7.925   1.378
   19CHTO   C29 7919   3.973   8.045   1.223
   19CHTO   H57 7920   4.036   8.135   1.217
   19CHTO   O21 7921   3.848   8.079   1.160
   19CHTO   H37 7922   3.791   8.004   1.157
   19CHTO   C27 7923   4.047   7.925   1.151
   19CHTO   H55 7924   3.978   7.839   1.147
   19CHTO    N5 7925   4.089   7.957   1.012
   19CHTO   H43 7926   4.072   8.061   0.990
   19CHTO   H44 7927   4.036   7.895   0.942
   19CHTO   C25 7928   4.170   7.877   1.237
   19CHTO   H53 7929   4.251   7.952   1.231
   19CHTO   O17 7930   4.135   7.859   1.377
   19CHTO   C32 7931   4.082   7.977   1.440
   19CHTO   H60 7932   4.152   8.060   1.428
   19CHTO   C36 7933   4.066   7.951   1.591
   19CHTO   O25 7934   3.975   7.844   1.616
   19CHTO   H40 7935   3.969   7.828   1.709
   19CHTO   O15 7936   4.224   7.738   1.187
   19CHTO   C19 7937   4.315   7.661   1.104
   19CHTO   H47 7938   4.282   7.681   1.001
   19CHTO   C20 7939   4.465   7.701   1.119
   19CHTO   H48 7940   4.497   7.695   1.224
   19CHTO   O19 7941   4.474   7.839   1.079
   19CHTO   H35 7942   4.560   7.871   1.095
   19CHTO   C21 7943   4.561   7.609   1.032
   19CHTO   H49 7944   4.544   7.632   0.927
   19CHTO    N4 7945   4.705   7.638   1.059
   19CHTO   H41 7946   4.727   7.741   1.035
   19CHTO   H42 7947   4.727   7.620   1.164
   19CHTO   C22 7948   4.525   7.459   1.052
   19CHTO   H50 7949   4.550   7.431   1.155
   19CHTO   O14 7950   4.385   7.440   1.028
   19CHTO   C23 7951   4.302   7.508   1.124
   19CHTO   H51 7952   4.335   7.477   1.224
   19CHTO   C34 7953   4.157   7.460   1.107
   19CHTO   O23 7954   4.144   7.323   1.145
   19CHTO   H38 7955   4.188   7.268   1.082
   19CHTO   O16 7956   4.596   7.373   0.960
   19CHTO   C24 7957   4.543   7.214   0.950
   19CHTO   H52 7958   4.436   7.205   0.965
   19CHTO   C26 7959   4.616   7.124   1.052
   19CHTO   H54 7960   4.726   7.138   1.040
   19CHTO   O20 7961   4.579   7.170   1.184
   19CHTO   H36 7962   4.627   7.123   1.249
   19CHTO   C30 7963   4.581   6.973   1.029
   19CHTO   H58 7964   4.475   6.956   1.051
   19CHTO    N6 7965   4.657   6.885   1.122
   19CHTO   H45 7966   4.628   6.782   1.106
   19CHTO   H46 7967   4.763   6.894   1.104
   19CHTO   C33 7968   4.603   6.934   0.880
   19CHTO   H61 7969   4.710   6.943   0.856
   19CHTO   O18 7970   4.530   7.026   0.795
   19CHTO   C28 7971   4.572   7.162   0.806
   19CHTO   H56 7972   4.679   7.171   0.786
   19CHTO   C35 7973   4.498   7.247   0.700
   19CHTO   O24 7974   4.356   7.241   0.713
   19CHTO   H39 7975   4.316   7.297   0.649
   19CHTO    O9 7976   4.569   6.796   0.850
   19CHTO   C13 7977   4.414   6.759   0.801
   19CHTO   H26 7978   4.378   6.839   0.733
   19CHTO   C11 7979   4.319   6.742   0.927
   19CHTO   H24 7980   4.308   6.841   0.974
   19CHTO    O8 7981   4.379   6.654   1.024
   19CHTO    H3 7982   4.388   6.568   0.989
   19CHTO    C9 7983   4.179   6.696   0.876
   19CHTO   H22 7984   4.147   6.773   0.805
   19CHTO    N2 7985   4.075   6.697   0.982
   19CHTO   H10 7986   4.098   6.623   1.057
   19CHTO   H11 7987   4.067   6.795   1.026
   19CHTO    C7 7988   4.191   6.559   0.801
   19CHTO   H20 7989   4.091   6.545   0.755
   19CHTO    O4 7990   4.288   6.563   0.694
   19CHTO   C14 7991   4.417   6.627   0.712
   19CHTO   H27 7992   4.450   6.657   0.611
   19CHTO   C18 7993   4.520   6.522   0.763
   19CHTO   O13 7994   4.541   6.418   0.667
   19CHTO    H7 7995   4.464   6.365   0.661
   19CHTO    O2 7996   4.227   6.433   0.904
   19CHTO    C1 7997   4.171   6.303   0.873
   19CHTO   H14 7998   4.194   6.279   0.767
   19CHTO    C2 7999   4.013   6.291   0.895
   19CHTO   H15 8000   3.992   6.342   0.990
   19CHTO    O6 8001   3.943   6.360   0.790
   19CHTO    H1 8002   3.963   6.322   0.707
   19CHTO    C3 8003   3.963   6.137   0.903
   19CHTO   H16 8004   3.969   6.092   0.803
   19CHTO    N1 8005   3.819   6.127   0.946
   19CHTO    H8 8006   3.807   6.172   1.044
   19CHTO    H9 8007   3.756   6.176   0.875
   19CHTO    C4 8008   4.059   6.053   0.995
   19CHTO   H17 8009   4.052   6.090   1.097
   19CHTO    O1 8010   4.193   6.067   0.946
   19CHTO    C5 8011   4.247   6.199   0.961
   19CHTO   H18 8012   4.239   6.230   1.065
   19CHTO   C16 8013   4.397   6.191   0.923
   19CHTO   O11 8014   4.469   6.107   1.015
   19CHTO    H5 8015   4.559   6.103   0.989
   19CHTO    O3 8016   4.036   5.911   0.989
   19CHTO    C6 8017   4.002   5.843   1.115
   19CHTO   H19 8018   3.964   5.912   1.190
   19CHTO    C8 8019   3.889   5.738   1.087
   19CHTO   H21 8020   3.920   5.676   1.003
   19CHTO    O7 8021   3.770   5.812   1.051
   19CHTO    H2 8022   3.781   5.852   0.967
   19CHTO   C12 8023   3.863   5.646   1.213
   19CHTO   H25 8024   3.818   5.711   1.292
   19CHTO    N3 8025   3.762   5.539   1.183
   19CHTO   H12 8026   3.668   5.584   1.154
   19CHTO   H13 8027   3.748   5.476   1.270
   19CHTO   C15 8028   3.999   5.589   1.267
   19CHTO   H28 8029   4.044   5.518   1.197
   19CHTO   O10 8030   3.986   5.523   1.406
   19CHTO    H4 8031   4.066   5.480   1.429
   19CHTO    O5 8032   4.091   5.697   1.293
   19CHTO   C10 8033   4.127   5.772   1.176
   19CHTO   H23 8034   4.169   5.703   1.103
   19CHTO   C17 8035   4.239   5.869   1.217
   19CHTO   O12 8036   4.198   5.963   1.317
   19CHTO    H6 8037   4.136   6.023   1.280
   20CHTO  H203 8038   4.441   1.016   2.501
   20CHTO   O82 8039   4.381   1.054   2.439
   20CHTO  C123 8040   4.452   1.105   2.325
   20CHTO  H227 8041   4.378   1.145   2.253
   20CHTO   O77 8042   4.533   1.214   2.379
   20CHTO  C118 8043   4.602   1.290   2.279
   20CHTO  H222 8044   4.532   1.330   2.205
   20CHTO  C125 8045   4.669   1.411   2.356
   20CHTO   O84 8046   4.718   1.512   2.267
   20CHTO  H205 8047   4.790   1.478   2.217
   20CHTO  C114 8048   4.707   1.200   2.211
   20CHTO  H218 8049   4.781   1.169   2.285
   20CHTO  C116 8050   4.642   1.070   2.153
   20CHTO  H220 8051   4.583   1.097   2.062
   20CHTO   O79 8052   4.746   0.981   2.109
   20CHTO  H201 8053   4.790   1.017   2.034
   20CHTO  C120 8054   4.547   0.999   2.257
   20CHTO  H224 8055   4.613   0.954   2.335
   20CHTO   N21 8056   4.471   0.887   2.195
   20CHTO  H211 8057   4.378   0.924   2.153
   20CHTO  H212 8058   4.451   0.810   2.268
   20CHTO   O75 8059   4.767   1.281   2.109
   20CHTO  C112 8060   4.931   1.269   2.099
   20CHTO  H216 8061   4.963   1.174   2.145
   20CHTO   O73 8062   4.986   1.383   2.168
   20CHTO  C113 8063   5.129   1.391   2.168
   20CHTO  H217 8064   5.170   1.300   2.217
   20CHTO  C124 8065   5.171   1.511   2.253
   20CHTO   O83 8066   5.128   1.502   2.390
   20CHTO  H204 8067   5.035   1.511   2.394
   20CHTO  C109 8068   5.183   1.401   2.023
   20CHTO  H213 8069   5.141   1.494   1.980
   20CHTO  C110 8070   5.132   1.278   1.941
   20CHTO  H214 8071   5.175   1.187   1.984
   20CHTO   O78 8072   5.180   1.287   1.806
   20CHTO  H200 8073   5.146   1.364   1.764
   20CHTO  C111 8074   4.977   1.271   1.948
   20CHTO  H215 8075   4.936   1.362   1.902
   20CHTO   N19 8076   4.919   1.156   1.873
   20CHTO  H207 8077   4.864   1.089   1.938
   20CHTO  H208 8078   4.854   1.192   1.794
   20CHTO   O74 8079   5.330   1.410   2.020
   20CHTO  C115 8080   5.387   1.554   1.961
   20CHTO  H219 8081   5.320   1.637   1.987
   20CHTO   O76 8082   5.524   1.593   2.025
   20CHTO  C122 8083   5.632   1.509   1.982
   20CHTO  H226 8084   5.610   1.408   2.017
   20CHTO  C126 8085   5.763   1.551   2.058
   20CHTO   O85 8086   5.801   1.687   2.033
   20CHTO  H206 8087   5.880   1.707   2.081
   20CHTO  C121 8088   5.653   1.508   1.825
   20CHTO  H225 8089   5.749   1.558   1.800
   20CHTO   O81 8090   5.664   1.372   1.780
   20CHTO  H202 8091   5.584   1.325   1.796
   20CHTO  C119 8092   5.538   1.582   1.749
   20CHTO  H223 8093   5.552   1.688   1.769
   20CHTO  C117 8094   5.396   1.540   1.803
   20CHTO  H221 8095   5.371   1.436   1.782
   20CHTO   N20 8096   5.288   1.620   1.737
   20CHTO  H209 8097   5.191   1.583   1.767
   20CHTO  H210 8098   5.298   1.724   1.762
   20CHTO   O80 8099   5.555   1.576   1.584
   20CHTO  C103 8100   5.655   1.676   1.509
   20CHTO  H190 8101   5.717   1.731   1.579
   20CHTO  C101 8102   5.746   1.607   1.399
   20CHTO  H188 8103   5.684   1.538   1.342
   20CHTO   O68 8104   5.857   1.526   1.470
   20CHTO  H168 8105   5.819   1.459   1.523
   20CHTO   C99 8106   5.806   1.713   1.293
   20CHTO  H186 8107   5.875   1.783   1.346
   20CHTO   N17 8108   5.884   1.650   1.181
   20CHTO  H174 8109   5.988   1.679   1.187
   20CHTO  H175 8110   5.873   1.542   1.183
   20CHTO   C97 8111   5.690   1.801   1.239
   20CHTO  H184 8112   5.619   1.733   1.189
   20CHTO   O64 8113   5.630   1.868   1.351
   20CHTO  C104 8114   5.559   1.780   1.440
   20CHTO  H191 8115   5.481   1.725   1.386
   20CHTO  C108 8116   5.487   1.866   1.544
   20CHTO   O71 8117   5.381   1.941   1.484
   20CHTO  H171 8118   5.311   1.883   1.461
   20CHTO   O62 8119   5.733   1.903   1.146
   20CHTO   C91 8120   5.645   2.009   1.104
   20CHTO  H178 8121   5.597   2.050   1.193
   20CHTO   C92 8122   5.528   1.960   1.011
   20CHTO  H179 8123   5.572   1.901   0.928
   20CHTO   O66 8124   5.445   1.868   1.085
   20CHTO  H166 8125   5.382   1.829   1.028
   20CHTO   C93 8126   5.439   2.079   0.954
   20CHTO  H180 8127   5.378   2.116   1.038
   20CHTO   N16 8128   5.343   2.035   0.851
   20CHTO  H172 8129   5.277   1.958   0.891
   20CHTO  H173 8130   5.284   2.119   0.816
   20CHTO   C94 8131   5.528   2.197   0.900
   20CHTO  H181 8132   5.581   2.169   0.809
   20CHTO   O61 8133   5.628   2.233   0.997
   20CHTO   C95 8134   5.720   2.128   1.031
   20CHTO  H182 8135   5.767   2.091   0.940
   20CHTO  C106 8136   5.832   2.192   1.120
   20CHTO   O69 8137   5.939   2.100   1.147
   20CHTO  H169 8138   5.909   2.032   1.204
   20CHTO   O63 8139   5.437   2.331   0.880
   20CHTO   C96 8140   5.413   2.383   0.727
   20CHTO  H183 8141   5.365   2.303   0.672
   20CHTO   C98 8142   5.544   2.422   0.651
   20CHTO  H185 8143   5.614   2.468   0.723
   20CHTO   O67 8144   5.608   2.301   0.608
   20CHTO  H167 8145   5.554   2.255   0.546
   20CHTO  C102 8146   5.523   2.521   0.525
   20CHTO  H189 8147   5.480   2.458   0.445
   20CHTO   N18 8148   5.649   2.576   0.470
   20CHTO  H176 8149   5.699   2.635   0.545
   20CHTO  H177 8150   5.628   2.638   0.384
   20CHTO  C105 8151   5.419   2.630   0.561
   20CHTO  H192 8152   5.460   2.695   0.638
   20CHTO   O65 8153   5.297   2.572   0.610
   20CHTO  C100 8154   5.312   2.504   0.736
   20CHTO  H187 8155   5.350   2.576   0.810
   20CHTO  C107 8156   5.173   2.455   0.783
   20CHTO   O70 8157   5.085   2.565   0.807
   20CHTO  H170 8158   5.001   2.533   0.835
   20CHTO   O57 8159   5.387   2.717   0.425
   20CHTO   C85 8160   5.375   2.860   0.434
   20CHTO  H157 8161   5.435   2.892   0.522
   20CHTO   C83 8162   5.227   2.899   0.468
   20CHTO  H155 8163   5.205   2.861   0.569
   20CHTO   O56 8164   5.137   2.831   0.379
   20CHTO  H135 8165   5.142   2.738   0.392
   20CHTO   C81 8166   5.211   3.054   0.468
   20CHTO  H153 8167   5.281   3.095   0.542
   20CHTO   N14 8168   5.077   3.098   0.516
   20CHTO  H141 8169   5.031   3.164   0.446
   20CHTO  H142 8170   5.086   3.148   0.610
   20CHTO   C79 8171   5.250   3.112   0.327
   20CHTO  H151 8172   5.245   3.221   0.335
   20CHTO   O52 8173   5.390   3.079   0.299
   20CHTO   C86 8174   5.419   2.935   0.302
   20CHTO  H158 8175   5.367   2.894   0.214
   20CHTO   C90 8176   5.570   2.915   0.276
   20CHTO   O60 8177   5.607   2.965   0.147
   20CHTO  H138 8178   5.602   3.059   0.147
   20CHTO   O50 8179   5.165   3.071   0.219
   20CHTO   C73 8180   5.183   3.070   0.076
   20CHTO  H145 8181   5.277   3.019   0.050
   20CHTO   C74 8182   5.190   3.215   0.018
   20CHTO  H146 8183   5.274   3.266   0.068
   20CHTO   O54 8184   5.227   3.207   2.753
   20CHTO  H133 8185   5.160   3.163   2.703
   20CHTO   C75 8186   5.053   3.288   0.044
   20CHTO  H147 8187   5.038   3.295   0.153
   20CHTO   N13 8188   5.049   3.427   2.867
   20CHTO  H139 8189   5.027   3.496   0.073
   20CHTO  H140 8190   4.975   3.439   2.790
   20CHTO   C76 8191   4.932   3.199   2.860
   20CHTO  H148 8192   4.941   3.200   2.751
   20CHTO   O49 8193   4.940   3.060   0.032
   20CHTO   C77 8194   5.065   2.994   0.008
   20CHTO  H149 8195   5.084   2.987   2.775
   20CHTO   C88 8196   5.052   2.849   0.058
   20CHTO   O58 8197   5.181   2.775   0.046
   20CHTO  H136 8198   5.203   2.763   2.830
   20CHTO   O51 8199   4.784   3.255   0.036
   20CHTO   C78 8200   4.757   3.281   0.198
   20CHTO  H150 8201   4.849   3.317   0.249
   20CHTO   C80 8202   4.709   3.152   0.268
   20CHTO  H152 8203   4.632   3.104   0.204
   20CHTO   O55 8204   4.822   3.062   0.275
   20CHTO  H134 8205   4.794   2.978   0.307
   20CHTO   C84 8206   4.649   3.178   0.412
   20CHTO  H156 8207   4.732   3.208   0.477
   20CHTO   N15 8208   4.590   3.053   0.470
   20CHTO  H143 8209   4.485   3.064   0.489
   20CHTO  H144 8210   4.639   3.028   0.562
   20CHTO   C87 8211   4.547   3.295   0.406
   20CHTO  H159 8212   4.463   3.264   0.343
   20CHTO   O53 8213   4.615   3.414   0.346
   20CHTO   C82 8214   4.651   3.392   0.209
   20CHTO  H154 8215   4.562   3.365   0.152
   20CHTO   C89 8216   4.703   3.526   0.150
   20CHTO   O59 8217   4.814   3.580   0.223
   20CHTO  H137 8218   4.889   3.525   0.212
   20CHTO   O45 8219   4.482   3.339   0.554
   20CHTO   C67 8220   4.570   3.361   0.666
   20CHTO  H124 8221   4.633   3.272   0.679
   20CHTO   C65 8222   4.663   3.486   0.646
   20CHTO  H122 8223   4.615   3.547   0.569
   20CHTO   O44 8224   4.788   3.437   0.596
   20CHTO  H102 8225   4.842   3.509   0.569
   20CHTO   C63 8226   4.668   3.581   0.773
   20CHTO  H120 8227   4.573   3.633   0.781
   20CHTO   N11 8228   4.764   3.695   0.765
   20CHTO  H108 8229   4.747   3.751   0.675
   20CHTO  H109 8230   4.752   3.760   0.850
   20CHTO   C61 8231   4.682   3.492   0.902
   20CHTO  H118 8232   4.676   3.560   0.988
   20CHTO   O40 8233   4.572   3.397   0.916
   20CHTO   C68 8234   4.486   3.372   0.800
   20CHTO  H125 8235   4.413   3.455   0.791
   20CHTO   C72 8236   4.405   3.245   0.834
   20CHTO   O48 8237   4.303   3.214   0.739
   20CHTO  H105 8238   4.236   3.279   0.742
   20CHTO   O38 8239   4.807   3.420   0.905
   20CHTO   C55 8240   4.835   3.346   1.026
   20CHTO  H112 8241   4.741   3.321   1.079
   20CHTO   C56 8242   4.936   3.425   1.119
   20CHTO  H113 8243   5.024   3.450   1.057
   20CHTO   O42 8244   4.877   3.552   1.157
   20CHTO  H100 8245   4.799   3.538   1.207
   20CHTO   C57 8246   4.977   3.339   1.245
   20CHTO  H114 8247   4.888   3.332   1.308
   20CHTO   N10 8248   5.084   3.402   1.328
   20CHTO  H106 8249   5.151   3.460   1.266
   20CHTO  H107 8250   5.141   3.328   1.381
   20CHTO   C58 8251   5.018   3.196   1.201
   20CHTO  H115 8252   5.117   3.199   1.150
   20CHTO   O37 8253   4.921   3.136   1.113
   20CHTO   C59 8254   4.899   3.209   0.991
   20CHTO  H116 8255   4.994   3.223   0.940
   20CHTO   C70 8256   4.810   3.124   0.898
   20CHTO   O46 8257   4.683   3.091   0.955
   20CHTO  H103 8258   4.695   3.031   1.026
   20CHTO   O39 8259   5.024   3.099   1.330
   20CHTO   C60 8260   5.078   2.968   1.306
   20CHTO  H117 8261   5.067   2.942   1.201
   20CHTO   C62 8262   5.230   2.961   1.340
   20CHTO  H119 8263   5.281   3.032   1.271
   20CHTO   O43 8264   5.252   3.008   1.475
   20CHTO  H101 8265   5.209   2.951   1.537
   20CHTO   C66 8266   5.283   2.812   1.315
   20CHTO  H123 8267   5.260   2.784   1.212
   20CHTO   N12 8268   5.431   2.802   1.326
   20CHTO  H110 8269   5.463   2.701   1.306
   20CHTO  H111 8270   5.463   2.834   1.425
   20CHTO   C69 8271   5.207   2.715   1.409
   20CHTO  H126 8272   5.224   2.743   1.515
   20CHTO   O41 8273   5.055   2.724   1.375
   20CHTO   C64 8274   4.997   2.864   1.388
   20CHTO  H121 8275   4.997   2.895   1.495
   20CHTO   C71 8276   4.849   2.860   1.341
   20CHTO   O47 8277   4.837   2.812   1.206
   20CHTO  H104 8278   4.746   2.806   1.183
   20CHTO   O34 8279   5.251   2.570   1.390
   20CHTO   C49 8280   5.201   2.427   1.395
   20CHTO   H91 8281   5.141   2.414   1.305
   20CHTO   C47 8282   5.110   2.403   1.519
   20CHTO   H89 8283   5.007   2.430   1.485
   20CHTO   O33 8284   5.147   2.488   1.629
   20CHTO   H70 8285   5.082   2.483   1.696
   20CHTO   C45 8286   5.116   2.248   1.568
   20CHTO   H87 8287   5.203   2.238   1.635
   20CHTO    N8 8288   4.995   2.209   1.646
   20CHTO   H75 8289   5.021   2.193   1.749
   20CHTO   H76 8290   4.918   2.285   1.639
   20CHTO   C43 8291   5.148   2.150   1.446
   20CHTO   H85 8292   5.149   2.049   1.487
   20CHTO   O29 8293   5.276   2.185   1.388
   20CHTO   C50 8294   5.316   2.323   1.392
   20CHTO   H92 8295   5.379   2.339   1.480
   20CHTO   C54 8296   5.411   2.349   1.273
   20CHTO   O36 8297   5.533   2.276   1.288
   20CHTO   H72 8298   5.589   2.293   1.215
   20CHTO   O27 8299   5.047   2.153   1.344
   20CHTO   C37 8300   4.967   2.096   1.240
   20CHTO   H79 8301   4.872   2.058   1.281
   20CHTO   C38 8302   4.930   2.206   1.135
   20CHTO   H80 8303   5.023   2.255   1.102
   20CHTO   O31 8304   4.849   2.304   1.202
   20CHTO   H68 8305   4.900   2.351   1.266
   20CHTO   C39 8306   4.855   2.146   1.010
   20CHTO   H81 8307   4.757   2.111   1.045
   20CHTO    N7 8308   4.829   2.247   0.902
   20CHTO   H73 8309   4.775   2.201   0.820
   20CHTO   H74 8310   4.923   2.288   0.867
   20CHTO   C40 8311   4.932   2.020   0.954
   20CHTO   H82 8312   5.025   2.052   0.906
   20CHTO   O26 8313   4.957   1.927   1.061
   20CHTO   C41 8314   5.041   1.980   1.168
   20CHTO   H83 8315   5.136   2.017   1.126
   20CHTO   C52 8316   5.074   1.863   1.264
   20CHTO   O35 8317   5.154   1.758   1.199
   20CHTO   H71 8318   5.175   1.691   1.261
   20CHTO   O28 8319   4.853   1.949   0.856
   20CHTO   C42 8320   4.901   1.834   0.778
   20CHTO   H84 8321   4.819   1.815   0.708
   20CHTO   C44 8322   4.923   1.701   0.857
   20CHTO   H86 8323   5.000   1.718   0.933
   20CHTO   O32 8324   4.800   1.672   0.924
   20CHTO   H69 8325   4.732   1.652   0.862
   20CHTO   C48 8326   4.972   1.582   0.765
   20CHTO   H90 8327   4.890   1.555   0.698
   20CHTO    N9 8328   5.001   1.458   0.845
   20CHTO   H77 8329   5.031   1.378   0.779
   20CHTO   H78 8330   5.080   1.478   0.917
   20CHTO   C51 8331   5.095   1.629   0.679
   20CHTO   H93 8332   5.178   1.648   0.747
   20CHTO   O30 8333   5.059   1.746   0.604
   20CHTO   C46 8334   5.027   1.865   0.692
   20CHTO   H88 8335   5.112   1.884   0.758
   20CHTO   C53 8336   5.005   1.987   0.599
   20CHTO   O72 8337   5.123   2.020   0.526
   20CHTO  H199 8338   5.141   1.953   0.462
   20CHTO   O22 8339   5.132   1.533   0.578
   20CHTO   C31 8340   5.273   1.515   0.538
   20CHTO   H59 8341   5.271   1.461   0.441
   20CHTO   C29 8342   5.351   1.647   0.514
   20CHTO   H57 8343   5.336   1.711   0.603
   20CHTO   O21 8344   5.287   1.716   0.404
   20CHTO   H37 8345   5.302   1.671   0.324
   20CHTO   C27 8346   5.506   1.627   0.492
   20CHTO   H55 8347   5.521   1.574   0.396
   20CHTO    N5 8348   5.579   1.756   0.486
   20CHTO   H43 8349   5.567   1.810   0.579
   20CHTO   H44 8350   5.543   1.815   0.404
   20CHTO   C25 8351   5.561   1.533   0.605
   20CHTO   H53 8352   5.545   1.581   0.703
   20CHTO   O17 8353   5.488   1.407   0.602
   20CHTO   C32 8354   5.349   1.421   0.637
   20CHTO   H60 8355   5.342   1.462   0.737
   20CHTO   C36 8356   5.287   1.279   0.639
   20CHTO   O25 8357   5.295   1.212   0.513
   20CHTO   H40 8358   5.240   1.255   0.450
   20CHTO   O15 8359   5.717   1.497   0.591
   20CHTO   C19 8360   5.846   1.564   0.594
   20CHTO   H47 8361   5.838   1.642   0.517
   20CHTO   C20 8362   5.885   1.631   0.729
   20CHTO   H48 8363   5.902   1.556   0.808
   20CHTO   O19 8364   5.777   1.716   0.769
   20CHTO   H35 8365   5.702   1.665   0.794
   20CHTO   C21 8366   6.019   1.714   0.711
   20CHTO   H49 8367   6.000   1.795   0.640
   20CHTO    N4 8368   6.068   1.778   0.837
   20CHTO   H41 8369   6.004   1.753   0.920
   20CHTO   H42 8370   6.071   1.885   0.825
   20CHTO   C22 8371   6.128   1.626   0.645
   20CHTO   H50 8372   6.165   1.554   0.718
   20CHTO   O14 8373   6.080   1.557   0.528
   20CHTO   C23 8374   5.965   1.473   0.550
   20CHTO   H51 8375   5.992   1.400   0.628
   20CHTO   C34 8376   5.936   1.393   0.423
   20CHTO   O23 8377   5.903   1.475   0.311
   20CHTO   H38 8378   5.820   1.517   0.325
   20CHTO   O16 8379   6.236   1.707   0.592
   20CHTO   C24 8380   6.379   1.639   0.603
   20CHTO   H52 8381   6.374   1.541   0.648
   20CHTO   C26 8382   6.473   1.729   0.685
   20CHTO   H54 8383   6.473   1.831   0.640
   20CHTO   O20 8384   6.423   1.747   0.819
   20CHTO   H36 8385   6.474   1.811   0.864
   20CHTO   C30 8386   6.619   1.672   0.692
   20CHTO   H58 8387   6.638   1.629   0.791
   20CHTO    N6 8388   6.721   1.780   0.678
   20CHTO   H45 8389   6.711   1.829   0.582
   20CHTO   H46 8390   6.820   1.739   0.686
   20CHTO   C33 8391   6.642   1.557   0.590
   20CHTO   H61 8392   6.749   1.539   0.574
   20CHTO   O18 8393   6.581   1.588   0.462
   20CHTO   C28 8394   6.440   1.621   0.460
   20CHTO   H56 8395   6.427   1.714   0.404
   20CHTO   C35 8396   6.364   1.510   0.383
   20CHTO   O24 8397   6.402   1.502   0.246
   20CHTO   H39 8398   6.490   1.470   0.239
   20CHTO    O9 8399   6.589   1.434   0.645
   20CHTO   C13 8400   6.685   1.306   0.647
   20CHTO   H26 8401   6.773   1.332   0.709
   20CHTO   C11 8402   6.727   1.265   0.499
   20CHTO   H24 8403   6.802   1.338   0.464
   20CHTO    O8 8404   6.615   1.272   0.410
   20CHTO    H3 8405   6.548   1.213   0.437
   20CHTO    C9 8406   6.792   1.124   0.505
   20CHTO   H22 8407   6.867   1.129   0.585
   20CHTO    N2 8408   6.869   1.088   0.384
   20CHTO   H10 8409   6.919   0.993   0.400
   20CHTO   H11 8410   6.942   1.165   0.362
   20CHTO    C7 8411   6.681   1.019   0.547
   20CHTO   H20 8412   6.738   0.941   0.602
   20CHTO    O4 8413   6.580   1.075   0.634
   20CHTO   C14 8414   6.615   1.183   0.722
   20CHTO   H27 8415   6.687   1.142   0.796
   20CHTO   C18 8416   6.487   1.221   0.801
   20CHTO   O13 8417   6.377   1.255   0.716
   20CHTO    H7 8418   6.302   1.277   0.768
   20CHTO    O2 8419   6.602   0.948   0.419
   20CHTO    C1 8420   6.525   0.834   0.461
   20CHTO   H14 8421   6.526   0.826   0.572
   20CHTO    C2 8422   6.580   0.698   0.401
   20CHTO   H15 8423   6.576   0.708   0.292
   20CHTO    O6 8424   6.716   0.680   0.444
   20CHTO    H1 8425   6.772   0.744   0.405
   20CHTO    C3 8426   6.488   0.576   0.449
   20CHTO   H16 8427   6.506   0.560   0.557
   20CHTO    N1 8428   6.523   0.447   0.380
   20CHTO    H8 8429   6.604   0.461   0.310
   20CHTO    H9 8430   6.551   0.372   0.453
   20CHTO    C4 8431   6.334   0.608   0.436
   20CHTO   H17 8432   6.303   0.594   0.332
   20CHTO    O1 8433   6.301   0.741   0.481
   20CHTO    C5 8434   6.376   0.847   0.419
   20CHTO   H18 8435   6.369   0.840   0.310
   20CHTO   C16 8436   6.308   0.979   0.464
   20CHTO   O11 8437   6.359   1.093   0.394
   20CHTO    H5 8438   6.331   1.090   0.304
   20CHTO    O3 8439   6.258   0.523   0.526
   20CHTO    C6 8440   6.140   0.453   0.473
   20CHTO   H19 8441   6.122   0.474   0.367
   20CHTO    C8 8442   6.159   0.299   0.491
   20CHTO   H21 8443   6.190   0.280   0.594
   20CHTO    O7 8444   6.264   0.257   0.401
   20CHTO    H2 8445   6.347   0.290   0.430
   20CHTO   C12 8446   6.025   0.219   0.462
   20CHTO   H25 8447   6.007   0.227   0.353
   20CHTO    N3 8448   6.041   0.073   0.493
   20CHTO   H12 8449   6.065   0.059   0.598
   20CHTO   H13 8450   5.950   0.020   0.468
   20CHTO   C15 8451   5.905   0.286   0.539
   20CHTO   H28 8452   5.912   0.271   0.647
   20CHTO   O10 8453   5.769   0.236   0.489
   20CHTO    H4 8454   5.759   0.145   0.509
   20CHTO    O5 8455   5.898   0.425   0.508
   20CHTO   C10 8456   6.014   0.499   0.551
   20CHTO   H23 8457   6.029   0.481   0.657
   20CHTO   C17 8458   5.984   0.648   0.532
   20CHTO   O12 8459   5.877   0.691   0.616
   20CHTO    H6 8460   5.904   0.691   0.706
   21GLOH   H03 8461   3.378   9.939   1.583
   21GLOH    O1 8462   3.282   9.914   1.568
   21GLOH    C1 8463   3.246   9.803   1.653
   21GLOH   H02 8464   3.154   9.758   1.616
   21GLOH   H08 8465   3.224   9.839   1.754
   21GLOH    C2 8466   3.353   9.694   1.662
   21GLOH   H04 8467   3.384   9.668   1.559
   21GLOH    O2 8468   3.468   9.743   1.735
   21GLOH   H05 8469   3.505   9.822   1.686
   21GLOH    C3 8470   3.294   9.567   1.727
   21GLOH   H06 8471   3.204   9.541   1.672
   21GLOH   H07 8472   3.263   9.592   1.829
   21GLOH    O3 8473   3.385   9.456   1.729
   21GLOH   H01 8474   3.457   9.479   1.794
   22GLOH   H03 8475   3.029   9.065   1.824
   22GLOH    O1 8476   3.026   9.088   1.728
   22GLOH    C1 8477   2.944   9.204   1.706
   22GLOH   H02 8478   2.885   9.226   1.796
   22GLOH   H08 8479   2.872   9.185   1.627
   22GLOH    C2 8480   3.024   9.331   1.668
   22GLOH   H04 8481   3.098   9.350   1.747
   22GLOH    O2 8482   3.091   9.317   1.541
   22GLOH   H05 8483   3.113   9.221   1.525
   22GLOH    C3 8484   2.928   9.452   1.661
   22GLOH   H06 8485   2.854   9.433   1.584
   22GLOH   H07 8486   2.985   9.539   1.630
   22GLOH    O3 8487   2.863   9.478   1.787
   22GLOH   H01 8488   2.926   9.533   1.842
   23GLOH   H03 8489   3.515   9.054   1.969
   23GLOH    O1 8490   3.451   9.039   2.043
   23GLOH    C1 8491   3.524   9.006   2.163
   23GLOH   H02 8492   3.576   8.911   2.150
   23GLOH   H08 8493   3.453   8.991   2.245
   23GLOH    C2 8494   3.626   9.112   2.208
   23GLOH   H04 8495   3.681   9.072   2.294
   23GLOH    O2 8496   3.721   9.142   2.104
   23GLOH   H05 8497   3.758   9.058   2.064
   23GLOH    C3 8498   3.554   9.240   2.255
   23GLOH   H06 8499   3.488   9.276   2.175
   23GLOH   H07 8500   3.628   9.318   2.273
   23GLOH    O3 8501   3.478   9.216   2.374
   23GLOH   H01 8502   3.474   9.299   2.428
   24GLOH   H03 8503   4.556   1.319   1.471
   24GLOH    O1 8504   4.622   1.386   1.438
   24GLOH    C1 8505   4.575   1.435   1.311
   24GLOH   H02 8506   4.534   1.535   1.323
   24GLOH   H08 8507   4.495   1.372   1.272
   24GLOH    C2 8508   4.687   1.442   1.205
   24GLOH   H04 8509   4.731   1.341   1.196
   24GLOH    O2 8510   4.632   1.481   1.077
   24GLOH   H05 8511   4.610   1.577   1.080
   24GLOH    C3 8512   4.799   1.537   1.251
   24GLOH   H06 8513   4.877   1.537   1.175
   24GLOH   H07 8514   4.844   1.496   1.342
   24GLOH    O3 8515   4.754   1.672   1.275
   24GLOH   H01 8516   4.780   1.699   1.367
   25GLOH   H03 8517   4.077   3.898   2.021
   25GLOH    O1 8518   4.019   3.899   1.940
   25GLOH    C1 8519   4.103   3.913   1.824
   25GLOH   H02 8520   4.191   3.974   1.849
   25GLOH   H08 8521   4.049   3.967   1.746
   25GLOH    C2 8522   4.152   3.779   1.767
   25GLOH   H04 8523   4.199   3.721   1.848
   25GLOH    O2 8524   4.042   3.703   1.713
   25GLOH   H05 8525   4.052   3.692   1.614
   25GLOH    C3 8526   4.258   3.801   1.657
   25GLOH   H06 8527   4.211   3.854   1.575
   25GLOH   H07 8528   4.286   3.703   1.619
   25GLOH    O3 8529   4.374   3.872   1.701
   25GLOH   H01 8530   4.390   3.946   1.636
   26GLOH   H03 8531   4.266   1.871   2.653
   26GLOH    O1 8532   4.249   1.928   2.574
   26GLOH    C1 8533   4.110   1.918   2.536
   26GLOH   H02 8534   4.048   1.971   2.608
   26GLOH   H08 8535   4.078   1.813   2.539
   26GLOH    C2 8536   4.081   1.973   2.395
   26GLOH   H04 8537   4.129   1.906   2.323
   26GLOH    O2 8538   3.939   1.975   2.367
   26GLOH   H05 8539   3.887   1.984   2.449
   26GLOH    C3 8540   4.140   2.114   2.376
   26GLOH   H06 8541   4.092   2.183   2.445
   26GLOH   H07 8542   4.118   2.148   2.275
   26GLOH    O3 8543   4.282   2.113   2.397
   26GLOH   H01 8544   4.298   2.046   2.469
   27GLOH   H03 8545   3.687   1.992   1.697
   27GLOH    O1 8546   3.589   1.993   1.678
   27GLOH    C1 8547   3.564   1.906   1.567
   27GLOH   H02 8548   3.615   1.943   1.478
   27GLOH   H08 8549   3.457   1.905   1.543
   27GLOH    C2 8550   3.609   1.760   1.588
   27GLOH   H04 8551   3.567   1.701   1.506
   27GLOH    O2 8552   3.752   1.746   1.584
   27GLOH   H05 8553   3.778   1.774   1.491
   27GLOH    C3 8554   3.551   1.703   1.719
   27GLOH   H06 8555   3.592   1.759   1.803
   27GLOH   H07 8556   3.585   1.600   1.728
   27GLOH    O3 8557   3.407   1.708   1.720
   27GLOH   H01 8558   3.376   1.702   1.814
   28GLOH   H03 8559   2.767   0.519   1.838
   28GLOH    O1 8560   2.761   0.505   1.935
   28GLOH    C1 8561   2.807   0.626   1.998
   28GLOH   H02 8562   2.916   0.628   1.997
   28GLOH   H08 8563   2.775   0.628   2.102
   28GLOH    C2 8564   2.756   0.754   1.929
   28GLOH   H04 8565   2.645   0.751   1.928
   28GLOH    O2 8566   2.800   0.871   2.001
   28GLOH   H05 8567   2.737   0.947   1.980
   28GLOH    C3 8568   2.806   0.758   1.783
   28GLOH   H06 8569   2.913   0.775   1.784
   28GLOH   H07 8570   2.761   0.844   1.734
   28GLOH    O3 8571   2.776   0.638   1.709
   28GLOH   H01 8572   2.836   0.636   1.630
   29GLOH   H03 8573   3.882   9.103   1.276
   29GLOH    O1 8574   3.905   9.157   1.357
   29GLOH    C1 8575   3.802   9.143   1.457
   29GLOH   H02 8576   3.804   9.043   1.500
   29GLOH   H08 8577   3.703   9.156   1.413
   29GLOH    C2 8578   3.821   9.245   1.570
   29GLOH   H04 8579   3.834   9.345   1.524
   29GLOH    O2 8580   3.705   9.249   1.656
   29GLOH   H05 8581   3.649   9.324   1.623
   29GLOH    C3 8582   3.949   9.213   1.649
   29GLOH   H06 8583   3.937   9.117   1.698
   29GLOH   H07 8584   3.961   9.288   1.728
   29GLOH    O3 8585   4.064   9.214   1.562
   29GLOH   H01 8586   4.030   9.192   1.472
   30GLOH   H03 8587   3.819   4.306   2.413
   30GLOH    O1 8588   3.898   4.249   2.418
   30GLOH    C1 8589   3.926   4.215   2.555
   30GLOH   H02 8590   3.844   4.157   2.597
   30GLOH   H08 8591   3.935   4.306   2.616
   30GLOH    C2 8592   4.056   4.134   2.571
   30GLOH   H04 8593   4.140   4.197   2.538
   30GLOH    O2 8594   4.076   4.098   2.709
   30GLOH   H05 8595   4.164   4.057   2.720
   30GLOH    C3 8596   4.051   4.008   2.482
   30GLOH   H06 8597   3.970   3.943   2.517
   30GLOH   H07 8598   4.144   3.953   2.493
   30GLOH    O3 8599   4.030   4.044   2.344
   30GLOH   H01 8600   3.974   4.125   2.346
   31GLOH   H03 8601   2.608   1.109   1.863
   31GLOH    O1 8602   2.646   1.064   1.943
   31GLOH    C1 8603   2.584   1.123   2.060
   31GLOH   H02 8604   2.508   1.056   2.099
   31GLOH   H08 8605   2.532   1.216   2.033
   31GLOH    C2 8606   2.684   1.155   2.173
   31GLOH   H04 8607   2.738   1.063   2.198
   31GLOH    O2 8608   2.780   1.257   2.135
   31GLOH   H05 8609   2.762   1.285   2.040
   31GLOH    C3 8610   2.608   1.202   2.298
   31GLOH   H06 8611   2.552   1.292   2.273
   31GLOH   H07 8612   2.680   1.230   2.374
   31GLOH    O3 8613   2.519   1.101   2.349
   31GLOH   H01 8614   2.569   1.034   2.400
   32GLOH   H03 8615   4.197   1.534   0.905
   32GLOH    O1 8616   4.258   1.587   0.847
   32GLOH    C1 8617   4.389   1.528   0.853
   32GLOH   H02 8618   4.413   1.504   0.957
   32GLOH   H08 8619   4.464   1.599   0.820
   32GLOH    C2 8620   4.402   1.399   0.769
   32GLOH   H04 8621   4.319   1.332   0.796
   32GLOH    O2 8622   4.396   1.425   0.627
   32GLOH   H05 8623   4.312   1.475   0.605
   32GLOH    C3 8624   4.534   1.327   0.803
   32GLOH   H06 8625   4.617   1.395   0.783
   32GLOH   H07 8626   4.546   1.243   0.734
   32GLOH    O3 8627   4.539   1.281   0.939
   32GLOH   H01 8628   4.579   1.353   0.995
   33GLOH   H03 8629   3.960   1.066   1.497
   33GLOH    O1 8630   3.995   1.060   1.404
   33GLOH    C1 8631   3.987   0.923   1.358
   33GLOH   H02 8632   3.894   0.877   1.391
   33GLOH   H08 8633   4.068   0.864   1.401
   33GLOH    C2 8634   3.997   0.912   1.205
   33GLOH   H04 8635   4.093   0.957   1.173
   33GLOH    O2 8636   3.993   0.775   1.162
   33GLOH   H05 8637   3.908   0.732   1.193
   33GLOH    C3 8638   3.883   0.993   1.138
   33GLOH   H06 8639   3.788   0.949   1.166
   33GLOH   H07 8640   3.893   0.984   1.030
   33GLOH    O3 8641   3.888   1.131   1.178
   33GLOH   H01 8642   3.923   1.132   1.270
   34GLOH   H03 8643   3.848   3.368   0.434
   34GLOH    O1 8644   3.856   3.334   0.342
   34GLOH    C1 8645   3.985   3.369   0.288
   34GLOH   H02 8646   4.011   3.471   0.314
   34GLOH   H08 8647   3.983   3.364   0.179
   34GLOH    C2 8648   4.099   3.277   0.338
   34GLOH   H04 8649   4.073   3.174   0.309
   34GLOH    O2 8650   4.224   3.312   0.276
   34GLOH   H05 8651   4.251   3.404   0.304
   34GLOH    C3 8652   4.112   3.281   0.491
   34GLOH   H06 8653   4.194   3.215   0.518
   34GLOH   H07 8654   4.022   3.238   0.535
   34GLOH    O3 8655   4.136   3.414   0.542
   34GLOH   H01 8656   4.108   3.418   0.638
   35GLOH   H03 8657   3.962   2.859   1.691
   35GLOH    O1 8658   3.996   2.934   1.635
   35GLOH    C1 8659   4.139   2.915   1.625
   35GLOH   H02 8660   4.183   2.907   1.725
   35GLOH   H08 8661   4.186   3.001   1.577
   35GLOH    C2 8662   4.175   2.789   1.544
   35GLOH   H04 8663   4.106   2.709   1.574
   35GLOH    O2 8664   4.159   2.813   1.403
   35GLOH   H05 8665   4.081   2.759   1.371
   35GLOH    C3 8666   4.317   2.741   1.581
   35GLOH   H06 8667   4.326   2.737   1.689
   35GLOH   H07 8668   4.389   2.816   1.546
   35GLOH    O3 8669   4.348   2.612   1.524
   35GLOH   H01 8670   4.403   2.633   1.443
   36GLOH   H03 8671   4.514   2.826   2.540
   36GLOH    O1 8672   4.523   2.788   2.631
   36GLOH    C1 8673   4.413   2.698   2.655
   36GLOH   H02 8674   4.434   2.600   2.611
   36GLOH   H08 8675   4.322   2.734   2.607
   36GLOH    C2 8676   4.384   2.679   2.805
   36GLOH   H04 8677   4.359   2.776   2.848
   36GLOH    O2 8678   4.274   2.590   2.827
   36GLOH   H05 8679   4.244   2.599   0.048
   36GLOH    C3 8680   4.509   2.625   0.003
   36GLOH   H06 8681   4.535   2.528   2.836
   36GLOH   H07 8682   4.484   2.610   0.108
   36GLOH    O3 8683   4.619   2.717   2.864
   36GLOH   H01 8684   4.610   2.756   2.773
   37GLOH   H03 8685   4.234   2.957   2.024
   37GLOH    O1 8686   4.169   3.028   1.998
   37GLOH    C1 8687   4.078   3.047   2.107
   37GLOH   H02 8688   4.040   3.150   2.107
   37GLOH   H08 8689   4.128   3.033   2.202
   37GLOH    C2 8690   3.958   2.951   2.100
   37GLOH   H04 8691   3.998   2.849   2.088
   37GLOH    O2 8692   3.879   2.955   2.221
   37GLOH   H05 8693   3.800   2.895   2.208
   37GLOH    C3 8694   3.873   2.983   1.976
   37GLOH   H06 8695   3.788   2.915   1.973
   37GLOH   H07 8696   3.933   2.961   1.887
   37GLOH    O3 8697   3.826   3.119   1.971
   37GLOH   H01 8698   3.762   3.126   1.896
   38GLOH   H03 8699   3.107   1.822   0.626
   38GLOH    O1 8700   3.187   1.807   0.569
   38GLOH    C1 8701   3.251   1.683   0.605
   38GLOH   H02 8702   3.250   1.670   0.713
   38GLOH   H08 8703   3.355   1.685   0.575
   38GLOH    C2 8704   3.185   1.559   0.542
   38GLOH   H04 8705   3.172   1.577   0.434
   38GLOH    O2 8706   3.267   1.442   0.561
   38GLOH   H05 8707   3.213   1.361   0.540
   38GLOH    C3 8708   3.046   1.533   0.603
   38GLOH   H06 8709   3.060   1.523   0.711
   38GLOH   H07 8710   3.010   1.436   0.567
   38GLOH    O3 8711   2.950   1.635   0.574
   38GLOH   H01 8712   2.869   1.613   0.627
   39GLOH   H03 8713   4.087   2.125   1.004
   39GLOH    O1 8714   4.165   2.145   1.062
   39GLOH    C1 8715   4.119   2.215   1.180
   39GLOH   H02 8716   4.201   2.221   1.252
   39GLOH   H08 8717   4.039   2.158   1.228
   39GLOH    C2 8718   4.068   2.358   1.154
   39GLOH   H04 8719   3.988   2.352   1.079
   39GLOH    O2 8720   4.013   2.413   1.276
   39GLOH   H05 8721   4.079   2.402   1.351
   39GLOH    C3 8722   4.178   2.452   1.101
   39GLOH   H06 8723   4.266   2.441   1.164
   39GLOH   H07 8724   4.144   2.555   1.113
   39GLOH    O3 8725   4.213   2.429   0.964
   39GLOH   H01 8726   4.132   2.432   0.908
   40GLOH   H03 8727   4.028   1.363   0.337
   40GLOH    O1 8728   4.108   1.405   0.296
   40GLOH    C1 8729   4.198   1.302   0.249
   40GLOH   H02 8730   4.204   1.307   0.140
   40GLOH   H08 8731   4.160   1.203   0.274
   40GLOH    C2 8732   4.340   1.316   0.307
   40GLOH   H04 8733   4.362   1.423   0.318
   40GLOH    O2 8734   4.350   1.254   0.437
   40GLOH   H05 8735   4.376   1.323   0.505
   40GLOH    C3 8736   4.445   1.258   0.209
   40GLOH   H06 8737   4.427   1.152   0.197
   40GLOH   H07 8738   4.543   1.268   0.257
   40GLOH    O3 8739   4.447   1.325   0.081
   40GLOH   H01 8740   4.379   1.287   0.020
   41GLOH   H03 8741   3.533   0.524   0.699
   41GLOH    O1 8742   3.551   0.573   0.615
   41GLOH    C1 8743   3.452   0.674   0.592
   41GLOH   H02 8744   3.456   0.706   0.488
   41GLOH   H08 8745   3.473   0.762   0.653
   41GLOH    C2 8746   3.307   0.629   0.622
   41GLOH   H04 8747   3.288   0.536   0.567
   41GLOH    O2 8748   3.288   0.607   0.763
   41GLOH   H05 8749   3.265   0.510   0.777
   41GLOH    C3 8750   3.207   0.736   0.575
   41GLOH   H06 8751   3.235   0.829   0.624
   41GLOH   H07 8752   3.108   0.709   0.613
   41GLOH    O3 8753   3.205   0.751   0.432
   41GLOH   H01 8754   3.173   0.664   0.396
   42GLOH   H03 8755   3.994   4.478   1.034
   42GLOH    O1 8756   4.070   4.509   0.977
   42GLOH    C1 8757   4.174   4.411   0.994
   42GLOH   H02 8758   4.135   4.311   0.970
   42GLOH   H08 8759   4.207   4.408   1.098
   42GLOH    C2 8760   4.297   4.436   0.905
   42GLOH   H04 8761   4.341   4.533   0.935
   42GLOH    O2 8762   4.394   4.332   0.926
   42GLOH   H05 8763   4.351   4.244   0.906
   42GLOH    C3 8764   4.258   4.445   0.757
   42GLOH   H06 8765   4.349   4.463   0.700
   42GLOH   H07 8766   4.195   4.533   0.743
   42GLOH    O3 8767   4.193   4.327   0.708
   42GLOH   H01 8768   4.262   4.262   0.680
   43GLOH   H03 8769   3.112   9.888   1.176
   43GLOH    O1 8770   3.186   9.900   1.110
   43GLOH    C1 8771   3.183   9.786   1.022
   43GLOH   H02 8772   3.256   9.799   0.942
   43GLOH   H08 8773   3.085   9.778   0.973
   43GLOH    C2 8774   3.212   9.653   1.093
   43GLOH   H04 8775   3.316   9.655   1.130
   43GLOH    O2 8776   3.123   9.630   1.204
   43GLOH   H05 8777   3.164   9.560   1.264
   43GLOH    C3 8778   3.199   9.537   0.993
   43GLOH   H06 8779   3.096   9.535   0.955
   43GLOH   H07 8780   3.215   9.443   1.046
   43GLOH    O3 8781   3.291   9.549   0.884
   43GLOH   H01 8782   3.382   9.535   0.922
   44GLOH   H03 8783   3.821   3.192   2.773
   44GLOH    O1 8784   3.847   3.103   2.738
   44GLOH    C1 8785   3.902   3.115   2.606
   44GLOH   H02 8786   3.977   3.195   2.603
   44GLOH   H08 8787   3.824   3.143   2.534
   44GLOH    C2 8788   3.968   2.984   2.557
   44GLOH   H04 8789   3.888   2.909   2.548
   44GLOH    O2 8790   4.030   3.003   2.429
   44GLOH   H05 8791   3.965   2.984   2.355
   44GLOH    C3 8792   4.070   2.934   2.661
   44GLOH   H06 8793   4.152   3.005   2.667
   44GLOH   H07 8794   4.111   2.839   2.626
   44GLOH    O3 8795   4.007   2.917   2.789
   44GLOH   H01 8796   3.938   2.989   2.791
   45GLOH   H03 8797   3.900   0.377   0.825
   45GLOH    O1 8798   3.833   0.424   0.768
   45GLOH    C1 8799   3.778   0.529   0.851
   45GLOH   H02 8800   3.715   0.595   0.792
   45GLOH   H08 8801   3.858   0.591   0.892
   45GLOH    C2 8802   3.695   0.473   0.969
   45GLOH   H04 8803   3.764   0.417   1.034
   45GLOH    O2 8804   3.637   0.580   1.047
   45GLOH   H05 8805   3.545   0.602   1.011
   45GLOH    C3 8806   3.589   0.374   0.919
   45GLOH   H06 8807   3.532   0.339   1.005
   45GLOH   H07 8808   3.640   0.287   0.878
   45GLOH    O3 8809   3.501   0.431   0.820
   45GLOH   H01 8810   3.411   0.389   0.830
   46GLOH   H03 8811   3.644   9.985   0.532
   46GLOH    O1 8812   3.644   0.018   0.438
   46GLOH    C1 8813   3.716   0.143   0.436
   46GLOH   H02 8814   3.715   0.184   0.335
   46GLOH   H08 8815   3.821   0.128   0.462
   46GLOH    C2 8816   3.659   0.249   0.533
   46GLOH   H04 8817   3.660   0.207   0.635
   46GLOH    O2 8818   3.743   0.366   0.529
   46GLOH   H05 8819   3.771   0.392   0.621
   46GLOH    C3 8820   3.514   0.284   0.496
   46GLOH   H06 8821   3.513   0.358   0.416
   46GLOH   H07 8822   3.467   0.332   0.583
   46GLOH    O3 8823   3.437   0.168   0.458
   46GLOH   H01 8824   3.503   0.097   0.439
   47GLOH   H03 8825   3.778   9.192   0.829
   47GLOH    O1 8826   3.750   9.146   0.913
   47GLOH    C1 8827   3.719   9.011   0.875
   47GLOH   H02 8828   3.805   8.965   0.825
   47GLOH   H08 8829   3.637   9.011   0.804
   47GLOH    C2 8830   3.682   8.923   0.996
   47GLOH   H04 8831   3.598   8.970   1.049
   47GLOH    O2 8832   3.641   8.793   0.950
   47GLOH   H05 8833   3.565   8.805   0.886
   47GLOH    C3 8834   3.800   8.916   1.093
   47GLOH   H06 8835   3.885   8.869   1.043
   47GLOH   H07 8836   3.774   8.853   1.178
   47GLOH    O3 8837   3.836   9.048   1.139
   47GLOH   H01 8838   3.820   9.108   1.062
   48GLOH   H03 8839   3.396   1.467   0.306
   48GLOH    O1 8840   3.391   1.502   0.215
   48GLOH    C1 8841   3.481   1.426   0.131
   48GLOH   H02 8842   3.439   1.327   0.112
   48GLOH   H08 8843   3.576   1.410   0.182
   48GLOH    C2 8844   3.511   1.493   2.870
   48GLOH   H04 8845   3.558   1.591   0.014
   48GLOH    O2 8846   3.598   1.411   2.789
   48GLOH   H05 8847   3.540   1.340   2.753
   48GLOH    C3 8848   3.379   1.515   2.792
   48GLOH   H06 8849   3.400   1.577   2.705
   48GLOH   H07 8850   3.310   1.571   2.855
   48GLOH    O3 8851   3.321   1.389   2.752
   48GLOH   H01 8852   3.224   1.399   2.743
   49GLOH   H03 8853   4.590   2.624   0.691
   49GLOH    O1 8854   4.569   2.720   0.705
   49GLOH    C1 8855   4.437   2.745   0.652
   49GLOH   H02 8856   4.371   2.661   0.673
   49GLOH   H08 8857   4.442   2.756   0.543
   49GLOH    C2 8858   4.373   2.873   0.710
   49GLOH   H04 8859   4.437   2.958   0.685
   49GLOH    O2 8860   4.242   2.895   0.654
   49GLOH   H05 8861   4.251   2.914   0.556
   49GLOH    C3 8862   4.370   2.863   0.864
   49GLOH   H06 8863   4.305   2.779   0.893
   49GLOH   H07 8864   4.325   2.953   0.905
   49GLOH    O3 8865   4.502   2.844   0.916
   49GLOH   H01 8866   4.551   2.793   0.846
   50GLOH   H03 8867   3.712   2.842   2.421
   50GLOH    O1 8868   3.649   2.917   2.436
   50GLOH    C1 8869   3.567   2.882   2.549
   50GLOH   H02 8870   3.629   2.873   2.639
   50GLOH   H08 8871   3.519   2.786   2.533
   50GLOH    C2 8872   3.457   2.986   2.576
   50GLOH   H04 8873   3.395   2.993   2.485
   50GLOH    O2 8874   3.373   2.948   2.687
   50GLOH   H05 8875   3.422   2.943   2.774
   50GLOH    C3 8876   3.520   3.125   2.600
   50GLOH   H06 8877   3.581   3.152   2.515
   50GLOH   H07 8878   3.586   3.118   2.687
   50GLOH    O3 8879   3.418   3.224   2.622
   50GLOH   H01 8880   3.345   3.179   2.669
   51GLOH   H03 8881   3.060   2.258   0.672
   51GLOH    O1 8882   3.014   2.184   0.719
   51GLOH    C1 8883   3.075   2.166   0.848
   51GLOH   H02 8884   2.998   2.172   0.926
   51GLOH   H08 8885   3.147   2.245   0.869
   51GLOH    C2 8886   3.146   2.030   0.865
   51GLOH   H04 8887   3.218   2.020   0.782
   51GLOH    O2 8888   3.219   2.023   0.990
   51GLOH   H05 8889   3.179   2.086   1.057
   51GLOH    C3 8890   3.047   1.912   0.855
   51GLOH   H06 8891   2.963   1.933   0.922
   51GLOH   H07 8892   3.095   1.822   0.893
   51GLOH    O3 8893   3.000   1.888   0.722
   51GLOH   H01 8894   2.903   1.868   0.727
   52GLOH   H03 8895   2.460   2.438   1.626
   52GLOH    O1 8896   2.555   2.444   1.654
   52GLOH    C1 8897   2.636   2.476   1.539
   52GLOH   H02 8898   2.739   2.494   1.570
   52GLOH   H08 8899   2.601   2.568   1.492
   52GLOH    C2 8900   2.639   2.365   1.431
   52GLOH   H04 8901   2.535   2.345   1.401
   52GLOH    O2 8902   2.714   2.409   1.316
   52GLOH   H05 8903   2.682   2.499   1.286
   52GLOH    C3 8904   2.700   2.234   1.485
   52GLOH   H06 8905   2.798   2.257   1.528
   52GLOH   H07 8906   2.720   2.168   1.400
   52GLOH    O3 8907   2.618   2.165   1.581
   52GLOH   H01 8908   2.617   2.213   1.667
   53GLOH   H03 8909   3.783   4.202   1.635
   53GLOH    O1 8910   3.698   4.197   1.688
   53GLOH    C1 8911   3.735   4.163   1.823
   53GLOH   H02 8912   3.806   4.236   1.863
   53GLOH   H08 8913   3.784   4.066   1.827
   53GLOH    C2 8914   3.613   4.159   1.917
   53GLOH   H04 8915   3.542   4.084   1.878
   53GLOH    O2 8916   3.655   4.121   2.050
   53GLOH   H05 8917   3.702   4.032   2.046
   53GLOH    C3 8918   3.544   4.297   1.918
   53GLOH   H06 8919   3.523   4.326   1.815
   53GLOH   H07 8920   3.614   4.370   1.957
   53GLOH    O3 8921   3.422   4.300   1.995
   53GLOH   H01 8922   3.445   4.280   2.090
   54GLOH   H03 8923   3.513   2.705   1.037
   54GLOH    O1 8924   3.451   2.782   1.037
   54GLOH    C1 8925   3.323   2.740   0.985
   54GLOH   H02 8926   3.304   2.635   1.011
   54GLOH   H08 8927   3.323   2.746   0.876
   54GLOH    C2 8928   3.208   2.826   1.039
   54GLOH   H04 8929   3.230   2.931   1.016
   54GLOH    O2 8930   3.083   2.790   0.975
   54GLOH   H05 8931   3.021   2.753   1.043
   54GLOH    C3 8932   3.198   2.813   1.193
   54GLOH   H06 8933   3.123   2.884   1.227
   54GLOH   H07 8934   3.293   2.844   1.236
   54GLOH    O3 8935   3.164   2.680   1.237
   54GLOH   H01 8936   3.070   2.664   1.209
   55GLOH   H03 8937   3.145   3.427   2.187
   55GLOH    O1 8938   3.168   3.417   2.092
   55GLOH    C1 8939   3.083   3.503   2.014
   55GLOH   H02 8940   3.139   3.591   1.982
   55GLOH   H08 8941   2.998   3.539   2.072
   55GLOH    C2 8942   3.029   3.432   1.888
   55GLOH   H04 8943   2.978   3.340   1.921
   55GLOH    O2 8944   2.935   3.516   1.818
   55GLOH   H05 8945   2.972   3.609   1.814
   55GLOH    C3 8946   3.146   3.391   1.796
   55GLOH   H06 8947   3.187   3.480   1.749
   55GLOH   H07 8948   3.107   3.328   1.716
   55GLOH    O3 8949   3.249   3.321   1.869
   55GLOH   H01 8950   3.235   3.346   1.964
   56GLOH   H03 8951   3.274   3.441   0.860
   56GLOH    O1 8952   3.176   3.427   0.847
   56GLOH    C1 8953   3.147   3.287   0.868
   56GLOH   H02 8954   3.220   3.243   0.936
   56GLOH   H08 8955   3.155   3.233   0.774
   56GLOH    C2 8956   3.007   3.262   0.927
   56GLOH   H04 8957   2.934   3.325   0.874
   56GLOH    O2 8958   2.970   3.123   0.911
   56GLOH   H05 8959   2.927   3.109   0.822
   56GLOH    C3 8960   3.002   3.296   1.077
   56GLOH   H06 8961   3.073   3.230   1.129
   56GLOH   H07 8962   2.904   3.270   1.115
   56GLOH    O3 8963   3.032   3.433   1.106
   56GLOH   H01 8964   3.132   3.441   1.105
   57GLOH   H03 8965   3.207   0.835   1.651
   57GLOH    O1 8966   3.242   0.744   1.666
   57GLOH    C1 8967   3.223   0.706   1.804
   57GLOH   H02 8968   3.240   0.599   1.814
   57GLOH   H08 8969   3.120   0.725   1.835
   57GLOH    C2 8970   3.318   0.778   1.903
   57GLOH   H04 8971   3.420   0.764   1.865
   57GLOH    O2 8972   3.293   0.920   1.910
   57GLOH   H05 8973   3.194   0.935   1.922
   57GLOH    C3 8974   3.312   0.712   2.042
   57GLOH   H06 8975   3.351   0.783   2.115
   57GLOH   H07 8976   3.381   0.628   2.042
   57GLOH    O3 8977   3.181   0.669   2.081
   57GLOH   H01 8978   3.175   0.573   2.054
   58GLOH   H03 8979   4.659   1.722   1.173
   58GLOH    O1 8980   4.584   1.742   1.109
   58GLOH    C1 8981   4.483   1.812   1.184
   58GLOH   H02 8982   4.528   1.884   1.252
   58GLOH   H08 8983   4.427   1.742   1.246
   58GLOH    C2 8984   4.381   1.887   1.095
   58GLOH   H04 8985   4.326   1.812   1.036
   58GLOH    O2 8986   4.288   1.960   1.178
   58GLOH   H05 8987   4.244   2.032   1.123
   58GLOH    C3 8988   4.455   1.981   0.998
   58GLOH   H06 8989   4.515   2.051   1.056
   58GLOH   H07 8990   4.382   2.039   0.942
   58GLOH    O3 8991   4.539   1.905   0.909
   58GLOH   H01 8992   4.579   1.834   0.965
   59GLOH   H03 8993   3.402   2.985   0.127
   59GLOH    O1 8994   3.460   2.937   0.063
   59GLOH    C1 8995   3.506   2.812   0.120
   59GLOH   H02 8996   3.559   2.755   0.044
   59GLOH   H08 8997   3.421   2.752   0.150
   59GLOH    C2 8998   3.600   2.825   0.242
   59GLOH   H04 8999   3.634   2.723   0.266
   59GLOH    O2 9000   3.719   2.903   0.215
   59GLOH   H05 9001   3.779   2.849   0.157
   59GLOH    C3 9002   3.526   2.878   0.367
   59GLOH   H06 9003   3.486   2.977   0.343
   59GLOH   H07 9004   3.600   2.892   0.446
   59GLOH    O3 9005   3.422   2.791   0.413
   59GLOH   H01 9006   3.367   2.844   0.477
   60GLOH   H03 9007   3.291   2.556   1.822
   60GLOH    O1 9008   3.368   2.509   1.780
   60GLOH    C1 9009   3.488   2.579   1.818
   60GLOH   H02 9010   3.576   2.519   1.793
   60GLOH   H08 9011   3.491   2.595   1.926
   60GLOH    C2 9012   3.502   2.715   1.748
   60GLOH   H04 9013   3.407   2.770   1.761
   60GLOH    O2 9014   3.609   2.790   1.809
   60GLOH   H05 9015   3.661   2.837   1.739
   60GLOH    C3 9016   3.525   2.693   1.597
   60GLOH   H06 9017   3.446   2.627   1.559
   60GLOH   H07 9018   3.619   2.640   1.584
   60GLOH    O3 9019   3.527   2.815   1.520
   60GLOH   H01 9020   3.608   2.866   1.547
   61GLOH   H03 9021   2.916   0.664   2.338
   61GLOH    O1 9022   2.886   0.598   2.407
   61GLOH    C1 9023   2.958   0.475   2.385
   61GLOH   H02 9024   2.935   0.403   2.463
   61GLOH   H08 9025   3.066   0.493   2.391
   61GLOH    C2 9026   2.928   0.410   2.248
   61GLOH   H04 9027   2.952   0.483   2.170
   61GLOH    O2 9028   3.010   0.293   2.230
   61GLOH   H05 9029   2.994   0.258   2.138
   61GLOH    C3 9030   2.778   0.376   2.240
   61GLOH   H06 9031   2.720   0.466   2.261
   61GLOH   H07 9032   2.755   0.304   2.318
   61GLOH    O3 9033   2.738   0.322   2.112
   61GLOH   H01 9034   2.746   0.393   2.042
   62GLOH   H03 9035   4.482   3.468   1.800
   62GLOH    O1 9036   4.396   3.461   1.751
   62GLOH    C1 9037   4.365   3.322   1.730
   62GLOH   H02 9038   4.440   3.259   1.779
   62GLOH   H08 9039   4.369   3.298   1.624
   62GLOH    C2 9040   4.227   3.279   1.783
   62GLOH   H04 9041   4.203   3.181   1.738
   62GLOH    O2 9042   4.226   3.265   1.926
   62GLOH   H05 9043   4.195   3.173   1.950
   62GLOH    C3 9044   4.121   3.379   1.736
   62GLOH   H06 9045   4.145   3.477   1.777
   62GLOH   H07 9046   4.024   3.350   1.778
   62GLOH    O3 9047   4.112   3.384   1.592
   62GLOH   H01 9048   4.062   3.303   1.564
   63GLOH   H03 9049   3.374   9.789   2.624
   63GLOH    O1 9050   3.312   9.799   2.700
   63GLOH    C1 9051   3.294   9.937   2.739
   63GLOH   H02 9052   3.195   9.972   2.710
   63GLOH   H08 9053   3.366   0.001   2.687
   63GLOH    C2 9054   3.311   9.957   0.017
   63GLOH   H04 9055   3.415   9.936   0.043
   63GLOH    O2 9056   3.280   0.093   0.055
   63GLOH   H05 9057   3.360   0.149   0.040
   63GLOH    C3 9058   3.223   9.857   0.095
   63GLOH   H06 9059   3.118   9.879   0.077
   63GLOH   H07 9060   3.241   9.870   0.202
   63GLOH    O3 9061   3.253   9.722   0.057
   63GLOH   H01 9062   3.276   9.728   2.834
   64GLOH   H03 9063   3.350   2.377   0.196
   64GLOH    O1 9064   3.410   2.370   0.117
   64GLOH    C1 9065   3.440   2.231   0.094
   64GLOH   H02 9066   3.485   2.186   0.182
   64GLOH   H08 9067   3.514   2.223   0.014
   64GLOH    C2 9068   3.317   2.147   0.054
   64GLOH   H04 9069   3.352   2.044   0.038
   64GLOH    O2 9070   3.216   2.144   0.158
   64GLOH   H05 9071   3.172   2.056   0.155
   64GLOH    C3 9072   3.258   2.197   2.794
   64GLOH   H06 9073   3.272   2.305   2.789
   64GLOH   H07 9074   3.151   2.182   2.793
   64GLOH    O3 9075   3.320   2.135   2.679
   64GLOH   H01 9076   3.387   2.196   2.643
   65GLOH   H03 9077   4.537   1.453   0.034
   65GLOH    O1 9078   4.564   1.543   0.002
   65GLOH    C1 9079   4.452   1.631   0.021
   65GLOH   H02 9080   4.476   1.707   0.095
   65GLOH   H08 9081   4.367   1.575   0.059
   65GLOH    C2 9082   4.410   1.701   2.764
   65GLOH   H04 9083   4.393   1.625   2.686
   65GLOH    O2 9084   4.288   1.776   2.784
   65GLOH   H05 9085   4.234   1.731   2.854
   65GLOH    C3 9086   4.524   1.792   2.715
   65GLOH   H06 9087   4.535   1.876   2.783
   65GLOH   H07 9088   4.498   1.832   2.617
   65GLOH    O3 9089   4.647   1.718   2.705
   65GLOH   H01 9090   4.640   1.642   2.768
   66GLOH   H03 9091   3.472   9.418   2.619
   66GLOH    O1 9092   3.472   9.425   2.521
   66GLOH    C1 9093   3.361   9.506   2.476
   66GLOH   H02 9094   3.289   9.522   2.557
   66GLOH   H08 9095   3.308   9.456   2.396
   66GLOH    C2 9096   3.406   9.645   2.425
   66GLOH   H04 9097   3.316   9.702   2.401
   66GLOH    O2 9098   3.481   9.717   2.526
   66GLOH   H05 9099   3.556   9.661   2.554
   66GLOH    C3 9100   3.487   9.629   2.295
   66GLOH   H06 9101   3.569   9.559   2.313
   66GLOH   H07 9102   3.533   9.726   2.271
   66GLOH    O3 9103   3.406   9.583   2.186
   66GLOH   H01 9104   3.415   9.649   2.112
   67GLOH   H03 9105   4.486   1.126   1.894
   67GLOH    O1 9106   4.438   1.049   1.855
   67GLOH    C1 9107   4.404   1.080   1.719
   67GLOH   H02 9108   4.301   1.113   1.712
   67GLOH   H08 9109   4.414   0.991   1.658
   67GLOH    C2 9110   4.493   1.190   1.657
   67GLOH   H04 9111   4.597   1.153   1.652
   67GLOH    O2 9112   4.449   1.224   1.524
   67GLOH   H05 9113   4.378   1.159   1.494
   67GLOH    C3 9114   4.490   1.315   1.747
   67GLOH   H06 9115   4.386   1.349   1.754
   67GLOH   H07 9116   4.545   1.394   1.697
   67GLOH    O3 9117   4.544   1.291   1.878
   67GLOH   H01 9118   4.621   1.353   1.889
   68GLOH   H03 9119   4.490   3.794   1.775
   68GLOH    O1 9120   4.564   3.766   1.836
   68GLOH    C1 9121   4.683   3.728   1.764
   68GLOH   H02 9122   4.770   3.751   1.825
   68GLOH   H08 9123   4.691   3.789   1.674
   68GLOH    C2 9124   4.693   3.580   1.722
   68GLOH   H04 9125   4.801   3.559   1.714
   68GLOH    O2 9126   4.639   3.489   1.820
   68GLOH   H05 9127   4.693   3.498   1.904
   68GLOH    C3 9128   4.636   3.554   1.581
   68GLOH   H06 9129   4.644   3.447   1.560
   68GLOH   H07 9130   4.700   3.605   1.509
   68GLOH    O3 9131   4.500   3.598   1.566
   68GLOH   H01 9132   4.447   3.550   1.635
   69GLOH   H03 9133   3.126   2.055   1.261
   69GLOH    O1 9134   3.091   1.970   1.299
   69GLOH    C1 9135   3.161   1.937   1.421
   69GLOH   H02 9136   3.253   1.883   1.398
   69GLOH   H08 9137   3.100   1.869   1.481
   69GLOH    C2 9138   3.197   2.058   1.508
   69GLOH   H04 9139   3.243   2.021   1.601
   69GLOH    O2 9140   3.291   2.145   1.441
   69GLOH   H05 9141   3.294   2.233   1.488
   69GLOH    C3 9142   3.068   2.135   1.546
   69GLOH   H06 9143   3.017   2.165   1.454
   69GLOH   H07 9144   3.097   2.226   1.597
   69GLOH    O3 9145   2.980   2.059   1.630
   69GLOH   H01 9146   2.933   2.125   1.686
   70GLOH   H03 9147   3.659   9.944   0.276
   70GLOH    O1 9148   3.653   9.895   0.190
   70GLOH    C1 9149   3.715   9.973   0.086
   70GLOH   H02 9150   3.822   9.980   0.104
   70GLOH   H08 9151   3.676   0.076   0.087
   70GLOH    C2 9152   3.694   9.915   2.819
   70GLOH   H04 9153   3.586   9.906   2.799
   70GLOH    O2 9154   3.751   0.001   2.718
   70GLOH   H05 9155   3.683   0.063   2.682
   70GLOH    C3 9156   3.755   9.774   2.810
   70GLOH   H06 9157   3.863   9.780   2.827
   70GLOH   H07 9158   3.740   9.735   2.710
   70GLOH    O3 9159   3.694   9.688   0.033
   70GLOH   H01 9160   3.670   9.744   0.110
   71GLOH   H03 9161   3.890   2.666   1.679
   71GLOH    O1 9162   3.910   2.728   1.754
   71GLOH    C1 9163   3.896   2.651   1.876
   71GLOH   H02 9164   3.826   2.569   1.862
   71GLOH   H08 9165   3.855   2.713   1.955
   71GLOH    C2 9166   4.031   2.594   1.923
   71GLOH   H04 9167   4.097   2.680   1.944
   71GLOH    O2 9168   4.018   2.518   2.045
   71GLOH   H05 9169   4.109   2.513   2.087
   71GLOH    C3 9170   4.099   2.510   1.814
   71GLOH   H06 9171   4.179   2.453   1.861
   71GLOH   H07 9172   4.146   2.578   1.743
   71GLOH    O3 9173   4.011   2.419   1.745
   71GLOH   H01 9174   3.958   2.469   1.678
   72GLOH   H03 9175   2.931   1.645   1.128
   72GLOH    O1 9176   2.915   1.566   1.070
   72GLOH    C1 9177   2.876   1.607   0.937
   72GLOH   H02 9178   2.964   1.629   0.877
   72GLOH   H08 9179   2.817   1.698   0.942
   72GLOH    C2 9180   2.793   1.499   0.866
   72GLOH   H04 9181   2.699   1.487   0.921
   72GLOH    O2 9182   2.762   1.540   0.731
   72GLOH   H05 9183   2.677   1.593   0.734
   72GLOH    C3 9184   2.866   1.363   0.868
   72GLOH   H06 9185   2.952   1.368   0.802
   72GLOH   H07 9186   2.798   1.287   0.827
   72GLOH    O3 9187   2.906   1.328   1.001
   72GLOH   H01 9188   2.926   1.415   1.045
   73GLOH   H03 9189   3.487   0.177   2.575
   73GLOH    O1 9190   3.576   0.165   2.614
   73GLOH    C1 9191   3.666   0.258   2.551
   73GLOH   H02 9192   3.640   0.270   2.446
   73GLOH   H08 9193   3.768   0.218   2.554
   73GLOH    C2 9194   3.668   0.397   2.619
   73GLOH   H04 9195   3.564   0.423   2.645
   73GLOH    O2 9196   3.747   0.394   2.740
   73GLOH   H05 9197   3.703   0.343   2.810
   73GLOH    C3 9198   3.722   0.505   2.525
   73GLOH   H06 9199   3.824   0.478   2.496
   73GLOH   H07 9200   3.730   0.598   2.581
   73GLOH    O3 9201   3.641   0.526   2.408
   73GLOH   H01 9202   3.639   0.446   2.351
   74GLOH   H03 9203   3.894   2.510   0.842
   74GLOH    O1 9204   3.821   2.572   0.869
   74GLOH    C1 9205   3.878   2.691   0.927
   74GLOH   H02 9206   3.949   2.664   1.005
   74GLOH   H08 9207   3.800   2.749   0.976
   74GLOH    C2 9208   3.949   2.785   0.827
   74GLOH   H04 9209   4.027   2.728   0.775
   74GLOH    O2 9210   3.856   2.837   0.729
   74GLOH   H05 9211   3.841   2.768   0.658
   74GLOH    C3 9212   4.017   2.899   0.906
   74GLOH   H06 9213   4.087   2.854   0.976
   74GLOH   H07 9214   3.940   2.947   0.967
   74GLOH    O3 9215   4.084   2.997   0.825
   74GLOH   H01 9216   4.138   2.952   0.756
   75GLOH   H03 9217   3.519   1.188   2.341
   75GLOH    O1 9218   3.615   1.171   2.335
   75GLOH    C1 9219   3.685   1.221   2.450
   75GLOH   H02 9220   3.791   1.196   2.445
   75GLOH   H08 9221   3.648   1.173   2.541
   75GLOH    C2 9222   3.672   1.374   2.469
   75GLOH   H04 9223   3.568   1.392   2.503
   75GLOH    O2 9224   3.761   1.419   2.574
   75GLOH   H05 9225   3.709   1.428   2.658
   75GLOH    C3 9226   3.689   1.452   2.337
   75GLOH   H06 9227   3.664   1.556   2.357
   75GLOH   H07 9228   3.614   1.416   2.266
   75GLOH    O3 9229   3.819   1.445   2.275
   75GLOH   H01 9230   3.852   1.352   2.270
   76GLOH   H03 9231   4.585   3.781   1.052
   76GLOH    O1 9232   4.661   3.836   1.082
   76GLOH    C1 9233   4.634   3.874   1.218
   76GLOH   H02 9234   4.577   3.967   1.220
   76GLOH   H08 9235   4.726   3.892   1.272
   76GLOH    C2 9236   4.553   3.765   1.292
   76GLOH   H04 9237   4.611   3.672   1.291
   76GLOH    O2 9238   4.529   3.806   1.428
   76GLOH   H05 9239   4.513   3.723   1.484
   76GLOH    C3 9240   4.420   3.742   1.219
   76GLOH   H06 9241   4.358   3.830   1.235
   76GLOH   H07 9242   4.369   3.658   1.268
   76GLOH    O3 9243   4.434   3.716   1.078
   76GLOH   H01 9244   4.342   3.709   1.041
   77GLOH   H03 9245   3.560   8.539   2.055
   77GLOH    O1 9246   3.631   8.551   1.987
   77GLOH    C1 9247   3.576   8.526   1.856
   77GLOH   H02 9248   3.477   8.480   1.864
   77GLOH   H08 9249   3.639   8.457   1.801
   77GLOH    C2 9250   3.562   8.656   1.773
   77GLOH   H04 9251   3.663   8.697   1.758
   77GLOH    O2 9252   3.505   8.629   1.643
   77GLOH   H05 9253   3.561   8.668   1.570
   77GLOH    C3 9254   3.480   8.760   1.850
   77GLOH   H06 9255   3.464   8.846   1.786
   77GLOH   H07 9256   3.540   8.795   1.934
   77GLOH    O3 9257   3.353   8.710   1.898
   77GLOH   H01 9258   3.306   8.665   1.823
   78GLOH   H03 9259   3.786   2.341   2.204
   78GLOH    O1 9260   3.727   2.373   2.277
   78GLOH    C1 9261   3.797   2.470   2.357
   78GLOH   H02 9262   3.903   2.475   2.330
   78GLOH   H08 9263   3.793   2.440   2.462
   78GLOH    C2 9264   3.736   2.610   2.343
   78GLOH   H04 9265   3.627   2.603   2.360
   78GLOH    O2 9266   3.793   2.700   2.440
   78GLOH   H05 9267   3.807   2.654   2.526
   78GLOH    C3 9268   3.761   2.662   2.200
   78GLOH   H06 9269   3.731   2.585   2.129
   78GLOH   H07 9270   3.869   2.676   2.188
   78GLOH    O3 9271   3.691   2.785   2.173
   78GLOH   H01 9272   3.594   2.763   2.176
   79GLOH   H03 9273   4.134   0.687   1.142
   79GLOH    O1 9274   4.223   0.658   1.108
   79GLOH    C1 9275   4.242   0.521   1.149
   79GLOH   H02 9276   4.266   0.516   1.255
   79GLOH   H08 9277   4.328   0.478   1.096
   79GLOH    C2 9278   4.120   0.429   1.123
   79GLOH   H04 9279   4.143   0.330   1.165
   79GLOH    O2 9280   4.005   0.484   1.191
   79GLOH   H05 9281   3.943   0.408   1.215
   79GLOH    C3 9282   4.097   0.412   0.971
   79GLOH   H06 9283   4.191   0.378   0.927
   79GLOH   H07 9284   4.077   0.511   0.929
   79GLOH    O3 9285   3.991   0.321   0.935
   79GLOH   H01 9286   3.984   0.245   0.997
   80GLOH   H03 9287   3.856   9.724   1.847
   80GLOH    O1 9288   3.798   9.643   1.854
   80GLOH    C1 9289   3.846   9.568   1.967
   80GLOH   H02 9290   3.824   9.620   2.059
   80GLOH   H08 9291   3.955   9.557   1.962
   80GLOH    C2 9292   3.784   9.427   1.973
   80GLOH   H04 9293   3.812   9.372   1.882
   80GLOH    O2 9294   3.836   9.358   2.088
   80GLOH   H05 9295   3.788   9.269   2.096
   80GLOH    C3 9296   3.631   9.435   1.982
   80GLOH   H06 9297   3.603   9.479   2.077
   80GLOH   H07 9298   3.590   9.334   1.980
   80GLOH    O3 9299   3.578   9.512   1.873
   80GLOH   H01 9300   3.646   9.582   1.855
   81GLOH   H03 9301   4.622   3.822   1.963
   81GLOH    O1 9302   4.657   3.863   2.047
   81GLOH    C1 9303   4.544   3.905   2.125
   81GLOH   H02 9304   4.461   3.935   2.061
   81GLOH   H08 9305   4.570   3.992   2.186
   81GLOH    C2 9306   4.496   3.792   2.218
   81GLOH   H04 9307   4.577   3.771   2.290
   81GLOH    O2 9308   4.378   3.829   2.291
   81GLOH   H05 9309   4.344   3.744   2.327
   81GLOH    C3 9310   4.469   3.663   2.139
   81GLOH   H06 9311   4.562   3.631   2.090
   81GLOH   H07 9312   4.398   3.685   2.059
   81GLOH    O3 9313   4.419   3.560   2.224
   81GLOH   H01 9314   4.417   3.476   2.171
   82GLOH   H03 9315   3.154   9.984   1.566
   82GLOH    O1 9316   3.064   0.027   1.578
   82GLOH    C1 9317   3.032   0.102   1.459
   82GLOH   H02 9318   2.926   0.092   1.438
   82GLOH   H08 9319   3.086   0.061   1.373
   82GLOH    C2 9320   3.067   0.251   1.472
   82GLOH   H04 9321   3.013   0.293   1.558
   82GLOH    O2 9322   3.209   0.269   1.489
   82GLOH   H05 9323   3.229   0.360   1.524
   82GLOH    C3 9324   3.021   0.326   1.345
   82GLOH   H06 9325   3.088   0.299   1.263
   82GLOH   H07 9326   3.034   0.433   1.362
   82GLOH    O3 9327   2.885   0.298   1.308
   82GLOH   H01 9328   2.860   0.364   1.238
   83GLOH   H03 9329   4.840   1.887   1.812
   83GLOH    O1 9330   4.862   1.797   1.775
   83GLOH    C1 9331   4.905   1.712   1.883
   83GLOH   H02 9332   4.992   1.755   1.933
   83GLOH   H08 9333   4.937   1.615   1.844
   83GLOH    C2 9334   4.797   1.687   1.991
   83GLOH   H04 9335   4.843   1.625   2.069
   83GLOH    O2 9336   4.752   1.812   2.049
   83GLOH   H05 9337   4.670   1.797   2.105
   83GLOH    C3 9338   4.678   1.608   1.932
   83GLOH   H06 9339   4.634   1.669   1.853
   83GLOH   H07 9340   4.603   1.597   2.010
   83GLOH    O3 9341   4.714   1.479   1.880
   83GLOH   H01 9342   4.748   1.489   1.787
   84GLOH   H03 9343   3.545   0.923   1.635
   84GLOH    O1 9344   3.599   0.867   1.573
   84GLOH    C1 9345   3.517   0.762   1.521
   84GLOH   H02 9346   3.430   0.803   1.469
   84GLOH   H08 9347   3.479   0.701   1.603
   84GLOH    C2 9348   3.594   0.670   1.424
   84GLOH   H04 9349   3.675   0.623   1.481
   84GLOH    O2 9350   3.506   0.566   1.375
   84GLOH   H05 9351   3.426   0.607   1.327
   84GLOH    C3 9352   3.657   0.753   1.311
   84GLOH   H06 9353   3.693   0.847   1.351
   84GLOH   H07 9354   3.578   0.779   1.240
   84GLOH    O3 9355   3.764   0.684   1.242
   84GLOH   H01 9356   3.721   0.625   1.175
   85GLOH   H03 9357   3.218   3.618   2.706
   85GLOH    O1 9358   3.174   3.693   2.661
   85GLOH    C1 9359   3.161   3.804   2.753
   85GLOH   H02 9360   3.247   3.871   2.743
   85GLOH   H08 9361   3.159   3.769   2.856
   85GLOH    C2 9362   3.033   3.886   2.726
   85GLOH   H04 9363   3.037   3.976   2.789
   85GLOH    O2 9364   3.028   3.925   2.588
   85GLOH   H05 9365   3.073   3.854   2.537
   85GLOH    C3 9366   2.908   3.806   2.765
   85GLOH   H06 9367   2.904   3.716   2.704
   85GLOH   H07 9368   2.820   3.865   2.739
   85GLOH    O3 9369   2.905   3.771   0.031
   85GLOH   H01 9370   2.899   3.854   0.085
   86GLOH   H03 9371   3.819   3.675   0.730
   86GLOH    O1 9372   3.898   3.645   0.678
   86GLOH    C1 9373   4.021   3.669   0.749
   86GLOH   H02 9374   4.016   3.763   0.803
   86GLOH   H08 9375   4.103   3.678   0.678
   86GLOH    C2 9376   4.056   3.556   0.848
   86GLOH   H04 9377   3.977   3.553   0.926
   86GLOH    O2 9378   4.063   3.428   0.782
   86GLOH   H05 9379   4.057   3.354   0.850
   86GLOH    C3 9380   4.191   3.586   0.916
   86GLOH   H06 9381   4.265   3.599   0.838
   86GLOH   H07 9382   4.221   3.498   0.974
   86GLOH    O3 9383   4.191   3.702   1.002
   86GLOH   H01 9384   4.100   3.737   1.017
   87GLOH   H03 9385   3.788   9.789   0.938
   87GLOH    O1 9386   3.715   9.781   0.871
   87GLOH    C1 9387   3.602   9.716   0.932
   87GLOH   H02 9388   3.512   9.733   0.871
   87GLOH   H08 9389   3.582   9.759   1.030
   87GLOH    C2 9390   3.621   9.564   0.949
   87GLOH   H04 9391   3.707   9.548   1.015
   87GLOH    O2 9392   3.504   9.504   1.009
   87GLOH   H05 9393   3.521   9.407   1.025
   87GLOH    C3 9394   3.652   9.498   0.813
   87GLOH   H06 9395   3.674   9.393   0.832
   87GLOH   H07 9396   3.743   9.542   0.773
   87GLOH    O3 9397   3.546   9.509   0.718
   87GLOH   H01 9398   3.558   9.591   0.663
   88GLOH   H03 9399   3.577   3.604   2.449
   88GLOH    O1 9400   3.638   3.601   2.526
   88GLOH    C1 9401   3.564   3.580   2.647
   88GLOH   H02 9402   3.483   3.508   2.632
   88GLOH   H08 9403   3.517   3.674   2.679
   88GLOH    C2 9404   3.653   3.529   2.762
   88GLOH   H04 9405   3.734   3.601   2.779
   88GLOH    O2 9406   3.577   3.515   0.011
   88GLOH   H05 9407   3.559   3.602   0.051
   88GLOH    C3 9408   3.716   3.395   2.721
   88GLOH   H06 9409   3.788   3.413   2.641
   88GLOH   H07 9410   3.638   3.332   2.678
   88GLOH    O3 9411   3.780   3.327   2.831
   88GLOH   H01 9412   3.726   3.349   0.036
   89GLOH   H03 9413   4.055   1.565   1.096
   89GLOH    O1 9414   4.024   1.646   1.145
   89GLOH    C1 9415   4.032   1.624   1.287
   89GLOH   H02 9416   4.044   1.719   1.339
   89GLOH   H08 9417   4.120   1.564   1.312
   89GLOH    C2 9418   3.908   1.553   1.344
   89GLOH   H04 9419   3.905   1.451   1.302
   89GLOH    O2 9420   3.914   1.544   1.488
   89GLOH   H05 9421   3.853   1.611   1.527
   89GLOH    C3 9422   3.780   1.625   1.299
   89GLOH   H06 9423   3.694   1.577   1.347
   89GLOH   H07 9424   3.768   1.611   1.192
   89GLOH    O3 9425   3.783   1.766   1.332
   89GLOH   H01 9426   3.821   1.814   1.254
   90GLOH   H03 9427   3.711   0.720   1.956
   90GLOH    O1 9428   3.750   0.687   1.870
   90GLOH    C1 9429   3.677   0.568   1.835
   90GLOH   H02 9430   3.659   0.566   1.727
   90GLOH   H08 9431   3.579   0.568   1.883
   90GLOH    C2 9432   3.752   0.440   1.874
   90GLOH   H04 9433   3.787   0.452   1.978
   90GLOH    O2 9434   3.664   0.324   1.868
   90GLOH   H05 9435   3.722   0.245   1.846
   90GLOH    C3 9436   3.877   0.423   1.785
   90GLOH   H06 9437   3.936   0.340   1.824
   90GLOH   H07 9438   3.938   0.512   1.796
   90GLOH    O3 9439   3.845   0.401   1.646
   90GLOH   H01 9440   3.898   0.465   1.591
   91GLOH   H03 9441   3.956   3.630   1.814
   91GLOH    O1 9442   3.902   3.568   1.870
   91GLOH    C1 9443   3.968   3.557   1.998
   91GLOH   H02 9444   3.939   3.640   2.063
   91GLOH   H08 9445   4.077   3.564   1.986
   91GLOH    C2 9446   3.937   3.425   2.070
   91GLOH   H04 9447   3.974   3.343   2.006
   91GLOH    O2 9448   4.004   3.420   2.197
   91GLOH   H05 9449   3.963   3.348   2.249
   91GLOH    C3 9450   3.786   3.407   2.090
   91GLOH   H06 9451   3.736   3.417   1.993
   91GLOH   H07 9452   3.750   3.488   2.153
   91GLOH    O3 9453   3.753   3.279   2.148
   91GLOH   H01 9454   3.789   3.210   2.086
   92GLOH   H03 9455   3.693   3.753   1.230
   92GLOH    O1 9456   3.733   3.837   1.195
   92GLOH    C1 9457   3.624   3.926   1.160
   92GLOH   H02 9458   3.545   3.922   1.236
   92GLOH   H08 9459   3.579   3.896   1.066
   92GLOH    C2 9460   3.670   4.073   1.147
   92GLOH   H04 9461   3.743   4.078   1.064
   92GLOH    O2 9462   3.559   4.159   1.116
   92GLOH   H05 9463   3.540   4.154   1.018
   92GLOH    C3 9464   3.740   4.120   1.276
   92GLOH   H06 9465   3.670   4.114   1.359
   92GLOH   H07 9466   3.768   4.225   1.265
   92GLOH    O3 9467   3.856   4.039   1.301
   92GLOH   H01 9468   3.826   3.947   1.283
   93GLOH   H03 9469   3.925   9.890   1.741
   93GLOH    O1 9470   3.940   9.842   1.826
   93GLOH    C1 9471   3.939   9.936   1.936
   93GLOH   H02 9472   4.028   9.999   1.931
   93GLOH   H08 9473   3.944   9.882   2.031
   93GLOH    C2 9474   3.816   0.029   1.939
   93GLOH   H04 9475   3.821   0.088   2.031
   93GLOH    O2 9476   3.815   0.118   1.826
   93GLOH   H05 9477   3.825   0.065   1.742
   93GLOH    C3 9478   3.686   9.947   1.941
   93GLOH   H06 9479   3.683   9.882   1.854
   93GLOH   H07 9480   3.602   0.016   1.931
   93GLOH    O3 9481   3.671   9.869   2.061
   93GLOH   H01 9482   3.588   9.817   2.049
   94GLOH   H03 9483   4.473   1.734   2.192
   94GLOH    O1 9484   4.517   1.815   2.153
   94GLOH    C1 9485   4.427   1.927   2.169
   94GLOH   H02 9486   4.480   2.011   2.213
   94GLOH   H08 9487   4.346   1.902   2.237
   94GLOH    C2 9488   4.366   1.972   2.035
   94GLOH   H04 9489   4.310   2.064   2.054
   94GLOH    O2 9490   4.469   2.001   1.938
   94GLOH   H05 9491   4.548   1.948   1.964
   94GLOH    C3 9492   4.267   1.867   1.981
   94GLOH   H06 9493   4.313   1.768   1.992
   94GLOH   H07 9494   4.252   1.884   1.875
   94GLOH    O3 9495   4.142   1.871   2.051
   94GLOH   H01 9496   4.118   1.778   2.078
   95GLOH   H03 9497   3.725   3.570   1.332
   95GLOH    O1 9498   3.650   3.615   1.283
   95GLOH    C1 9499   3.532   3.599   1.365
   95GLOH   H02 9500   3.473   3.691   1.363
   95GLOH   H08 9501   3.560   3.582   1.469
   95GLOH    C2 9502   3.444   3.483   1.316
   95GLOH   H04 9503   3.508   3.401   1.281
   95GLOH    O2 9504   3.358   3.437   1.422
   95GLOH   H05 9505   3.383   3.343   1.446
   95GLOH    C3 9506   3.356   3.531   1.198
   95GLOH   H06 9507   3.421   3.579   1.125
   95GLOH   H07 9508   3.289   3.608   1.236
   95GLOH    O3 9509   3.281   3.426   1.136
   95GLOH   H01 9510   3.308   3.338   1.175
   96GLOH   H03 9511   3.218   0.705   1.337
   96GLOH    O1 9512   3.282   0.645   1.289
   96GLOH    C1 9513   3.216   0.605   1.167
   96GLOH   H02 9514   3.116   0.566   1.189
   96GLOH   H08 9515   3.271   0.524   1.120
   96GLOH    C2 9516   3.201   0.720   1.066
   96GLOH   H04 9517   3.156   0.677   0.975
   96GLOH    O2 9518   3.114   0.826   1.112
   96GLOH   H05 9519   3.028   0.818   1.060
   96GLOH    C3 9520   3.340   0.775   1.028
   96GLOH   H06 9521   3.388   0.811   1.118
   96GLOH   H07 9522   3.327   0.860   0.962
   96GLOH    O3 9523   3.420   0.674   0.965
   96GLOH   H01 9524   3.374   0.649   0.880
   97GLOH   H03 9525   4.654   4.079   0.759
   97GLOH    O1 9526   4.561   4.103   0.785
   97GLOH    C1 9527   4.492   3.988   0.838
   97GLOH   H02 9528   4.514   3.976   0.944
   97GLOH   H08 9529   4.524   3.897   0.788
   97GLOH    C2 9530   4.338   3.999   0.824
   97GLOH   H04 9531   4.295   3.901   0.849
   97GLOH    O2 9532   4.281   4.099   0.911
   97GLOH   H05 9533   4.291   4.073   1.008
   97GLOH    C3 9534   4.303   4.030   0.677
   97GLOH   H06 9535   4.194   4.036   0.667
   97GLOH   H07 9536   4.336   3.947   0.615
   97GLOH    O3 9537   4.364   4.153   0.634
   97GLOH   H01 9538   4.451   4.155   0.682
   98GLOH   H03 9539   4.216   3.449   1.501
   98GLOH    O1 9540   4.259   3.490   1.420
   98GLOH    C1 9541   4.198   3.429   1.305
   98GLOH   H02 9542   4.212   3.492   1.217
   98GLOH   H08 9543   4.091   3.419   1.319
   98GLOH    C2 9544   4.258   3.290   1.277
   98GLOH   H04 9545   4.260   3.234   1.371
   98GLOH    O2 9546   4.181   3.216   1.179
   98GLOH   H05 9547   4.210   3.120   1.189
   98GLOH    C3 9548   4.403   3.309   1.230
   98GLOH   H06 9549   4.404   3.372   1.141
   98GLOH   H07 9550   4.443   3.212   1.199
   98GLOH    O3 9551   4.485   3.368   1.333
   98GLOH   H01 9552   4.430   3.435   1.379
   99GLOH   H03 9553   3.913   1.379   2.526
   99GLOH    O1 9554   4.009   1.357   2.523
   99GLOH    C1 9555   4.068   1.413   2.642
   99GLOH   H02 9556   4.015   1.377   2.730
   99GLOH   H08 9557   4.055   1.521   2.641
   99GLOH    C2 9558   4.218   1.385   2.662
   99GLOH   H04 9559   4.260   1.471   2.716
   99GLOH    O2 9560   4.244   1.267   2.742
   99GLOH   H05 9561   4.191   1.190   2.708
   99GLOH    C3 9562   4.290   1.376   2.526
   99GLOH   H06 9563   4.264   1.281   2.479
   99GLOH   H07 9564   4.398   1.374   2.544
   99GLOH    O3 9565   4.257   1.486   2.439
   99GLOH   H01 9566   4.162   1.477   2.418
  100GLOH   H03 9567   3.497   9.392   0.644
  100GLOH    O1 9568   3.459   9.326   0.580
  100GLOH    C1 9569   3.488   9.374   0.447
  100GLOH   H02 9570   3.581   9.431   0.447
  100GLOH   H08 9571   3.410   9.443   0.415
  100GLOH    C2 9572   3.501   9.262   0.342
  100GLOH   H04 9573   3.417   9.193   0.354
  100GLOH    O2 9574   3.500   9.319   0.210
  100GLOH   H05 9575   3.425   9.384   0.199
  100GLOH    C3 9576   3.633   9.185   0.360
  100GLOH   H06 9577   3.716   9.252   0.333
  100GLOH   H07 9578   3.635   9.104   0.287
  100GLOH    O3 9579   3.655   9.131   0.492
  100GLOH   H01 9580   3.571   9.090   0.524
  101GLOH   H03 9581   4.015   1.262   2.342
  101GLOH    O1 9582   3.955   1.229   2.272
  101GLOH    C1 9583   4.033   1.177   2.162
  101GLOH   H02 9584   3.975   1.103   2.107
  101GLOH   H08 9585   4.122   1.125   2.199
  101GLOH    C2 9586   4.079   1.285   2.062
  101GLOH   H04 9587   3.989   1.337   2.024
  101GLOH    O2 9588   4.163   1.382   2.128
  101GLOH   H05 9589   4.241   1.407   2.071
  101GLOH    C3 9590   4.151   1.220   1.942
  101GLOH   H06 9591   4.241   1.171   1.980
  101GLOH   H07 9592   4.184   1.300   1.875
  101GLOH    O3 9593   4.068   1.127   1.871
  101GLOH   H01 9594   4.115   1.039   1.868
  102GLOH   H03 9595   4.593   3.256   1.338
  102GLOH    O1 9596   4.646   3.173   1.351
  102GLOH    C1 9597   4.572   3.086   1.439
  102GLOH   H02 9598   4.599   2.982   1.422
  102GLOH   H08 9599   4.465   3.094   1.420
  102GLOH    C2 9600   4.598   3.120   1.587
  102GLOH   H04 9601   4.572   3.225   1.603
  102GLOH    O2 9602   4.514   3.037   1.669
  102GLOH   H05 9603   4.537   3.049   1.766
  102GLOH    C3 9604   4.747   3.102   1.621
  102GLOH   H06 9605   4.773   2.996   1.616
  102GLOH   H07 9606   4.763   3.134   1.724
  102GLOH    O3 9607   4.828   3.179   1.531
  102GLOH   H01 9608   4.778   3.183   1.446
  103GLOH   H03 9609   2.924   0.646   2.556
  103GLOH    O1 9610   2.945   0.680   2.647
  103GLOH    C1 9611   2.825   0.696   2.725
  103GLOH   H02 9612   2.835   0.784   2.789
  103GLOH   H08 9613   2.811   0.611   2.791
  103GLOH    C2 9614   2.695   0.713   2.642
  103GLOH   H04 9615   2.707   0.801   2.577
  103GLOH    O2 9616   2.672   0.597   2.560
  103GLOH   H05 9617   2.745   0.591   2.492
  103GLOH    C3 9618   2.576   0.737   2.736
  103GLOH   H06 9619   2.564   0.650   2.800
  103GLOH   H07 9620   2.485   0.745   2.676
  103GLOH    O3 9621   2.594   0.856   2.815
  103GLOH   H01 9622   2.526   0.863   0.013
  104GLOH   H03 9623   3.240   3.866   1.150
  104GLOH    O1 9624   3.317   3.822   1.105
  104GLOH    C1 9625   3.269   3.751   0.989
  104GLOH   H02 9626   3.212   3.663   1.020
  104GLOH   H08 9627   3.354   3.714   0.932
  104GLOH    C2 9628   3.181   3.835   0.896
  104GLOH   H04 9629   3.094   3.870   0.953
  104GLOH    O2 9630   3.253   3.949   0.845
  104GLOH   H05 9631   3.236   4.027   0.905
  104GLOH    C3 9632   3.129   3.749   0.779
  104GLOH   H06 9633   3.215   3.709   0.724
  104GLOH   H07 9634   3.075   3.814   0.710
  104GLOH    O3 9635   3.043   3.641   0.821
  104GLOH   H01 9636   3.096   3.560   0.841
  105GLOH   H03 9637   3.783   4.622   1.377
  105GLOH    O1 9638   3.825   4.637   1.466
  105GLOH    C1 9639   3.960   4.590   1.458
  105GLOH   H02 9640   4.015   4.620   1.547
  105GLOH   H08 9641   4.011   4.634   1.373
  105GLOH    C2 9642   3.967   4.436   1.445
  105GLOH   H04 9643   3.894   4.404   1.370
  105GLOH    O2 9644   4.100   4.396   1.405
  105GLOH   H05 9645   4.090   4.318   1.343
  105GLOH    C3 9646   3.931   4.370   1.580
  105GLOH   H06 9647   3.841   4.416   1.618
  105GLOH   H07 9648   4.011   4.391   1.651
  105GLOH    O3 9649   3.914   4.227   1.569
  105GLOH   H01 9650   3.998   4.184   1.540
  106GLOH   H03 9651   4.023   2.005   1.450
  106GLOH    O1 9652   3.925   2.024   1.453
  106GLOH    C1 9653   3.896   2.137   1.538
  106GLOH   H02 9654   3.793   2.167   1.522
  106GLOH   H08 9655   3.958   2.222   1.509
  106GLOH    C2 9656   3.913   2.112   1.689
  106GLOH   H04 9657   3.879   2.204   1.740
  106GLOH    O2 9658   3.829   2.005   1.736
  106GLOH   H05 9659   3.880   1.928   1.774
  106GLOH    C3 9660   4.061   2.092   1.726
  106GLOH   H06 9661   4.100   2.007   1.672
  106GLOH   H07 9662   4.067   2.068   1.833
  106GLOH    O3 9663   4.139   2.210   1.698
  106GLOH   H01 9664   4.086   2.290   1.726
  107GLOH   H03 9665   3.485   4.095   0.354
  107GLOH    O1 9666   3.577   4.059   0.368
  107GLOH    C1 9667   3.605   4.064   0.509
  107GLOH   H02 9668   3.550   4.145   0.557
  107GLOH   H08 9669   3.711   4.085   0.526
  107GLOH    C2 9670   3.569   3.932   0.581
  107GLOH   H04 9671   3.625   3.852   0.532
  107GLOH    O2 9672   3.607   3.936   0.720
  107GLOH   H05 9673   3.627   3.843   0.750
  107GLOH    C3 9674   3.419   3.902   0.565
  107GLOH   H06 9675   3.398   3.807   0.614
  107GLOH   H07 9676   3.397   3.888   0.460
  107GLOH    O3 9677   3.334   4.005   0.619
  107GLOH   H01 9678   3.308   3.977   0.711
  108GLOH   H03 9679   3.266   1.993   2.610
  108GLOH    O1 9680   3.233   1.907   2.573
  108GLOH    C1 9681   3.180   1.828   2.681
  108GLOH   H02 9682   3.255   1.814   2.759
  108GLOH   H08 9683   3.155   1.728   2.645
  108GLOH    C2 9684   3.054   1.889   2.743
  108GLOH   H04 9685   3.077   1.993   2.772
  108GLOH    O2 9686   2.946   1.891   2.648
  108GLOH   H05 9687   2.980   1.923   2.562
  108GLOH    C3 9688   3.011   1.815   2.871
  108GLOH   H06 9689   2.997   1.710   2.847
  108GLOH   H07 9690   2.914   1.854   0.028
  108GLOH    O3 9691   3.107   1.830   0.104
  108GLOH   H01 9692   3.064   1.798   0.188
  109GLOH   H03 9693   4.680   2.809   1.839
  109GLOH    O1 9694   4.613   2.748   1.798
  109GLOH    C1 9695   4.652   2.722   1.662
  109GLOH   H02 9696   4.655   2.814   1.604
  109GLOH   H08 9697   4.578   2.658   1.614
  109GLOH    C2 9698   4.789   2.652   1.649
  109GLOH   H04 9699   4.813   2.645   1.542
  109GLOH    O2 9700   4.896   2.725   1.714
  109GLOH   H05 9701   4.982   2.693   1.680
  109GLOH    C3 9702   4.779   2.508   1.702
  109GLOH   H06 9703   4.727   2.509   1.797
  109GLOH   H07 9704   4.879   2.470   1.721
  109GLOH    O3 9705   4.708   2.422   1.610
  109GLOH   H01 9706   4.695   2.334   1.657
  110GLOH   H03 9707   2.995   1.169   0.689
  110GLOH    O1 9708   3.089   1.201   0.687
  110GLOH    C1 9709   3.169   1.086   0.720
  110GLOH   H02 9710   3.155   1.011   0.642
  110GLOH   H08 9711   3.134   1.041   0.813
  110GLOH    C2 9712   3.319   1.114   0.733
  110GLOH   H04 9713   3.367   1.020   0.765
  110GLOH    O2 9714   3.379   1.155   0.608
  110GLOH   H05 9715   3.388   1.072   0.551
  110GLOH    C3 9716   3.342   1.217   0.845
  110GLOH   H06 9717   3.284   1.307   0.822
  110GLOH   H07 9718   3.447   1.245   0.846
  110GLOH    O3 9719   3.303   1.163   0.972
  110GLOH   H01 9720   3.275   1.238   1.032
  111GLOH   H03 9721   4.293   2.028   0.387
  111GLOH    O1 9722   4.238   1.972   0.448
  111GLOH    C1 9723   4.318   1.861   0.495
  111GLOH   H02 9724   4.412   1.856   0.440
  111GLOH   H08 9725   4.267   1.767   0.476
  111GLOH    C2 9726   4.353   1.864   0.646
  111GLOH   H04 9727   4.398   1.768   0.671
  111GLOH    O2 9728   4.446   1.969   0.679
  111GLOH   H05 9729   4.489   1.946   0.767
  111GLOH    C3 9730   4.225   1.880   0.730
  111GLOH   H06 9731   4.174   1.970   0.699
  111GLOH   H07 9732   4.253   1.894   0.834
  111GLOH    O3 9733   4.137   1.766   0.719
  111GLOH   H01 9734   4.184   1.690   0.762
  112GLOH   H03 9735   3.982   4.118   0.415
  112GLOH    O1 9736   3.966   4.079   0.504
  112GLOH    C1 9737   3.951   3.936   0.494
  112GLOH   H02 9738   3.848   3.910   0.474
  112GLOH   H08 9739   3.976   3.890   0.590
  112GLOH    C2 9740   4.039   3.871   0.385
  112GLOH   H04 9741   4.016   3.920   0.289
  112GLOH    O2 9742   4.180   3.889   0.412
  112GLOH   H05 9743   4.205   3.985   0.400
  112GLOH    C3 9744   4.008   3.722   0.371
  112GLOH   H06 9745   4.028   3.672   0.466
  112GLOH   H07 9746   4.077   3.680   0.298
  112GLOH    O3 9747   3.872   3.698   0.329
  112GLOH   H01 9748   3.866   3.712   0.232
  113GLOH   H03 9749   4.357   2.775   2.019
  113GLOH    O1 9750   4.334   2.852   2.078
  113GLOH    C1 9751   4.418   2.843   2.195
  113GLOH   H02 9752   4.523   2.846   2.167
  113GLOH   H08 9753   4.402   2.747   2.245
  113GLOH    C2 9754   4.391   2.955   2.297
  113GLOH   H04 9755   4.285   2.947   2.327
  113GLOH    O2 9756   4.473   2.940   2.416
  113GLOH   H05 9757   4.449   3.013   2.478
  113GLOH    C3 9758   4.412   3.093   2.233
  113GLOH   H06 9759   4.390   3.170   2.308
  113GLOH   H07 9760   4.338   3.106   2.154
  113GLOH    O3 9761   4.544   3.113   2.178
  113GLOH   H01 9762   4.609   3.092   2.249
  114GLOH   H03 9763   2.447   2.540   1.003
  114GLOH    O1 9764   2.433   2.441   0.997
  114GLOH    C1 9765   2.563   2.379   0.984
  114GLOH   H02 9766   2.630   2.416   1.061
  114GLOH   H08 9767   2.607   2.405   0.888
  114GLOH    C2 9768   2.558   2.225   0.994
  114GLOH   H04 9769   2.495   2.187   0.912
  114GLOH    O2 9770   2.689   2.168   0.980
  114GLOH   H05 9771   2.711   2.162   0.882
  114GLOH    C3 9772   2.492   2.181   1.126
  114GLOH   H06 9773   2.549   2.222   1.209
  114GLOH   H07 9774   2.499   2.072   1.135
  114GLOH    O3 9775   2.355   2.223   1.132
  114GLOH   H01 9776   2.354   2.319   1.111
  115GLOH   H03 9777   5.052   3.215   1.802
  115GLOH    O1 9778   5.029   3.243   1.895
  115GLOH    C1 9779   4.943   3.358   1.885
  115GLOH   H02 9780   4.854   3.334   1.826
  115GLOH   H08 9781   4.994   3.440   1.835
  115GLOH    C2 9782   4.896   3.407   2.024
  115GLOH   H04 9783   4.985   3.439   2.080
  115GLOH    O2 9784   4.807   3.519   2.010
  115GLOH   H05 9785   4.860   3.603   2.018
  115GLOH    C3 9786   4.829   3.293   2.101
  115GLOH   H06 9787   4.739   3.263   2.047
  115GLOH   H07 9788   4.798   3.330   2.199
  115GLOH    O3 9789   4.919   3.182   2.114
  115GLOH   H01 9790   4.974   3.185   2.032
  116GLOH   H03 9791   3.430   9.114   1.549
  116GLOH    O1 9792   3.444   9.060   1.466
  116GLOH    C1 9793   3.501   8.934   1.506
  116GLOH   H02 9794   3.426   8.872   1.555
  116GLOH   H08 9795   3.581   8.949   1.579
  116GLOH    C2 9796   3.560   8.854   1.388
  116GLOH   H04 9797   3.637   8.916   1.340
  116GLOH    O2 9798   3.620   8.731   1.435
  116GLOH   H05 9799   3.660   8.684   1.357
  116GLOH    C3 9800   3.450   8.823   1.283
  116GLOH   H06 9801   3.377   8.756   1.328
  116GLOH   H07 9802   3.496   8.770   1.200
  116GLOH    O3 9803   3.387   8.943   1.237
  116GLOH   H01 9804   3.374   9.000   1.316
  117GLOH   H03 9805   3.528   1.324   1.319
  117GLOH    O1 9806   3.498   1.312   1.413
  117GLOH    C1 9807   3.420   1.429   1.445
  117GLOH   H02 9808   3.346   1.449   1.367
  117GLOH   H08 9809   3.484   1.517   1.450
  117GLOH    C2 9810   3.345   1.418   1.579
  117GLOH   H04 9811   3.419   1.408   1.660
  117GLOH    O2 9812   3.266   1.537   1.601
  117GLOH   H05 9813   3.325   1.607   1.641
  117GLOH    C3 9814   3.254   1.293   1.580
  117GLOH   H06 9815   3.171   1.309   1.511
  117GLOH   H07 9816   3.211   1.283   1.680
  117GLOH    O3 9817   3.328   1.175   1.544
  117GLOH   H01 9818   3.396   1.207   1.479
  118GLOH   H03 9819   4.031   0.831   0.116
  118GLOH    O1 9820   4.037   0.864   0.024
  118GLOH    C1 9821   3.981   0.996   0.014
  118GLOH   H02 9822   4.036   1.066   0.077
  118GLOH   H08 9823   3.878   0.997   0.050
  118GLOH    C2 9824   3.982   1.051   2.744
  118GLOH   H04 9825   3.947   1.156   2.747
  118GLOH    O2 9826   4.117   1.049   2.691
  118GLOH   H05 9827   4.153   0.961   2.712
  118GLOH    C3 9828   3.886   0.972   2.653
  118GLOH   H06 9829   3.917   0.868   2.653
  118GLOH   H07 9830   3.897   1.009   2.551
  118GLOH    O3 9831   3.749   0.984   2.696
  118GLOH   H01 9832   3.695   0.919   2.647
  119GLOH   H03 9833   3.948   2.722   0.240
  119GLOH    O1 9834   3.987   2.689   0.325
  119GLOH    C1 9835   4.058   2.795   0.392
  119GLOH   H02 9836   4.087   2.762   0.492
  119GLOH   H08 9837   3.993   2.882   0.405
  119GLOH    C2 9838   4.185   2.840   0.316
  119GLOH   H04 9839   4.153   2.884   0.221
  119GLOH    O2 9840   4.258   2.939   0.392
  119GLOH   H05 9841   4.299   3.001   0.327
  119GLOH    C3 9842   4.275   2.719   0.285
  119GLOH   H06 9843   4.304   2.672   0.379
  119GLOH   H07 9844   4.367   2.755   0.238
  119GLOH    O3 9845   4.209   2.623   0.200
  119GLOH   H01 9846   4.121   2.607   0.241
  120GLOH   H03 9847   4.509   1.947   1.509
  120GLOH    O1 9848   4.548   1.861   1.539
  120GLOH    C1 9849   4.482   1.821   1.661
  120GLOH   H02 9850   4.392   1.880   1.678
  120GLOH   H08 9851   4.548   1.840   1.746
  120GLOH    C2 9852   4.443   1.672   1.660
  120GLOH   H04 9853   4.536   1.614   1.646
  120GLOH    O2 9854   4.383   1.633   1.786
  120GLOH   H05 9855   4.283   1.646   1.780
  120GLOH    C3 9856   4.352   1.642   1.540
  120GLOH   H06 9857   4.327   1.536   1.542
  120GLOH   H07 9858   4.408   1.660   1.449
  120GLOH    O3 9859   4.232   1.722   1.540
  120GLOH   H01 9860   4.178   1.696   1.619
  121ACOH    H4 9861   2.700   2.844   0.781
  121ACOH    O2 9862   2.639   2.893   0.718
  121ACOH    C2 9863   2.709   2.997   0.669
  121ACOH    O1 9864   2.825   3.025   0.693
  121ACOH    C1 9865   2.626   3.077   0.575
  121ACOH    H1 9866   2.670   3.073   0.476
  121ACOH    H2 9867   2.622   3.180   0.608
  121ACOH    H3 9868   2.524   3.038   0.571
  122ACOH    H4 9869   4.288   3.192   0.219
  122ACOH    O2 9870   4.335   3.108   0.190
  122ACOH    C2 9871   4.381   3.137   0.066
  122ACOH    O1 9872   4.359   3.237   0.001
  122ACOH    C1 9873   4.460   3.025   0.009
  122ACOH    H1 9874   4.558   3.062   2.853
  122ACOH    H2 9875   4.409   2.985   2.797
  122ACOH    H3 9876   4.475   2.946   0.083
  123ACOH    H4 9877   2.328   2.378   0.904
  123ACOH    O2 9878   2.254   2.328   0.860
  123ACOH    C2 9879   2.302   2.279   0.744
  123ACOH    O1 9880   2.408   2.306   0.692
  123ACOH    C1 9881   2.203   2.191   0.677
  123ACOH    H1 9882   2.174   2.234   0.582
  123ACOH    H2 9883   2.115   2.179   0.740
  123ACOH    H3 9884   2.247   2.093   0.660
  124ACOH    H4 9885   4.421   2.106   0.621
  124ACOH    O2 9886   4.416   2.193   0.574
  124ACOH    C2 9887   4.309   2.259   0.623
  124ACOH    O1 9888   4.227   2.218   0.703
  124ACOH    C1 9889   4.292   2.390   0.556
  124ACOH    H1 9890   4.276   2.467   0.632
  124ACOH    H2 9891   4.207   2.387   0.489
  124ACOH    H3 9892   4.382   2.416   0.500
  125ACOH    H4 9893   3.713   8.664   0.974
  125ACOH    O2 9894   3.764   8.579   0.981
  125ACOH    C2 9895   3.767   8.543   1.110
  125ACOH    O1 9896   3.716   8.602   1.204
  125ACOH    C1 9897   3.840   8.415   1.128
  125ACOH    H1 9898   3.771   8.338   1.160
  125ACOH    H2 9899   3.916   8.427   1.205
  125ACOH    H3 9900   3.888   8.385   1.036
  126ACOH    H4 9901   4.914   4.006   0.848
  126ACOH    O2 9902   4.983   3.998   0.776
  126ACOH    C2 9903   4.923   4.032   0.661
  126ACOH    O1 9904   4.807   4.064   0.646
  126ACOH    C1 9905   5.020   4.023   0.549
  126ACOH    H1 9906   5.054   3.920   0.539
  126ACOH    H2 9907   5.107   4.085   0.571
  126ACOH    H3 9908   4.976   4.055   0.456
  127ACOH    H4 9909   3.551   4.561   0.383
  127ACOH    O2 9910   3.468   4.614   0.361
  127ACOH    C2 9911   3.415   4.650   0.479
  127ACOH    O1 9912   3.413   4.580   0.579
  127ACOH    C1 9913   3.323   4.765   0.463
  127ACOH    H1 9914   3.221   4.729   0.461
  127ACOH    H2 9915   3.344   4.818   0.371
  127ACOH    H3 9916   3.335   4.833   0.547
  128ACOH    H4 9917   4.130   0.581   1.502
  128ACOH    O2 9918   4.228   0.563   1.498
  128ACOH    C2 9919   4.294   0.673   1.539
  128ACOH    O1 9920   4.247   0.778   1.579
  128ACOH    C1 9921   4.441   0.653   1.533
  128ACOH    H1 9922   4.482   0.655   1.633
  128ACOH    H2 9923   4.486   0.732   1.474
  128ACOH    H3 9924   4.464   0.557   1.487
  129ACOH    H4 9925   2.089   2.978   2.062
  129ACOH    O2 9926   2.020   3.031   2.111
  129ACOH    C2 9927   2.085   3.123   2.184
  129ACOH    O1 9928   2.206   3.138   2.194
  129ACOH    C1 9929   1.990   3.208   2.260
  129ACOH    H1 9930   1.887   3.182   2.234
  129ACOH    H2 9931   2.007   3.313   2.235
  129ACOH    H3 9932   2.004   3.193   2.366
  130ACOH    H4 9933   4.228   3.498   0.467
  130ACOH    O2 9934   4.287   3.542   0.399
  130ACOH    C2 9935   4.354   3.639   0.465
  130ACOH    O1 9936   4.352   3.661   0.584
  130ACOH    C1 9937   4.447   3.711   0.374
  130ACOH    H1 9938   4.435   3.676   0.272
  130ACOH    H2 9939   4.549   3.695   0.406
  130ACOH    H3 9940   4.424   3.817   0.377
  131ACOH    H4 9941   4.691   2.719   0.125
  131ACOH    O2 9942   4.736   2.740   0.212
  131ACOH    C2 9943   4.726   2.632   0.292
  131ACOH    O1 9944   4.668   2.527   0.269
  131ACOH    C1 9945   4.792   2.659   0.422
  131ACOH    H1 9946   4.897   2.681   0.405
  131ACOH    H2 9947   4.783   2.574   0.489
  131ACOH    H3 9948   4.746   2.745   0.470
  132ACOH    H4 9949   3.978   9.346   2.119
  132ACOH    O2 9950   4.077   9.342   2.132
  132ACOH    C2 9951   4.121   9.234   2.066
  132ACOH    O1 9952   4.054   9.149   2.011
  132ACOH    C1 9953   4.269   9.230   2.069
  132ACOH    H1 9954   4.306   9.244   1.968
  132ACOH    H2 9955   4.302   9.134   2.106
  132ACOH    H3 9956   4.309   9.309   2.132
  133ACOH    H4 9957   4.625   2.360   0.304
  133ACOH    O2 9958   4.604   2.264   0.309
  133ACOH    C2 9959   4.678   2.215   0.411
  133ACOH    O1 9960   4.732   2.280   0.498
  133ACOH    C1 9961   4.675   2.066   0.414
  133ACOH    H1 9962   4.777   2.028   0.413
  133ACOH    H2 9963   4.623   2.026   0.327
  133ACOH    H3 9964   4.625   2.033   0.504
  134ACOH    H4 9965   3.126   8.841   2.148
  134ACOH    O2 9966   3.028   8.842   2.164
  134ACOH    C2 9967   2.974   8.926   2.074
  134ACOH    O1 9968   3.032   8.999   1.996
  134ACOH    C1 9969   2.826   8.925   2.087
  134ACOH    H1 9970   2.781   8.996   2.018
  134ACOH    H2 9971   2.799   8.953   2.189
  134ACOH    H3 9972   2.789   8.825   2.067
  135ACOH    H4 9973   4.779   3.876   2.130
  135ACOH    O2 9974   4.856   3.881   2.193
  135ACOH    C2 9975   4.957   3.810   2.141
  135ACOH    O1 9976   4.955   3.747   2.037
  135ACOH    C1 9977   5.072   3.807   2.233
  135ACOH    H1 9978   5.039   3.775   2.332
  135ACOH    H2 9979   5.116   3.906   2.241
  135ACOH    H3 9980   5.148   3.737   2.198
  136ACOH    H4 9981   4.296   0.670   0.785
  136ACOH    O2 9982   4.261   0.589   0.739
  136ACOH    C2 9983   4.184   0.631   0.637
  136ACOH    O1 9984   4.186   0.741   0.585
  136ACOH    C1 9985   4.108   0.518   0.578
  136ACOH    H1 9986   4.122   0.428   0.637
  136ACOH    H2 9987   4.141   0.499   0.477
  136ACOH    H3 9988   4.002   0.542   0.578
  137ACOH    H4 9989   2.943   9.969   1.636
  137ACOH    O2 9990   2.857   9.938   1.678
  137ACOH    C2 9991   2.828   9.819   1.621
  137ACOH    O1 9992   2.877   9.775   1.519
  137ACOH    C1 9993   2.711   9.757   1.686
  137ACOH    H1 9994   2.681   9.667   1.634
  137ACOH    H2 9995   2.628   9.828   1.687
  137ACOH    H3 9996   2.737   9.732   1.789
  138ACOH    H4 9997   3.303   8.706   2.245
  138ACOH    O2 9998   3.296   8.640   2.317
  138ACOH    C2 9999   3.364   8.530   2.280
  138ACOH    O110000   3.435   8.518   2.182
  138ACOH    C110001   3.345   8.419   2.377
  138ACOH    H110002   3.289   8.339   2.329
  138ACOH    H210003   3.291   8.454   2.464
  138ACOH    H310004   3.441   8.379   2.408
  139ACOH    H410005   4.009   4.603   0.880
  139ACOH    O210006   3.965   4.658   0.809
  139ACOH    C210007   3.850   4.705   0.860
  139ACOH    O110008   3.802   4.680   0.970
  139ACOH    C110009   3.782   4.792   0.762
  139ACOH    H110010   3.760   4.735   0.671
  139ACOH    H210011   3.847   4.875   0.736
  139ACOH    H310012   3.689   4.831   0.802
  140ACOH    H410013   4.192   4.458   1.505
  140ACOH    O210014   4.242   4.504   1.578
  140ACOH    C210015   4.368   4.520   1.536
  140ACOH    O110016   4.415   4.481   1.431
  140ACOH    C110017   4.450   4.587   1.639
  140ACOH    H110018   4.389   4.618   1.724
  140ACOH    H210019   4.499   4.675   1.597
  140ACOH    H310020   4.527   4.519   1.675
  141ACOH    H410021   3.735   4.714   1.558
  141ACOH    O210022   3.673   4.766   1.616
  141ACOH    C210023   3.564   4.690   1.635
  141ACOH    O110024   3.542   4.579   1.588
  141ACOH    C110025   3.469   4.758   1.726
  141ACOH    H110026   3.437   4.852   1.680
  141ACOH    H210027   3.519   4.781   1.819
  141ACOH    H310028   3.382   4.696   1.745
  142ACOH    H410029   3.192   8.898   0.425
  142ACOH    O210030   3.206   8.824   0.360
  142ACOH    C210031   3.279   8.730   0.420
  142ACOH    O110032   3.319   8.730   0.535
  142ACOH    C110033   3.307   8.618   0.326
  142ACOH    H110034   3.213   8.572   0.298
  142ACOH    H210035   3.371   8.544   0.372
  142ACOH    H310036   3.354   8.658   0.237
  143ACOH    H410037   4.922   3.101   2.236
  143ACOH    O210038   4.920   3.047   2.320
  143ACOH    C210039   4.924   2.918   2.282
  143ACOH    O110040   4.912   2.875   2.169
  143ACOH    C110041   4.930   2.829   2.401
  143ACOH    H110042   5.026   2.843   2.451
  143ACOH    H210043   4.920   2.725   2.371
  143ACOH    H310044   4.850   2.855   2.469
  144ACOH    H410045   3.493   3.768   1.659
  144ACOH    O210046   3.590   3.773   1.681
  144ACOH    C210047   3.643   3.857   1.590
  144ACOH    O110048   3.583   3.922   1.507
  144ACOH    C110049   3.791   3.865   1.605
  144ACOH    H110050   3.817   3.875   1.710
  144ACOH    H210051   3.830   3.950   1.550
  144ACOH    H310052   3.835   3.774   1.567
  145ACOH    H410053   4.168   9.276   1.653
  145ACOH    O210054   4.227   9.318   1.721
  145ACOH    C210055   4.215   9.451   1.706
  145ACOH    O110056   4.152   9.510   1.621
  145ACOH    C110057   4.293   9.526   1.809
  145ACOH    H110058   4.344   9.458   1.876
  145ACOH    H210059   4.225   9.589   1.866
  145ACOH    H310060   4.366   9.589   1.760
  146ACOH    H410061   3.922   2.388   0.213
  146ACOH    O210062   4.007   2.365   0.167
  146ACOH    C210063   3.989   2.393   0.037
  146ACOH    O110064   3.911   2.474   2.864
  146ACOH    C110065   4.092   2.323   2.830
  146ACOH    H110066   4.191   2.353   2.863
  146ACOH    H210067   4.081   2.348   2.724
  146ACOH    H310068   4.082   2.216   2.842
  147ACOH    H410069   2.210   2.594   1.892
  147ACOH    O210070   2.120   2.638   1.886
  147ACOH    C210071   2.044   2.559   1.809
  147ACOH    O110072   2.076   2.454   1.756
  147ACOH    C110073   1.909   2.619   1.793
  147ACOH    H110074   1.862   2.628   1.890
  147ACOH    H210075   1.847   2.557   1.729
  147ACOH    H310076   1.919   2.717   1.748
  148ACOH    H410077   2.102   3.174   1.365
  148ACOH    O210078   2.008   3.144   1.377
  148ACOH    C210079   2.010   3.033   1.453
  148ACOH    O110080   2.107   2.973   1.495
  148ACOH    C110081   1.871   2.990   1.482
  148ACOH    H110082   1.818   3.070   1.532
  148ACOH    H210083   1.870   2.902   1.545
  148ACOH    H310084   1.820   2.968   1.388
  149ACOH    H410085   4.617   3.997   0.023
  149ACOH    O210086   4.685   4.005   0.091
  149ACOH    C210087   4.623   4.047   0.203
  149ACOH    O110088   4.504   4.070   0.215
  149ACOH    C110089   4.719   4.062   0.316
  149ACOH    H110090   4.720   4.165   0.350
  149ACOH    H210091   4.819   4.035   0.284
  149ACOH    H310092   4.689   3.998   0.398
  150ACOH    H410093   2.729   9.443   1.838
  150ACOH    O210094   2.639   9.412   1.869
  150ACOH    C210095   2.601   9.496   1.967
  150ACOH    O110096   2.660   9.595   2.007
  150ACOH    C110097   2.470   9.457   2.024
  150ACOH    H110098   2.398   9.537   2.008
  150ACOH    H210099   2.481   9.439   2.130
  150ACOH    H310100   2.433   9.366   1.976
  151SOL     OW10101   3.037   3.844   1.559
  151SOL    HW110102   3.054   3.754   1.519
  151SOL    HW210103   3.105   3.910   1.525
  152SOL     OW10104   3.135   2.384   0.601
  152SOL    HW110105   3.217   2.422   0.645
  152SOL    HW210106   3.072   2.459   0.579
  153SOL     OW10107   3.177   1.930   1.942
  153SOL    HW110108   3.269   1.962   1.920
  153SOL    HW210109   3.120   2.009   1.966
  154SOL     OW10110   2.614   2.434   0.173
  154SOL    HW110111   2.677   2.475   0.239
  154SOL    HW210112   2.647   2.451   0.081
  155SOL     OW10113   2.972   1.770   0.325
  155SOL    HW110114   2.985   1.710   0.405
  155SOL    HW210115   2.883   1.816   0.333
  156SOL     OW10116   2.925   2.400   2.099
  156SOL    HW110117   2.841   2.445   2.070
  156SOL    HW210118   2.944   2.422   2.195
  157SOL     OW10119   4.806   2.893   1.902
  157SOL    HW110120   4.851   2.889   1.991
  157SOL    HW210121   4.858   2.840   1.836
  158SOL     OW10122   3.943   1.479   0.760
  158SOL    HW110123   3.971   1.390   0.723
  158SOL    HW210124   3.938   1.545   0.685
  159SOL     OW10125   2.264   1.827   1.368
  159SOL    HW110126   2.177   1.876   1.377
  159SOL    HW210127   2.339   1.889   1.391
  160SOL     OW10128   3.991   3.175   1.512
  160SOL    HW110129   3.992   3.083   1.549
  160SOL    HW210130   3.939   3.177   1.427
  161SOL     OW10131   3.891   0.793   1.661
  161SOL    HW110132   3.825   0.759   1.729
  161SOL    HW210133   3.886   0.893   1.657
  162SOL     OW10134   3.249   8.587   1.694
  162SOL    HW110135   3.189   8.553   1.623
  162SOL    HW210136   3.343   8.591   1.660
  163SOL     OW10137   2.980   9.841   1.263
  163SOL    HW110138   3.022   9.754   1.237
  163SOL    HW210139   2.936   9.831   1.352
  164SOL     OW10140   2.769   1.709   2.057
  164SOL    HW110141   2.827   1.659   1.992
  164SOL    HW210142   2.674   1.679   2.047
  165SOL     OW10143   2.869   2.286   1.135
  165SOL    HW110144   2.804   2.229   1.086
  165SOL    HW210145   2.823   2.331   1.211
  166SOL     OW10146   3.726   2.942   1.621
  166SOL    HW110147   3.825   2.947   1.604
  166SOL    HW210148   3.698   3.021   1.676
  167SOL     OW10149   3.545   1.369   1.161
  167SOL    HW110150   3.544   1.462   1.126
  167SOL    HW210151   3.606   1.313   1.104
  168SOL     OW10152   4.409   2.646   1.930
  168SOL    HW110153   4.389   2.568   1.872
  168SOL    HW210154   4.487   2.696   1.893
  169SOL     OW10155   3.266   4.117   1.869
  169SOL    HW110156   3.320   4.179   1.926
  169SOL    HW210157   3.246   4.161   1.782
  170SOL     OW10158   2.890   0.586   0.533
  170SOL    HW110159   2.875   0.516   0.603
  170SOL    HW210160   2.970   0.561   0.478
  171SOL     OW10161   2.283   2.152   1.587
  171SOL    HW110162   2.340   2.101   1.522
  171SOL    HW210163   2.293   2.250   1.569
  172SOL     OW10164   3.653   1.187   0.481
  172SOL    HW110165   3.622   1.124   0.410
  172SOL    HW210166   3.574   1.234   0.521
  173SOL     OW10167   3.427   3.474   0.853
  173SOL    HW110168   3.493   3.488   0.927
  173SOL    HW210169   3.476   3.458   0.768
  174SOL     OW10170   2.584   3.278   1.470
  174SOL    HW110171   2.646   3.317   1.538
  174SOL    HW210172   2.607   3.313   1.379
  175SOL     OW10173   2.963   4.151   0.421
  175SOL    HW110174   3.038   4.188   0.477
  175SOL    HW210175   2.890   4.118   0.480
  176SOL     OW10176   2.779   3.500   1.039
  176SOL    HW110177   2.874   3.488   1.067
  176SOL    HW210178   2.775   3.528   0.943
  177SOL     OW10179   3.195   4.180   0.961
  177SOL    HW110180   3.176   4.199   1.057
  177SOL    HW210181   3.237   4.260   0.918
  178SOL     OW10182   3.432   1.733   1.283
  178SOL    HW110183   3.442   1.832   1.284
  178SOL    HW210184   3.488   1.694   1.210
  179SOL     OW10185   3.997   2.083   0.496
  179SOL    HW110186   4.093   2.059   0.481
  179SOL    HW210187   3.961   2.030   0.574
  180SOL     OW10188   3.954   2.071   0.931
  180SOL    HW110189   3.869   2.121   0.946
  180SOL    HW210190   3.949   2.024   0.842
  181SOL     OW10191   4.464   2.371   0.893
  181SOL    HW110192   4.510   2.336   0.974
  181SOL    HW210193   4.368   2.388   0.914
  182SOL     OW10194   2.256   2.997   1.739
  182SOL    HW110195   2.342   3.043   1.719
  182SOL    HW210196   2.202   2.990   1.655
  183SOL     OW10197   2.997   9.951   0.666
  183SOL    HW110198   2.963   9.967   0.573
  183SOL    HW210199   3.029   9.856   0.674
  184SOL     OW10200   2.543   1.202   1.743
  184SOL    HW110201   2.494   1.288   1.755
  184SOL    HW210202   2.523   1.163   1.653
  185SOL     OW10203   2.423   1.795   0.956
  185SOL    HW110204   2.358   1.871   0.965
  185SOL    HW210205   2.512   1.824   0.991
  186SOL     OW10206   2.560   1.658   1.603
  186SOL    HW110207   2.474   1.636   1.557
  186SOL    HW210208   2.544   1.728   1.673
  187SOL     OW10209   2.419   3.466   0.624
  187SOL    HW110210   2.445   3.449   0.529
  187SOL    HW210211   2.330   3.513   0.626
  188SOL     OW10212   2.582   0.553   1.545
  188SOL    HW110213   2.644   0.589   1.614
  188SOL    HW210214   2.488   0.559   1.579
  189SOL     OW10215   3.108   1.095   1.223
  189SOL    HW110216   3.152   1.182   1.202
  189SOL    HW210217   3.135   1.027   1.155
  190SOL     OW10218   2.313   1.594   1.511
  190SOL    HW110219   2.287   1.680   1.467
  190SOL    HW210220   2.290   1.518   1.450
  191SOL     OW10221   3.284   3.848   1.899
  191SOL    HW110222   3.369   3.821   1.944
  191SOL    HW210223   3.277   3.948   1.898
  192SOL     OW10224   2.447   0.835   1.062
  192SOL    HW110225   2.378   0.906   1.045
  192SOL    HW210226   2.508   0.865   1.135
  193SOL     OW10227   3.158   9.065   1.503
  193SOL    HW110228   3.106   9.054   1.588
  193SOL    HW210229   3.255   9.048   1.522
  194SOL     OW10230   4.429   3.351   2.075
  194SOL    HW110231   4.478   3.265   2.096
  194SOL    HW210232   4.352   3.331   2.015
  195SOL     OW10233   2.866   2.498   0.946
  195SOL    HW110234   2.850   2.483   0.848
  195SOL    HW210235   2.879   2.410   0.992
  196SOL     OW10236   2.910   2.275   1.770
  196SOL    HW110237   2.957   2.353   1.729
  196SOL    HW210238   2.961   2.243   1.850
  197SOL     OW10239   2.819   1.079   0.284
  197SOL    HW110240   2.756   1.002   0.274
  197SOL    HW210241   2.909   1.046   0.313
  198SOL     OW10242   2.852   9.813   2.029
  198SOL    HW110243   2.815   9.906   2.036
  198SOL    HW210244   2.778   9.747   2.035
  199SOL     OW10245   2.753   1.349   1.890
  199SOL    HW110246   2.783   1.442   1.870
  199SOL    HW210247   2.685   1.320   1.822
  200SOL     OW10248   2.471   1.165   1.473
  200SOL    HW110249   2.528   1.241   1.442
  200SOL    HW210250   2.404   1.142   1.403
  201SOL     OW10251   3.697   0.426   0.258
  201SOL    HW110252   3.615   0.482   0.251
  201SOL    HW210253   3.723   0.418   0.355
  202SOL     OW10254   2.517   3.578   1.101
  202SOL    HW110255   2.527   3.652   1.167
  202SOL    HW210256   2.607   3.554   1.064
  203SOL     OW10257   3.395   1.316   1.904
  203SOL    HW110258   3.412   1.233   1.957
  203SOL    HW210259   3.464   1.385   1.928
  204SOL     OW10260   2.475   2.703   0.999
  204SOL    HW110261   2.501   2.795   1.031
  204SOL    HW210262   2.439   2.709   0.906
  205SOL     OW10263   2.523   1.614   1.972
  205SOL    HW110264   2.487   1.534   1.924
  205SOL    HW210265   2.495   1.697   1.924
  206SOL     OW10266   3.530   4.153   0.853
  206SOL    HW110267   3.457   4.202   0.807
  206SOL    HW210268   3.551   4.069   0.802
  207SOL     OW10269   3.233   2.364   0.319
  207SOL    HW110270   3.200   2.354   0.413
  207SOL    HW210271   3.210   2.282   0.267
  208SOL     OW10272   3.719   2.195   0.989
  208SOL    HW110273   3.730   2.206   1.087
  208SOL    HW210274   3.624   2.173   0.968
  209SOL     OW10275   4.793   2.022   1.904
  209SOL    HW110276   4.843   2.095   1.949
  209SOL    HW210277   4.778   1.947   1.968
  210SOL     OW10278   3.446   8.849   0.775
  210SOL    HW110279   3.405   8.777   0.719
  210SOL    HW210280   3.451   8.934   0.721
  211SOL     OW10281   3.455   1.024   1.721
  211SOL    HW110282   3.398   1.086   1.667
  211SOL    HW210283   3.401   0.985   1.795
  212SOL     OW10284   2.691   1.367   0.528
  212SOL    HW110285   2.732   1.416   0.605
  212SOL    HW210286   2.755   1.366   0.451
  213SOL     OW10287   4.592   3.062   1.917
  213SOL    HW110288   4.565   3.080   2.012
  213SOL    HW210289   4.676   3.008   1.916
  214SOL     OW10290   3.791   3.083   0.401
  214SOL    HW110291   3.806   3.173   0.360
  214SOL    HW210292   3.762   3.019   0.330
  215SOL     OW10293   3.608   3.165   0.826
  215SOL    HW110294   3.529   3.184   0.768
  215SOL    HW210295   3.686   3.137   0.769
  216SOL     OW10296   3.564   9.708   0.557
  216SOL    HW110297   3.580   9.795   0.603
  216SOL    HW210298   3.572   9.720   0.458
  217SOL     OW10299   3.250   4.289   1.647
  217SOL    HW110300   3.250   4.365   1.713
  217SOL    HW210301   3.338   4.288   1.599
  218SOL     OW10302   2.631   2.652   1.804
  218SOL    HW110303   2.590   2.573   1.758
  218SOL    HW210304   2.598   2.736   1.761
  219SOL     OW10305   3.348   4.371   0.772
  219SOL    HW110306   3.398   4.400   0.854
  219SOL    HW210307   3.364   4.437   0.699
  220SOL     OW10308   2.814   2.525   0.337
  220SOL    HW110309   2.865   2.589   0.394
  220SOL    HW210310   2.838   2.431   0.362
  221SOL     OW10311   2.645   2.966   2.080
  221SOL    HW110312   2.708   2.893   2.105
  221SOL    HW210313   2.693   3.035   2.026
  222SOL     OW10314   3.314   1.681   1.960
  222SOL    HW110315   3.260   1.764   1.977
  222SOL    HW210316   3.255   1.601   1.968
  223SOL     OW10317   3.725   3.483   1.684
  223SOL    HW110318   3.788   3.512   1.756
  223SOL    HW210319   3.771   3.487   1.596
  224SOL     OW10320   2.796   3.557   0.772
  224SOL    HW110321   2.886   3.598   0.789
  224SOL    HW210322   2.768   3.577   0.679
  225SOL     OW10323   2.995   2.037   0.478
  225SOL    HW110324   3.060   1.972   0.438
  225SOL    HW210325   3.012   2.046   0.576
  226SOL     OW10326   3.831   3.399   0.593
  226SOL    HW110327   3.875   3.482   0.627
  226SOL    HW210328   3.858   3.322   0.650
  227SOL     OW10329   2.530   3.287   1.884
  227SOL    HW110330   2.499   3.262   1.976
  227SOL    HW210331   2.565   3.381   1.886
  228SOL     OW10332   2.900   2.661   1.818
  228SOL    HW110333   2.800   2.656   1.814
  228SOL    HW210334   2.927   2.754   1.843
  229SOL     OW10335   3.693   0.775   0.262
  229SOL    HW110336   3.711   0.757   0.359
  229SOL    HW210337   3.772   0.745   0.208
  230SOL     OW10338   2.654   3.316   1.208
  230SOL    HW110339   2.558   3.316   1.181
  230SOL    HW210340   2.704   3.382   1.153
  231SOL     OW10341   4.205   1.211   1.072
  231SOL    HW110342   4.261   1.155   1.012
  231SOL    HW210343   4.199   1.168   1.162
  232SOL     OW10344   3.061   2.192   1.985
  232SOL    HW110345   3.153   2.224   1.964
  232SOL    HW210346   3.013   2.263   2.037
  233SOL     OW10347   4.406   4.032   1.491
  233SOL    HW110348   4.456   3.950   1.463
  233SOL    HW210349   4.435   4.110   1.435
  234SOL     OW10350   2.929   1.578   1.877
  234SOL    HW110351   2.951   1.660   1.824
  234SOL    HW210352   3.013   1.529   1.901
  235SOL     OW10353   3.889   0.085   1.058
  235SOL    HW110354   3.792   0.087   1.033
  235SOL    HW210355   3.920   9.990   1.066
  236SOL     OW10356   3.018   1.619   1.564
  236SOL    HW110357   3.012   1.694   1.631
  236SOL    HW210358   3.110   1.580   1.566
  237SOL     OW10359   3.609   9.943   0.688
  237SOL    HW110360   3.541   9.998   0.735
  237SOL    HW210361   3.662   9.891   0.756
  238SOL     OW10362   3.260   2.424   1.270
  238SOL    HW110363   3.274   2.413   1.369
  238SOL    HW210364   3.233   2.518   1.250
  239SOL     OW10365   3.471   4.478   1.256
  239SOL    HW110366   3.381   4.521   1.260
  239SOL    HW210367   3.475   4.404   1.322
  240SOL     OW10368   2.798   3.100   1.314
  240SOL    HW110369   2.752   3.181   1.278
  240SOL    HW210370   2.843   3.122   1.400
  241SOL     OW10371   2.906   0.140   0.860
  241SOL    HW110372   2.890   0.105   0.952
  241SOL    HW210373   2.929   0.065   0.799
  242SOL     OW10374   2.440   3.169   0.918
  242SOL    HW110375   2.491   3.094   0.960
  242SOL    HW210376   2.504   3.231   0.873
  243SOL     OW10377   3.277   0.257   2.314
  243SOL    HW110378   3.181   0.267   2.290
  243SOL    HW210379   3.333   0.259   2.230
  244SOL     OW10380   3.125   1.397   0.225
  244SOL    HW110381   3.151   1.325   0.290
  244SOL    HW210382   3.205   1.450   0.200
  245SOL     OW10383   2.736   0.314   1.541
  245SOL    HW110384   2.787   0.306   1.455
  245SOL    HW210385   2.675   0.393   1.536
  246SOL     OW10386   3.567   2.258   1.717
  246SOL    HW110387   3.567   2.160   1.698
  246SOL    HW210388   3.584   2.274   1.814
  247SOL     OW10389   4.274   4.084   1.173
  247SOL    HW110390   4.189   4.135   1.186
  247SOL    HW210391   4.348   4.130   1.222
  248SOL     OW10392   3.899   2.750   0.088
  248SOL    HW110393   3.947   2.809   0.023
  248SOL    HW210394   3.888   2.658   0.048
  249SOL     OW10395   4.422   2.080   1.482
  249SOL    HW110396   4.414   2.123   1.572
  249SOL    HW210397   4.331   2.051   1.451
  250SOL     OW10398   3.495   2.302   0.542
  250SOL    HW110399   3.571   2.275   0.600
  250SOL    HW210400   3.454   2.221   0.501
  251SOL     OW10401   3.775   3.890   2.048
  251SOL    HW110402   3.781   3.845   2.137
  251SOL    HW210403   3.864   3.888   2.002
  252SOL     OW10404   3.547   3.754   1.968
  252SOL    HW110405   3.624   3.807   2.003
  252SOL    HW210406   3.566   3.725   1.874
  253SOL     OW10407   3.200   2.646   0.345
  253SOL    HW110408   3.288   2.688   0.364
  253SOL    HW210409   3.213   2.550   0.319
  254SOL     OW10410   3.844   9.954   1.611
  254SOL    HW110411   3.807   9.871   1.571
  254SOL    HW210412   3.810   0.034   1.561
  255SOL     OW10413   3.787   2.104   0.314
  255SOL    HW110414   3.864   2.101   0.378
  255SOL    HW210415   3.764   2.012   0.284
  256SOL     OW10416   3.410   0.086   0.832
  256SOL    HW110417   3.365   0.111   0.918
  256SOL    HW210418   3.347   0.101   0.756
  257SOL     OW10419   2.729   0.066   2.026
  257SOL    HW110420   2.733   0.095   1.930
  257SOL    HW210421   2.727   0.146   2.085
  258SOL     OW10422   3.080   2.891   0.265
  258SOL    HW110423   3.108   2.797   0.287
  258SOL    HW210424   3.157   2.940   0.225
  259SOL     OW10425   4.396   1.605   2.235
  259SOL    HW110426   4.352   1.567   2.317
  259SOL    HW210427   4.382   1.543   2.158
  260SOL     OW10428   3.440   9.763   2.001
  260SOL    HW110429   3.394   9.851   2.006
  260SOL    HW210430   3.449   9.735   1.905
  261SOL     OW10431   4.014   4.043   0.896
  261SOL    HW110432   4.111   4.068   0.900
  261SOL    HW210433   3.966   4.107   0.836
  262SOL     OW10434   2.306   2.440   1.585
  262SOL    HW110435   2.229   2.424   1.646
  262SOL    HW210436   2.308   2.537   1.559
  263SOL     OW10437   3.269   2.935   2.168
  263SOL    HW110438   3.279   2.984   2.255
  263SOL    HW210439   3.341   2.964   2.105
  264SOL     OW10440   2.236   1.013   0.995
  264SOL    HW110441   2.164   0.953   0.959
  264SOL    HW210442   2.247   1.091   0.935
  265SOL     OW10443   3.284   3.084   0.205
  265SOL    HW110444   3.272   3.164   0.147
  265SOL    HW210445   3.249   3.104   0.297
  266SOL     OW10446   2.753   2.138   0.730
  266SOL    HW110447   2.705   2.167   0.647
  266SOL    HW210448   2.850   2.161   0.722
  267SOL     OW10449   3.150   4.215   1.229
  267SOL    HW110450   3.244   4.201   1.262
  267SOL    HW210451   3.092   4.241   1.306
  268SOL     OW10452   2.318   2.712   1.552
  268SOL    HW110453   2.398   2.758   1.593
  268SOL    HW210454   2.249   2.781   1.529
  269SOL     OW10455   3.058   3.749   0.347
  269SOL    HW110456   2.974   3.793   0.380
  269SOL    HW210457   3.113   3.816   0.297
  270SOL     OW10458   2.773   3.172   1.953
  270SOL    HW110459   2.788   3.232   2.032
  270SOL    HW210460   2.696   3.206   1.899
  271SOL     OW10461   3.829   0.859   0.740
  271SOL    HW110462   3.920   0.839   0.777
  271SOL    HW210463   3.761   0.848   0.813
  272SOL     OW10464   3.614   9.836   1.371
  272SOL    HW110465   3.669   9.759   1.336
  272SOL    HW210466   3.551   9.867   1.300
  273SOL     OW10467   2.260   1.414   1.318
  273SOL    HW110468   2.273   1.481   1.245
  273SOL    HW210469   2.275   1.322   1.281
  274SOL     OW10470   3.924   1.640   0.534
  274SOL    HW110471   3.966   1.697   0.463
  274SOL    HW210472   3.825   1.635   0.519
  275SOL     OW10473   3.103   0.518   0.363
  275SOL    HW110474   3.140   0.430   0.392
  275SOL    HW210475   3.069   0.511   0.269
  276SOL     OW10476   3.041   0.969   0.410
  276SOL    HW110477   3.108   0.895   0.405
  276SOL    HW210478   2.964   0.940   0.467
  277SOL     OW10479   3.877   2.555   1.567
  277SOL    HW110480   3.912   2.596   1.483
  277SOL    HW210481   3.797   2.498   1.545
  278SOL     OW10482   2.557   2.963   1.067
  278SOL    HW110483   2.524   3.002   1.152
  278SOL    HW210484   2.657   2.963   1.067
  279SOL     OW10485   3.210   1.472   2.226
  279SOL    HW110486   3.230   1.560   2.270
  279SOL    HW210487   3.122   1.438   2.259
  280SOL     OW10488   2.888   3.923   1.983
  280SOL    HW110489   2.934   3.861   1.919
  280SOL    HW210490   2.930   4.014   1.978
  281SOL     OW10491   2.310   1.119   0.489
  281SOL    HW110492   2.409   1.109   0.500
  281SOL    HW210493   2.282   1.208   0.524
  282SOL     OW10494   3.931   2.026   2.103
  282SOL    HW110495   3.923   2.008   2.201
  282SOL    HW210496   4.006   1.971   2.066
  283SOL     OW10497   2.950   3.023   1.808
  283SOL    HW110498   3.007   2.970   1.871
  283SOL    HW210499   2.886   3.079   1.859
  284SOL     OW10500   3.787   1.638   0.923
  284SOL    HW110501   3.839   1.571   0.870
  284SOL    HW210502   3.848   1.682   0.989
  285SOL     OW10503   3.195   0.142   0.665
  285SOL    HW110504   3.189   0.186   0.575
  285SOL    HW210505   3.123   0.074   0.673
  286SOL     OW10506   2.876   3.813   1.226
  286SOL    HW110507   2.776   3.813   1.228
  286SOL    HW210508   2.910   3.724   1.256
  287SOL     OW10509   2.693   0.600   0.342
  287SOL    HW110510   2.671   0.508   0.310
  287SOL    HW210511   2.761   0.595   0.416
  288SOL     OW10512   2.811   3.841   0.431
  288SOL    HW110513   2.773   3.753   0.463
  288SOL    HW210514   2.796   3.911   0.501
  289SOL     OW10515   3.498   3.336   1.710
  289SOL    HW110516   3.425   3.374   1.766
  289SOL    HW210517   3.573   3.402   1.704
  290SOL     OW10518   2.271   2.027   1.828
  290SOL    HW110519   2.275   2.074   1.740
  290SOL    HW210520   2.175   2.014   1.854
  291SOL     OW10521   4.601   4.231   1.055
  291SOL    HW110522   4.530   4.286   1.011
  291SOL    HW210523   4.635   4.163   0.991
  292SOL     OW10524   2.983   4.124   0.776
  292SOL    HW110525   3.046   4.161   0.708
  292SOL    HW210526   3.026   4.127   0.866
  293SOL     OW10527   4.257   1.081   0.641
  293SOL    HW110528   4.243   0.986   0.615
  293SOL    HW210529   4.293   1.132   0.563
  294SOL     OW10530   3.672   0.834   0.953
  294SOL    HW110531   3.608   0.900   0.991
  294SOL    HW210532   3.656   0.745   0.993
  295SOL     OW10533   3.869   2.297   2.075
  295SOL    HW110534   3.912   2.207   2.073
  295SOL    HW210535   3.937   2.367   2.051
  296SOL     OW10536   3.336   4.152   0.342
  296SOL    HW110537   3.331   4.242   0.300
  296SOL    HW210538   3.280   4.151   0.425
  297SOL     OW10539   3.360   9.027   0.984
  297SOL    HW110540   3.371   8.955   0.916
  297SOL    HW210541   3.357   8.988   1.075
  298SOL     OW10542   2.726   3.587   0.506
  298SOL    HW110543   2.628   3.573   0.493
  298SOL    HW210544   2.776   3.516   0.457
  299SOL     OW10545   3.539   9.960   1.596
  299SOL    HW110546   3.585   0.048   1.601
  299SOL    HW210547   3.569   9.911   1.514
  300SOL     OW10548   2.439   1.453   1.748
  300SOL    HW110549   2.504   1.517   1.707
  300SOL    HW210550   2.349   1.466   1.706
  301SOL     OW10551   2.524   0.610   0.930
  301SOL    HW110552   2.453   0.543   0.951
  301SOL    HW210553   2.501   0.697   0.972
  302SOL     OW10554   3.457   2.134   0.932
  302SOL    HW110555   3.478   2.098   0.841
  302SOL    HW210556   3.375   2.089   0.967
  303SOL     OW10557   2.646   2.645   1.227
  303SOL    HW110558   2.640   2.726   1.286
  303SOL    HW210559   2.587   2.658   1.147
  304SOL     OW10560   2.844   0.481   1.128
  304SOL    HW110561   2.822   0.511   1.035
  304SOL    HW210562   2.797   0.539   1.194
  305SOL     OW10563   3.741   2.071   1.259
  305SOL    HW110564   3.800   2.061   1.339
  305SOL    HW210565   3.767   2.004   1.190
  306SOL     OW10566   3.815   2.668   0.535
  306SOL    HW110567   3.732   2.618   0.510
  306SOL    HW210568   3.879   2.667   0.457
  307SOL     OW10569   3.694   2.721   1.288
  307SOL    HW110570   3.658   2.672   1.208
  307SOL    HW210571   3.618   2.756   1.343
  308SOL     OW10572   3.115   3.939   1.221
  308SOL    HW110573   3.108   4.038   1.212
  308SOL    HW210574   3.024   3.899   1.218
  309SOL     OW10575   3.186   9.469   2.087
  309SOL    HW110576   3.202   9.372   2.068
  309SOL    HW210577   3.266   9.507   2.133
  310SOL     OW10578   3.518   1.032   1.053
  310SOL    HW110579   3.589   1.101   1.040
  310SOL    HW210580   3.429   1.071   1.028
  311SOL     OW10581   3.338   3.188   1.229
  311SOL    HW110582   3.388   3.182   1.316
  311SOL    HW210583   3.387   3.135   1.159
  312SOL     OW10584   3.165   2.696   1.503
  312SOL    HW110585   3.199   2.786   1.532
  312SOL    HW210586   3.168   2.690   1.404
  313SOL     OW10587   3.502   0.228   2.091
  313SOL    HW110588   3.557   0.272   2.020
  313SOL    HW210589   3.561   0.175   2.152
  314SOL     OW10590   2.746   1.190   1.149
  314SOL    HW110591   2.815   1.244   1.100
  314SOL    HW210592   2.787   1.150   1.231
  315SOL     OW10593   2.900   0.075   1.130
  315SOL    HW110594   2.915   9.987   1.175
  315SOL    HW210595   2.881   0.145   1.198
  316SOL     OW10596   3.510   4.305   1.535
  316SOL    HW110597   3.576   4.252   1.590
  316SOL    HW210598   3.524   4.402   1.553
  317SOL     OW10599   3.022   9.620   1.927
  317SOL    HW110600   2.977   9.697   1.972
  317SOL    HW210601   3.080   9.572   1.993
  318SOL     OW10602   4.601   2.468   0.677
  318SOL    HW110603   4.553   2.425   0.754
  318SOL    HW210604   4.650   2.398   0.625
  319SOL     OW10605   3.164   1.440   1.961
  319SOL    HW110606   3.172   1.445   2.060
  319SOL    HW210607   3.243   1.392   1.923
  320SOL     OW10608   4.500   2.678   1.331
  320SOL    HW110609   4.555   2.596   1.313
  320SOL    HW210610   4.522   2.748   1.263
  321SOL     OW10611   2.834   2.967   1.078
  321SOL    HW110612   2.894   3.019   1.017
  321SOL    HW210613   2.835   3.008   1.169
  322SOL     OW10614   3.244   0.153   1.054
  322SOL    HW110615   3.166   0.215   1.039
  322SOL    HW210616   3.210   0.060   1.068
  323SOL     OW10617   3.580   3.075   2.224
  323SOL    HW110618   3.642   3.153   2.215
  323SOL    HW210619   3.609   3.019   2.302
  324SOL     OW10620   2.843   0.360   0.693
  324SOL    HW110621   2.860   0.283   0.756
  324SOL    HW210622   2.837   0.325   0.600
  325SOL     OW10623   3.052   2.856   2.014
  325SOL    HW110624   3.123   2.890   2.075
  325SOL    HW210625   2.973   2.826   2.068
  326SOL     OW10626   3.893   1.872   1.117
  326SOL    HW110627   3.961   1.799   1.125
  326SOL    HW210628   3.925   1.939   1.049
  327SOL     OW10629   3.106   0.805   1.386
  327SOL    HW110630   3.096   0.845   1.295
  327SOL    HW210631   3.121   0.878   1.453
  328SOL     OW10632   4.663   2.202   1.737
  328SOL    HW110633   4.710   2.130   1.787
  328SOL    HW210634   4.564   2.185   1.738
  329SOL     OW10635   3.705   0.190   1.557
  329SOL    HW110636   3.664   0.228   1.474
  329SOL    HW210637   3.759   0.261   1.603
  330SOL     OW10638   2.597   3.356   0.797
  330SOL    HW110639   2.526   3.396   0.739
  330SOL    HW210640   2.676   3.417   0.799
  331SOL     OW10641   2.464   2.402   2.132
  331SOL    HW110642   2.458   2.313   2.086
  331SOL    HW210643   2.412   2.400   2.217
  332SOL     OW10644   3.279   2.389   1.549
  332SOL    HW110645   3.346   2.420   1.617
  332SOL    HW210646   3.188   2.420   1.576
  333SOL     OW10647   3.175   3.601   1.504
  333SOL    HW110648   3.229   3.663   1.562
  333SOL    HW210649   3.234   3.529   1.469
  334SOL     OW10650   2.279   1.234   0.833
  334SOL    HW110651   2.262   1.284   0.747
  334SOL    HW210652   2.311   1.299   0.902
  335SOL     OW10653   3.425   3.192   1.493
  335SOL    HW110654   3.460   3.237   1.574
  335SOL    HW210655   3.382   3.105   1.518
  336SOL     OW10656   3.154   3.385   0.203
  336SOL    HW110657   3.069   3.433   0.182
  336SOL    HW210658   3.209   3.439   0.267
  337SOL     OW10659   2.431   2.791   2.055
  337SOL    HW110660   2.505   2.858   2.065
  337SOL    HW210661   2.344   2.838   2.045
  338SOL     OW10662   3.703   1.022   2.134
  338SOL    HW110663   3.799   1.034   2.106
  338SOL    HW210664   3.683   1.082   2.211
  339SOL     OW10665   3.305   9.495   0.188
  339SOL    HW110666   3.215   9.475   0.226
  339SOL    HW210667   3.302   9.581   0.137
  340SOL     OW10668   3.313   4.407   0.252
  340SOL    HW110669   3.236   4.444   0.200
  340SOL    HW210670   3.373   4.482   0.280
  341SOL     OW10671   3.754   4.253   0.292
  341SOL    HW110672   3.850   4.223   0.287
  341SOL    HW210673   3.696   4.174   0.312
  342SOL     OW10674   3.381   1.960   0.481
  342SOL    HW110675   3.438   1.986   0.559
  342SOL    HW210676   3.303   1.908   0.513
  343SOL     OW10677   3.660   3.682   0.785
  343SOL    HW110678   3.655   3.643   0.877
  343SOL    HW210679   3.612   3.621   0.721
  344SOL     OW10680   3.755   1.393   1.811
  344SOL    HW110681   3.716   1.322   1.752
  344SOL    HW210682   3.684   1.430   1.870
  345SOL     OW10683   2.968   1.674   2.249
  345SOL    HW110684   2.960   1.576   2.265
  345SOL    HW210685   2.894   1.704   2.187
  346SOL     OW10686   2.603   3.756   1.294
  346SOL    HW110687   2.571   3.840   1.339
  346SOL    HW210688   2.640   3.693   1.362
  347SOL     OW10689   3.613   2.300   1.989
  347SOL    HW110690   3.560   2.353   2.055
  347SOL    HW210691   3.710   2.308   2.011
  348SOL     OW10692   2.950   1.397   2.290
  348SOL    HW110693   2.895   1.347   2.223
  348SOL    HW210694   2.925   1.367   2.382
  349SOL     OW10695   3.498   4.226   2.232
  349SOL    HW110696   3.473   4.166   2.308
  349SOL    HW210697   3.568   4.181   2.176
  350SOL     OW10698   4.124   4.087   1.495
  350SOL    HW110699   4.223   4.080   1.505
  350SOL    HW210700   4.092   4.019   1.429
  351SOL     OW10701   4.028   4.187   0.272
  351SOL    HW110702   4.122   4.182   0.308
  351SOL    HW210703   4.031   4.216   0.177
  352SOL     OW10704   3.463   2.005   1.280
  352SOL    HW110705   3.404   2.065   1.334
  352SOL    HW210706   3.554   2.045   1.273
  353SOL     OW10707   3.190   0.428   1.989
  353SOL    HW110708   3.114   0.362   1.990
  353SOL    HW210709   3.262   0.393   1.929
  354SOL     OW10710   2.516   3.439   0.370
  354SOL    HW110711   2.470   3.446   0.282
  354SOL    HW210712   2.608   3.401   0.356
  355SOL     OW10713   3.666   2.398   1.508
  355SOL    HW110714   3.631   2.362   1.422
  355SOL    HW210715   3.625   2.348   1.584
  356SOL     OW10716   2.326   1.162   1.219
  356SOL    HW110717   2.270   1.097   1.169
  356SOL    HW210718   2.397   1.199   1.159
  357SOL     OW10719   3.476   2.354   1.112
  357SOL    HW110720   3.395   2.371   1.167
  357SOL    HW210721   3.459   2.278   1.048
  358SOL     OW10722   4.067   3.673   1.448
  358SOL    HW110723   4.146   3.612   1.437
  358SOL    HW210724   4.079   3.754   1.391
  359SOL     OW10725   3.877   4.499   0.600
  359SOL    HW110726   3.895   4.406   0.630
  359SOL    HW210727   3.923   4.564   0.660
  360SOL     OW10728   3.709   2.240   0.704
  360SOL    HW110729   3.726   2.250   0.802
  360SOL    HW210730   3.785   2.280   0.653
  361SOL     OW10731   2.781   4.041   0.617
  361SOL    HW110732   2.853   4.064   0.683
  361SOL    HW210733   2.692   4.057   0.658
  362SOL     OW10734   3.263   1.348   1.146
  362SOL    HW110735   3.361   1.353   1.162
  362SOL    HW210736   3.222   1.439   1.158
  363SOL     OW10737   3.480   9.287   1.313
  363SOL    HW110738   3.465   9.200   1.361
  363SOL    HW210739   3.480   9.270   1.214
  364SOL     OW10740   3.523   1.423   0.621
  364SOL    HW110741   3.541   1.389   0.713
  364SOL    HW210742   3.424   1.425   0.605
  365SOL     OW10743   2.462   1.826   1.811
  365SOL    HW110744   2.387   1.891   1.820
  365SOL    HW210745   2.547   1.875   1.794
  366SOL     OW10746   2.465   2.008   1.434
  366SOL    HW110747   2.522   2.062   1.495
  366SOL    HW210748   2.523   1.953   1.374
  367SOL     OW10749   2.433   0.926   0.142
  367SOL    HW110750   2.435   1.019   0.106
  367SOL    HW210751   2.353   0.914   0.200
  368SOL     OW10752   2.466   3.068   1.310
  368SOL    HW110753   2.520   3.135   1.361
  368SOL    HW210754   2.370   3.096   1.310
  369SOL     OW10755   3.004   2.629   0.537
  369SOL    HW110756   3.070   2.638   0.463
  369SOL    HW210757   3.019   2.702   0.604
  370SOL     OW10758   4.160   3.910   2.156
  370SOL    HW110759   4.106   3.960   2.223
  370SOL    HW210760   4.247   3.881   2.197
  371SOL     OW10761   3.820   1.551   0.240
  371SOL    HW110762   3.851   1.508   0.155
  371SOL    HW210763   3.840   1.490   0.317
  372SOL     OW10764   4.774   1.496   1.629
  372SOL    HW110765   4.727   1.442   1.559
  372SOL    HW210766   4.793   1.588   1.593
  373SOL     OW10767   3.615   3.629   0.405
  373SOL    HW110768   3.714   3.638   0.394
  373SOL    HW210769   3.595   3.557   0.471
  374SOL     OW10770   2.745   1.862   0.750
  374SOL    HW110771   2.668   1.805   0.723
  374SOL    HW210772   2.727   1.957   0.725
  375SOL     OW10773   2.746   3.355   2.159
  375SOL    HW110774   2.660   3.318   2.196
  375SOL    HW210775   2.780   3.426   2.219
  376SOL     OW10776   3.813   9.237   0.678
  376SOL    HW110777   3.888   9.285   0.634
  376SOL    HW210778   3.753   9.198   0.607
  377SOL     OW10779   2.552   3.974   1.453
  377SOL    HW110780   2.507   4.046   1.504
  377SOL    HW210781   2.631   3.940   1.505
  378SOL     OW10782   2.470   2.228   0.272
  378SOL    HW110783   2.390   2.210   0.214
  378SOL    HW210784   2.521   2.305   0.236
  379SOL     OW10785   3.576   1.020   0.262
  379SOL    HW110786   3.573   1.056   0.169
  379SOL    HW210787   3.625   0.933   0.262
  380SOL     OW10788   2.631   1.864   1.283
  380SOL    HW110789   2.657   1.861   1.186
  380SOL    HW210790   2.686   1.798   1.334
  381SOL     OW10791   3.223   1.730   2.344
  381SOL    HW110792   3.229   1.796   2.419
  381SOL    HW210793   3.129   1.727   2.309
  382SOL     OW10794   3.545   1.619   1.054
  382SOL    HW110795   3.628   1.629   1.000
  382SOL    HW210796   3.471   1.671   1.011
  383SOL     OW10797   4.015   2.401   0.787
  383SOL    HW110798   4.076   2.323   0.789
  383SOL    HW210799   3.972   2.407   0.697
  384SOL     OW10800   3.408   3.205   0.634
  384SOL    HW110801   3.382   3.110   0.615
  384SOL    HW210802   3.333   3.266   0.611
  385SOL     OW10803   4.371   1.069   0.901
  385SOL    HW110804   4.334   1.078   0.809
  385SOL    HW210805   4.443   1.137   0.916
  386SOL     OW10806   3.989   0.771   0.350
  386SOL    HW110807   3.910   0.746   0.406
  386SOL    HW210808   4.071   0.772   0.407
  387SOL     OW10809   3.035   2.505   1.646
  387SOL    HW110810   2.973   2.554   1.707
  387SOL    HW210811   3.082   2.571   1.586
  388SOL     OW10812   4.182   1.527   0.527
  388SOL    HW110813   4.164   1.484   0.439
  388SOL    HW210814   4.104   1.583   0.554
  389SOL     OW10815   2.469   1.528   0.509
  389SOL    HW110816   2.495   1.604   0.450
  389SOL    HW210817   2.543   1.460   0.510
  390SOL     OW10818   3.043   9.473   0.276
  390SOL    HW110819   2.988   9.468   0.193
  390SOL    HW210820   3.024   9.559   0.323
  391SOL     OW10821   3.562   1.525   1.973
  391SOL    HW110822   3.642   1.563   2.019
  391SOL    HW210823   3.483   1.585   1.986
  392SOL     OW10824   3.529   3.610   2.217
  392SOL    HW110825   3.509   3.513   2.203
  392SOL    HW210826   3.519   3.659   2.131
  393SOL     OW10827   2.791   3.373   1.632
  393SOL    HW110828   2.840   3.290   1.606
  393SOL    HW210829   2.841   3.421   1.703
  394SOL     OW10830   2.257   1.374   0.591
  394SOL    HW110831   2.172   1.418   0.560
  394SOL    HW210832   2.335   1.429   0.562
  395SOL     OW10833   3.430   2.016   1.889
  395SOL    HW110834   3.470   1.995   1.800
  395SOL    HW210835   3.500   2.008   1.960
  396SOL     OW10836   4.180   1.953   1.420
  396SOL    HW110837   4.213   1.950   1.325
  396SOL    HW210838   4.197   1.865   1.464
  397SOL     OW10839   2.745   1.943   0.415
  397SOL    HW110840   2.680   2.018   0.429
  397SOL    HW210841   2.837   1.975   0.438
  398SOL     OW10842   2.934   9.992   0.395
  398SOL    HW110843   2.988   0.034   0.322
  398SOL    HW210844   2.854   9.946   0.356
  399SOL     OW10845   2.871   1.054   1.351
  399SOL    HW110846   2.960   1.066   1.307
  399SOL    HW210847   2.878   1.077   1.448
  400SOL     OW10848   3.015   1.816   1.749
  400SOL    HW110849   3.074   1.847   1.824
  400SOL    HW210850   2.980   1.895   1.699
  401SOL     OW10851   3.760   0.716   0.518
  401SOL    HW110852   3.789   0.772   0.596
  401SOL    HW210853   3.693   0.648   0.548
  402SOL     OW10854   3.265   3.954   1.448
  402SOL    HW110855   3.214   3.937   1.363
  402SOL    HW210856   3.337   4.020   1.430
  403SOL     OW10857   2.807   2.489   0.684
  403SOL    HW110858   2.871   2.535   0.623
  403SOL    HW210859   2.713   2.516   0.661
  404SOL     OW10860   3.823   3.102   0.670
  404SOL    HW110861   3.808   3.097   0.571
  404SOL    HW210862   3.852   3.013   0.705
  405SOL     OW10863   2.724   3.749   2.114
  405SOL    HW110864   2.673   3.701   2.042
  405SOL    HW210865   2.776   3.824   2.073
  406SOL     OW10866   3.483   0.602   0.227
  406SOL    HW110867   3.555   0.670   0.240
  406SOL    HW210868   3.416   0.637   0.162
  407SOL     OW10869   3.782   3.293   1.003
  407SOL    HW110870   3.874   3.268   0.970
  407SOL    HW210871   3.713   3.243   0.950
  408SOL     OW10872   3.858   8.683   1.958
  408SOL    HW110873   3.934   8.619   1.965
  408SOL    HW210874   3.772   8.635   1.971
  409SOL     OW10875   2.782   2.769   0.889
  409SOL    HW110876   2.812   2.825   0.966
  409SOL    HW210877   2.811   2.674   0.904
  410SOL     OW10878   3.193   0.141   1.797
  410SOL    HW110879   3.261   0.213   1.782
  410SOL    HW210880   3.150   0.116   1.710
  411SOL     OW10881   2.644   2.874   1.376
  411SOL    HW110882   2.561   2.926   1.354
  411SOL    HW210883   2.724   2.932   1.364
  412SOL     OW10884   3.335   3.775   1.642
  412SOL    HW110885   3.307   3.807   1.732
  412SOL    HW210886   3.316   3.846   1.574
  413SOL     OW10887   4.039   4.212   1.219
  413SOL    HW110888   3.985   4.281   1.171
  413SOL    HW210889   3.978   4.142   1.256
  414SOL     OW10890   2.639   0.867   0.323
  414SOL    HW110891   2.654   0.769   0.323
  414SOL    HW210892   2.563   0.890   0.261
  415SOL     OW10893   4.094   1.446   0.995
  415SOL    HW110894   4.031   1.435   0.918
  415SOL    HW210895   4.128   1.357   1.023
  416SOL     OW10896   3.621   0.062   1.013
  416SOL    HW110897   3.573   0.012   1.085
  416SOL    HW210898   3.559   0.077   0.936
  417SOL     OW10899   2.740   9.834   0.293
  417SOL    HW110900   2.653   9.818   0.246
  417SOL    HW210901   2.775   9.747   0.328
  418SOL     OW10902   3.876   4.401   1.109
  418SOL    HW110903   3.821   4.465   1.162
  418SOL    HW210904   3.823   4.367   1.031
  419SOL     OW10905   3.494   1.765   0.324
  419SOL    HW110906   3.448   1.841   0.370
  419SOL    HW210907   3.428   1.714   0.268
  420SOL     OW10908   3.370   0.183   1.296
  420SOL    HW110909   3.309   0.208   1.371
  420SOL    HW210910   3.320   0.188   1.210
  421SOL     OW10911   3.263   3.578   0.386
  421SOL    HW110912   3.349   3.621   0.357
  421SOL    HW210913   3.188   3.643   0.376
  422SOL     OW10914   2.548   2.852   1.635
  422SOL    HW110915   2.595   2.850   1.546
  422SOL    HW210916   2.531   2.947   1.661
  423SOL     OW10917   2.261   2.012   0.996
  423SOL    HW110918   2.161   2.007   1.004
  423SOL    HW210919   2.295   2.090   1.050
  424SOL     OW10920   2.864   1.068   0.709
  424SOL    HW110921   2.843   0.993   0.647
  424SOL    HW210922   2.824   1.050   0.799
  425SOL     OW10923   3.586   2.540   0.435
  425SOL    HW110924   3.521   2.616   0.436
  425SOL    HW210925   3.542   2.458   0.472
  426SOL     OW10926   2.183   2.887   1.972
  426SOL    HW110927   2.152   2.795   1.949
  426SOL    HW210928   2.214   2.934   1.889
  427SOL     OW10929   3.774   1.127   0.732
  427SOL    HW110930   3.790   1.029   0.736
  427SOL    HW210931   3.727   1.150   0.646
  428SOL     OW10932   4.393   2.165   1.743
  428SOL    HW110933   4.294   2.180   1.734
  428SOL    HW210934   4.411   2.106   1.822
  429SOL     OW10935   2.684   0.884   1.219
  429SOL    HW110936   2.739   0.941   1.280
  429SOL    HW210937   2.711   0.901   1.124
  430SOL     OW10938   3.567   9.445   1.537
  430SOL    HW110939   3.532   9.413   1.449
  430SOL    HW210940   3.491   9.460   1.599
  431SOL     OW10941   3.720   4.593   1.233
  431SOL    HW110942   3.625   4.561   1.241
  431SOL    HW210943   3.731   4.643   1.148
  432SOL     OW10944   3.907   3.268   1.256
  432SOL    HW110945   3.999   3.241   1.226
  432SOL    HW210946   3.845   3.270   1.177
  433SOL     OW10947   2.642   2.266   1.823
  433SOL    HW110948   2.742   2.269   1.824
  433SOL    HW210949   2.607   2.350   1.782
  434SOL     OW10950   2.884   1.390   1.486
  434SOL    HW110951   2.824   1.422   1.412
  434SOL    HW210952   2.936   1.468   1.522
  435SOL     OW10953   3.132   3.094   1.396
  435SOL    HW110954   3.189   3.135   1.325
  435SOL    HW210955   3.187   3.031   1.451
  436SOL     OW10956   2.491   3.120   1.675
  436SOL    HW110957   2.501   3.178   1.755
  436SOL    HW210958   2.520   3.171   1.593
  437SOL     OW10959   3.443   2.713   2.175
  437SOL    HW110960   3.405   2.622   2.159
  437SOL    HW210961   3.369   2.779   2.183
  438SOL     OW10962   4.142   1.641   0.138
  438SOL    HW110963   4.139   1.550   0.179
  438SOL    HW210964   4.105   1.708   0.202
  439SOL     OW10965   3.040   0.970   1.932
  439SOL    HW110966   2.953   0.931   1.961
  439SOL    HW210967   3.028   1.067   1.911
  440SOL     OW10968   3.713   1.218   0.997
  440SOL    HW110969   3.786   1.193   1.060
  440SOL    HW210970   3.739   1.195   0.904
  441SOL     OW10971   3.649   2.030   2.059
  441SOL    HW110972   3.631   2.127   2.041
  441SOL    HW210973   3.748   2.016   2.065
  442SOL     OW10974   3.312   3.064   1.795
  442SOL    HW110975   3.366   3.028   1.871
  442SOL    HW210976   3.281   3.156   1.816
  443SOL     OW10977   4.038   1.805   0.338
  443SOL    HW110978   4.099   1.873   0.378
  443SOL    HW210979   3.951   1.848   0.314
  444SOL     OW10980   3.644   0.760   2.094
  444SOL    HW110981   3.666   0.857   2.106
  444SOL    HW210982   3.630   0.718   2.184
  445SOL     OW10983   3.254   3.903   0.230
  445SOL    HW110984   3.345   3.864   0.216
  445SOL    HW210985   3.263   3.999   0.257
  446SOL     OW10986   4.046   0.801   0.891
  446SOL    HW110987   4.021   0.785   0.986
  446SOL    HW210988   4.145   0.801   0.881
  447SOL     OW10989   3.684   4.488   0.407
  447SOL    HW110990   3.706   4.405   0.356
  447SOL    HW210991   3.753   4.501   0.479
  448SOL     OW10992   5.065   3.185   1.647
  448SOL    HW110993   4.975   3.184   1.603
  448SOL    HW210994   5.136   3.169   1.578
  449SOL     OW10995   4.007   1.418   1.704
  449SOL    HW110996   3.980   1.445   1.611
  449SOL    HW210997   3.925   1.397   1.757
  450SOL     OW10998   3.476   3.048   1.045
  450SOL    HW110999   3.526   3.083   0.967
  450SOL    HW211000   3.471   2.949   1.041
  451SOL     OW11001   3.650   3.533   1.019
  451SOL    HW111002   3.645   3.566   1.113
  451SOL    HW211003   3.702   3.448   1.016
  452SOL     OW11004   4.266   2.975   1.219
  452SOL    HW111005   4.360   2.945   1.201
  452SOL    HW211006   4.225   2.915   1.288
  453SOL     OW11007   3.771   9.639   1.259
  453SOL    HW111008   3.850   9.644   1.319
  453SOL    HW211009   3.749   9.543   1.241
  454SOL     OW11010   4.125   1.650   1.765
  454SOL    HW111011   4.051   1.705   1.805
  454SOL    HW211012   4.092   1.557   1.750
  455SOL     OW11013   3.245   0.359   0.819
  455SOL    HW111014   3.229   0.281   0.759
  455SOL    HW211015   3.176   0.362   0.891
  456SOL     OW11016   2.823   2.766   2.153
  456SOL    HW111017   2.815   2.763   2.253
  456SOL    HW211018   2.779   2.685   2.114
  457SOL     OW11019   3.683   1.794   0.724
  457SOL    HW111020   3.667   1.736   0.644
  457SOL    HW211021   3.709   1.737   0.802
  458SOL     OW11022   3.163   9.022   0.528
  458SOL    HW111023   3.142   9.112   0.492
  458SOL    HW211024   3.106   9.003   0.608
  459SOL     OW11025   3.844   3.502   1.412
  459SOL    HW111026   3.926   3.555   1.432
  459SOL    HW211027   3.870   3.414   1.373
  460SOL     OW11028   2.781   1.690   1.441
  460SOL    HW111029   2.864   1.667   1.492
  460SOL    HW211030   2.701   1.679   1.500
  461SOL     OW11031   3.426   9.066   0.605
  461SOL    HW111032   3.433   9.165   0.608
  461SOL    HW211033   3.335   9.039   0.573
  462SOL     OW11034   2.222   0.932   0.312
  462SOL    HW111035   2.132   0.899   0.339
  462SOL    HW211036   2.253   1.001   0.378
  463SOL     OW11037   3.544   2.024   0.693
  463SOL    HW111038   3.589   1.936   0.709
  463SOL    HW211039   3.613   2.097   0.689
  464SOL     OW11040   2.924   3.145   1.561
  464SOL    HW111041   2.933   3.093   1.645
  464SOL    HW211042   3.004   3.131   1.503
  465SOL     OW11043   2.249   3.244   1.348
  465SOL    HW111044   2.287   3.292   1.427
  465SOL    HW211045   2.285   3.284   1.264
  466SOL     OW11046   2.858   2.271   0.418
  466SOL    HW111047   2.919   2.193   0.433
  466SOL    HW211048   2.766   2.248   0.449
  467SOL     OW11049   3.755   9.657   1.591
  467SOL    HW111050   3.767   9.646   1.690
  467SOL    HW211051   3.681   9.597   1.560
  468SOL     OW11052   2.253   3.005   0.800
  468SOL    HW111053   2.160   3.042   0.811
  468SOL    HW211054   2.319   3.068   0.840
  469SOL     OW11055   3.298   2.942   1.553
  469SOL    HW111056   3.382   2.890   1.540
  469SOL    HW211057   3.295   2.977   1.647
  470SOL     OW11058   3.634   3.122   1.800
  470SOL    HW111059   3.571   3.074   1.862
  470SOL    HW211060   3.588   3.203   1.764
  471SOL     OW11061   4.609   2.424   1.363
  471SOL    HW111062   4.572   2.332   1.350
  471SOL    HW211063   4.652   2.430   1.453
  472SOL     OW11064   3.136   9.700   0.648
  472SOL    HW111065   3.221   9.741   0.682
  472SOL    HW211066   3.145   9.600   0.650
  473SOL     OW11067   3.400   4.175   1.326
  473SOL    HW111068   3.462   4.165   1.248
  473SOL    HW211069   3.450   4.211   1.404
  474SOL     OW11070   3.235   9.448   1.354
  474SOL    HW111071   3.317   9.393   1.340
  474SOL    HW211072   3.178   9.405   1.425
  475SOL     OW11073   3.268   4.467   1.855
  475SOL    HW111074   3.205   4.519   1.913
  475SOL    HW211075   3.328   4.411   1.913
  476SOL     OW11076   3.036   4.257   1.473
  476SOL    HW111077   3.112   4.268   1.538
  476SOL    HW211078   2.956   4.221   1.522
  477SOL     OW11079   2.638   0.338   0.249
  477SOL    HW111080   2.629   0.353   0.151
  477SOL    HW211081   2.551   0.307   0.287
  478SOL     OW11082   2.785   0.177   1.777
  478SOL    HW111083   2.762   0.236   1.700
  478SOL    HW211084   2.807   0.085   1.744
  479SOL     OW11085   3.323   1.760   0.982
  479SOL    HW111086   3.269   1.706   1.047
  479SOL    HW211087   3.294   1.856   0.987
  480SOL     OW11088   2.488   3.192   2.142
  480SOL    HW111089   2.533   3.103   2.134
  480SOL    HW211090   2.393   3.179   2.168
  481SOL     OW11091   3.833   8.955   1.961
  481SOL    HW111092   3.922   9.001   1.966
  481SOL    HW211093   3.847   8.856   1.958
  482SOL     OW11094   3.037   3.759   1.817
  482SOL    HW111095   3.029   3.795   1.724
  482SOL    HW211096   3.125   3.786   1.856
  483SOL     OW11097   4.260   1.052   1.456
  483SOL    HW111098   4.166   1.075   1.432
  483SOL    HW211099   4.263   0.958   1.491
  484SOL     OW11100   2.996   1.232   1.866
  484SOL    HW111101   2.904   1.267   1.882
  484SOL    HW211102   3.063   1.298   1.900
  485SOL     OW11103   3.922   1.923   0.703
  485SOL    HW111104   3.834   1.876   0.704
  485SOL    HW211105   3.995   1.855   0.703
  486SOL     OW11106   3.445   1.094   2.052
  486SOL    HW111107   3.537   1.060   2.071
  486SOL    HW211108   3.390   1.021   2.012
  487SOL     OW11109   2.899   0.796   0.971
  487SOL    HW111110   2.863   0.712   0.930
  487SOL    HW211111   2.837   0.872   0.952
  488SOL     OW11112   3.147   3.153   0.437
  488SOL    HW111113   3.160   3.242   0.479
  488SOL    HW211114   3.058   3.150   0.391
  489SOL     OW11115   2.398   2.776   0.742
  489SOL    HW111116   2.485   2.821   0.724
  489SOL    HW211117   2.327   2.846   0.757
  490SOL     OW11118   2.689   3.511   1.940
  490SOL    HW111119   2.773   3.523   1.886
  490SOL    HW211120   2.709   3.461   2.023
  491SOL     OW11121   3.615   9.070   1.835
  491SOL    HW111122   3.694   9.022   1.873
  491SOL    HW211123   3.646   9.139   1.769
  492SOL     OW11124   2.442   2.176   1.989
  492SOL    HW111125   2.522   2.194   1.932
  492SOL    HW211126   2.379   2.115   1.941
  493SOL     OW11127   4.369   2.113   0.277
  493SOL    HW111128   4.342   2.132   0.182
  493SOL    HW211129   4.447   2.171   0.301
  494SOL     OW11130   3.599   0.318   1.339
  494SOL    HW111131   3.517   0.265   1.318
  494SOL    HW211132   3.576   0.414   1.349
  495SOL     OW11133   3.907   1.079   1.648
  495SOL    HW111134   3.818   1.124   1.648
  495SOL    HW211135   3.960   1.110   1.727
  496SOL     OW11136   2.542   1.680   0.732
  496SOL    HW111137   2.480   1.708   0.806
  496SOL    HW211138   2.490   1.634   0.660
  497SOL     OW11139   3.654   1.203   1.638
  497SOL    HW111140   3.592   1.137   1.679
  497SOL    HW211141   3.613   1.242   1.555
  498SOL     OW11142   2.936   1.154   1.608
  498SOL    HW111143   2.954   1.173   1.704
  498SOL    HW211144   2.914   1.239   1.560
  499SOL     OW11145   2.992   9.709   0.411
  499SOL    HW111146   3.043   9.693   0.496
  499SOL    HW211147   2.985   9.807   0.394
  500SOL     OW11148   3.043   0.334   0.999
  500SOL    HW111149   2.988   0.270   0.945
  500SOL    HW211150   2.982   0.396   1.049
  501SOL     OW11151   3.210   3.385   0.570
  501SOL    HW111152   3.178   3.421   0.657
  501SOL    HW211153   3.229   3.460   0.507
  502SOL     OW11154   2.864   1.349   0.321
  502SOL    HW111155   2.949   1.378   0.278
  502SOL    HW211156   2.845   1.254   0.296
  503SOL     OW11157   3.519   3.819   0.238
  503SOL    HW111158   3.555   3.745   0.295
  503SOL    HW211159   3.554   3.906   0.271
  504SOL     OW11160   3.272   2.947   0.565
  504SOL    HW111161   3.208   2.899   0.625
  504SOL    HW211162   3.222   3.016   0.512
  505SOL     OW11163   3.655   0.061   2.247
  505SOL    HW111164   3.648   0.021   2.338
  505SOL    HW211165   3.668   9.988   2.180
  506SOL     OW11166   3.898   1.311   0.420
  506SOL    HW111167   3.950   1.293   0.503
  506SOL    HW211168   3.807   1.272   0.427
  507SOL     OW11169   2.835   3.578   2.290
  507SOL    HW111170   2.859   3.624   2.376
  507SOL    HW211171   2.794   3.644   2.228
  508SOL     OW11172   2.507   1.247   1.034
  508SOL    HW111173   2.519   1.203   0.945
  508SOL    HW211174   2.592   1.241   1.087
  509SOL     OW11175   4.017   1.236   0.659
  509SOL    HW111176   4.100   1.180   0.664
  509SOL    HW211177   3.940   1.183   0.696
  510SOL     OW11178   4.787   1.750   1.524
  510SOL    HW111179   4.697   1.795   1.523
  510SOL    HW211180   4.835   1.774   1.608
  511SOL     OW11181   2.998   0.232   1.968
  511SOL    HW111182   2.908   0.226   1.924
  511SOL    HW211183   3.065   0.182   1.914
  512SOL     OW11184   3.397   9.188   1.680
  512SOL    HW111185   3.441   9.150   1.762
  512SOL    HW211186   3.368   9.282   1.699
  513SOL     OW11187   2.523   1.107   0.793
  513SOL    HW111188   2.426   1.133   0.795
  513SOL    HW211189   2.554   1.101   0.699
  514SOL     OW11190   3.349   0.017   1.990
  514SOL    HW111191   3.282   0.050   1.923
  514SOL    HW211192   3.395   0.095   2.032
  515SOL     OW11193   3.150   0.983   1.587
  515SOL    HW111194   3.064   1.030   1.604
  515SOL    HW211195   3.221   1.050   1.565
  516SOL     OW11196   3.574   1.786   2.170
  516SOL    HW111197   3.592   1.879   2.137
  516SOL    HW211198   3.479   1.778   2.200
  517SOL     OW11199   3.058   2.840   0.712
  517SOL    HW111200   2.979   2.901   0.703
  517SOL    HW211201   3.071   2.818   0.809
  518SOL     OW11202   3.965   3.827   1.055
  518SOL    HW111203   3.872   3.825   1.093
  518SOL    HW211204   3.974   3.907   0.995
  519SOL     OW11205   3.194   0.260   0.411
  519SOL    HW111206   3.289   0.230   0.420
  519SOL    HW211207   3.150   0.209   0.337
  520SOL     OW11208   3.380   0.350   1.789
  520SOL    HW111209   3.362   0.405   1.707
  520SOL    HW211210   3.478   0.340   1.802
  521SOL     OW11211   2.970   3.574   1.325
  521SOL    HW111212   3.047   3.575   1.389
  521SOL    HW211213   2.993   3.516   1.247
  522SOL     OW11214   2.923   2.657   1.151
  522SOL    HW111215   2.910   2.592   1.076
  522SOL    HW211216   2.837   2.672   1.199
  523SOL     OW11217   4.530   2.908   1.168
  523SOL    HW111218   4.601   2.977   1.181
  523SOL    HW211219   4.524   2.883   1.071
  524SOL     OW11220   2.823   0.857   0.536
  524SOL    HW111221   2.747   0.863   0.471
  524SOL    HW211222   2.845   0.760   0.553
  525SOL     OW11223   3.311   2.268   1.912
  525SOL    HW111224   3.360   2.182   1.899
  525SOL    HW211225   3.348   2.337   1.849
  526SOL     OW11226   3.523   9.240   1.039
  526SOL    HW111227   3.611   9.213   0.999
  526SOL    HW211228   3.453   9.174   1.013
  527SOL     OW11229   2.689   2.547   2.055
  527SOL    HW111230   2.612   2.495   2.092
  527SOL    HW211231   2.663   2.588   1.967
  528SOL     OW11232   3.387   0.954   0.450
  528SOL    HW111233   3.448   0.972   0.373
  528SOL    HW211234   3.327   0.877   0.428
  529SOL     OW11235   3.955   2.666   1.325
  529SOL    HW111236   3.970   2.573   1.292
  529SOL    HW211237   3.861   2.695   1.306
  530SOL     OW11238   3.977   9.639   1.441
  530SOL    HW111239   4.048   9.594   1.496
  530SOL    HW211240   3.896   9.653   1.497
  531SOL     OW11241   2.577   1.730   0.357
  531SOL    HW111242   2.590   1.712   0.260
  531SOL    HW211243   2.636   1.804   0.386
  532SOL     OW11244   3.504   4.445   0.980
  532SOL    HW111245   3.497   4.449   1.080
  532SOL    HW211246   3.598   4.423   0.954
  533SOL     OW11247   3.784   2.385   0.301
  533SOL    HW111248   3.759   2.288   0.297
  533SOL    HW211249   3.703   2.439   0.327
  534SOL     OW11250   3.196   1.211   0.412
  534SOL    HW111251   3.261   1.192   0.486
  534SOL    HW211252   3.129   1.136   0.407
  535SOL     OW11253   4.276   4.136   0.378
  535SOL    HW111254   4.309   4.155   0.470
  535SOL    HW211255   4.354   4.121   0.317
  536SOL     OW11256   3.651   1.632   0.510
  536SOL    HW111257   3.605   1.550   0.544
  536SOL    HW211258   3.597   1.673   0.436
  537SOL     OW11259   2.300   1.638   1.158
  537SOL    HW111260   2.289   1.705   1.231
  537SOL    HW211261   2.346   1.681   1.080
  538SOL     OW11262   2.885   3.973   0.200
  538SOL    HW111263   2.925   4.056   0.237
  538SOL    HW211264   2.840   3.922   0.273
  539SOL     OW11265   3.128   2.199   1.165
  539SOL    HW111266   3.033   2.230   1.157
  539SOL    HW211267   3.183   2.273   1.204
  540SOL     OW11268   4.373   1.460   1.995
  540SOL    HW111269   4.375   1.532   1.926
  540SOL    HW211270   4.438   1.388   1.969
  541SOL     OW11271   3.239   9.204   2.036
  541SOL    HW111272   3.161   9.142   2.022
  541SOL    HW211273   3.323   9.150   2.044
  542SOL     OW11274   4.183   2.400   1.471
  542SOL    HW111275   4.186   2.337   1.549
  542SOL    HW211276   4.241   2.479   1.489
  543SOL     OW11277   3.489   2.975   1.989
  543SOL    HW111278   3.534   2.891   1.958
  543SOL    HW211279   3.532   3.007   2.073
  544SOL     OW11280   4.470   4.226   1.302
  544SOL    HW111281   4.529   4.232   1.221
  544SOL    HW211282   4.456   4.317   1.340
  545SOL     OW11283   3.170   2.625   1.910
  545SOL    HW111284   3.086   2.585   1.874
  545SOL    HW211285   3.152   2.717   1.945
  546SOL     OW11286   2.582   1.114   0.522
  546SOL    HW111287   2.628   1.055   0.456
  546SOL    HW211288   2.627   1.204   0.523
  547SOL     OW11289   2.726   1.005   0.949
  547SOL    HW111290   2.736   1.075   1.019
  547SOL    HW211291   2.644   1.023   0.894
  548SOL     OW11292   4.066   1.635   2.114
  548SOL    HW111293   4.097   1.541   2.130
  548SOL    HW211294   3.966   1.635   2.108
  549SOL     OW11295   2.960   1.753   1.239
  549SOL    HW111296   3.005   1.841   1.258
  549SOL    HW211297   2.893   1.733   1.311
  550SOL     OW11298   2.931   3.557   0.194
  550SOL    HW111299   2.976   3.615   0.262
  550SOL    HW211300   2.905   3.613   0.115
  551SOL     OW11301   2.744   3.598   1.476
  551SOL    HW111302   2.823   3.589   1.415
  551SOL    HW211303   2.743   3.521   1.540
  552SOL     OW11304   2.600   2.190   0.504
  552SOL    HW111305   2.540   2.231   0.573
  552SOL    HW211306   2.557   2.198   0.414
  553SOL     OW11307   2.361   2.559   1.927
  553SOL    HW111308   2.400   2.646   1.958
  553SOL    HW211309   2.392   2.485   1.987
  554SOL     OW11310   2.826   1.971   1.983
  554SOL    HW111311   2.802   1.881   2.018
  554SOL    HW211312   2.886   2.018   2.048
  555SOL     OW11313   2.384   3.341   1.131
  555SOL    HW111314   2.413   3.435   1.113
  555SOL    HW211315   2.387   3.288   1.046
  556SOL     OW11316   3.753   3.753   2.283
  556SOL    HW111317   3.671   3.699   2.263
  556SOL    HW211318   3.793   3.722   2.370
  557SOL     OW11319   4.115   3.885   1.282
  557SOL    HW111320   4.187   3.946   1.250
  557SOL    HW211321   4.054   3.861   1.206
  558SOL     OW11322   3.318   2.481   2.094
  558SOL    HW111323   3.320   2.388   2.056
  558SOL    HW211324   3.256   2.537   2.039
  559SOL     OW11325   3.224   9.435   0.658
  559SOL    HW111326   3.305   9.390   0.619
  559SOL    HW211327   3.245   9.469   0.749
  560SOL     OW11328   2.914   0.643   1.494
  560SOL    HW111329   2.992   0.698   1.463
  560SOL    HW211330   2.848   0.633   1.420
  561SOL     OW11331   3.308   0.502   1.567
  561SOL    HW111332   3.376   0.519   1.495
  561SOL    HW211333   3.271   0.589   1.600
  562SOL     OW11334   3.584   2.652   0.754
  562SOL    HW111335   3.672   2.616   0.784
  562SOL    HW211336   3.595   2.748   0.726
  563SOL     OW11337   4.047   3.229   0.946
  563SOL    HW111338   4.057   3.143   0.895
  563SOL    HW211339   4.105   3.225   1.028
  564SOL     OW11340   2.675   1.900   1.013
  564SOL    HW111341   2.712   1.871   0.924
  564SOL    HW211342   2.681   2.000   1.020
  565SOL     OW11343   2.689   1.948   1.750
  565SOL    HW111344   2.744   1.967   1.830
  565SOL    HW211345   2.691   2.028   1.689
  566SOL     OW11346   4.109   9.688   1.205
  566SOL    HW111347   4.204   9.658   1.215
  566SOL    HW211348   4.061   9.675   1.292
  567SOL     OW11349   3.107   9.278   0.464
  567SOL    HW111350   3.135   9.335   0.541
  567SOL    HW211351   3.081   9.336   0.387
  568SOL     OW11352   3.944   4.247   0.707
  568SOL    HW111353   3.940   4.181   0.632
  568SOL    HW211354   4.037   4.284   0.714
  569SOL     OW11355   3.567   3.442   0.617
  569SOL    HW111356   3.513   3.359   0.602
  569SOL    HW211357   3.664   3.421   0.608
  570SOL     OW11358   2.763   3.856   1.577
  570SOL    HW111359   2.742   3.761   1.553
  570SOL    HW211360   2.861   3.872   1.571
  571SOL     OW11361   2.785   0.562   0.876
  571SOL    HW111362   2.799   0.492   0.806
  571SOL    HW211363   2.687   0.581   0.884
  572SOL     OW11364   3.443   9.942   1.190
  572SOL    HW111365   3.354   9.906   1.159
  572SOL    HW211366   3.428   0.027   1.241
  573SOL     OW11367   3.967   0.592   1.500
  573SOL    HW111368   3.936   0.670   1.553
  573SOL    HW211369   3.924   0.592   1.410
  574SOL     OW11370   3.893   9.792   1.066
  574SOL    HW111371   3.830   9.750   1.131
  574SOL    HW211372   3.987   9.765   1.088
  575SOL     OW11373   2.967   0.759   2.220
  575SOL    HW111374   3.054   0.736   2.176
  575SOL    HW211375   2.913   0.818   2.160
  576SOL     OW11376   3.972   0.838   2.000
  576SOL    HW111377   3.912   0.780   1.945
  576SOL    HW211378   4.059   0.852   1.952
  577SOL     OW11379   4.266   2.504   2.128
  577SOL    HW111380   4.326   2.555   2.067
  577SOL    HW211381   4.320   2.443   2.186
  578SOL     OW11382   3.616   2.580   1.062
  578SOL    HW111383   3.567   2.494   1.081
  578SOL    HW211384   3.684   2.564   0.991
  579SOL     OW11385   4.867   4.232   1.128
  579SOL    HW111386   4.770   4.254   1.115
  579SOL    HW211387   4.914   4.311   1.166
  580SOL     OW11388   3.759   1.822   0.265
  580SOL    HW111389   3.793   1.730   0.249
  580SOL    HW211390   3.661   1.819   0.284
  581SOL     OW11391   4.324   0.790   0.897
  581SOL    HW111392   4.309   0.746   0.986
  581SOL    HW211393   4.355   0.884   0.910
  582SOL     OW11394   3.854   0.284   1.247
  582SOL    HW111395   3.760   0.293   1.280
  582SOL    HW211396   3.862   0.202   1.191
  583SOL     OW11397   3.912   2.339   0.543
  583SOL    HW111398   3.954   2.250   0.524
  583SOL    HW211399   3.873   2.376   0.459
  584SOL     OW11400   2.545   2.557   0.642
  584SOL    HW111401   2.492   2.472   0.644
  584SOL    HW211402   2.484   2.634   0.661
  585SOL     OW11403   3.180   4.213   0.601
  585SOL    HW111404   3.223   4.286   0.654
  585SOL    HW211405   3.234   4.130   0.609
  586SOL     OW11406   2.782   3.365   0.328
  586SOL    HW111407   2.827   3.276   0.331
  586SOL    HW211408   2.835   3.427   0.270
  587SOL     OW11409   3.203   1.617   1.193
  587SOL    HW111410   3.278   1.659   1.244
  587SOL    HW211411   3.116   1.658   1.222
  588SOL     OW11412   3.787   1.636   2.095
  588SOL    HW111413   3.802   1.563   2.162
  588SOL    HW211414   3.719   1.700   2.130
  589SOL     OW11415   4.393   2.455   1.740
  589SOL    HW111416   4.419   2.360   1.724
  589SOL    HW211417   4.395   2.506   1.654
  590SOL     OW11418   3.884   1.762   1.832
  590SOL    HW111419   3.828   1.739   1.753
  590SOL    HW211420   3.848   1.716   1.913
  591SOL     OW11421   3.746   4.317   0.889
  591SOL    HW111422   3.669   4.254   0.875
  591SOL    HW211423   3.815   4.299   0.819
  592SOL     OW11424   2.909   3.107   0.286
  592SOL    HW111425   2.959   3.020   0.294
  592SOL    HW211426   2.870   3.114   0.195
  593SOL     OW11427   4.204   0.902   1.850
  593SOL    HW111428   4.202   0.851   1.765
  593SOL    HW211429   4.297   0.938   1.866
  594SOL     OW11430   2.711   0.628   1.311
  594SOL    HW111431   2.647   0.603   1.384
  594SOL    HW211432   2.690   0.720   1.278
  595SOL     OW11433   2.837   0.269   0.436
  595SOL    HW111434   2.872   0.177   0.421
  595SOL    HW211435   2.770   0.291   0.365
  596SOL     OW11436   4.809   4.021   0.965
  596SOL    HW111437   4.843   4.087   1.032
  596SOL    HW211438   4.762   3.947   1.013
  597SOL     OW11439   3.289   8.823   2.122
  597SOL    HW111440   3.333   8.912   2.113
  597SOL    HW211441   3.307   8.769   2.039
  598SOL     OW11442   3.062   0.132   0.197
  598SOL    HW111443   3.145   0.113   0.144
  598SOL    HW211444   2.994   0.175   0.137
  599SOL     OW11445   3.743   9.368   1.247
  599SOL    HW111446   3.652   9.337   1.273
  599SOL    HW211447   3.812   9.305   1.284
  600SOL     OW11448   3.368   2.487   0.699
  600SOL    HW111449   3.413   2.414   0.647
  600SOL    HW211450   3.436   2.553   0.731
  10.00000  10.00000   2.87400
