chitosan Film  in water:acetic acid 2%
21218
    1CHTO  H203    1   5.270   6.313   2.516  3.8806 -0.9108  0.1870
    1CHTO   O82    2   5.254   6.221   2.528  0.2462 -0.3274  0.4377
    1CHTO  C123    3   5.371   6.169   2.592  0.3012 -0.7891  0.2798
    1CHTO  H227    4   5.414   6.245   2.658  0.8875 -0.2042 -0.7663
    1CHTO   O77    5   5.307   6.059   2.662  0.0348 -0.5032 -0.3381
    1CHTO  C118    6   5.397   5.974   2.739 -0.8181  0.6864 -0.1433
    1CHTO  H222    7   5.442   6.029   2.823  1.9724  0.7984 -1.6321
    1CHTO  C125    8   5.294   5.864   2.792 -0.2156 -0.2232 -0.1608
    1CHTO   O84    9   5.345   5.777   2.882  0.4819  0.8135 -0.2327
    1CHTO  H205   10   5.285   5.705   2.878 -2.4754  3.1903 -1.3721
    1CHTO  C114   11   5.505   5.917   2.642  0.4859  0.5356  0.1541
    1CHTO  H218   12   5.457   5.842   2.579  1.5974 -1.0378  1.1443
    1CHTO  C116   13   5.578   6.018   2.552  0.0744  0.8695  0.5055
    1CHTO  H220   14   5.653   6.070   2.615 -1.5480  0.5597  2.7814
    1CHTO   O79   15   5.665   5.949   2.463  0.4290 -0.0999 -0.3135
    1CHTO  H201   16   5.724   6.006   2.417 -0.1295  0.0897 -0.7940
    1CHTO  C120   17   5.477   6.118   2.484 -0.1498  0.1771  0.0262
    1CHTO  H224   18   5.417   6.058   2.412  1.6023  0.4234 -1.6902
    1CHTO   N21   19   5.543   6.229   2.417 -0.5444 -0.4028 -0.2690
    1CHTO  H211   20   5.643   6.249   2.455 -0.8831 -0.3141  0.5961
    1CHTO  H212   21   5.552   6.211   2.311  0.2081  2.0915 -0.6682
    1CHTO   O75   22   5.593   5.858   2.735  0.3040  0.1015  0.6226
    1CHTO  C112   23   5.668   5.706   2.681 -0.2599  0.5711 -0.4321
    1CHTO  H216   24   5.694   5.711   2.575 -0.7863  0.2900 -0.5771
    1CHTO   O73   25   5.575   5.597   2.708  0.2228  0.4754 -0.6041
    1CHTO  C113   26   5.625   5.470   2.659 -0.2113  0.2547 -0.6014
    1CHTO  H217   27   5.643   5.482   2.550  2.6795 -1.1325 -0.3367
    1CHTO  C124   28   5.523   5.362   2.686  0.4768 -0.1356  1.0589
    1CHTO   O83   29   5.397   5.397   2.640 -0.2821  0.0303  0.2080
    1CHTO  H204   30   5.395   5.417   2.549  0.5765 -0.7984  0.0072
    1CHTO  C109   31   5.765   5.423   2.714  0.8634 -0.0864  0.6087
    1CHTO  H213   32   5.751   5.397   2.821 -0.1033  1.9728  0.9945
    1CHTO  C110   33   5.871   5.542   2.697  0.1547  0.3728 -0.2828
    1CHTO  H214   34   5.898   5.543   2.591 -1.4782 -0.0137 -0.7165
    1CHTO   O78   35   5.991   5.497   2.767  0.8144  0.3023 -0.4522
    1CHTO  H200   36   6.019   5.572   2.816 -0.7815 -0.3037  1.4527
    1CHTO  C111   37   5.802   5.668   2.756  0.1612 -0.0650 -0.4154
    1CHTO  H215   38   5.774   5.648   2.860 -0.0170 -1.0575 -0.6538
    1CHTO   N19   39   5.887   5.788   2.761 -0.0825  0.1681 -0.4209
    1CHTO  H207   40   5.974   5.792   2.698 -0.0878  3.3416 -0.2822
    1CHTO  H208   41   5.833   5.881   2.755 -0.7130 -0.0902  0.8859
    1CHTO   O74   42   5.817   5.306   2.638  0.6045 -0.6998  0.1796
    1CHTO  C115   43   5.920   5.205   2.713  0.2207 -0.2451 -0.1288
    1CHTO  H219   44   5.919   5.222   2.821 -0.1548  0.0704 -0.1827
    1CHTO   O76   45   5.866   5.059   2.701 -0.2039 -0.1433  0.5140
    1CHTO  C122   46   5.839   5.020   2.567  0.0036 -0.5334 -0.8618
    1CHTO  H226   47   5.740   5.058   2.542 -0.1402 -0.9880 -1.0080
    1CHTO  C126   48   5.836   4.865   2.559 -0.3121  0.2275  0.1770
    1CHTO   O85   49   5.719   4.809   2.626  0.2560 -0.1310 -0.2837
    1CHTO  H206   50   5.673   4.770   2.555 -0.0140  0.0311 -0.1965
    1CHTO  C121   51   5.954   5.072   2.465 -0.2772 -0.0293  0.5167
    1CHTO  H225   52   5.973   4.988   2.396 -1.8798  0.2835 -0.3333
    1CHTO   O81   53   5.898   5.173   2.376 -0.0903  0.7043 -0.3510
    1CHTO  H202   54   5.820   5.154   2.327 -0.1715 -0.8786  0.3728
    1CHTO  C119   55   6.086   5.103   2.538  0.0515  0.0494  0.8675
    1CHTO  H223   56   6.119   5.012   2.588  0.3199 -0.2901  0.0873
    1CHTO  C117   57   6.060   5.218   2.646  0.4123 -0.1411 -0.4420
    1CHTO  H221   58   6.069   5.322   2.614  0.4933  0.3523  1.1434
    1CHTO   N20   59   6.160   5.198   2.758 -0.5867 -0.0159 -0.2252
    1CHTO  H209   60   6.214   5.291   2.765 -0.7459  0.0504  0.1256
    1CHTO  H210   61   6.116   5.174   2.853  1.3411 -1.6230  0.2896
    1CHTO   O80   62   6.205   5.123   2.445 -0.2658  0.4855  0.1990
    1CHTO  C103   63   6.330   5.044   2.471 -0.1436  0.3537 -0.5632
    1CHTO  H190   64   6.346   5.035   2.579 -1.7242 -0.6906 -0.3977
    1CHTO  C101   65   6.327   4.896   2.413  0.5236 -0.0344 -0.5213
    1CHTO  H188   66   6.302   4.905   2.307  1.3791  0.9019 -0.6492
    1CHTO   O68   67   6.221   4.818   2.479 -0.1290 -0.3738  0.2058
    1CHTO  H168   68   6.202   4.833   2.570 -2.1217 -1.7510  0.0711
    1CHTO   C99   69   6.475   4.821   2.431 -0.3289  0.1724  0.1931
    1CHTO  H186   70   6.492   4.808   2.540 -1.4851  0.6378  0.4355
    1CHTO   N17   71   6.489   4.687   2.362 -0.5528 -0.2557 -0.3310
    1CHTO  H174   72   6.514   4.686   2.257  1.4443 -0.5931  0.1253
    1CHTO  H175   73   6.401   4.631   2.392  0.4841 -1.7242  0.0186
    1CHTO   C97   74   6.593   4.911   2.389 -0.4839  1.1057 -0.8855
    1CHTO  H184   75   6.595   4.912   2.279  0.2481 -0.5632 -0.9086
    1CHTO   O64   76   6.569   5.040   2.444 -0.3847  0.4563 -0.2658
    1CHTO  C104   77   6.455   5.116   2.408 -0.4573  0.3206  0.5475
    1CHTO  H191   78   6.442   5.120   2.299  1.1469  0.4029  0.3524
    1CHTO  C108   79   6.469   5.259   2.454 -0.2344 -0.1951  0.1561
    1CHTO   O71   80   6.576   5.333   2.392  0.0717 -0.2474  0.1998
    1CHTO  H171   81   6.654   5.344   2.443 -1.8375 -1.8874  3.6811
    1CHTO   O62   82   6.718   4.869   2.449  0.6025  0.0813  0.0293
    1CHTO   C91   83   6.826   4.847   2.358 -0.7105 -0.2842  0.0009
    1CHTO  H178   84   6.784   4.830   2.258 -0.8458  0.9884 -0.1648
    1CHTO   C92   85   6.894   4.710   2.405  0.1313 -0.5491  0.1720
    1CHTO  H179   86   6.814   4.648   2.447 -2.7762  2.1431 -1.1805
    1CHTO   O66   87   6.923   4.637   2.284 -0.0816 -0.1370 -0.1806
    1CHTO  H166   88   6.986   4.686   2.235  1.1750 -2.0472 -0.5491
    1CHTO   C93   89   7.021   4.721   2.494 -0.4387 -0.1850  0.3117
    1CHTO  H180   90   7.063   4.623   2.521 -1.4951 -0.4475  1.0017
    1CHTO   N16   91   6.986   4.777   2.625  0.3010  0.6163 -0.7212
    1CHTO  H172   92   6.924   4.864   2.608 -0.2370 -0.0039 -2.0155
    1CHTO  H173   93   7.073   4.810   2.679 -0.3877  0.1494  0.6814
    1CHTO   C94   94   7.126   4.809   2.420 -0.0486  0.4000 -0.0117
    1CHTO  H181   95   7.194   4.858   2.490  0.0990  0.0250  0.1075
    1CHTO   O61   96   7.073   4.914   2.329 -0.4905 -0.2305 -0.1717
    1CHTO   C95   97   6.939   4.967   2.342  0.6803 -0.1948  0.5674
    1CHTO  H182   98   6.931   5.034   2.427  0.5009  1.4299 -0.6918
    1CHTO  C106   99   6.907   5.071   2.222 -0.3837  0.0534  0.2127
    1CHTO   O69  100   6.771   5.121   2.238 -0.7956 -0.1945  0.1342
    1CHTO  H169  101   6.731   5.122   2.153  2.0288 -0.3254 -1.2694
    1CHTO   O63  102   7.210   4.715   2.327 -0.1937  0.2497 -0.0891
    1CHTO   C96  103   7.355   4.673   2.384  0.5260 -0.2416  0.1641
    1CHTO  H183  104   7.339   4.634   2.485 -0.6887 -1.8390 -0.6320
    1CHTO   C98  105   7.465   4.789   2.382  0.6963  0.0488 -0.3724
    1CHTO  H185  106   7.423   4.876   2.434 -1.3429 -0.2529 -1.4348
    1CHTO   O67  107   7.578   4.758   2.462  0.0883  0.7246 -0.3748
    1CHTO  H167  108   7.614   4.680   2.425  0.4622  0.8268 -0.2249
    1CHTO  C102  109   7.515   4.835   2.235 -0.0568 -0.1728 -0.0041
    1CHTO  H189  110   7.609   4.890   2.247  0.1562 -0.7591  1.0621
    1CHTO   N18  111   7.427   4.929   2.160  0.4435  0.4171  0.1774
    1CHTO  H176  112   7.373   4.988   2.233 -3.8343  0.0008 -2.5022
    1CHTO  H177  113   7.351   4.882   2.100 -0.2296  2.0149 -0.2316
    1CHTO  C105  114   7.548   4.705   2.153 -0.0434 -0.4070  0.2991
    1CHTO  H192  115   7.550   4.730   2.047 -2.9519 -2.1778 -0.2297
    1CHTO   O65  116   7.447   4.601   2.167 -0.0117  0.0371 -0.6076
    1CHTO  C100  117   7.398   4.553   2.298 -0.1621 -0.2620  0.2995
    1CHTO  H187  118   7.313   4.492   2.264 -0.1148 -0.5382  0.6740
    1CHTO  C107  119   7.500   4.456   2.365  0.0654  0.6300 -1.0506
    1CHTO   O70  120   7.540   4.354   2.276  0.1782  0.0610  0.4160
    1CHTO  H170  121   7.633   4.348   2.283 -0.0822 -2.3759  2.1038
    1CHTO   O57  122   7.691   4.671   2.202  0.0983  0.0511 -0.3390
    1CHTO   C85  123   7.781   4.615   2.108 -0.3945  0.0615  0.0246
    1CHTO  H157  124   7.726   4.596   2.014  1.6542  1.0054 -1.4080
    1CHTO   C83  125   7.818   4.478   2.168  0.1461  0.1758  0.1822
    1CHTO  H155  126   7.725   4.422   2.158 -0.2080  0.1281  3.1150
    1CHTO   O56  127   7.854   4.475   2.307 -0.6022  0.2242 -0.1553
    1CHTO  H135  128   7.807   4.404   2.347 -1.7045  0.2810 -1.3000
    1CHTO   C81  129   7.922   4.417   2.074 -0.5289 -0.0424 -0.4018
    1CHTO  H153  130   7.878   4.420   1.974 -1.8820  1.0700  0.2168
    1CHTO   N14  131   7.943   4.266   2.091 -0.2308 -0.3085  0.1951
    1CHTO  H141  132   8.025   4.219   2.040 -0.4301 -0.6329  0.1715
    1CHTO  H142  133   7.938   4.228   2.191 -0.0756 -0.4769  0.1409
    1CHTO   C79  134   8.050   4.511   2.078 -0.3885 -0.1602  0.1038
    1CHTO  H151  135   8.122   4.466   2.009 -2.0812 -1.2916 -0.9852
    1CHTO   O52  136   8.018   4.641   2.019  0.4244 -0.0942  0.0516
    1CHTO   C86  137   7.903   4.708   2.082 -0.8412  0.3411  0.4507
    1CHTO  H158  138   7.942   4.751   2.177 -1.1750 -0.4576  0.9467
    1CHTO   C90  139   7.865   4.831   1.988 -0.0236 -0.0595 -0.3624
    1CHTO   O60  140   7.854   4.799   1.845  0.3424  0.0511 -0.0495
    1CHTO  H138  141   7.936   4.808   1.801  0.7722 -1.1209  0.4933
    1CHTO   O50  142   8.108   4.515   2.210 -0.1851  0.0714 -0.4110
    1CHTO   C73  143   8.221   4.503   2.292 -0.2673 -0.9979  0.3159
    1CHTO  H145  144   8.311   4.543   2.244 -0.5171  2.2019  2.3551
    1CHTO   C74  145   8.255   4.357   2.336  0.3412 -0.1940  0.2458
    1CHTO  H146  146   8.260   4.308   2.237 -0.5598 -0.6352  0.4138
    1CHTO   O54  147   8.389   4.356   2.388 -0.0472  0.3848  0.1998
    1CHTO  H133  148   8.452   4.355   2.318  1.8982  0.3565  1.9081
    1CHTO   C75  149   8.143   4.293   2.420  0.0846  0.2370  0.0856
    1CHTO  H147  150   8.050   4.288   2.362  0.6686 -1.3367 -0.7767
    1CHTO   N13  151   8.180   4.153   2.455  0.6401 -0.0544 -0.0117
    1CHTO  H139  152   8.184   4.091   2.367 -1.6090 -1.1889  0.6598
    1CHTO  H140  153   8.113   4.109   2.527  0.7355  0.4249  0.3795
    1CHTO   C76  154   8.124   4.386   2.547 -0.7294 -0.0142  0.1412
    1CHTO  H148  155   8.221   4.389   2.596 -0.5103  2.0169 -0.3700
    1CHTO   O49  156   8.091   4.526   2.501  0.7043  0.0377  0.1359
    1CHTO   C77  157   8.199   4.582   2.419  0.0604 -0.3710  0.0873
    1CHTO  H149  158   8.287   4.578   2.483  1.4988 -0.1449 -1.8249
    1CHTO   C88  159   8.180   4.733   2.387 -0.6335  0.4894 -0.1557
    1CHTO   O58  160   8.146   4.808   2.513 -0.4813  0.7945 -0.0696
    1CHTO  H136  161   8.137   4.898   2.488  0.2787  0.6320 -0.9615
    1CHTO   O51  162   8.008   4.339   2.630 -0.6155 -0.1392  0.1879
    1CHTO   C78  163   7.951   4.450   2.729 -0.1935 -0.5000 -0.8033
    1CHTO  H150  164   7.925   4.543   2.674 -0.8155 -0.1190  0.1250
    1CHTO   C80  165   8.045   4.490   2.846 -0.2291  0.5491  0.5215
    1CHTO  H152  166   8.072   4.398   2.902 -0.7074  0.5357  0.7338
    1CHTO   O55  167   8.160   4.543   2.783  0.0570 -0.1202  0.6151
    1CHTO  H134  168   8.208   4.583   2.853 -0.5361 -0.2192  1.0753
    1CHTO   C84  169   7.971   4.592   2.938  0.3768 -0.0857 -0.1624
    1CHTO  H156  170   7.941   4.682   2.884 -1.0608 -0.0840  0.6068
    1CHTO   N15  171   8.046   4.627   3.066 -0.1999  0.1453  0.5537
    1CHTO  H143  172   8.004   4.709   3.121  0.8997  0.4611  0.9401
    1CHTO  H144  173   8.051   4.541   3.129 -0.1924 -0.0113  0.3390
    1CHTO   C87  174   7.830   4.538   2.986  0.4311  0.0964  0.1907
    1CHTO  H159  175   7.844   4.453   3.053 -0.8343 -1.9721 -2.0963
    1CHTO   O53  176   7.754   4.502   2.857 -0.3289  0.1513  0.1943
    1CHTO   C82  177   7.818   4.397   2.778 -0.5587  0.0165 -0.7368
    1CHTO  H154  178   7.828   4.305   2.836  0.7726  0.4474 -0.2479
    1CHTO   C89  179   7.730   4.365   2.649  0.6437  0.8239  0.0085
    1CHTO   O59  180   7.594   4.339   2.681 -0.1852 -0.1780  0.9131
    1CHTO  H137  181   7.590   4.246   2.692  1.0335 -0.3948 -0.3438
    1CHTO   O45  182   7.745   4.658   3.078 -0.3774 -1.0873  0.3272
    1CHTO   C67  183   7.669   4.756   3.003 -1.7006 -0.0059  0.2158
    1CHTO  H124  184   7.717   4.769   2.906  0.1198  0.4700  1.1556
    1CHTO   C65  185   7.523   4.707   2.974  0.4017 -0.5286  0.1757
    1CHTO  H122  186   7.500   4.618   3.033 -2.4083  0.2019  0.2680
    1CHTO   O44  187   7.519   4.680   2.830 -0.0645  0.1959 -0.5486
    1CHTO  H102  188   7.585   4.619   2.801  0.8268  1.1273 -0.5181
    1CHTO   C63  189   7.417   4.808   3.030  0.8952 -0.2982 -0.0955
    1CHTO  H120  190   7.422   4.806   3.139 -1.2587 -3.4503  0.0232
    1CHTO   N11  191   7.275   4.769   3.002 -0.2105  0.5580 -0.4439
    1CHTO  H108  192   7.274   4.681   2.940 -0.4656 -1.2914  2.1112
    1CHTO  H109  193   7.222   4.744   3.091 -0.0278  0.3378 -0.3953
    1CHTO   C61  194   7.450   4.956   2.990 -0.0506  0.0020  0.8188
    1CHTO  H118  195   7.368   5.018   3.030 -0.4978 -0.4599  0.6362
    1CHTO   O40  196   7.569   4.997   3.051  0.0932  0.3552 -0.7051
    1CHTO   C68  197   7.678   4.900   3.077 -0.4435 -0.5757 -0.9438
    1CHTO  H125  198   7.679   4.873   3.185  0.3832  0.0133 -0.7980
    1CHTO   C72  199   7.814   4.962   3.046 -0.7787  0.0374  0.1207
    1CHTO   O48  200   7.821   5.098   3.086  0.3846 -0.6178  0.2885
    1CHTO  H105  201   7.890   5.146   3.045 -0.1058 -0.6603 -0.5918
    1CHTO   O38  202   7.468   4.985   2.848  0.2412 -0.1949 -0.8360
    1CHTO   C55  203   7.421   5.114   2.795 -0.8970  0.3342 -0.0922
    1CHTO  H112  204   7.410   5.181   2.881 -1.4694  0.0850  0.0374
    1CHTO   C56  205   7.291   5.089   2.716  0.3187  0.1643  0.6827
    1CHTO  H113  206   7.316   5.009   2.646 -1.3522 -0.9709  1.3549
    1CHTO   O42  207   7.182   5.046   2.801  0.2850  0.7802  0.2885
    1CHTO  H100  208   7.100   5.035   2.757  1.1504  0.7636 -1.3665
    1CHTO   C57  209   7.240   5.215   2.644 -0.3201  0.3275 -0.2536
    1CHTO  H114  210   7.140   5.238   2.680 -0.6330 -2.0697  0.4679
    1CHTO   N10  211   7.215   5.193   2.499  0.0143  0.3463  0.6884
    1CHTO  H106  212   7.231   5.283   2.442 -1.4124  1.3174  1.7790
    1CHTO  H107  213   7.112   5.160   2.498  0.3031 -0.5556  0.0839
    1CHTO   C58  214   7.332   5.339   2.665  0.3649  0.6410  0.1137
    1CHTO  H115  215   7.303   5.424   2.599  0.5662  0.2456 -0.4959
    1CHTO   O37  216   7.464   5.292   2.630 -0.3618 -1.0844 -0.2553
    1CHTO   C59  217   7.525   5.183   2.703 -0.2358 -0.4967  0.5741
    1CHTO  H116  218   7.570   5.113   2.633 -1.2353  0.6483 -1.2255
    1CHTO   C70  219   7.645   5.245   2.788 -0.5494  0.1762  0.2415
    1CHTO   O46  220   7.743   5.308   2.713  0.3201 -0.3790  0.4250
    1CHTO  H103  221   7.771   5.255   2.641  2.3414 -0.7092  1.4208
    1CHTO   O39  222   7.316   5.396   2.817 -0.5383 -0.2254 -0.7363
    1CHTO   C60  223   7.237   5.513   2.837  0.1446 -0.2009  0.5433
    1CHTO  H117  224   7.260   5.581   2.755 -0.5533 -0.0976  0.4271
    1CHTO   C62  225   7.082   5.487   2.836  0.0444 -0.4693  0.0268
    1CHTO  H119  226   7.050   5.441   2.740  1.1526 -1.4695  0.1351
    1CHTO   O43  227   7.056   5.401   2.952 -0.0890 -0.2712  0.2389
    1CHTO  H101  228   7.062   5.457   3.027 -1.0723  0.3507 -0.1432
    1CHTO   C66  229   7.004   5.629   2.855  0.6232  0.3201  0.2905
    1CHTO  H123  230   7.025   5.694   2.770 -1.7703 -0.4983 -0.9791
    1CHTO   N12  231   6.856   5.612   2.844 -0.1689  0.3640 -0.3707
    1CHTO  H110  232   6.817   5.697   2.792  1.1250  0.5495 -1.0617
    1CHTO  H111  233   6.830   5.518   2.797  1.3687  0.4487 -1.4320
    1CHTO   C69  234   7.047   5.701   2.986 -0.3575  0.1523 -0.3114
    1CHTO  H126  235   7.028   5.644   3.079 -0.4071 -0.4731 -0.7013
    1CHTO   O41  236   7.199   5.720   2.969 -0.0507  0.1661  0.2764
    1CHTO   C64  237   7.279   5.595   2.968  0.3151 -0.3053  0.5437
    1CHTO  H121  238   7.252   5.532   3.055  0.8104  1.7047  2.1714
    1CHTO   C71  239   7.437   5.621   2.973 -0.4834  0.3132  0.5117
    1CHTO   O47  240   7.495   5.491   3.007  0.0027  0.0712 -0.0935
    1CHTO  H104  241   7.589   5.496   2.999  0.0868 -1.5485 -0.2513
    1CHTO   O34  242   6.975   5.848   3.007  0.2805  0.2819  0.1539
    1CHTO   C49  243   7.021   5.988   2.989 -0.8337 -0.1006  0.2143
    1CHTO   H91  244   7.126   5.968   2.969 -0.7429  1.0410 -0.4119
    1CHTO   C47  245   7.017   6.055   3.129  0.1282 -0.0200  0.5887
    1CHTO   H89  246   7.073   6.149   3.111 -0.2879  0.2419  0.6405
    1CHTO   O33  247   7.082   5.973   3.227  0.2668 -0.4306  0.3309
    1CHTO   H70  248   7.038   5.891   3.239 -0.6716 -0.1260 -0.9178
    1CHTO   C45  249   6.868   6.082   3.168  0.3293  0.1981  0.2427
    1CHTO   H87  250   6.816   5.985   3.160  0.2845  0.4425 -3.3047
    1CHTO    N8  251   6.848   6.141   3.303  0.1528 -0.4141 -0.2003
    1CHTO   H75  252   6.935   6.165   3.362 -1.0176  1.1281  0.9403
    1CHTO   H76  253   6.774   6.219   3.296  0.4738  0.0484  1.3459
    1CHTO   C43  254   6.795   6.165   3.051 -0.0330  0.2027 -0.3057
    1CHTO   H85  255   6.690   6.168   3.080  0.3334  2.5911  0.8980
    1CHTO   O29  256   6.822   6.113   2.918 -0.4662  0.0914  0.3533
    1CHTO   C50  257   6.950   6.071   2.877  0.6346  0.6854  0.8865
    1CHTO   H92  258   6.935   6.013   2.785  0.2203  0.2883  1.2037
    1CHTO   C54  259   7.042   6.188   2.823 -0.0314  0.2126 -0.0414
    1CHTO   O36  260   6.961   6.269   2.736 -0.2816 -0.3679  0.4811
    1CHTO   H72  261   6.898   6.319   2.782 -0.4169 -0.2990  0.2196
    1CHTO   O27  262   6.847   6.302   3.065 -0.2845 -0.0463 -0.1126
    1CHTO   C37  263   6.813   6.429   3.000  0.6839  0.8627  0.5941
    1CHTO   H79  264   6.894   6.459   2.931  2.6444  1.4371  3.0696
    1CHTO   C38  265   6.682   6.430   2.920  0.4278 -0.5489 -0.8055
    1CHTO   H80  266   6.602   6.392   2.985 -0.1143 -0.0414 -1.1659
    1CHTO   O31  267   6.697   6.352   2.796 -0.0690 -0.8745 -0.1694
    1CHTO   H68  268   6.721   6.264   2.816  1.1908 -0.3569  0.6584
    1CHTO   C39  269   6.638   6.575   2.876 -0.7526 -0.4882 -0.3231
    1CHTO   H81  270   6.704   6.610   2.796  0.0564 -0.3312  0.4047
    1CHTO    N7  271   6.500   6.585   2.822  0.0202  0.0542 -0.1311
    1CHTO   H73  272   6.477   6.687   2.796 -1.4970 -1.1720 -4.0132
    1CHTO   H74  273   6.438   6.554   2.904  1.3951 -2.6823 -0.0560
    1CHTO   C40  274   6.652   6.675   2.998 -0.1855 -0.4989  0.2282
    1CHTO   H82  275   6.576   6.652   3.073  0.3276  0.0740  0.9309
    1CHTO   O26  276   6.783   6.670   3.049 -0.1607  0.2203 -0.1738
    1CHTO   C41  277   6.808   6.543   3.114  0.4652  0.2638 -0.6068
    1CHTO   H83  278   6.722   6.524   3.181  1.8221 -1.0498  0.7883
    1CHTO   C52  279   6.945   6.551   3.199 -0.6979 -0.4816  0.2078
    1CHTO   O35  280   6.959   6.654   3.298 -0.3597 -0.0784 -0.7649
    1CHTO   H71  281   6.884   6.650   3.354  0.0726  1.6967 -0.0227
    1CHTO   O28  282   6.631   6.816   2.972  0.0722  0.0540 -0.1888
    1CHTO   C42  283   6.718   6.916   2.904  0.3177  0.2368  0.1277
    1CHTO   H84  284   6.784   6.854   2.842 -2.2813 -0.0941 -2.4115
    1CHTO   C44  285   6.815   7.008   2.990 -0.1323  1.2791 -0.0782
    1CHTO   H86  286   6.752   7.058   3.063  0.6373  0.2770  1.3042
    1CHTO   O32  287   6.899   6.918   3.073  0.4938  0.6260 -0.3576
    1CHTO   H69  288   6.842   6.865   3.126  0.4429  0.4329 -0.6020
    1CHTO   C48  289   6.903   7.108   2.910 -0.3250  0.1259  0.4738
    1CHTO   H90  290   6.976   7.045   2.858  0.3302 -0.0600  1.5895
    1CHTO    N9  291   6.977   7.211   2.993  0.2707 -0.5384 -0.6346
    1CHTO   H77  292   6.916   7.254   3.071  0.9358  1.0637 -0.9981
    1CHTO   H78  293   7.069   7.168   3.031  0.2740 -1.1269 -1.2949
    1CHTO   C51  294   6.819   7.172   2.793 -0.6128 -0.1117  0.0060
    1CHTO   H93  295   6.763   7.255   2.837 -0.8637  0.2150 -0.9097
    1CHTO   O30  296   6.731   7.081   2.723 -0.3026  0.4131  0.5565
    1CHTO   C46  297   6.642   7.014   2.807 -0.5639  0.1838  0.6155
    1CHTO   H88  298   6.587   7.088   2.865 -0.0110 -0.7083  2.2796
    1CHTO   C53  299   6.539   6.926   2.722  0.4487  0.1300 -0.0202
    1CHTO   O72  300   6.452   7.014   2.654  0.2655  0.2304  0.0267
    1CHTO  H199  301   6.407   6.972   2.583  1.2732  0.0510 -0.5088
    1CHTO   O22  302   6.911   7.218   2.686  0.2238  0.3224  0.9424
    1CHTO   C31  303   6.870   7.245   2.543  0.6462 -0.1735  0.0637
    1CHTO   H59  304   6.798   7.166   2.513  0.3331  1.1293 -2.7838
    1CHTO   C29  305   6.794   7.385   2.523 -0.0374 -0.2467 -0.0193
    1CHTO   H57  306   6.869   7.459   2.554  1.1019 -1.0663 -0.7856
    1CHTO   O21  307   6.687   7.402   2.616 -0.2554  0.4471  0.5922
    1CHTO   H37  308   6.663   7.490   2.637  1.5444  1.0971 -0.0484
    1CHTO   C27  309   6.752   7.403   2.373  0.4319  0.3908  0.5921
    1CHTO   H55  310   6.650   7.363   2.365  0.9871 -0.9331  0.1144
    1CHTO    N5  311   6.734   7.547   2.341 -0.2841  0.0483  0.8007
    1CHTO   H43  312   6.645   7.563   2.282 -0.5123  0.0463  1.1443
    1CHTO   H44  313   6.825   7.584   2.296  0.6052 -0.5892  2.0199
    1CHTO   C25  314   6.843   7.331   2.262 -0.3863  0.4979  0.7183
    1CHTO   H53  315   6.927   7.392   2.227  0.0065 -0.5486 -0.1671
    1CHTO   O17  316   6.925   7.222   2.315  0.5303  0.4215 -0.0120
    1CHTO   C32  317   6.991   7.235   2.443 -0.0449 -0.5059  0.2243
    1CHTO   H60  318   7.049   7.327   2.445 -1.5833  0.5117 -1.3942
    1CHTO   C36  319   7.089   7.109   2.470  0.4337 -0.1665  0.1309
    1CHTO   O25  320   7.199   7.113   2.381  0.2331  0.3604  0.1315
    1CHTO   H40  321   7.244   7.031   2.389  1.0608  0.9595  2.0256
    1CHTO   O15  322   6.767   7.285   2.153  0.1233 -0.0630 -0.0138
    1CHTO   C19  323   6.720   7.228   2.032 -0.2955  0.1540  0.6290
    1CHTO   H47  324   6.623   7.276   2.012  0.1460  0.2256 -1.5215
    1CHTO   C20  325   6.812   7.252   1.912  0.0376  0.1642  1.0059
    1CHTO   H48  326   6.914   7.217   1.931  0.4544 -0.3476 -1.9723
    1CHTO   O19  327   6.824   7.394   1.892 -0.6453 -0.3632 -0.0900
    1CHTO   H35  328   6.738   7.430   1.895 -0.7195 -0.5800  0.4263
    1CHTO   C21  329   6.754   7.183   1.779  0.0586  0.0386  0.1533
    1CHTO   H49  330   6.655   7.226   1.762 -0.4472 -0.0501  2.7519
    1CHTO    N4  331   6.838   7.204   1.653 -0.4188  0.8889 -0.1927
    1CHTO   H41  332   6.927   7.261   1.674 -0.1973 -0.6344  3.4733
    1CHTO   H42  333   6.774   7.260   1.586 -2.7709 -1.2911  0.1581
    1CHTO   C22  334   6.721   7.035   1.805 -0.2976 -0.1166  0.1300
    1CHTO   H50  335   6.820   6.990   1.814  0.2778  0.9266 -0.7740
    1CHTO   O14  336   6.640   7.021   1.925 -0.1364 -0.3859 -0.4532
    1CHTO   C23  337   6.695   7.073   2.048  0.0580  0.3288  0.1164
    1CHTO   H51  338   6.788   7.015   2.065 -1.4257 -2.0159  0.5261
    1CHTO   C34  339   6.594   7.050   2.155  0.3673 -0.0654  0.2401
    1CHTO   O23  340   6.540   6.919   2.160 -0.1227 -0.4519  0.0719
    1CHTO   H38  341   6.482   6.915   2.233 -0.8169  0.1793 -0.4417
    1CHTO   O16  342   6.647   6.967   1.701 -0.3225 -0.5439  0.3518
    1CHTO   C24  343   6.683   6.830   1.665  0.3480  0.0028  0.4266
    1CHTO   H52  344   6.775   6.798   1.714 -0.8960 -0.1959  2.6563
    1CHTO   C26  345   6.716   6.831   1.516  0.5799 -0.4945 -0.0849
    1CHTO   H54  346   6.635   6.886   1.464 -0.7719 -1.7445  0.6526
    1CHTO   O20  347   6.838   6.906   1.480 -0.3296 -0.3032  0.6731
    1CHTO   H36  348   6.841   6.994   1.514  1.8323 -0.1115  0.0382
    1CHTO   C30  349   6.720   6.684   1.457  0.0329  0.7544  0.1269
    1CHTO   H58  350   6.819   6.640   1.476 -1.3175 -0.9731  3.5370
    1CHTO    N6  351   6.695   6.681   1.310  0.8633  0.2755 -0.2277
    1CHTO   H45  352   6.779   6.717   1.253  0.3231  1.6070 -0.1909
    1CHTO   H46  353   6.672   6.580   1.277 -0.8662  0.3193  0.7899
    1CHTO   C33  354   6.626   6.572   1.527 -0.0427 -0.0853 -0.0372
    1CHTO   H61  355   6.525   6.570   1.484 -0.4312  0.8046  0.8140
    1CHTO   O18  356   6.615   6.596   1.667 -0.8811  0.0764  0.3932
    1CHTO   C28  357   6.571   6.730   1.704 -0.0790  0.1502 -0.2006
    1CHTO   H56  358   6.482   6.761   1.650 -1.5009 -1.4646  1.1370
    1CHTO   C35  359   6.547   6.719   1.856  0.4439 -0.0095 -0.2700
    1CHTO   O24  360   6.418   6.746   1.901 -0.2499 -0.2857  0.2643
    1CHTO   H39  361   6.352   6.700   1.852 -1.9608 -0.4245  2.6305
    1CHTO    O9  362   6.678   6.444   1.499  0.1783 -0.1042 -0.3725
    1CHTO   C13  363   6.599   6.319   1.552 -0.8914  0.3288  0.5277
    1CHTO   H26  364   6.517   6.356   1.616 -0.7205 -0.5160  1.2451
    1CHTO   C11  365   6.701   6.225   1.640  0.2873 -0.1523 -0.5374
    1CHTO   H24  366   6.715   6.274   1.738  0.4528  0.2854 -0.7801
    1CHTO    O8  367   6.827   6.202   1.582  0.2511 -0.0861  0.1813
    1CHTO    H3  368   6.894   6.204   1.648  0.7440  1.0871 -0.3355
    1CHTO    C9  369   6.622   6.092   1.668  0.9887  0.9538 -0.0764
    1CHTO   H22  370   6.529   6.121   1.718  0.6057  2.5566 -1.6676
    1CHTO    N2  371   6.676   6.004   1.776  0.4489  0.6042 -0.3514
    1CHTO   H10  372   6.689   6.067   1.862 -0.4052  2.1015 -1.2911
    1CHTO   H11  373   6.767   5.955   1.746  0.7107  1.2860 -0.6941
    1CHTO    C7  374   6.588   6.024   1.527 -0.0786 -0.7916  0.5759
    1CHTO   H20  375   6.480   6.002   1.544 -0.7920  1.7622 -0.4759
    1CHTO    O4  376   6.602   6.112   1.412 -0.7030  0.0222  0.0806
    1CHTO   C14  377   6.534   6.239   1.432  0.4365  0.3197 -0.3678
    1CHTO   H27  378   6.428   6.212   1.448  0.2511  0.2608 -1.7271
    1CHTO   C18  379   6.534   6.313   1.295 -0.5424  0.2387  1.0573
    1CHTO   O13  380   6.455   6.429   1.305 -0.2526 -0.6148 -0.2034
    1CHTO    H7  381   6.429   6.465   1.223  0.0686  1.3853  0.5550
    1CHTO    O2  382   6.671   5.884   1.497 -0.0845  0.0863  0.2355
    1CHTO    C1  383   6.757   5.870   1.380  0.1130 -0.4114  0.6457
    1CHTO   H14  384   6.805   5.967   1.355  2.4885 -1.9202 -0.7924
    1CHTO    C2  385   6.674   5.821   1.253 -0.1893  0.1650 -0.1798
    1CHTO   H15  386   6.610   5.738   1.286 -1.2336  1.8134  2.0280
    1CHTO    O6  387   6.575   5.926   1.209  0.5418  0.4826 -0.2377
    1CHTO    H1  388   6.488   5.911   1.240  1.4341 -0.0681  2.0726
    1CHTO    C3  389   6.774   5.784   1.127 -0.3128  0.9559 -0.1382
    1CHTO   H16  390   6.812   5.879   1.088 -1.1077  1.9677  1.4674
    1CHTO    N1  391   6.690   5.714   1.023  0.7227  0.1446  0.1591
    1CHTO    H8  392   6.723   5.702   0.921 -1.1624 -2.8959 -0.1611
    1CHTO    H9  393   6.638   5.631   1.068 -0.4884  0.3569 -0.8216
    1CHTO    C4  394   6.898   5.698   1.176  0.1259 -0.1745  0.1865
    1CHTO   H17  395   6.867   5.595   1.192 -0.8485  0.4518  2.4681
    1CHTO    O1  396   6.951   5.746   1.296 -0.1493  0.2261  0.5390
    1CHTO    C5  397   6.866   5.766   1.411 -0.3334  0.3944  0.0685
    1CHTO   H18  398   6.805   5.678   1.427 -0.1100 -0.6550 -4.1904
    1CHTO   C16  399   6.955   5.792   1.538  0.1880 -0.2716 -0.0605
    1CHTO   O11  400   7.037   5.905   1.507 -0.0541 -0.3453 -0.4445
    1CHTO    H5  401   7.114   5.885   1.458 -0.0759 -0.1788 -0.5492
    1CHTO    O3  402   7.004   5.702   1.075  0.1456  0.0334  0.3371
    1CHTO    C6  403   7.109   5.601   1.081  0.2428  0.9222 -0.0058
    1CHTO   H19  404   7.104   5.538   1.169  1.1539 -0.0012 -0.5966
    1CHTO    C8  405   7.097   5.495   0.964 -0.7167  0.1811  0.5377
    1CHTO   H21  406   7.087   5.549   0.870 -0.4112  1.6801  1.3607
    1CHTO    O7  407   6.977   5.428   0.993 -0.0361  0.2759  0.2055
    1CHTO    H2  408   6.940   5.382   0.920 -1.1463 -0.6214  1.3331
    1CHTO   C12  409   7.223   5.395   0.969  0.1911 -0.1660 -0.6505
    1CHTO   H25  410   7.225   5.353   1.071 -0.4295 -0.2401 -0.6657
    1CHTO    N3  411   7.212   5.290   0.862  0.1969 -0.1521  0.1628
    1CHTO   H12  412   7.232   5.192   0.903  0.5777  0.1699  0.7614
    1CHTO   H13  413   7.293   5.309   0.793  0.1716  0.8240  0.3916
    1CHTO   C15  414   7.350   5.487   0.950  0.1816  0.0592 -0.8340
    1CHTO   H28  415   7.350   5.532   0.850 -0.4201 -0.1561 -0.9289
    1CHTO   O10  416   7.480   5.400   0.967 -0.0798 -0.5595 -0.6485
    1CHTO    H4  417   7.488   5.341   0.895  1.0837 -2.0503  0.6513
    1CHTO    O5  418   7.366   5.580   1.061 -0.3883  0.3334 -0.0346
    1CHTO   C10  419   7.251   5.669   1.088 -0.0195  0.2322  0.9204
    1CHTO   H23  420   7.250   5.748   1.013  2.5321  0.9101  1.5692
    1CHTO   C17  421   7.271   5.735   1.227 -0.0077 -0.3610 -0.4092
    1CHTO   O12  422   7.264   5.641   1.335  0.1516 -0.0147  0.2048
    1CHTO    H6  423   7.350   5.610   1.352 -0.3774 -1.6992 -0.1715
    2CHTO  H203  424   6.169   4.231   0.443  0.4309  1.4003 -3.3000
    2CHTO   O82  425   6.149   4.149   0.403  0.1265 -0.1684 -0.0915
    2CHTO  C123  426   6.038   4.156   0.315  0.1393  0.8350  0.2660
    2CHTO  H227  427   6.066   4.217   0.227 -0.5026 -1.2637 -1.4348
    2CHTO   O77  428   6.033   4.021   0.262  0.0548  0.3971 -0.3852
    2CHTO  C118  429   5.943   4.004   0.152 -0.3345  0.1227 -0.1415
    2CHTO  H222  430   5.979   4.073   0.074  0.4686 -0.5167 -0.3394
    2CHTO  C125  431   5.948   3.848   0.094 -0.4025 -0.0524  0.3906
    2CHTO   O84  432   5.893   3.753   0.185 -0.6787 -0.2403  0.5908
    2CHTO  H205  433   5.860   3.676   0.143 -0.5595 -0.2939  0.5969
    2CHTO  C114  434   5.799   4.047   0.195  0.0578  0.6065 -0.0773
    2CHTO  H218  435   5.755   3.967   0.255 -0.1041  0.7236 -0.0403
    2CHTO  C116  436   5.784   4.186   0.265 -0.6643 -0.4466  0.4537
    2CHTO  H220  437   5.799   4.268   0.192  0.8926 -0.1548  1.0935
    2CHTO   O79  438   5.652   4.200   0.308  0.1207  0.1824  0.5848
    2CHTO  H201  439   5.646   4.289   0.339 -3.1288  0.1178  0.2924
    2CHTO  C120  440   5.896   4.194   0.375  0.7738 -0.7922  0.2768
    2CHTO  H224  441   5.859   4.120   0.448 -1.1368  0.3924  0.5388
    2CHTO   N21  442   5.901   4.336   0.428 -0.5353  0.7110 -0.8809
    2CHTO  H211  443   5.840   4.354   0.516 -0.6426  1.8867 -1.1896
    2CHTO  H212  444   6.005   4.350   0.453 -0.1692 -2.6049 -0.3445
    2CHTO   O75  445   5.734   4.053   0.066 -0.2199 -0.2605 -0.0677
    2CHTO  C112  446   5.598   3.975   0.061 -0.0633  0.0485 -0.3636
    2CHTO  H216  447   5.554   3.960   0.160  0.8010  0.3936  0.0771
    2CHTO   O73  448   5.625   3.848  -0.003 -0.3882 -0.2267  0.0370
    2CHTO  C113  449   5.509   3.769  -0.012 -0.8267 -0.0062  0.2021
    2CHTO  H217  450   5.465   3.734   0.084 -2.2341  3.0939  0.7689
    2CHTO  C124  451   5.555   3.634  -0.072  0.4903 -0.6682 -0.6764
    2CHTO   O83  452   5.652   3.571   0.013 -0.1200 -0.4695  0.0734
    2CHTO  H204  453   5.621   3.551   0.099  1.2640 -2.5240  0.1144
    2CHTO  C109  454   5.394   3.829  -0.095 -0.4426 -0.4663 -0.6664
    2CHTO  H213  455   5.429   3.836  -0.199  1.0719  1.5302 -0.0516
    2CHTO  C110  456   5.365   3.967  -0.040  0.1762  0.7330  0.0128
    2CHTO  H214  457   5.312   3.949   0.053  0.6597 -0.7128  0.0260
    2CHTO   O78  458   5.266   4.025  -0.128 -0.2020  0.1252 -0.0806
    2CHTO  H200  459   5.178   4.012  -0.098 -0.6186 -2.2787 -2.1308
    2CHTO  C111  460   5.492   4.055  -0.025  0.5124  0.3244 -0.4039
    2CHTO  H215  461   5.532   4.075  -0.125  1.0828  0.1105 -0.2224
    2CHTO   N19  462   5.469   4.186   0.037 -0.0337  0.0959 -0.0928
    2CHTO  H207  463   5.369   4.207   0.003 -0.7242 -1.4074  0.9802
    2CHTO  H208  464   5.477   4.182   0.145  0.0470  0.3379 -0.0893
    2CHTO   O74  465   5.275   3.744  -0.083 -1.2576  0.1311 -0.7135
    2CHTO  C115  466   5.195   3.749  -0.201 -0.9091  0.7207  0.0200
    2CHTO  H219  467   5.204   3.844  -0.254  3.3352 -1.6752 -3.9094
    2CHTO   O76  468   5.241   3.637  -0.309 -0.4510  0.2397 -0.3977
    2CHTO  C122  469   5.171   3.644  -0.429  0.1010  1.2090 -0.0268
    2CHTO  H226  470   5.204   3.558  -0.486 -0.9650 -0.2289  1.4517
    2CHTO  C126  471   5.214   3.766  -0.517  0.6390  0.1111 -0.0473
    2CHTO   O85  472   5.354   3.771  -0.553 -0.0086 -0.3723 -0.3344
    2CHTO  H206  473   5.394   3.823  -0.486  0.8334  0.5764 -1.5614
    2CHTO  C121  474   5.013   3.641  -0.410 -0.3911 -0.1104  0.1381
    2CHTO  H225  475   4.964   3.669  -0.506 -0.1407 -0.1842 -0.0105
    2CHTO   O81  476   4.978   3.499  -0.391  0.3224  0.1827 -0.4045
    2CHTO  H202  477   4.981   3.446  -0.469  0.2832 -2.5874  1.4108
    2CHTO  C119  478   4.959   3.742  -0.306 -0.8459 -0.2416  0.2140
    2CHTO  H223  479   4.985   3.837  -0.351 -1.3084 -0.8343 -1.3371
    2CHTO  C117  480   5.041   3.725  -0.170 -0.6119  0.3471 -0.5663
    2CHTO  H221  481   5.031   3.625  -0.127  0.6501  0.4531  0.0073
    2CHTO   N20  482   5.004   3.819  -0.058 -0.3348  1.1148 -0.3138
    2CHTO  H209  483   4.930   3.895  -0.078 -0.7222  0.7409 -0.3136
    2CHTO  H210  484   4.964   3.768   0.029 -1.3315 -0.2436 -1.5473
    2CHTO   O80  485   4.804   3.755  -0.294 -0.3394 -0.0232 -0.3534
    2CHTO  C103  486   4.731   3.839  -0.391  0.6043 -0.3049 -0.3952
    2CHTO  H190  487   4.793   3.883  -0.469 -0.4604  0.2875 -0.9079
    2CHTO  C101  488   4.618   3.767  -0.474  0.0989 -0.1594  0.4399
    2CHTO  H188  489   4.549   3.713  -0.409  0.8531  0.4494  1.7718
    2CHTO   O68  490   4.673   3.668  -0.567  0.3334 -0.4038  0.4810
    2CHTO  H168  491   4.746   3.621  -0.533 -0.8956 -3.6445 -1.1709
    2CHTO   C99  492   4.528   3.878  -0.548 -0.4754  0.1395 -0.2988
    2CHTO  H186  493   4.593   3.925  -0.625  1.3218  0.1931  1.2204
    2CHTO   N17  494   4.410   3.822  -0.620  0.3992 -0.1407  0.2234
    2CHTO  H174  495   4.380   3.903  -0.685  0.7883 -1.4969 -1.6718
    2CHTO  H175  496   4.458   3.749  -0.683  0.7707 -0.4983  0.9202
    2CHTO   C97  497   4.489   3.990  -0.449  0.2773 -0.7243 -0.1359
    2CHTO  H184  498   4.429   3.941  -0.371  0.4064 -0.4628  0.1268
    2CHTO   O64  499   4.607   4.048  -0.394 -0.0645  0.2293 -0.6542
    2CHTO  C104  500   4.677   3.960  -0.303 -0.3861  0.4560 -0.6844
    2CHTO  H191  501   4.608   3.930  -0.224  1.3730  2.5208  1.7140
    2CHTO  C108  502   4.785   4.042  -0.236  0.4653 -0.3920 -0.2563
    2CHTO   O71  503   4.739   4.141  -0.133  0.1913  0.9341  0.3311
    2CHTO  H171  504   4.816   4.193  -0.117  0.9451 -0.6123  1.8507
    2CHTO   O62  505   4.416   4.100  -0.515  0.5082  0.0274  0.2390
    2CHTO   C91  506   4.353   4.195  -0.426 -0.3017  1.0767 -0.1705
    2CHTO  H178  507   4.352   4.141  -0.331 -1.3068 -0.3373 -0.9697
    2CHTO   C92  508   4.201   4.221  -0.475  0.4847 -0.0859  0.8254
    2CHTO  H179  509   4.142   4.131  -0.496 -0.8249  1.0149 -0.3753
    2CHTO   O66  510   4.133   4.283  -0.365 -0.1024 -0.2622 -0.0903
    2CHTO  H166  511   4.041   4.303  -0.370 -0.7309 -3.1210 -0.8745
    2CHTO   C93  512   4.197   4.323  -0.595 -0.5144 -0.3202 -0.7277
    2CHTO  H180  513   4.106   4.383  -0.582 -0.4525 -0.2966 -0.4026
    2CHTO   N16  514   4.183   4.246  -0.722  0.1975 -0.2973 -0.3696
    2CHTO  H172  515   4.087   4.196  -0.732  0.1984 -0.2361 -0.6884
    2CHTO  H173  516   4.192   4.312  -0.807  0.8061  0.4667  0.2771
    2CHTO   C94  517   4.322   4.422  -0.592  0.5341 -0.1809  0.0541
    2CHTO  H181  518   4.407   4.382  -0.647  0.1985 -0.5993 -0.1673
    2CHTO   O61  519   4.364   4.439  -0.456 -0.0332 -0.1518  0.3430
    2CHTO   C95  520   4.436   4.325  -0.409 -0.2489  0.4491  0.0886
    2CHTO  H182  521   4.536   4.326  -0.453 -1.7047  0.4389 -3.3402
    2CHTO  C106  522   4.468   4.352  -0.251 -0.0607  0.1748  0.2934
    2CHTO   O69  523   4.576   4.446  -0.231 -0.2310 -0.1244 -0.2613
    2CHTO  H169  524   4.635   4.432  -0.303 -0.9800  2.5221 -1.4628
    2CHTO   O63  525   4.285   4.567  -0.659  0.3374 -0.3683 -0.6871
    2CHTO   C96  526   4.244   4.689  -0.563 -0.2916 -0.4083  0.4841
    2CHTO  H183  527   4.319   4.707  -0.486  0.0031  2.0516 -0.3471
    2CHTO   C98  528   4.108   4.678  -0.483 -0.6356  0.9472  0.0719
    2CHTO  H185  529   4.036   4.623  -0.546  0.2730 -0.6768  0.4052
    2CHTO   O67  530   4.131   4.600  -0.367 -0.0466  0.3025  0.4331
    2CHTO  H167  531   4.063   4.536  -0.355  0.0829  0.2871  1.1331
    2CHTO  C102  532   4.043   4.819  -0.429 -0.0704  0.1896 -0.2753
    2CHTO  H189  533   4.104   4.843  -0.341 -1.2583 -1.4791  1.0518
    2CHTO   N18  534   3.901   4.822  -0.378  0.3708  0.3960  0.3376
    2CHTO  H176  535   3.833   4.857  -0.455 -1.0199 -2.4644  0.2277
    2CHTO  H177  536   3.895   4.875  -0.284 -0.6317  0.1803  0.3999
    2CHTO  C105  537   4.073   4.929  -0.536 -1.0913 -1.0239 -0.1947
    2CHTO  H192  538   4.010   4.924  -0.625  1.3366  0.8180 -2.0939
    2CHTO   O65  539   4.215   4.923  -0.573  0.4542  0.6106  0.2347
    2CHTO  C100  540   4.237   4.815  -0.660 -0.6022 -0.1031 -0.1118
    2CHTO  H187  541   4.157   4.807  -0.735  0.1245  0.3749 -0.9479
    2CHTO  C107  542   4.365   4.827  -0.741 -0.2257  0.3975 -0.0609
    2CHTO   O70  543   4.337   4.773  -0.871  0.5037  0.7164  0.2104
    2CHTO  H170  544   4.295   4.839  -0.923 -0.7943  0.5662  1.0547
    2CHTO   O57  545   4.051   5.083  -0.455 -1.4597 -0.3845 -0.0973
    2CHTO   C85  546   3.978   5.183  -0.522  0.4068 -0.0987 -0.4432
    2CHTO  H157  547   3.881   5.134  -0.542 -1.4114  3.5941 -1.2457
    2CHTO   C83  548   4.046   5.225  -0.654  0.4157  0.0334 -0.2652
    2CHTO  H155  549   4.075   5.138  -0.713 -0.9106  0.4222 -1.5470
    2CHTO   O56  550   4.174   5.295  -0.629  0.0657  0.7883  0.0709
    2CHTO  H135  551   4.241   5.236  -0.598 -2.7076 -2.6266 -0.0908
    2CHTO   C81  552   3.950   5.312  -0.739  0.6289 -0.7828 -0.2447
    2CHTO  H153  553   3.861   5.252  -0.757  0.2178 -1.2549  3.0479
    2CHTO   N14  554   3.995   5.328  -0.880  0.2428 -0.9663 -0.6942
    2CHTO  H141  555   4.067   5.254  -0.907  1.8951  0.6046 -0.7189
    2CHTO  H142  556   4.037   5.424  -0.905 -0.3741 -0.0190  1.8313
    2CHTO   C79  557   3.904   5.436  -0.657 -0.4051  0.0116 -0.0616
    2CHTO  H151  558   3.831   5.491  -0.715  0.2562  0.9487 -0.0174
    2CHTO   O52  559   3.864   5.393  -0.521  1.2244  0.3125  0.1437
    2CHTO   C86  560   3.951   5.312  -0.440 -0.6814 -0.0902  0.6751
    2CHTO  H158  561   4.041   5.376  -0.432 -1.5183  1.2899 -0.5127
    2CHTO   C90  562   3.897   5.283  -0.298  0.3838 -0.1427 -0.4108
    2CHTO   O60  563   3.913   5.390  -0.203  0.2483  0.0418 -0.5438
    2CHTO  H138  564   3.901   5.475  -0.241 -0.7216  0.4953  0.7295
    2CHTO   O50  565   4.013   5.527  -0.636 -0.2413  0.2863  0.2836
    2CHTO   C73  566   4.044   5.666  -0.625 -0.2552  0.1242  0.4366
    2CHTO  H145  567   3.969   5.722  -0.568  0.2308  1.7110 -0.4636
    2CHTO   C74  568   4.031   5.729  -0.764 -0.3093  0.5095  0.1585
    2CHTO  H146  569   3.933   5.700  -0.804  0.1379  0.0072 -0.5833
    2CHTO   O54  570   4.026   5.876  -0.752 -0.2162  0.0402  0.0738
    2CHTO  H133  571   3.996   5.890  -0.664 -0.8485  2.8219 -0.5506
    2CHTO   C75  572   4.150   5.671  -0.853 -0.4171 -0.1025  0.4846
    2CHTO  H147  573   4.129   5.563  -0.866 -0.4580  0.2541 -2.8506
    2CHTO   N13  574   4.153   5.709  -0.997 -0.1754 -0.9995 -0.4877
    2CHTO  H139  575   4.245   5.670  -1.039  0.0615  0.3118 -1.2201
    2CHTO  H140  576   4.067   5.668  -1.048 -1.2948 -1.8376  2.0265
    2CHTO   C76  577   4.290   5.678  -0.779  0.5252 -0.0992  0.3932
    2CHTO  H148  578   4.326   5.779  -0.797 -0.5131  0.1942 -0.0508
    2CHTO   O49  579   4.289   5.642  -0.634 -0.3225 -0.5538 -0.3923
    2CHTO   C77  580   4.186   5.694  -0.559 -0.4010 -0.8501  0.3814
    2CHTO  H149  581   4.200   5.801  -0.551 -1.2936 -0.5270 -1.8645
    2CHTO   C88  582   4.194   5.634  -0.419 -0.2228  0.0082 -0.3240
    2CHTO   O58  583   4.102   5.703  -0.321 -0.6387  0.0093 -0.0435
    2CHTO  H136  584   4.142   5.787  -0.307 -0.4997 -0.0156 -0.2966
    2CHTO   O51  585   4.414   5.566  -0.854 -0.4195  0.1419 -0.0296
    2CHTO   C78  586   4.512   5.463  -0.735  0.0600  0.4262 -0.6427
    2CHTO  H150  587   4.452   5.441  -0.644 -1.8255  2.6303 -1.2948
    2CHTO   C80  588   4.642   5.534  -0.701 -0.0192  0.0742  0.0758
    2CHTO  H152  589   4.691   5.563  -0.796  0.8164  2.2561  1.1555
    2CHTO   O55  590   4.608   5.652  -0.625  0.4671  0.4416 -0.0198
    2CHTO  H134  591   4.653   5.729  -0.654  0.8328  0.1429 -0.2398
    2CHTO   C84  592   4.736   5.444  -0.616 -0.0131 -0.5361  0.7171
    2CHTO  H156  593   4.699   5.429  -0.514  0.7303  1.3108  1.2669
    2CHTO   N15  594   4.872   5.514  -0.606  0.5033 -0.2569 -0.4251
    2CHTO  H143  595   4.948   5.470  -0.545 -0.6838  0.3539  1.5121
    2CHTO  H144  596   4.856   5.615  -0.576  1.7166 -0.2024  0.0539
    2CHTO   C87  597   4.756   5.304  -0.678 -0.1933  1.2170  0.2547
    2CHTO  H159  598   4.809   5.305  -0.773  1.0298 -1.2303  0.8564
    2CHTO   O53  599   4.606   5.246  -0.701 -0.1792  0.2211 -0.1551
    2CHTO   C82  600   4.540   5.329  -0.800  0.3624 -0.9031  0.6291
    2CHTO  H154  601   4.603   5.339  -0.888  1.1737  1.6009  1.4651
    2CHTO   C89  602   4.414   5.242  -0.838  0.4725  0.3440 -0.3772
    2CHTO   O59  603   4.440   5.112  -0.886 -0.5318 -0.1331  0.2079
    2CHTO  H137  604   4.363   5.095  -0.937 -0.1073  0.2810 -0.5813
    2CHTO   O45  605   4.833   5.195  -0.568 -0.0272 -0.0066  0.0881
    2CHTO   C67  606   4.743   5.135  -0.474 -0.0817 -0.6502 -0.6021
    2CHTO  H124  607   4.640   5.169  -0.471 -0.4013 -1.5166 -1.3648
    2CHTO   C65  608   4.741   4.983  -0.512  0.0881 -0.6848  0.8547
    2CHTO  H122  609   4.845   4.967  -0.542  0.1603  2.2778 -0.6572
    2CHTO   O44  610   4.656   4.974  -0.628 -0.2433  0.6151  0.4694
    2CHTO  H102  611   4.579   4.926  -0.605 -0.4914 -0.6796 -2.8542
    2CHTO   C63  612   4.732   4.884  -0.385  0.2126 -0.1289  0.1846
    2CHTO  H120  613   4.829   4.869  -0.338 -0.0336 -0.3011  0.6402
    2CHTO   N11  614   4.687   4.749  -0.409  0.0128  0.5796 -0.4273
    2CHTO  H108  615   4.609   4.715  -0.343 -0.4308 -0.5932 -1.5396
    2CHTO  H109  616   4.639   4.747  -0.504  3.0409 -1.9442 -1.9634
    2CHTO   C61  617   4.652   4.963  -0.265 -0.5893 -0.2640 -0.6230
    2CHTO  H118  618   4.647   4.904  -0.172 -0.3493  1.5894  0.6168
    2CHTO   O40  619   4.711   5.094  -0.230 -0.1242 -0.4648 -0.4050
    2CHTO   C68  620   4.801   5.154  -0.332 -0.4517 -0.8637 -0.3471
    2CHTO  H125  621   4.905   5.115  -0.324 -0.5769 -1.2930 -0.7945
    2CHTO   C72  622   4.801   5.311  -0.299 -0.1544  0.4354  0.0566
    2CHTO   O48  623   4.851   5.353  -0.171  0.0680  0.0586  0.0236
    2CHTO  H105  624   4.818   5.297  -0.103 -2.9852  1.2086 -0.4376
    2CHTO   O38  625   4.511   4.987  -0.298  0.0138 -0.0853 -0.2236
    2CHTO   C55  626   4.426   4.982  -0.184  0.0145 -0.1785 -0.4454
    2CHTO  H112  627   4.485   5.023  -0.100  0.0803  0.2584 -0.7046
    2CHTO   C56  628   4.370   4.829  -0.157 -0.2960  0.6716  0.4018
    2CHTO  H113  629   4.327   4.793  -0.251 -0.0967 -2.7202  1.5509
    2CHTO   O42  630   4.483   4.750  -0.124  0.4845  0.5448  0.1989
    2CHTO  H100  631   4.526   4.726  -0.204 -2.1004  0.9700 -1.3731
    2CHTO   C57  632   4.268   4.825  -0.034 -0.7103 -0.1044 -0.2868
    2CHTO  H114  633   4.331   4.825   0.055 -0.1222 -0.6385 -0.6973
    2CHTO   N10  634   4.188   4.698  -0.029 -0.5024  0.3973  0.0772
    2CHTO  H106  635   4.231   4.628   0.040  1.2851  2.2694  0.9275
    2CHTO  H107  636   4.195   4.661  -0.131  0.4305  0.2715  0.1800
    2CHTO   C58  637   4.177   4.948  -0.049 -0.1495  0.0322  0.3707
    2CHTO  H115  638   4.105   4.932  -0.132 -0.5341  0.7207  0.5714
    2CHTO   O37  639   4.241   5.072  -0.073  0.2194 -0.3047  0.4595
    2CHTO   C59  640   4.304   5.070  -0.200 -0.2661 -0.3556 -0.0252
    2CHTO  H116  641   4.235   5.035  -0.277  1.6868  0.4711 -2.2270
    2CHTO   C70  642   4.341   5.213  -0.231 -0.3382  0.0723  0.4407
    2CHTO   O46  643   4.396   5.238  -0.360 -0.2863 -0.2330 -0.1706
    2CHTO  H103  644   4.324   5.232  -0.420 -2.1491  1.2636  1.7981
    2CHTO   O39  645   4.093   4.970   0.102  0.3821 -0.0032  0.1483
    2CHTO   C60  646   3.977   5.056   0.100  0.1096  0.2494 -0.8349
    2CHTO  H117  647   3.997   5.160   0.074 -0.4259  0.0647 -2.0006
    2CHTO   C62  648   3.872   4.991   0.010  0.1862 -0.8648  0.2163
    2CHTO  H119  649   3.923   4.987  -0.088 -0.9768 -0.7661 -0.4002
    2CHTO   O43  650   3.838   4.857   0.048 -0.3785  0.2584 -0.6343
    2CHTO  H101  651   3.905   4.801   0.014 -1.0104  0.8594 -2.9687
    2CHTO   C66  652   3.742   5.087   0.006 -0.0498  0.1770  0.0994
    2CHTO  H123  653   3.774   5.188  -0.018  1.5883 -0.1989  0.6311
    2CHTO   N12  654   3.653   5.047  -0.103  0.2667 -0.0142  0.5005
    2CHTO  H110  655   3.608   4.952  -0.079  1.6451 -0.5380  1.0569
    2CHTO  H111  656   3.576   5.123  -0.112 -0.7559 -1.1893 -0.9393
    2CHTO   C69  657   3.680   5.085   0.148  0.6266  0.2050  0.4737
    2CHTO  H126  658   3.634   4.986   0.168 -1.9135  1.2340 -0.1392
    2CHTO   O41  659   3.794   5.128   0.255  0.4746  0.5194 -0.0823
    2CHTO   C64  660   3.928   5.053   0.246  0.6612 -0.3770  0.0009
    2CHTO  H121  661   3.896   4.950   0.272 -1.8835 -0.0086 -1.4994
    2CHTO   C71  662   4.031   5.105   0.347  0.4885 -0.3316  0.3107
    2CHTO   O47  663   4.142   5.024   0.384 -0.2977 -0.3341  0.1639
    2CHTO  H104  664   4.183   5.053   0.463  1.2914 -1.8961 -0.0536
    2CHTO   O34  665   3.541   5.192   0.156  0.9258 -0.1998  1.3199
    2CHTO   C49  666   3.551   5.349   0.161 -0.3157  0.1724 -0.4209
    2CHTO   H91  667   3.647   5.384   0.198 -0.7634  1.0163 -0.0475
    2CHTO   C47  668   3.456   5.398   0.272  0.2082 -0.5801 -0.4166
    2CHTO   H89  669   3.467   5.508   0.276 -0.1994 -0.5664  0.3153
    2CHTO   O33  670   3.493   5.346   0.403 -0.0221 -0.5914 -0.3535
    2CHTO   H70  671   3.586   5.343   0.418 -0.2268  0.4208  1.2594
    2CHTO   C45  672   3.301   5.378   0.228 -0.0531  0.2557  0.0082
    2CHTO   H87  673   3.281   5.270   0.222  0.2123  0.1129  1.4142
    2CHTO    N8  674   3.211   5.424   0.337  0.7727 -0.2221  0.4483
    2CHTO   H75  675   3.241   5.525   0.361 -0.8748  0.5996 -0.8600
    2CHTO   H76  676   3.113   5.410   0.295  0.2575 -1.0707  1.8767
    2CHTO   C43  677   3.273   5.459   0.084  0.4002 -0.5242 -0.1162
    2CHTO   H85  678   3.179   5.423   0.043 -1.1493  1.0675  1.8948
    2CHTO   O29  679   3.379   5.432  -0.010  0.1988  0.2187  0.0376
    2CHTO   C50  680   3.518   5.416   0.031 -0.0508 -0.4229  1.0370
    2CHTO   H92  681   3.568   5.353  -0.044 -0.9356 -0.8332  0.7743
    2CHTO   C54  682   3.580   5.551  -0.010  0.2625 -0.4648 -0.1308
    2CHTO   O36  683   3.721   5.527  -0.024  0.4057  0.7541  0.2870
    2CHTO   H72  684   3.756   5.570  -0.100 -2.4548  0.3624 -1.3018
    2CHTO   O27  685   3.272   5.603   0.103 -0.1322 -0.9362  0.4478
    2CHTO   C37  686   3.245   5.729   0.037 -0.5590 -0.6915  0.5698
    2CHTO   H79  687   3.301   5.742  -0.057 -0.9865  3.1711  0.7772
    2CHTO   C38  688   3.100   5.748  -0.005 -1.1514  1.0284 -0.2219
    2CHTO   H80  689   3.039   5.744   0.086  0.2478  1.5738  0.7537
    2CHTO   O31  690   3.068   5.639  -0.093 -0.6354 -0.2033  0.3410
    2CHTO   H68  691   3.107   5.658  -0.176  0.4479  0.9964  1.0971
    2CHTO   C39  692   3.079   5.888  -0.069 -0.0661  0.4847  0.3641
    2CHTO   H81  693   3.137   5.896  -0.160  1.1834 -0.2380  1.0896
    2CHTO    N7  694   2.943   5.931  -0.108  0.2277 -0.4151 -0.1978
    2CHTO   H73  695   2.856   5.946  -0.047 -0.3563 -0.3076 -1.0478
    2CHTO   H74  696   2.928   5.887  -0.206 -0.7452 -0.3216 -0.0947
    2CHTO   C40  697   3.134   5.996   0.027 -0.7121 -0.5053 -0.0410
    2CHTO   H82  698   3.068   5.997   0.114 -0.1775  2.4446  0.3746
    2CHTO   O26  699   3.268   5.976   0.070  0.0793 -0.0613  0.1865
    2CHTO   C41  700   3.293   5.846   0.133 -0.3915 -0.2516  0.2483
    2CHTO   H83  701   3.229   5.843   0.222 -1.5944 -1.1142 -0.6338
    2CHTO   C52  702   3.444   5.837   0.173 -0.6747  0.3480 -0.1269
    2CHTO   O35  703   3.472   5.749   0.301 -0.3864 -0.5610 -0.3276
    2CHTO   H71  704   3.549   5.782   0.343  0.1554 -0.7867 -1.1359
    2CHTO   O28  705   3.129   6.132  -0.030  0.2555 -0.3785  0.6716
    2CHTO   C42  706   3.144   6.248   0.050 -0.0736 -0.4160  0.1663
    2CHTO   H84  707   3.132   6.339  -0.009 -1.3231  0.5968  1.9460
    2CHTO   C44  708   3.293   6.265   0.115 -0.1203 -0.0629 -0.0540
    2CHTO   H86  709   3.308   6.180   0.181  2.5745  0.5158  0.1459
    2CHTO   O32  710   3.383   6.247   0.003 -0.4353 -0.1279 -0.6139
    2CHTO   H69  711   3.469   6.280   0.024  0.1078 -2.2107  0.5755
    2CHTO   C48  712   3.305   6.397   0.201 -0.3339 -0.3690 -0.6187
    2CHTO   H90  713   3.290   6.493   0.150 -0.3146  1.2927  2.3597
    2CHTO    N9  714   3.442   6.413   0.264  0.2868  0.2380 -0.0803
    2CHTO   H77  715   3.504   6.328   0.242  1.4212  1.2350 -0.7451
    2CHTO   H78  716   3.498   6.500   0.236  0.5904 -0.1282 -0.6193
    2CHTO   C51  717   3.190   6.391   0.304 -0.2529  0.1397 -0.3888
    2CHTO   H93  718   3.203   6.300   0.362  1.2728  0.7136  0.2099
    2CHTO   O30  719   3.065   6.396   0.232 -0.1187 -0.0200 -0.4646
    2CHTO   C46  720   3.039   6.256   0.167 -0.3266 -0.6173 -0.1833
    2CHTO   H88  721   3.046   6.181   0.246 -0.2445 -0.4639 -0.0469
    2CHTO   C53  722   2.890   6.264   0.114 -0.0500  0.1591  0.4507
    2CHTO   O72  723   2.801   6.303   0.220  0.4427  1.0215 -0.2676
    2CHTO  H199  724   2.840   6.332   0.300 -0.3232 -0.8466  0.8306
    2CHTO   O22  725   3.173   6.509   0.394 -0.3724  0.3019 -0.0008
    2CHTO   C31  726   3.150   6.495   0.534  0.3269 -0.3731 -0.6964
    2CHTO   H59  727   3.086   6.582   0.561  1.4045 -0.4974  2.4556
    2CHTO   C29  728   3.066   6.370   0.587 -0.4626  0.8332 -0.3486
    2CHTO   H57  729   3.127   6.288   0.545  2.3961  1.0082  3.1085
    2CHTO   O21  730   2.940   6.361   0.517  0.1963  0.2644  0.0728
    2CHTO   H37  731   2.886   6.436   0.533 -0.1245  0.0543 -0.0248
    2CHTO   C27  732   3.062   6.357   0.744  0.6319  0.5136  0.0784
    2CHTO   H55  733   3.004   6.441   0.785  0.2975 -0.5911  1.9135
    2CHTO    N5  734   2.993   6.230   0.779 -0.1351 -0.0525 -0.0534
    2CHTO   H43  735   2.904   6.251   0.836 -2.1886 -0.8828 -2.8422
    2CHTO   H44  736   3.058   6.155   0.821 -2.5760 -1.5607  1.1836
    2CHTO   C25  737   3.213   6.387   0.798 -0.0021  0.3067  0.5198
    2CHTO   H53  738   3.265   6.297   0.762 -2.8984 -0.9506 -0.6141
    2CHTO   O17  739   3.259   6.521   0.752 -0.6781  0.3366 -0.0325
    2CHTO   C32  740   3.281   6.511   0.613  0.2722 -0.4282 -0.7713
    2CHTO   H60  741   3.356   6.436   0.585  0.0303 -0.6262 -0.8914
    2CHTO   C36  742   3.356   6.637   0.565 -0.5444  0.2454  0.7216
    2CHTO   O25  743   3.486   6.620   0.621  0.0240 -0.2898  0.1442
    2CHTO   H40  744   3.553   6.677   0.590 -1.0647  1.3794  0.8169
    2CHTO   O15  745   3.220   6.381   0.955  0.1866  0.7726  0.5006
    2CHTO   C19  746   3.210   6.301   1.073  0.3000  0.7542 -0.6398
    2CHTO   H47  747   3.102   6.283   1.085  0.7468 -0.8966  1.0737
    2CHTO   C20  748   3.274   6.157   1.073 -0.2917 -0.5464 -0.3467
    2CHTO   H48  749   3.380   6.158   1.043  0.3284 -0.1098  1.7760
    2CHTO   O19  750   3.218   6.089   0.964 -0.0014  0.0217  0.0074
    2CHTO   H35  751   3.259   6.007   0.942 -0.4102  0.3890 -2.1594
    2CHTO   C21  752   3.234   6.071   1.196  0.5300  0.3109  0.4283
    2CHTO   H49  753   3.126   6.053   1.192  0.6161  0.1245 -1.2520
    2CHTO    N4  754   3.301   5.936   1.207  0.0412  0.5598  0.2132
    2CHTO   H41  755   3.268   5.884   1.297  0.9516 -1.4426 -0.5823
    2CHTO   H42  756   3.279   5.877   1.119 -0.3398  0.1488  0.5749
    2CHTO   C22  757   3.254   6.158   1.326  0.1909  0.1604  0.5714
    2CHTO   H50  758   3.360   6.155   1.352  0.6709 -1.9793 -1.5031
    2CHTO   O14  759   3.197   6.288   1.313 -0.5287 -0.7133 -0.3073
    2CHTO   C23  760   3.249   6.373   1.210  0.6086 -0.2133 -0.2552
    2CHTO   H51  761   3.358   6.373   1.225  0.9134 -0.4726 -2.3467
    2CHTO   C34  762   3.185   6.511   1.231 -0.1473 -0.0769  0.7086
    2CHTO   O23  763   3.045   6.520   1.230 -0.2722 -0.2841 -0.7931
    2CHTO   H38  764   3.020   6.598   1.276 -0.4311  0.0839 -1.4933
    2CHTO   O16  765   3.174   6.107   1.436 -0.0213  0.4333 -0.8203
    2CHTO   C24  766   3.214   6.128   1.572 -0.4536 -0.1120 -0.0162
    2CHTO   H52  767   3.292   6.204   1.582 -0.2690 -0.2850 -0.1260
    2CHTO   C26  768   3.265   5.995   1.624 -0.1466 -0.2857 -0.6589
    2CHTO   H54  769   3.203   5.913   1.583  0.4428 -0.5195 -1.0812
    2CHTO   O20  770   3.400   5.966   1.585 -0.3900 -0.3764 -0.0865
    2CHTO   H36  771   3.399   5.928   1.500  0.0365  2.6972 -1.5170
    2CHTO   C30  772   3.269   5.992   1.780  0.1467 -0.1704  0.4414
    2CHTO   H58  773   3.353   6.055   1.812 -0.5824  1.3134 -0.5319
    2CHTO    N6  774   3.290   5.849   1.836  0.0100  0.3522 -0.0465
    2CHTO   H45  775   3.281   5.838   1.944  0.1794  0.3891 -0.0273
    2CHTO   H46  776   3.369   5.787   1.796 -0.5486 -0.2642 -0.2059
    2CHTO   C33  777   3.150   6.062   1.844 -0.6762  0.7974 -0.0700
    2CHTO   H61  778   3.063   5.994   1.839 -1.5393  1.9409 -1.2283
    2CHTO   O18  779   3.112   6.189   1.783 -0.2546 -0.1174 -0.8452
    2CHTO   C28  780   3.090   6.181   1.644 -0.3556 -0.0636 -1.1830
    2CHTO   H56  781   3.007   6.112   1.626 -2.0339  1.8339 -0.8061
    2CHTO   C35  782   3.045   6.324   1.602  0.0193  0.7331  0.1956
    2CHTO   O24  783   2.941   6.389   1.668  0.6353  0.5634  0.2110
    2CHTO   H39  784   2.864   6.335   1.661  0.8990  0.5539 -5.1572
    2CHTO    O9  785   3.167   6.087   1.985  0.4042  1.0261 -0.1154
    2CHTO   C13  786   3.061   6.181   2.075  0.4571  0.0868  0.1524
    2CHTO   H26  787   2.966   6.141   2.034  1.1734 -0.3905 -1.1079
    2CHTO   C11  788   3.081   6.333   2.043  0.0537  0.4060  0.1100
    2CHTO   H24  789   3.025   6.350   1.950 -0.3426  0.1473  0.2996
    2CHTO    O8  790   3.223   6.359   2.034 -0.3723 -0.2197 -0.2156
    2CHTO    H3  791   3.243   6.447   2.007  0.5987 -0.2731  0.3061
    2CHTO    C9  792   3.009   6.416   2.147  0.0194 -0.0478  0.2907
    2CHTO   H22  793   2.906   6.379   2.141  0.0684  0.0200 -1.1408
    2CHTO    N2  794   3.001   6.560   2.117 -0.2078 -0.1189  0.7515
    2CHTO   H10  795   3.102   6.587   2.089 -1.1161 -0.8208 -3.5549
    2CHTO   H11  796   2.928   6.566   2.037 -0.0186 -1.1621  0.4946
    2CHTO    C7  797   3.077   6.383   2.293  0.1108  0.8857 -0.2751
    2CHTO   H20  798   2.988   6.393   2.359 -0.9482 -1.7062 -1.2411
    2CHTO    O4  799   3.140   6.255   2.306  0.1151 -0.0253 -0.1460
    2CHTO   C14  800   3.067   6.153   2.234  0.6506 -1.3819 -0.7248
    2CHTO   H27  801   2.960   6.151   2.263  1.0895 -1.7766  0.9077
    2CHTO   C18  802   3.120   6.017   2.277  1.1333  0.1928 -0.8333
    2CHTO   O13  803   3.039   5.905   2.248 -0.0320 -0.0817 -0.3424
    2CHTO    H7  804   3.073   5.830   2.294  0.2097 -0.1183 -0.5778
    2CHTO    O2  805   3.203   6.478   2.334  0.3608 -0.4222 -0.0802
    2CHTO    C1  806   3.242   6.472   2.471 -0.1681 -0.3363 -0.4771
    2CHTO   H14  807   3.211   6.375   2.515  0.4071 -0.7056 -0.8853
    2CHTO    C2  808   3.177   6.590   2.553 -0.8519  0.0027 -0.3441
    2CHTO   H15  809   3.190   6.677   2.488 -0.5568 -2.1630 -3.3051
    2CHTO    O6  810   3.041   6.559   2.588 -0.0955  0.1593 -1.0376
    2CHTO    H1  811   2.973   6.570   2.524 -0.0916 -2.9602 -1.6808
    2CHTO    C3  812   3.260   6.609   2.687 -0.0945 -0.4036 -0.1101
    2CHTO   H16  813   3.244   6.526   2.757  0.3262  0.7466  1.3887
    2CHTO    N1  814   3.227   6.729   2.768  0.0826  0.4376 -0.1311
    2CHTO    H8  815   3.172   6.805   2.714 -0.0046  0.1735 -0.4134
    2CHTO    H9  816   3.176   6.704   2.860  1.1776 -0.5045  0.2275
    2CHTO    C4  817   3.415   6.602   2.653  0.4998 -0.1674  0.3706
    2CHTO   H17  818   3.445   6.685   2.590  0.3470 -0.4836 -0.1168
    2CHTO    O1  819   3.445   6.479   2.602  0.0442 -0.1564 -0.1692
    2CHTO    C5  820   3.404   6.464   2.463  0.2529  0.1720 -0.0136
    2CHTO   H18  821   3.439   6.542   2.396 -1.1433 -0.2028 -1.2001
    2CHTO   C16  822   3.456   6.333   2.404  0.0916  0.1710  0.2570
    2CHTO   O11  823   3.601   6.327   2.394  0.2928 -0.1178  0.5387
    2CHTO    H5  824   3.626   6.366   2.312  1.6100 -1.2107  0.4114
    2CHTO    O3  825   3.504   6.609   2.768 -0.1974 -0.4896  0.0659
    2CHTO    C6  826   3.643   6.652   2.736  0.5042 -0.2962 -0.0552
    2CHTO   H19  827   3.684   6.642   2.635  0.4414  2.2766 -0.3690
    2CHTO    C8  828   3.650   6.797   2.774 -0.3210  0.2511 -0.2147
    2CHTO   H21  829   3.599   6.806   2.870 -1.2017  0.7372 -0.7223
    2CHTO    O7  830   3.585   6.863   2.666 -0.4051  0.0953  0.4691
    2CHTO    H2  831   3.642   6.921   2.619  1.4452 -1.0320  1.2660
    2CHTO   C12  832   3.798   6.850   2.797 -0.2186  0.5870 -0.1518
    2CHTO   H25  833   3.853   6.840   2.701 -0.6188  0.3761 -0.3603
    2CHTO    N3  834   3.806   6.998   2.834  0.1043 -0.5739 -0.0526
    2CHTO   H12  835   3.904   7.024   2.873 -1.2754  2.8142  1.3799
    2CHTO   H13  836   3.726   7.036   2.896  1.5148 -0.7403  1.9565
    2CHTO   C15  837   3.865   6.749   2.896  0.7784 -0.1851  0.2256
    2CHTO   H28  838   3.803   6.738   2.985  2.9998  1.4017  2.0192
    2CHTO   O10  839   4.004   6.784   2.938  0.4422  0.3535  0.3362
    2CHTO    H4  840   4.056   6.794   2.861  0.1316  1.6097  0.2758
    2CHTO    O5  841   3.871   6.619   2.838  0.2814  0.0339  0.1493
    2CHTO   C10  842   3.738   6.570   2.825  0.3863 -0.5415 -0.1059
    2CHTO   H23  843   3.697   6.572   2.926  0.8641 -2.6670  0.1578
    2CHTO   C17  844   3.757   6.426   2.777  0.2669  0.2797  0.6338
    2CHTO   O12  845   3.848   6.350   2.863  0.0158  0.2182  0.6409
    2CHTO    H6  846   3.935   6.376   2.841 -0.4695  1.2216 -0.1390
    3CHTO  H203  847   7.341   1.558   1.465 -0.4318 -0.5712 -0.3956
    3CHTO   O82  848   7.341   1.573   1.557 -0.0492  0.5682 -0.5773
    3CHTO  C123  849   7.335   1.441   1.614 -0.1962 -0.6940 -0.3452
    3CHTO  H227  850   7.437   1.401   1.625 -0.2433 -0.5480  0.6053
    3CHTO   O77  851   7.290   1.461   1.753 -0.4207 -0.5058 -0.3407
    3CHTO  C118  852   7.282   1.339   1.829  0.1978 -0.1746  0.6101
    3CHTO  H222  853   7.384   1.301   1.842  0.2243 -0.2954  0.0355
    3CHTO  C125  854   7.228   1.368   1.975  0.6433  0.3825  0.1119
    3CHTO   O84  855   7.308   1.454   2.056  0.8720  0.0865 -0.2759
    3CHTO  H205  856   7.396   1.422   2.062  1.1497  1.0276  0.8800
    3CHTO  C114  857   7.204   1.223   1.768 -0.0532  0.1003  0.3626
    3CHTO  H218  858   7.100   1.254   1.762 -0.0271 -0.1759 -2.0824
    3CHTO  C116  859   7.241   1.194   1.617  0.2993  0.3166 -0.6309
    3CHTO  H220  860   7.339   1.148   1.594  0.6396  0.6377  0.1699
    3CHTO   O79  861   7.142   1.099   1.564 -0.3858  0.2867 -0.0473
    3CHTO  H201  862   7.137   1.103   1.471  2.6485  2.5902 -0.2276
    3CHTO  C120  863   7.248   1.334   1.538 -0.4298  0.8665  0.7383
    3CHTO  H224  864   7.144   1.372   1.537 -0.2388  1.3973  1.0013
    3CHTO   N21  865   7.280   1.320   1.392 -0.6953 -0.1619 -0.2165
    3CHTO  H211  866   7.326   1.414   1.365 -0.6548 -0.6254 -1.8288
    3CHTO  H212  867   7.194   1.296   1.330  0.3441 -1.3903 -1.2270
    3CHTO   O75  868   7.220   1.111   1.856 -0.8172  0.1532 -0.1695
    3CHTO  C112  869   7.131   0.981   1.833 -0.1304 -0.6507 -0.0009
    3CHTO  H216  870   7.182   0.910   1.765  0.2483 -0.2223 -0.1734
    3CHTO   O73  871   7.001   1.019   1.784 -0.4129 -0.5442 -0.1462
    3CHTO  C113  872   6.925   0.904   1.746 -0.4551 -0.7032  0.1721
    3CHTO  H217  873   6.981   0.853   1.665  1.6400  1.6602  0.0583
    3CHTO  C124  874   6.800   0.960   1.682 -0.1823  0.2278  0.1121
    3CHTO   O83  875   6.831   1.036   1.566  0.6311  0.1000 -0.4036
    3CHTO  H204  876   6.755   1.045   1.512 -0.2453  0.7965  0.9139
    3CHTO  C109  877   6.889   0.818   1.874  0.6052 -0.5038  0.8620
    3CHTO  H213  878   6.837   0.892   1.935 -0.4802 -0.3089 -0.2803
    3CHTO  C110  879   7.020   0.783   1.945 -0.0685 -0.2333  0.4900
    3CHTO  H214  880   7.067   0.709   1.881  0.9425 -0.3921  1.4020
    3CHTO   O78  881   6.987   0.722   2.069 -0.0044  0.1343  0.6195
    3CHTO  H200  882   6.955   0.786   2.129 -0.4505  1.3750 -0.9151
    3CHTO  C111  883   7.116   0.899   1.967 -0.7607  0.4760  0.3281
    3CHTO  H215  884   7.064   0.957   2.044 -1.6170  0.0324  0.0947
    3CHTO   N19  885   7.247   0.862   2.023  0.0028  0.4256 -0.0103
    3CHTO  H207  886   7.246   0.766   2.072  1.7929  0.5912  0.3798
    3CHTO  H208  887   7.329   0.862   1.954  0.1974  0.3354  0.2208
    3CHTO   O74  888   6.806   0.705   1.847  0.4006  0.3662 -0.8451
    3CHTO  C115  889   6.651   0.689   1.903  0.1435  0.0434  0.7071
    3CHTO  H219  890   6.649   0.687   2.012  0.2445 -1.9090  0.6899
    3CHTO   O76  891   6.560   0.818   1.864 -0.2850  0.0495  0.2298
    3CHTO  C122  892   6.417   0.815   1.898 -0.2175 -0.7195  0.2117
    3CHTO  H226  893   6.368   0.902   1.854  2.6953 -1.1028 -4.1011
    3CHTO  C126  894   6.403   0.834   2.049 -0.2864 -0.3578 -0.2170
    3CHTO   O85  895   6.272   0.827   2.104  0.5851 -0.1439 -0.2344
    3CHTO  H206  896   6.225   0.904   2.078  2.5598  0.6661 -1.5831
    3CHTO  C121  897   6.347   0.683   1.840  0.4355  0.3149  0.0820
    3CHTO  H225  898   6.249   0.671   1.891 -0.5338  1.1242 -1.5535
    3CHTO   O81  899   6.313   0.716   1.699  0.5523  0.0281  0.1861
    3CHTO  H202  900   6.220   0.721   1.685  0.6043 -0.1633 -0.2267
    3CHTO  C119  901   6.427   0.555   1.859 -0.0232 -0.3522 -0.0319
    3CHTO  H223  902   6.414   0.529   1.964  1.3898  2.1703  0.8069
    3CHTO  C117  903   6.587   0.560   1.840 -0.4541  0.6435 -0.0092
    3CHTO  H221  904   6.616   0.559   1.735  0.7186 -0.0707  0.3159
    3CHTO   N20  905   6.652   0.444   1.904  0.5078  0.2345  0.7425
    3CHTO  H209  906   6.634   0.346   1.864  0.5581 -0.5996  2.7204
    3CHTO  H210  907   6.758   0.459   1.905  0.2670  2.8247 -2.4380
    3CHTO   O80  908   6.355   0.435   1.783 -0.2640 -0.1528 -0.2719
    3CHTO  C103  909   6.196   0.382   1.833 -0.4307 -0.2939  0.0463
    3CHTO  H190  910   6.171   0.421   1.931 -0.9053  0.9595 -0.5587
    3CHTO  C101  911   6.080   0.422   1.742  1.1201  0.0844  0.0515
    3CHTO  H188  912   6.103   0.397   1.638  2.6284  0.9015  0.1720
    3CHTO   O68  913   6.072   0.589   1.742 -0.1538 -0.1627 -0.8058
    3CHTO  H168  914   6.055   0.631   1.825  0.6381  2.5608 -1.9489
    3CHTO   C99  915   5.936   0.362   1.785  0.1293  0.0886 -0.5104
    3CHTO  H186  916   5.909   0.399   1.887  0.3557  1.4968 -0.9447
    3CHTO   N17  917   5.817   0.406   1.701 -0.4921  0.0488  0.7149
    3CHTO  H174  918   5.774   0.336   1.631  3.2812 -0.9506 -0.7457
    3CHTO  H175  919   5.739   0.437   1.768 -2.5654  0.2472 -1.7110
    3CHTO   C97  920   5.960   0.210   1.796 -0.1579  0.3272  0.2338
    3CHTO  H184  921   5.972   0.172   1.694  2.7062  0.1429  0.5989
    3CHTO   O64  922   6.072   0.178   1.882  0.0210  0.6381 -0.2342
    3CHTO  C104  923   6.195   0.231   1.842  0.2893 -0.2239 -0.4015
    3CHTO  H191  924   6.213   0.186   1.744  0.0759  1.5977 -1.3037
    3CHTO  C108  925   6.300   0.175   1.931  0.3250 -0.0214 -0.0534
    3CHTO   O71  926   6.291   0.037   1.966 -0.1839  0.2933 -0.1496
    3CHTO  H171  927   6.338  -0.017   1.905  0.8152  1.2245 -0.2107
    3CHTO   O62  928   5.849   0.137   1.858 -0.6083  0.1677 -0.2308
    3CHTO   C91  929   5.820   0.010   1.806  0.6196  0.5614 -0.2947
    3CHTO  H178  930   5.898  -0.023   1.737  2.6007  0.9087  1.7191
    3CHTO   C92  931   5.681   0.019   1.736 -0.0044 -0.2954 -0.5982
    3CHTO  H179  932   5.608   0.051   1.811  0.7840 -0.7210  0.3628
    3CHTO   O66  933   5.692   0.116   1.635  0.0660  0.4187 -0.3453
    3CHTO  H166  934   5.730   0.191   1.677 -0.1954 -0.7028  2.0099
    3CHTO   C93  935   5.630  -0.121   1.687  0.5530 -0.0349 -0.4505
    3CHTO  H180  936   5.678  -0.135   1.589  1.4956  2.1049 -0.3298
    3CHTO   N16  937   5.484  -0.123   1.652 -0.2344  0.5905  0.8600
    3CHTO  H172  938   5.454  -0.037   1.594  1.0073 -0.3708 -1.2755
    3CHTO  H173  939   5.459  -0.209   1.592 -0.6768  0.4973  1.1727
    3CHTO   C94  940   5.663  -0.245   1.782  0.2746 -0.1491  0.2801
    3CHTO  H181  941   5.582  -0.268   1.852 -0.9661 -2.1316 -1.7201
    3CHTO   O61  942   5.785  -0.236   1.855 -0.1209 -0.5851 -0.4334
    3CHTO   C95  943   5.815  -0.106   1.909 -0.0075 -0.0824 -1.0010
    3CHTO  H182  944   5.739  -0.075   1.981  0.6666  0.3357 -0.4656
    3CHTO  C106  945   5.947  -0.116   1.987  0.0278  0.2097 -0.3037
    3CHTO   O69  946   5.939  -0.200   2.101 -0.0243 -0.1754 -0.4356
    3CHTO  H169  947   6.027  -0.225   2.123 -1.0467 -0.6890  3.4565
    3CHTO   O63  948   5.682  -0.392   1.673  0.0949  0.0479  0.0393
    3CHTO   C96  949   5.648  -0.527   1.739  0.1314  0.7901 -0.0311
    3CHTO  H183  950   5.673  -0.601   1.664 -0.9215 -1.2801  1.6174
    3CHTO   C98  951   5.496  -0.546   1.784 -0.5938 -0.0380  0.7702
    3CHTO  H185  952   5.469  -0.473   1.861 -2.1129  3.1135 -2.6172
    3CHTO   O67  953   5.413  -0.506   1.672  0.0359 -0.2448 -0.0603
    3CHTO  H167  954   5.328  -0.545   1.685  0.3496 -1.0167 -0.3342
    3CHTO  C102  955   5.472  -0.701   1.822  1.2062  0.0563 -0.3997
    3CHTO  H189  956   5.498  -0.759   1.732 -0.9621 -2.0218  0.2635
    3CHTO   N18  957   5.334  -0.744   1.860 -0.3880 -0.7157 -0.6658
    3CHTO  H176  958   5.292  -0.818   1.793 -2.0142 -1.4712  1.1398
    3CHTO  H177  959   5.330  -0.780   1.961 -0.8165 -0.0493 -0.4443
    3CHTO  C105  960   5.573  -0.735   1.936 -1.0169 -0.6655 -0.3523
    3CHTO  H192  961   5.546  -0.672   2.021 -0.6615  0.3438 -0.9848
    3CHTO   O65  962   5.708  -0.703   1.903  0.5346 -0.1731 -0.4901
    3CHTO  C100  963   5.735  -0.570   1.863  0.3026  0.1651  0.1901
    3CHTO  H187  964   5.716  -0.502   1.948  0.4129 -0.5510  0.7866
    3CHTO  C107  965   5.887  -0.578   1.832  0.6770 -0.0877  0.1228
    3CHTO   O70  966   5.972  -0.584   1.948  0.1009 -0.2423  0.4567
    3CHTO  H170  967   6.028  -0.659   1.937  1.4818  0.6960  1.0262
    3CHTO   O57  968   5.561  -0.902   1.970  0.2149 -0.0453 -0.2514
    3CHTO   C85  969   5.572  -0.944   2.108  0.0101 -0.4702  0.6031
    3CHTO  H157  970   5.586  -1.053   2.090  4.9457  0.3015 -0.8487
    3CHTO   C83  971   5.436  -0.911   2.182  0.4057 -0.3524 -0.0340
    3CHTO  H155  972   5.353  -0.964   2.136  1.2332 -2.9510  1.3699
    3CHTO   O56  973   5.412  -0.770   2.178  0.0139 -0.5625  0.2377
    3CHTO  H135  974   5.324  -0.760   2.208  1.1413  1.6232  2.9814
    3CHTO   C81  975   5.450  -0.956   2.329  0.1464 -0.4234  0.2332
    3CHTO  H153  976   5.489  -1.058   2.328 -0.2684 -0.6016  1.5392
    3CHTO   N14  977   5.317  -0.964   2.400 -0.0403  0.4604  0.4358
    3CHTO  H141  978   5.290  -0.865   2.430 -1.5439 -0.2325  1.4123
    3CHTO  H142  979   5.335  -1.024   2.487  1.7895 -0.0367 -0.2519
    3CHTO   C79  980   5.555  -0.874   2.404  0.6888  0.4638 -0.2537
    3CHTO  H151  981   5.571  -0.922   2.500  0.0103 -0.2462 -0.4904
    3CHTO   O52  982   5.682  -0.892   2.334  0.4107  0.7184  0.1199
    3CHTO   C86  983   5.693  -0.884   2.185  0.7158  0.7149 -0.0752
    3CHTO  H158  984   5.707  -0.775   2.173 -0.9323  1.0565  1.0185
    3CHTO   C90  985   5.821  -0.953   2.143 -0.5787 -0.1506  0.2490
    3CHTO   O60  986   5.838  -0.956   2.004  0.1725  0.2588  0.2804
    3CHTO  H138  987   5.811  -1.036   1.963  1.7727 -0.3087  0.3079
    3CHTO   O50  988   5.526  -0.730   2.416 -0.1379  1.3514  0.3337
    3CHTO   C73  989   5.554  -0.630   2.508  0.0738  0.3337 -0.4996
    3CHTO  H145  990   5.653  -0.652   2.551  1.1261  1.1123 -2.4479
    3CHTO   C74  991   5.454  -0.642   2.630 -0.7976 -0.0368 -0.0019
    3CHTO  H146  992   5.456  -0.746   2.665 -1.8830 -0.2244 -0.4824
    3CHTO   O54  993   5.502  -0.554   2.732  0.3292 -0.1133 -0.1589
    3CHTO  H133  994   5.563  -0.610   2.776 -1.3625 -1.2784  0.7715
    3CHTO   C75  995   5.305  -0.603   2.585  0.0799  0.1045  0.1396
    3CHTO  H147  996   5.269  -0.682   2.519  0.6586 -0.6623  0.7384
    3CHTO   N13  997   5.203  -0.605   2.701 -0.2079  0.3077  0.6210
    3CHTO  H139  998   5.146  -0.515   2.718 -0.7198 -0.2918  2.1739
    3CHTO  H140  999   5.248  -0.646   2.790  0.5419 -0.7577 -0.2317
    3CHTO   C76 1000   5.309  -0.469   2.496 -0.5944  0.1078  0.4348
    3CHTO  H148 1001   5.323  -0.385   2.565 -1.4796 -0.1110  0.8803
    3CHTO   O49 1002   5.418  -0.461   2.395 -0.1451 -0.4002 -0.5063
    3CHTO   C77 1003   5.549  -0.493   2.443 -0.0306 -0.1843 -0.3306
    3CHTO  H149 1004   5.584  -0.418   2.515  1.1832 -0.8433 -0.2245
    3CHTO   C88 1005   5.660  -0.485   2.338  0.3698  0.4701  0.0411
    3CHTO   O58 1006   5.805  -0.487   2.401  0.5145 -0.8911 -0.5553
    3CHTO  H136 1007   5.823  -0.575   2.428  2.7725 -0.4623 -0.5416
    3CHTO   O51 1008   5.165  -0.452   2.418 -0.4671  0.3921  0.2646
    3CHTO   C78 1009   5.134  -0.313   2.342 -0.1245 -0.2102  0.1162
    3CHTO  H150 1010   5.225  -0.249   2.353  0.9606 -1.4853 -1.1853
    3CHTO   C80 1011   5.011  -0.244   2.411 -0.3310 -0.2309 -0.2780
    3CHTO  H152 1012   4.927  -0.315   2.401 -2.0510  1.7419 -0.1797
    3CHTO   O55 1013   5.047  -0.228   2.551 -0.2971  0.2397  0.3773
    3CHTO  H134 1014   4.998  -0.156   2.587  3.4039  2.8262  0.4415
    3CHTO   C84 1015   4.976  -0.109   2.348  0.1688  0.4611  0.7024
    3CHTO  H156 1016   5.054  -0.039   2.379  1.0866 -0.2535  0.0536
    3CHTO   N15 1017   4.849  -0.055   2.401 -0.1568  0.0267 -0.3686
    3CHTO  H143 1018   4.874   0.018   2.476  2.9371  1.1253 -2.3688
    3CHTO  H144 1019   4.787  -0.009   2.326 -0.9118 -2.2656 -1.1683
    3CHTO   C87 1020   4.973  -0.124   2.195 -0.5196  0.1440 -0.4565
    3CHTO  H159 1021   4.878  -0.175   2.180  0.3515 -1.9925  0.9824
    3CHTO   O53 1022   5.103  -0.224   2.126  0.4745 -0.1694  0.3165
    3CHTO   C82 1023   5.103  -0.345   2.194 -0.0455 -0.4524 -0.0374
    3CHTO  H154 1024   5.007  -0.397   2.187 -0.0807 -0.1754 -1.7808
    3CHTO   C89 1025   5.214  -0.435   2.125  0.0784 -0.1316  0.2661
    3CHTO   O59 1026   5.345  -0.370   2.126 -0.1546  0.4348 -0.3452
    3CHTO  H137 1027   5.397  -0.378   2.049 -0.2118 -0.1148 -0.3300
    3CHTO   O45 1028   4.969   0.020   2.124  0.0729 -0.1996  0.0864
    3CHTO   C67 1029   5.094   0.079   2.097 -0.6620  1.0716 -1.1280
    3CHTO  H124 1030   5.171   0.031   2.157 -0.0053  2.5892 -0.7245
    3CHTO   C65 1031   5.136   0.072   1.950  0.1207  0.1591 -0.3133
    3CHTO  H122 1032   5.045   0.080   1.889  0.3059  1.9332 -0.4062
    3CHTO   O44 1033   5.205  -0.051   1.925 -0.0257  0.8712  0.1180
    3CHTO  H102 1034   5.275  -0.059   1.988  1.1538  1.6843 -1.0560
    3CHTO   C63 1035   5.215   0.211   1.900 -0.1914  0.3140 -0.4862
    3CHTO  H120 1036   5.142   0.292   1.892  0.0471  0.7058  1.2340
    3CHTO   N11 1037   5.270   0.207   1.760 -0.1255  0.0290  0.2970
    3CHTO  H108 1038   5.343   0.129   1.768  0.9970  1.0728  0.3824
    3CHTO  H109 1039   5.308   0.297   1.716 -2.4877 -0.1863 -2.3145
    3CHTO   C61 1040   5.313   0.261   2.017 -0.3378  0.0817  0.2817
    3CHTO  H118 1041   5.352   0.361   1.990 -2.9792  0.6189 -1.7973
    3CHTO   O40 1042   5.234   0.278   2.142 -0.5725 -0.4939  0.6606
    3CHTO   C68 1043   5.093   0.228   2.146 -0.5285  0.2446  0.0883
    3CHTO  H125 1044   5.052   0.308   2.082  0.0151  0.7766  0.3937
    3CHTO   C72 1045   5.035   0.250   2.287 -0.7873 -0.3432  0.5402
    3CHTO   O48 1046   4.989   0.386   2.320 -0.3422 -0.4349  0.9188
    3CHTO  H105 1047   5.026   0.411   2.402  1.5902 -0.8090  0.1866
    3CHTO   O38 1048   5.425   0.172   2.034 -0.0386 -0.1076 -0.3691
    3CHTO   C55 1049   5.509   0.185   2.151 -0.0234 -0.8201  0.6280
    3CHTO  H112 1050   5.460   0.227   2.239  0.6128  1.2006  0.0449
    3CHTO   C56 1051   5.637   0.269   2.112 -0.3818 -0.2183  0.8276
    3CHTO  H113 1052   5.674   0.231   2.015  0.1717  2.3976 -0.0287
    3CHTO   O42 1053   5.594   0.404   2.083  0.0512 -0.0185  0.4952
    3CHTO  H100 1054   5.526   0.394   2.020  2.7688 -0.7184 -2.4946
    3CHTO   C57 1055   5.750   0.266   2.224  0.5224  0.4491 -0.6420
    3CHTO  H114 1056   5.705   0.308   2.314 -1.0469 -0.2953 -1.0632
    3CHTO   N10 1057   5.872   0.339   2.184  0.2312  0.2833 -0.4560
    3CHTO  H106 1058   5.856   0.443   2.206  0.5269  0.4758 -1.1450
    3CHTO  H107 1059   5.958   0.305   2.239  1.2710 -0.7538 -2.6383
    3CHTO   C58 1060   5.777   0.119   2.257 -0.4380 -0.7731 -0.1112
    3CHTO  H115 1061   5.817   0.067   2.168  2.4476  0.9007  0.1388
    3CHTO   O37 1062   5.652   0.058   2.303  0.0793  0.4444 -0.2808
    3CHTO   C59 1063   5.550   0.049   2.200  0.0347 -0.4095  0.6391
    3CHTO  H116 1064   5.590  -0.012   2.119 -0.5047 -0.8392  0.6955
    3CHTO   C70 1065   5.437  -0.023   2.280 -0.1671  0.3159  0.5256
    3CHTO   O46 1066   5.468  -0.154   2.318 -0.4431 -0.2619 -0.2530
    3CHTO  H103 1067   5.418  -0.195   2.385 -2.3986  1.3106 -0.6926
    3CHTO   O39 1068   5.892   0.116   2.386 -0.2348  0.0337  0.4252
    3CHTO   C60 1069   5.989   0.006   2.384  0.1805  0.6204 -0.0090
    3CHTO  H117 1070   5.954  -0.069   2.313 -0.4476  0.5440  0.3807
    3CHTO   C62 1071   6.128   0.066   2.338 -0.0876 -0.2333 -0.3066
    3CHTO  H119 1072   6.119   0.092   2.231  2.8536  1.9627 -0.1117
    3CHTO   O43 1073   6.159   0.193   2.409  0.0262  0.0033 -0.3643
    3CHTO  H101 1074   6.178   0.185   2.501 -1.2174 -0.7213 -0.1546
    3CHTO   C66 1075   6.243  -0.053   2.358 -0.1470 -0.3481  0.4180
    3CHTO  H123 1076   6.207  -0.133   2.293  2.0505  0.7804 -2.2870
    3CHTO   N12 1077   6.375  -0.014   2.312 -0.2287  0.1573  0.1717
    3CHTO  H110 1078   6.447  -0.084   2.351 -1.7951 -1.3969  0.3503
    3CHTO  H111 1079   6.385   0.002   2.205 -0.2166  2.6034  0.5052
    3CHTO   C69 1080   6.243  -0.108   2.504  0.1980 -0.1031 -0.4136
    3CHTO  H126 1081   6.271  -0.019   2.564  0.3032  0.5576 -1.4389
    3CHTO   O41 1082   6.099  -0.161   2.536  0.2497  0.2409 -0.6356
    3CHTO   C64 1083   5.972  -0.059   2.521 -0.3759 -0.2841  0.5770
    3CHTO  H121 1084   5.971   0.013   2.606  1.4987 -1.4112  1.5975
    3CHTO   C71 1085   5.849  -0.153   2.526  0.1722  0.1800 -0.1830
    3CHTO   O47 1086   5.852  -0.231   2.648  0.6268 -0.2555  0.5258
    3CHTO  H104 1087   5.912  -0.303   2.644 -0.0770 -0.7427 -1.1936
    3CHTO   O34 1088   6.358  -0.243   2.520  0.5215  0.0855 -0.2807
    3CHTO   C49 1089   6.367  -0.373   2.428 -0.2805  0.1823  0.2260
    3CHTO   H91 1090   6.401  -0.335   2.332  1.7662 -0.4887  0.6583
    3CHTO   C47 1091   6.222  -0.437   2.404 -0.1191  1.0093 -0.0964
    3CHTO   H89 1092   6.168  -0.377   2.328  0.6292  0.5946 -0.9618
    3CHTO   O33 1093   6.145  -0.436   2.526  0.0038  0.0033 -0.1422
    3CHTO   H70 1094   6.207  -0.432   2.596 -0.3699  1.9477  0.1041
    3CHTO   C45 1095   6.227  -0.594   2.359 -0.7542  0.9036 -0.0208
    3CHTO   H87 1096   6.233  -0.648   2.454  0.9556  2.7561  0.9543
    3CHTO    N8 1097   6.105  -0.632   2.280  0.0391  0.1802 -0.2085
    3CHTO   H75 1098   6.034  -0.688   2.339 -1.3207  1.9125 -0.1298
    3CHTO   H76 1099   6.063  -0.549   2.225  0.5910  0.1505 -0.6782
    3CHTO   C43 1100   6.368  -0.613   2.280  0.0176  0.6781  0.6036
    3CHTO   H85 1101   6.372  -0.712   2.234  1.4811  0.6811  0.6888
    3CHTO   O29 1102   6.473  -0.598   2.380 -0.2455 -0.0815 -0.0333
    3CHTO   C50 1103   6.460  -0.492   2.476  0.8016  0.8194  0.1069
    3CHTO   H92 1104   6.419  -0.536   2.568  1.1086  1.3286  0.4913
    3CHTO   C54 1105   6.610  -0.452   2.506  0.2656  0.0818 -0.9224
    3CHTO   O36 1106   6.681  -0.415   2.389  0.0402  0.1343  0.2402
    3CHTO   H72 1107   6.644  -0.336   2.352 -0.7077 -0.6740 -0.7763
    3CHTO   O27 1108   6.394  -0.528   2.170 -0.1396  0.1798  0.4514
    3CHTO   C37 1109   6.503  -0.480   2.083 -0.0429  0.6155  0.1892
    3CHTO   H79 1110   6.564  -0.414   2.146  0.9116 -0.0108 -0.0720
    3CHTO   C38 1111   6.590  -0.603   2.024 -0.0756 -0.2152 -0.0372
    3CHTO   H80 1112   6.518  -0.678   1.989  1.4931 -1.8360  0.1949
    3CHTO   O31 1113   6.660  -0.662   2.138 -0.2394 -0.0901  0.0405
    3CHTO   H68 1114   6.605  -0.722   2.184 -2.1333  0.8471 -0.9197
    3CHTO   C39 1115   6.698  -0.557   1.911 -0.3287  0.0584 -0.7472
    3CHTO   H81 1116   6.773  -0.496   1.962  0.8746 -1.1832 -0.9979
    3CHTO    N7 1117   6.773  -0.664   1.842 -0.4074  0.1562 -0.4804
    3CHTO   H73 1118   6.824  -0.714   1.922  0.3683  2.8223  0.7472
    3CHTO   H74 1119   6.704  -0.739   1.806 -1.7619  1.1900 -0.0748
    3CHTO   C40 1120   6.631  -0.462   1.815  1.0061 -0.4118  0.4085
    3CHTO   H82 1121   6.554  -0.508   1.753 -2.3223  3.4494  1.4939
    3CHTO   O26 1122   6.571  -0.355   1.892  0.4501 -0.0861  0.6356
    3CHTO   C41 1123   6.450  -0.392   1.965  0.6485  0.2798 -0.0460
    3CHTO   H83 1124   6.387  -0.454   1.899 -1.1957  0.7760  1.2144
    3CHTO   C52 1125   6.376  -0.265   2.004 -0.8080  0.1610  0.5060
    3CHTO   O35 1126   6.246  -0.301   2.057  0.8391  0.0708 -0.2375
    3CHTO   H71 1127   6.247  -0.257   2.139  2.4288 -0.2353 -0.0801
    3CHTO   O28 1128   6.719  -0.381   1.734  0.3899 -0.1808 -0.2435
    3CHTO   C42 1129   6.685  -0.266   1.643 -0.0494  0.2483  0.2207
    3CHTO   H84 1130   6.772  -0.254   1.579  0.1662 -0.4904  0.3665
    3CHTO   C44 1131   6.665  -0.133   1.715  0.2207  0.4311 -0.6320
    3CHTO   H86 1132   6.581  -0.143   1.783 -0.0947 -1.0200 -1.1987
    3CHTO   O32 1133   6.792  -0.106   1.784  0.2955 -0.5623  0.1198
    3CHTO   H69 1134   6.786  -0.046   1.856  0.4426  0.1208 -0.4364
    3CHTO   C48 1135   6.623  -0.014   1.619  0.7143 -0.4287  0.3163
    3CHTO   H90 1136   6.707  -0.001   1.550  1.5775 -0.8758  1.2724
    3CHTO    N9 1137   6.597   0.117   1.690  0.1058  0.1633 -0.0589
    3CHTO   H77 1138   6.524   0.091   1.765 -0.0829 -1.3872 -0.7501
    3CHTO   H78 1139   6.691   0.145   1.736  0.6626 -0.8257 -0.5727
    3CHTO   C51 1140   6.500  -0.052   1.540  0.1466 -0.1244 -0.4454
    3CHTO   H93 1141   6.419  -0.071   1.610 -0.2493  2.7068 -0.0938
    3CHTO   O30 1142   6.530  -0.162   1.463  0.2820 -0.9360  0.1802
    3CHTO   C46 1143   6.568  -0.297   1.550 -0.3327 -0.4605  0.2482
    3CHTO   H88 1144   6.485  -0.328   1.612 -0.5765  0.5887  0.4508
    3CHTO   C53 1145   6.607  -0.413   1.449  0.6538  0.5516  0.1385
    3CHTO   O72 1146   6.491  -0.452   1.378 -0.1333  0.2613  0.0423
    3CHTO  H199 1147   6.512  -0.448   1.287 -0.2371 -0.8304 -0.0382
    3CHTO   O22 1148   6.464   0.038   1.437 -0.2719  0.1381  0.4082
    3CHTO   C31 1149   6.348   0.010   1.350  0.5716 -0.1042  0.3526
    3CHTO   H59 1150   6.336  -0.100   1.340 -0.7579 -0.1012  1.5905
    3CHTO   C29 1151   6.221   0.059   1.417 -0.4194  0.3714 -0.1857
    3CHTO   H57 1152   6.255   0.161   1.437  1.0717 -0.5205  2.0620
    3CHTO   O21 1153   6.213   0.003   1.554 -0.4138  0.1051  0.1641
    3CHTO   H37 1154   6.182   0.078   1.602 -1.4492  0.3685 -0.8844
    3CHTO   C27 1155   6.087   0.054   1.335  0.2601  0.0621 -0.0760
    3CHTO   H55 1156   6.063  -0.053   1.323  1.4795  0.1246 -3.4759
    3CHTO    N5 1157   5.974   0.124   1.402 -0.5286  0.4173 -0.1051
    3CHTO   H43 1158   5.884   0.118   1.342 -0.0947 -0.7966 -0.6491
    3CHTO   H44 1159   5.945   0.094   1.502 -1.3454  0.5998 -0.2777
    3CHTO   C25 1160   6.120   0.131   1.200 -0.1763  0.6322  0.2241
    3CHTO   H53 1161   6.154   0.233   1.226  0.9139  0.4553 -0.4755
    3CHTO   O17 1162   6.235   0.057   1.143  0.2273  0.0093 -0.0839
    3CHTO   C32 1163   6.362   0.065   1.205 -0.3833 -0.0141  0.1365
    3CHTO   H60 1164   6.385   0.171   1.214 -1.8506  0.3225  0.0337
    3CHTO   C36 1165   6.469  -0.001   1.118 -0.1221  0.4639 -0.1308
    3CHTO   O25 1166   6.446  -0.146   1.128 -0.0135  0.4552  0.1817
    3CHTO   H40 1167   6.367  -0.174   1.086 -0.6736  0.7450  1.2271
    3CHTO   O15 1168   6.012   0.124   1.105 -0.5239  0.1084  0.2132
    3CHTO   C19 1169   5.975   0.231   1.012 -0.1003  0.0101  0.0900
    3CHTO   H47 1170   5.901   0.186   0.944  2.0744 -0.4330 -2.0609
    3CHTO   C20 1171   5.914   0.360   1.085 -0.0690 -0.3625 -0.0244
    3CHTO   H48 1172   5.988   0.402   1.155 -0.1726  1.6288 -1.0735
    3CHTO   O19 1173   5.797   0.312   1.152  0.5466  0.6265  0.2111
    3CHTO   H35 1174   5.793   0.359   1.234 -1.5095  3.5587 -1.4868
    3CHTO   C21 1175   5.876   0.473   0.977 -0.7691  0.6500  0.9224
    3CHTO   H49 1176   5.791   0.438   0.917  0.9674 -0.6171 -0.8735
    3CHTO    N4 1177   5.826   0.594   1.047 -0.1937 -0.1940 -0.3777
    3CHTO   H41 1178   5.734   0.630   1.004 -0.1276 -1.4223 -1.5802
    3CHTO   H42 1179   5.896   0.675   1.059  0.0973 -0.6449  0.9756
    3CHTO   C22 1180   5.994   0.508   0.881  0.0872 -0.1073 -0.3101
    3CHTO   H50 1181   6.070   0.556   0.941 -1.5228  1.1230  0.7708
    3CHTO   O14 1182   6.042   0.384   0.833 -0.4109  0.0763  0.3361
    3CHTO   C23 1183   6.088   0.282   0.919 -0.1701 -0.0021  0.6579
    3CHTO   H51 1184   6.169   0.331   0.976 -1.3802  2.2800  0.4782
    3CHTO   C34 1185   6.149   0.173   0.835  0.2337 -0.6208  0.0820
    3CHTO   O23 1186   6.259   0.226   0.758  0.7561 -0.0374  0.3317
    3CHTO   H38 1187   6.233   0.301   0.708 -0.6992 -0.7335  0.0144
    3CHTO   O16 1188   5.946   0.581   0.765 -0.6024 -0.2477 -0.1875
    3CHTO   C24 1189   6.046   0.706   0.724  0.1249 -0.3742 -0.3085
    3CHTO   H52 1190   6.128   0.717   0.796 -0.3927  1.1445  0.0733
    3CHTO   C26 1191   5.973   0.844   0.715 -0.4637 -0.0829  0.0011
    3CHTO   H54 1192   5.888   0.836   0.644  0.0876 -0.5537 -0.6068
    3CHTO   O20 1193   5.924   0.871   0.850  0.2287  0.0701  0.6507
    3CHTO   H36 1194   5.860   0.812   0.885  0.7722 -0.3363  0.9596
    3CHTO   C30 1195   6.062   0.956   0.670  0.1180  0.7449 -0.0375
    3CHTO   H58 1196   6.137   0.985   0.745  0.8018 -0.5962 -0.1894
    3CHTO    N6 1197   5.989   1.083   0.644 -0.1660 -0.1628  0.3650
    3CHTO   H45 1198   5.911   1.078   0.569  2.1859 -1.4379 -2.0730
    3CHTO   H46 1199   6.055   1.166   0.623 -0.2356  0.3485  2.1292
    3CHTO   C33 1200   6.139   0.904   0.543  0.2107  0.0323  0.1037
    3CHTO   H61 1201   6.068   0.899   0.459 -0.8948  0.7309  0.9836
    3CHTO   O18 1202   6.203   0.780   0.559  0.3824 -0.1715 -0.2238
    3CHTO   C28 1203   6.112   0.676   0.588  0.0038  0.1369  0.4516
    3CHTO   H56 1204   6.038   0.677   0.508  0.8435  0.8949 -0.3401
    3CHTO   C35 1205   6.188   0.542   0.582 -0.0382 -0.1730  0.2332
    3CHTO   O24 1206   6.237   0.519   0.447  0.2583 -0.0126  0.1870
    3CHTO   H39 1207   6.274   0.433   0.444  0.7166  0.1478  0.9237
    3CHTO    O9 1208   6.235   1.000   0.495 -0.1802 -0.1866  0.3208
    3CHTO   C13 1209   6.366   1.001   0.593  0.3737  0.5519  0.2130
    3CHTO   H26 1210   6.347   0.945   0.687 -0.8201 -0.2004 -0.4585
    3CHTO   C11 1211   6.415   1.150   0.615 -0.3060  0.2693 -0.4259
    3CHTO   H24 1212   6.339   1.207   0.671  1.3397  1.0021  1.1241
    3CHTO    O8 1213   6.431   1.207   0.484  0.2436  0.6740  0.1692
    3CHTO    H3 1214   6.354   1.205   0.429  0.3850  0.4902 -0.0239
    3CHTO    C9 1215   6.543   1.164   0.706  0.8234  0.2622 -0.1928
    3CHTO   H22 1216   6.515   1.111   0.798 -1.6890  1.0245 -0.4909
    3CHTO    N2 1217   6.581   1.299   0.757 -0.0395 -0.0077  0.4618
    3CHTO   H10 1218   6.663   1.298   0.828 -1.4399 -0.9420  2.1073
    3CHTO   H11 1219   6.490   1.343   0.793 -1.1334 -1.0371 -0.9855
    3CHTO    C7 1220   6.658   1.085   0.627 -0.1859 -0.1734  0.8026
    3CHTO   H20 1221   6.743   1.073   0.697  0.2595  0.8931  0.4465
    3CHTO    O4 1222   6.626   0.950   0.583  0.8022  0.4153  0.6412
    3CHTO   C14 1223   6.491   0.909   0.542 -0.6375  0.9052  0.0991
    3CHTO   H27 1224   6.477   0.810   0.590  0.0350  0.2013 -1.1510
    3CHTO   C18 1225   6.484   0.888   0.392  0.4300 -0.1053  0.5549
    3CHTO   O13 1226   6.584   0.794   0.354 -0.3537  0.4775 -0.4165
    3CHTO    H7 1227   6.605   0.790   0.262  1.8964 -2.2360  0.1710
    3CHTO    O2 1228   6.708   1.174   0.505 -0.7797 -0.6883  0.7664
    3CHTO    C1 1229   6.817   1.118   0.432 -0.8228 -0.2114 -0.2127
    3CHTO   H14 1230   6.794   1.011   0.417 -0.1571 -0.2302 -1.1286
    3CHTO    C2 1231   6.956   1.124   0.516  0.0878 -0.0237 -0.2007
    3CHTO   H15 1232   6.968   1.221   0.568  0.3309 -1.1267  1.8679
    3CHTO    O6 1233   6.958   1.030   0.628 -0.0602  0.4849  0.5087
    3CHTO    H1 1234   7.039   1.032   0.675  0.1992 -1.3972  0.1929
    3CHTO    C3 1235   7.080   1.093   0.430 -0.1873  0.6268 -0.2365
    3CHTO   H16 1236   7.093   0.985   0.412 -2.2646  0.1353  0.9753
    3CHTO    N1 1237   7.208   1.142   0.494  0.3599 -0.1429 -0.5350
    3CHTO    H8 1238   7.252   1.217   0.431  1.7298  0.9324  1.6122
    3CHTO    H9 1239   7.274   1.061   0.521  0.8822  0.1948 -0.7847
    3CHTO    C4 1240   7.068   1.160   0.285 -0.0695 -0.0268  0.6783
    3CHTO   H17 1241   7.099   1.264   0.296  2.7264 -0.8897  1.4075
    3CHTO    O1 1242   6.942   1.149   0.218  0.3197 -0.7394  0.2266
    3CHTO    C5 1243   6.826   1.186   0.292  0.0764 -0.9966 -0.4266
    3CHTO   H18 1244   6.832   1.295   0.302 -0.3858 -0.9783 -0.3284
    3CHTO   C16 1245   6.698   1.148   0.204 -0.1585 -0.1329 -0.2030
    3CHTO   O11 1246   6.693   1.219   0.081 -0.3735 -0.2235 -0.0516
    3CHTO    H5 1247   6.746   1.168   0.022 -1.1285 -1.9335  0.7131
    3CHTO    O3 1248   7.153   1.079   0.199 -0.2291 -0.5662  0.2077
    3CHTO    C6 1249   7.204   1.113   0.060  0.6110 -0.2629 -0.0403
    3CHTO   H19 1250   7.128   1.147  -0.011  0.6646 -0.9173 -0.4201
    3CHTO    C8 1251   7.312   1.228   0.066 -0.3865  0.1376 -0.4613
    3CHTO   H21 1252   7.390   1.196   0.135  0.6154  0.4201 -1.4526
    3CHTO    O7 1253   7.238   1.347   0.111  1.1864 -0.0147 -0.2307
    3CHTO    H2 1254   7.294   1.411   0.150  0.0296 -0.0349  1.5681
    3CHTO   C12 1255   7.387   1.244  -0.073 -0.1067  0.2660 -0.2627
    3CHTO   H25 1256   7.316   1.280  -0.151  0.9553  0.9974 -0.8882
    3CHTO    N3 1257   7.495   1.351  -0.063 -0.7176 -0.7376  0.5478
    3CHTO   H12 1258   7.537   1.356   0.037  0.5729  0.4732 -0.0252
    3CHTO   H13 1259   7.475   1.447  -0.108  0.2876 -0.6850  0.1979
    3CHTO   C15 1260   7.432   1.108  -0.130 -0.0056  0.0922 -0.0510
    3CHTO   H28 1261   7.514   1.065  -0.072  2.2479  3.8105 -0.3036
    3CHTO   O10 1262   7.451   1.125  -0.282 -0.2635 -0.1367 -0.1429
    3CHTO    H4 1263   7.368   1.140  -0.323 -0.0135  1.6440 -0.0470
    3CHTO    O5 1264   7.324   1.012  -0.128 -0.1576 -0.4833 -0.5600
    3CHTO   C10 1265   7.266   0.983  -0.003 -0.7121 -0.5628  0.8703
    3CHTO   H23 1266   7.351   0.956   0.059  0.2406  0.2399 -0.0431
    3CHTO   C17 1267   7.171   0.862  -0.017 -0.6425  0.4416 -0.1520
    3CHTO   O12 1268   7.240   0.735  -0.026  0.4901  0.0972  0.2144
    3CHTO    H6 1269   7.308   0.729   0.038 -0.6432 -3.0811  1.1808
    4CHTO  H203 1270   5.945   6.378   2.521 -1.9029 -0.2174 -1.6614
    4CHTO   O82 1271   5.887   6.400   2.591  0.2359  0.3500  0.0030
    4CHTO  C123 1272   5.859   6.538   2.601  0.0334 -0.2354 -0.0480
    4CHTO  H227 1273   5.781   6.551   2.678 -2.1821  1.0883 -2.4264
    4CHTO   O77 1274   5.979   6.589   2.648 -0.0106 -0.0046  0.1287
    4CHTO  C118 1275   5.985   6.728   2.687 -0.1364  0.2345  0.0625
    4CHTO  H222 1276   5.907   6.745   2.762  0.2174 -0.3051  0.5553
    4CHTO  C125 1277   6.127   6.765   2.751  0.0015 -0.5268 -0.2127
    4CHTO   O84 1278   6.165   6.673   2.852 -0.1988  0.1730  0.3667
    4CHTO  H205 1279   6.204   6.605   2.801  2.3300  1.9008 -0.1283
    4CHTO  C114 1280   5.953   6.816   2.569 -0.5364 -0.0328  0.8398
    4CHTO  H218 1281   6.037   6.812   2.500 -1.7828 -3.1104 -0.6045
    4CHTO  C116 1282   5.820   6.769   2.492  0.1288 -0.0580 -0.1345
    4CHTO  H220 1283   5.731   6.799   2.551 -0.5695 -1.3324 -0.5101
    4CHTO   O79 1284   5.820   6.844   2.370  0.0253 -0.2860  0.0488
    4CHTO  H201 1285   5.781   6.801   2.297 -2.0959  1.1863  0.2822
    4CHTO  C120 1286   5.822   6.615   2.467  0.1916 -0.0467 -0.4926
    4CHTO  H224 1287   5.901   6.595   2.391  2.1923  0.8619  1.3054
    4CHTO   N21 1288   5.693   6.564   2.417  0.3399 -0.5808  0.9590
    4CHTO  H211 1289   5.689   6.574   2.309  1.2729  1.4114  1.0823
    4CHTO  H212 1290   5.607   6.611   2.464 -0.2107 -1.3683  0.7405
    4CHTO   O75 1291   5.945   6.952   2.614  0.2628 -0.2069 -0.5505
    4CHTO  C112 1292   5.991   7.060   2.496  0.3238  0.7067  0.1041
    4CHTO  H216 1293   5.991   7.009   2.399  2.9477  0.7582  0.0438
    4CHTO   O73 1294   6.123   7.102   2.531 -0.1672 -0.1515  0.3394
    4CHTO  C113 1295   6.177   7.195   2.437  0.3094  0.1044  0.0194
    4CHTO  H217 1296   6.177   7.147   2.337 -0.1992  0.2305 -0.0398
    4CHTO  C124 1297   6.327   7.219   2.470 -0.1076  0.2144 -0.4446
    4CHTO   O83 1298   6.409   7.295   2.376  0.2315 -0.1148  0.4585
    4CHTO  H204 1299   6.392   7.261   2.291  0.8236  0.2888  0.1729
    4CHTO  C109 1300   6.093   7.323   2.444 -0.0119  0.1994 -0.5144
    4CHTO  H213 1301   6.089   7.354   2.549 -0.5039  2.6487 -1.2251
    4CHTO  C110 1302   5.943   7.299   2.401  0.5932 -0.2214  0.4255
    4CHTO  H214 1303   5.942   7.269   2.296  0.1799  0.7760  0.1421
    4CHTO   O78 1304   5.867   7.423   2.407 -0.2648  0.0785 -0.3362
    4CHTO  H200 1305   5.822   7.436   2.326  1.2288  1.0878 -1.0185
    4CHTO  C111 1306   5.895   7.190   2.499 -0.0024 -0.1077  0.2908
    4CHTO  H215 1307   5.898   7.235   2.599  1.3681 -0.6343  0.4883
    4CHTO   N19 1308   5.750   7.149   2.476 -0.2239  0.1007 -0.1824
    4CHTO  H207 1309   5.689   7.235   2.453 -1.7899 -0.8412  0.3732
    4CHTO  H208 1310   5.749   7.082   2.391 -2.1559  1.3959 -1.2124
    4CHTO   O74 1311   6.146   7.434   2.362  0.0525 -0.1135 -0.2229
    4CHTO  C115 1312   6.131   7.571   2.430 -0.3490 -0.2046 -0.3118
    4CHTO  H219 1313   6.029   7.589   2.463 -0.2395  1.2632 -0.7795
    4CHTO   O76 1314   6.219   7.576   2.562 -0.5060 -0.0688 -0.3961
    4CHTO  C122 1315   6.354   7.616   2.540  0.3439  0.0650 -0.2993
    4CHTO  H226 1316   6.403   7.535   2.486 -1.7249 -0.2615 -1.7451
    4CHTO  C126 1317   6.418   7.615   2.682  0.0694  0.0236  0.1433
    4CHTO   O85 1318   6.538   7.682   2.698 -0.0748  0.2788  0.6562
    4CHTO  H206 1319   6.560   7.693   2.789 -0.3015  0.6851  0.6627
    4CHTO  C121 1320   6.366   7.755   2.462  0.3481 -0.5872  0.0547
    4CHTO  H225 1321   6.402   7.835   2.531  0.1382 -1.0320  0.6871
    4CHTO   O81 1322   6.458   7.732   2.355  0.0465  0.4602 -0.6104
    4CHTO  H202 1323   6.425   7.662   2.302  0.9219 -0.6507  0.2888
    4CHTO  C119 1324   6.233   7.799   2.403  0.6382 -0.0084  0.2296
    4CHTO  H223 1325   6.176   7.819   2.494 -1.8643  0.8400 -1.4573
    4CHTO  C117 1326   6.157   7.683   2.324  1.1235 -0.0941 -0.3359
    4CHTO  H221 1327   6.217   7.641   2.243 -0.9229 -1.2315 -1.3236
    4CHTO   N20 1328   6.029   7.726   2.256  0.5958 -0.2720  0.7703
    4CHTO  H209 1329   6.033   7.739   2.149 -2.5375  2.2063  0.8890
    4CHTO  H210 1330   5.990   7.814   2.305 -1.3333 -1.1571  0.8805
    4CHTO   O80 1331   6.218   7.949   2.327 -0.0617  0.2736 -0.1371
    4CHTO  C103 1332   6.226   8.085   2.415  0.2797 -0.3681  0.0872
    4CHTO  H190 1333   6.198   8.064   2.519 -0.1590  3.2356  0.7717
    4CHTO  C101 1334   6.361   8.154   2.416 -0.1955  0.2849 -0.0844
    4CHTO  H188 1335   6.405   8.151   2.317  0.1768 -0.3893  0.0972
    4CHTO   O68 1336   6.458   8.077   2.504  0.4373  0.1225  0.4147
    4CHTO  H168 1337   6.509   8.127   2.564  0.4218 -0.3563  0.8329
    4CHTO   C99 1338   6.344   8.300   2.474 -0.0365 -0.5453 -0.4070
    4CHTO  H186 1339   6.331   8.288   2.584 -0.0687  0.7129 -0.2743
    4CHTO   N17 1340   6.465   8.385   2.455  0.2019 -0.5513  0.1442
    4CHTO  H174 1341   6.545   8.349   2.518 -1.9960 -1.6885  2.3962
    4CHTO  H175 1342   6.492   8.394   2.351 -0.1760  0.2997  0.1156
    4CHTO   C97 1343   6.215   8.377   2.424 -0.6777 -0.1936 -0.2717
    4CHTO  H184 1344   6.226   8.410   2.320 -4.4164  1.7182 -0.1333
    4CHTO   O64 1345   6.097   8.294   2.440 -0.6119 -0.0889  0.4379
    4CHTO  C104 1346   6.107   8.177   2.353 -0.1475  0.2051  0.1486
    4CHTO  H191 1347   6.131   8.195   2.248  0.6292  0.7590  0.4155
    4CHTO  C108 1348   5.961   8.115   2.356 -0.3112  0.2352  0.0175
    4CHTO   O71 1349   5.934   8.030   2.241  0.1643  0.5086  0.4844
    4CHTO  H171 1350   5.840   8.025   2.235  0.1219  0.5777  1.0540
    4CHTO   O62 1351   6.178   8.490   2.507 -0.2483 -0.5549 -0.2449
    4CHTO   C91 1352   6.221   8.621   2.472  0.1520 -0.1177 -0.3975
    4CHTO  H178 1353   6.304   8.619   2.402  1.6141  0.1661  1.2817
    4CHTO   C92 1354   6.270   8.701   2.601 -0.8720 -0.6657  0.5190
    4CHTO  H179 1355   6.185   8.723   2.667 -2.9351 -2.6067 -1.4000
    4CHTO   O66 1356   6.360   8.622   2.681  0.3172 -0.0303 -0.5058
    4CHTO  H166 1357   6.433   8.586   2.634  0.7404  0.9268 -0.6068
    4CHTO   C93 1358   6.342   8.833   2.551 -0.5264  1.0721  0.0976
    4CHTO  H180 1359   6.431   8.808   2.491 -0.1250  2.5629  0.0319
    4CHTO   N16 1360   6.389   8.918   2.656 -0.4011 -0.0681  0.5836
    4CHTO  H172 1361   6.318   8.974   2.716 -0.5226  0.7978 -0.3542
    4CHTO  H173 1362   6.481   8.966   2.626 -1.1262  1.2783  0.4760
    4CHTO   C94 1363   6.249   8.916   2.455  0.5321  0.1657  0.4978
    4CHTO  H181 1364   6.160   8.953   2.505  0.0057 -0.8277  0.3167
    4CHTO   O61 1365   6.187   8.828   2.360  0.3144 -0.1136  0.4141
    4CHTO   C95 1366   6.113   8.714   2.410 -0.2044  0.0460 -0.2155
    4CHTO  H182 1367   6.038   8.747   2.481  1.8178  1.8626  1.1673
    4CHTO  C106 1368   6.038   8.649   2.283 -0.4868  0.0182  0.1718
    4CHTO   O69 1369   5.932   8.554   2.297  0.6722 -0.5565 -0.2307
    4CHTO  H169 1370   5.922   8.525   2.208  0.4052  0.0721 -0.4095
    4CHTO   O63 1371   6.333   9.036   2.356  0.3518 -0.1972  0.1701
    4CHTO   C96 1372   6.400   8.968   2.221 -0.0430  0.1749  0.2726
    4CHTO  H183 1373   6.383   8.860   2.219  1.5201 -0.0829  0.0486
    4CHTO   C98 1374   6.549   8.981   2.205  0.3060 -0.3259 -0.6707
    4CHTO  H185 1375   6.574   9.086   2.224 -1.9911  0.2818 -0.7971
    4CHTO   O67 1376   6.599   8.918   2.321 -0.2116  0.2063 -0.0248
    4CHTO  H167 1377   6.584   8.826   2.315  0.6694  0.0496  0.0193
    4CHTO  C102 1378   6.614   8.918   2.074 -0.0764 -0.0883  0.1077
    4CHTO  H189 1379   6.610   8.809   2.085 -0.1760 -0.2560 -1.4809
    4CHTO   N18 1380   6.757   8.947   2.062  0.2109 -0.0751  0.2441
    4CHTO  H176 1381   6.802   8.902   1.975 -1.7634  0.1565 -0.9311
    4CHTO  H177 1382   6.803   8.907   2.151  2.1247  1.1902 -0.1399
    4CHTO  C105 1383   6.535   8.979   1.954 -0.0816 -0.2186 -0.7361
    4CHTO  H192 1384   6.554   9.086   1.943  2.2193 -0.6282 -1.0760
    4CHTO   O65 1385   6.394   8.966   1.972 -0.3295 -0.3511 -0.1500
    4CHTO  C100 1386   6.341   9.032   2.088  0.3094  0.0267  0.5261
    4CHTO  H187 1387   6.352   9.141   2.082 -0.9172  0.1251  0.0065
    4CHTO  C107 1388   6.189   9.006   2.090  0.3826  0.1383 -0.2171
    4CHTO   O70 1389   6.129   9.044   1.969 -0.0327  0.3018  0.5615
    4CHTO  H170 1390   6.040   9.068   1.984 -0.9015 -1.9015 -0.8705
    4CHTO   O57 1391   6.599   8.894   1.822 -0.1400  0.0036 -0.2203
    4CHTO   C85 1392   6.528   8.786   1.761 -0.0348 -0.1347 -0.5270
    4CHTO  H157 1393   6.424   8.813   1.788  0.3516  1.2893 -0.3814
    4CHTO   C83 1394   6.562   8.645   1.818 -0.1642  1.2501  0.1709
    4CHTO  H155 1395   6.534   8.651   1.923 -2.0484 -0.0876 -0.2224
    4CHTO   O56 1396   6.706   8.630   1.813 -0.2167  0.3808 -0.5230
    4CHTO  H135 1397   6.742   8.574   1.879 -1.7148 -0.4632 -0.3862
    4CHTO   C81 1398   6.477   8.534   1.747 -0.2732 -0.8756 -0.1043
    4CHTO  H153 1399   6.373   8.557   1.768  0.3375  3.4647 -1.2767
    4CHTO   N14 1400   6.484   8.405   1.815  0.5191  0.0962 -0.2883
    4CHTO  H141 1401   6.577   8.359   1.790 -0.0728 -1.0038 -0.5216
    4CHTO  H142 1402   6.406   8.341   1.780 -1.0301  1.6085  0.3536
    4CHTO   C79 1403   6.504   8.527   1.593 -0.0957 -0.4946  0.3875
    4CHTO  H151 1404   6.427   8.466   1.546 -0.9222 -1.0420  2.4165
    4CHTO   O52 1405   6.477   8.671   1.548  0.7445 -0.3175  0.8695
    4CHTO   C86 1406   6.547   8.778   1.608 -1.0881  0.2676 -0.0793
    4CHTO  H158 1407   6.655   8.762   1.590 -1.1939 -2.4416  1.4963
    4CHTO   C90 1408   6.519   8.912   1.545  0.8805  0.1818 -0.2463
    4CHTO   O60 1409   6.583   8.930   1.421  0.1123 -0.4086  0.5160
    4CHTO  H138 1410   6.530   8.933   1.343  1.8444  0.7027 -0.6592
    4CHTO   O50 1411   6.625   8.459   1.554  0.6105 -0.3728  0.2664
    4CHTO   C73 1412   6.762   8.481   1.529  0.0651  0.4559 -0.2586
    4CHTO  H145 1413   6.803   8.542   1.611 -1.2972  0.0712  0.7262
    4CHTO   C74 1414   6.786   8.551   1.388 -0.7955  0.0440  0.3828
    4CHTO  H146 1415   6.739   8.650   1.397 -2.0401 -0.3438 -1.7173
    4CHTO   O54 1416   6.926   8.590   1.370 -0.2286  0.3854 -0.4492
    4CHTO  H133 1417   6.954   8.650   1.436  3.6207 -1.0512 -0.5987
    4CHTO   C75 1418   6.725   8.465   1.272  0.0958 -0.5975  0.3434
    4CHTO  H147 1419   6.619   8.452   1.298  0.3046 -1.1597  0.9304
    4CHTO   N13 1420   6.725   8.533   1.139  0.5837  0.2500 -0.3975
    4CHTO  H139 1421   6.629   8.579   1.122  0.6082  0.5608  0.2549
    4CHTO  H140 1422   6.797   8.615   1.135 -0.3621  1.1336  0.4379
    4CHTO   C76 1423   6.795   8.325   1.275 -1.1552  0.7618 -0.6005
    4CHTO  H148 1424   6.901   8.339   1.255 -1.0847  1.6725  0.3345
    4CHTO   O49 1425   6.780   8.267   1.413  0.2226 -0.6046  0.6570
    4CHTO   C77 1426   6.842   8.348   1.520 -0.3272  0.4476  0.1536
    4CHTO  H149 1427   6.948   8.372   1.512 -0.3198  0.2206 -0.4820
    4CHTO   C88 1428   6.821   8.254   1.640  0.0190  0.2334  0.0201
    4CHTO   O58 1429   6.871   8.323   1.775  0.2905  0.1032  0.1700
    4CHTO  H136 1430   6.797   8.355   1.822 -0.1900 -1.0994  0.2393
    4CHTO   O51 1431   6.722   8.224   1.187 -0.1645 -0.1509  0.5296
    4CHTO   C78 1432   6.828   8.092   1.143  0.2901 -0.5784 -0.5441
    4CHTO  H150 1433   6.910   8.069   1.214  0.4415 -0.8640 -0.8132
    4CHTO   C80 1434   6.896   8.137   1.015  0.0121 -0.8095 -0.1628
    4CHTO  H152 1435   6.818   8.147   0.937 -0.4759  1.0455  0.5519
    4CHTO   O55 1436   6.964   8.265   1.045  0.0572  0.1449 -0.0254
    4CHTO  H134 1437   6.969   8.321   0.970  1.1333 -0.7087 -0.6242
    4CHTO   C84 1438   7.001   8.038   0.959  0.5811  0.3809  0.1467
    4CHTO  H156 1439   7.082   8.048   1.031 -0.1822  0.5669  0.9951
    4CHTO   N15 1440   7.062   8.072   0.826 -0.0108 -0.3430  0.0786
    4CHTO  H143 1441   7.005   8.141   0.768  1.1632  0.0148 -0.6565
    4CHTO  H144 1442   7.158   8.114   0.849 -0.0152  0.3915 -1.2108
    4CHTO   C87 1443   6.944   7.892   0.965  0.0086  0.4479  0.0931
    4CHTO  H159 1444   6.892   7.873   0.871 -1.2099 -0.7843  1.0019
    4CHTO   O53 1445   6.847   7.865   1.085 -0.4400  0.5910 -0.1146
    4CHTO   C82 1446   6.752   7.967   1.113 -0.1155  0.8014 -0.0595
    4CHTO  H154 1447   6.682   7.974   1.029 -0.4866  0.2387  0.2007
    4CHTO   C89 1448   6.676   7.925   1.242  0.7121 -0.2828  0.3883
    4CHTO   O59 1449   6.551   7.999   1.252 -0.5811 -0.0909 -0.5254
    4CHTO  H137 1450   6.573   8.090   1.263  2.5527 -0.6581 -1.6286
    4CHTO   O45 1451   7.073   7.780   0.977  0.2376 -0.2309  0.5467
    4CHTO   C67 1452   7.024   7.646   0.942  0.4352  0.2523 -0.1732
    4CHTO  H124 1453   6.918   7.632   0.966  0.5590 -0.4229 -0.0215
    4CHTO   C65 1454   7.045   7.634   0.787 -0.0388 -0.3606 -0.4873
    4CHTO  H122 1455   7.008   7.724   0.738 -0.1555  1.0066  2.0121
    4CHTO   O44 1456   6.956   7.528   0.743 -0.7966 -0.2008 -0.2292
    4CHTO  H102 1457   6.926   7.548   0.656 -1.2704 -1.3641 -0.3415
    4CHTO   C63 1458   7.191   7.617   0.742  0.1098 -0.1821  0.4907
    4CHTO  H120 1459   7.246   7.709   0.760 -1.0415  0.2939  1.5755
    4CHTO   N11 1460   7.216   7.601   0.594 -0.4623 -0.1317  0.4898
    4CHTO  H108 1461   7.193   7.502   0.560  0.3431 -0.1941  0.1124
    4CHTO  H109 1462   7.150   7.663   0.537 -0.0447 -2.1951 -2.3815
    4CHTO   C61 1463   7.258   7.504   0.831 -0.2091  0.4037 -0.7231
    4CHTO  H118 1464   7.366   7.508   0.811 -0.0980 -0.4147 -0.3366
    4CHTO   O40 1465   7.246   7.532   0.976 -0.2164 -0.0212  0.2521
    4CHTO   C68 1466   7.103   7.536   1.026  0.4301 -0.0619  0.1725
    4CHTO  H125 1467   7.105   7.569   1.132  0.2923 -1.4957  0.6416
    4CHTO   C72 1468   7.036   7.397   1.032 -0.2413  0.0842 -0.0435
    4CHTO   O48 1469   7.071   7.321   1.147  0.1086 -0.1526  0.0209
    4CHTO  H105 1470   7.163   7.307   1.136 -0.0618 -1.2033 -0.0936
    4CHTO   O38 1471   7.203   7.376   0.792 -0.0890  0.4097  0.0690
    4CHTO   C55 1472   7.288   7.282   0.719  0.4247  0.2798 -0.5081
    4CHTO  H112 1473   7.372   7.340   0.677  1.2751 -0.0631  0.6768
    4CHTO   C56 1474   7.205   7.209   0.600  0.1533  0.0889  0.0115
    4CHTO  H113 1475   7.113   7.179   0.651  1.4061  0.7582  2.7999
    4CHTO   O42 1476   7.172   7.302   0.502 -0.0133 -0.1833 -0.2530
    4CHTO  H100 1477   7.127   7.262   0.431 -1.1695  0.0906  0.3214
    4CHTO   C57 1478   7.275   7.079   0.543 -0.9333 -0.5617 -0.3086
    4CHTO  H114 1479   7.361   7.118   0.488  0.1332 -1.0454  0.9896
    4CHTO   N10 1480   7.187   7.005   0.455 -0.6109 -0.0765  0.5130
    4CHTO  H106 1481   7.110   7.069   0.414 -0.2686  0.6475  0.9957
    4CHTO  H107 1482   7.138   6.917   0.496  1.1582 -1.3847 -0.0836
    4CHTO   C58 1483   7.327   6.996   0.658  0.2917  0.3439  0.2571
    4CHTO  H115 1484   7.246   6.954   0.722 -0.1960  0.7299 -0.1040
    4CHTO   O37 1485   7.408   7.078   0.744  0.3719  0.2925 -0.7023
    4CHTO   C59 1486   7.342   7.180   0.824 -0.1536 -0.0158  0.0662
    4CHTO  H116 1487   7.259   7.127   0.869  0.3208 -0.8411 -0.0190
    4CHTO   C70 1488   7.452   7.231   0.916 -0.4793 -0.6455  0.8330
    4CHTO   O46 1489   7.510   7.129   0.991 -0.1385  0.1202 -0.1790
    4CHTO  H103 1490   7.574   7.161   1.051  0.4754  0.3729 -0.9635
    4CHTO   O39 1491   7.451   6.878   0.620  0.1310  0.1473 -0.3503
    4CHTO   C60 1492   7.418   6.746   0.635 -0.1976  0.2734  0.4420
    4CHTO  H117 1493   7.319   6.741   0.680  0.4231  2.8284  2.1952
    4CHTO   C62 1494   7.397   6.664   0.508 -0.3554  0.3635 -0.5150
    4CHTO  H119 1495   7.324   6.723   0.450  0.3801  2.9994  1.1345
    4CHTO   O43 1496   7.522   6.661   0.438  0.2166  0.2435 -0.1698
    4CHTO  H101 1497   7.516   6.626   0.352  0.7062 -0.1575 -0.0417
    4CHTO   C66 1498   7.336   6.517   0.530  0.4570  0.2999  1.3430
    4CHTO  H123 1499   7.236   6.526   0.571  0.0333  1.6495  0.0531
    4CHTO   N12 1500   7.310   6.448   0.400  0.6516  0.6357  0.0595
    4CHTO  H110 1501   7.402   6.414   0.354  0.6845 -0.7452  1.1228
    4CHTO  H111 1502   7.255   6.516   0.336  0.6802  2.4883  1.9433
    4CHTO   C69 1503   7.428   6.437   0.625 -0.1318 -0.1122 -0.4254
    4CHTO  H126 1504   7.525   6.421   0.573  0.8919  3.1959  0.3807
    4CHTO   O41 1505   7.449   6.515   0.749  0.5128 -0.0410 -0.5880
    4CHTO   C64 1506   7.513   6.668   0.732 -0.5229  0.2835  0.4455
    4CHTO  H121 1507   7.608   6.658   0.675 -1.0222 -1.0777 -0.1673
    4CHTO   C71 1508   7.536   6.729   0.869 -0.1663  1.1125 -0.3834
    4CHTO   O47 1509   7.642   6.663   0.946  0.2227  0.0638  0.2762
    4CHTO  H104 1510   7.728   6.693   0.921  1.8290 -2.3739  2.5719
    4CHTO   O34 1511   7.360   6.292   0.675  0.0352 -0.1031  0.0283
    4CHTO   C49 1512   7.352   6.158   0.699  0.7858 -0.7377 -0.4283
    4CHTO   H91 1513   7.373   6.108   0.605  1.8451 -1.2298  0.0556
    4CHTO   C47 1514   7.202   6.125   0.739 -0.1690  0.0824  0.0910
    4CHTO   H89 1515   7.140   6.131   0.647 -0.3350 -1.5372  0.0881
    4CHTO   O33 1516   7.160   6.231   0.832  0.4059  0.1957  0.3519
    4CHTO   H70 1517   7.069   6.233   0.852 -0.0911  1.7359 -1.8385
    4CHTO   C45 1518   7.176   5.982   0.808  0.5063 -0.4584 -0.3998
    4CHTO   H87 1519   7.173   5.991   0.917  0.8999  0.5195 -0.4596
    4CHTO    N8 1520   7.043   5.934   0.772 -0.5100  0.0176 -0.2494
    4CHTO   H75 1521   7.048   5.921   0.665 -0.1623  0.9620 -0.3567
    4CHTO   H76 1522   6.980   6.020   0.790 -0.3615  0.0108  0.3214
    4CHTO   C43 1523   7.302   5.878   0.778  0.8691  0.4899  0.1782
    4CHTO   H85 1524   7.292   5.782   0.829  0.4581  0.0530 -0.7131
    4CHTO   O29 1525   7.424   5.946   0.820 -0.1431 -0.8161  0.6281
    4CHTO   C50 1526   7.440   6.093   0.805 -0.5843  0.5008 -0.6032
    4CHTO   H92 1527   7.429   6.150   0.898  0.6811 -0.7300  0.3116
    4CHTO   C54 1528   7.588   6.122   0.784 -0.1164 -0.3824 -0.3230
    4CHTO   O36 1529   7.663   6.097   0.907 -0.2491 -0.4443 -0.3059
    4CHTO   H72 1530   7.655   6.176   0.957 -1.7617 -0.1183 -1.0319
    4CHTO   O27 1531   7.313   5.844   0.638  0.2492 -0.5559  0.0107
    4CHTO   C37 1532   7.383   5.767   0.541  0.9790  0.2337  0.5499
    4CHTO   H79 1533   7.354   5.792   0.438 -3.7748 -0.5495  1.5489
    4CHTO   C38 1534   7.536   5.780   0.547  0.7971 -0.3281  0.1482
    4CHTO   H80 1535   7.560   5.778   0.654  0.1716 -0.9387  0.2836
    4CHTO   O31 1536   7.563   5.914   0.490 -0.2871  0.3368 -0.3360
    4CHTO   H68 1537   7.599   5.970   0.556  0.9462 -0.6975 -0.1064
    4CHTO   C39 1538   7.620   5.669   0.468 -0.1092 -0.5600 -0.4469
    4CHTO   H81 1539   7.608   5.681   0.360  1.1259 -1.7466 -0.7319
    4CHTO    N7 1540   7.761   5.684   0.511  0.6275 -0.9560  0.3624
    4CHTO   H73 1541   7.814   5.604   0.462  0.6644 -0.6634 -0.0762
    4CHTO   H74 1542   7.802   5.777   0.474 -0.1574  0.1623  2.2214
    4CHTO   C40 1543   7.567   5.532   0.514 -0.3121  0.2988 -0.0140
    4CHTO   H82 1544   7.574   5.526   0.622  0.5707 -1.2943 -0.1414
    4CHTO   O26 1545   7.427   5.535   0.468  0.1087  0.4205 -0.4420
    4CHTO   C41 1546   7.342   5.617   0.559  0.3250 -0.1400 -0.1105
    4CHTO   H83 1547   7.363   5.590   0.664  2.0966 -0.2327 -0.4599
    4CHTO   C52 1548   7.190   5.600   0.536 -0.2787 -0.0632  0.9356
    4CHTO   O35 1549   7.145   5.447   0.541 -0.3137  0.3068 -0.5368
    4CHTO   H71 1550   7.072   5.440   0.483  0.4580 -2.1653 -1.2744
    4CHTO   O28 1551   7.629   5.418   0.458 -0.2433  0.2174 -0.2553
    4CHTO   C42 1552   7.604   5.281   0.511 -0.4343  0.3122  0.1804
    4CHTO   H84 1553   7.673   5.222   0.450 -0.8078 -0.2382  0.2829
    4CHTO   C44 1554   7.455   5.225   0.493  0.7586  0.1552 -0.5482
    4CHTO   H86 1555   7.386   5.287   0.550  1.0079 -1.4256  1.5366
    4CHTO   O32 1556   7.430   5.233   0.351  0.6597  0.3327 -0.3545
    4CHTO   H69 1557   7.496   5.191   0.300 -0.4319 -1.1797 -0.5382
    4CHTO   C48 1558   7.435   5.072   0.549 -0.5866  0.0851 -0.1716
    4CHTO   H90 1559   7.489   5.005   0.482  0.7433  1.1104 -0.1389
    4CHTO    N9 1560   7.289   5.029   0.537 -0.4618 -0.3474 -0.2543
    4CHTO   H77 1561   7.281   4.933   0.585  3.9035 -0.4621  0.4956
    4CHTO   H78 1562   7.261   5.027   0.432  1.6620 -0.6135 -0.8440
    4CHTO   C51 1563   7.480   5.058   0.698  0.1245 -0.7814 -0.0655
    4CHTO   H93 1564   7.414   5.111   0.767  1.8779 -1.6638  2.3777
    4CHTO   O30 1565   7.618   5.108   0.711  0.8669 -0.3711 -0.1096
    4CHTO   C46 1566   7.645   5.259   0.667 -0.4922  0.6932 -0.0314
    4CHTO   H88 1567   7.595   5.326   0.737  2.1638  0.5872  2.0480
    4CHTO   C53 1568   7.800   5.292   0.679  0.0979 -0.0463 -0.0677
    4CHTO   O72 1569   7.843   5.263   0.810  0.0193  0.0588 -0.0191
    4CHTO  H199 1570   7.780   5.300   0.868 -0.0101 -0.8446  0.5263
    4CHTO   O22 1571   7.477   4.920   0.741  0.0554 -0.2917  0.3230
    4CHTO   C31 1572   7.514   4.878   0.873 -0.3812 -0.2428  0.1681
    4CHTO   H59 1573   7.578   4.963   0.905  1.9923 -1.0882 -2.1687
    4CHTO   C29 1574   7.401   4.861   0.981  0.6424  0.2687  0.3529
    4CHTO   H57 1575   7.346   4.771   0.950  2.2769  0.0556 -2.0031
    4CHTO   O21 1576   7.310   4.973   0.972 -0.3065  0.5849 -0.3576
    4CHTO   H37 1577   7.351   5.040   0.921  0.0343  0.0672 -0.7742
    4CHTO   C27 1578   7.466   4.848   1.122  0.0632  0.0031  0.2258
    4CHTO   H55 1579   7.503   4.948   1.149 -0.8029 -0.4601  3.2388
    4CHTO    N5 1580   7.371   4.802   1.230 -0.1236  0.1533  0.1373
    4CHTO   H43 1581   7.353   4.696   1.225  0.9211 -0.0046 -0.4327
    4CHTO   H44 1582   7.423   4.810   1.324  0.2855 -0.2866 -0.0503
    4CHTO   C25 1583   7.584   4.739   1.124 -0.1337  0.6099 -0.1381
    4CHTO   H53 1584   7.533   4.642   1.132  0.1381  0.3811 -1.0286
    4CHTO   O17 1585   7.667   4.741   1.008  0.5493 -0.3210  0.0482
    4CHTO   C32 1586   7.601   4.748   0.879 -0.0401  0.1583 -0.7949
    4CHTO   H60 1587   7.537   4.659   0.870 -1.5470  1.0828  0.5330
    4CHTO   C36 1588   7.697   4.736   0.764  0.4116 -0.0309  0.4113
    4CHTO   O25 1589   7.793   4.844   0.774  0.0859 -0.0039 -0.1589
    4CHTO   H40 1590   7.769   4.913   0.714 -3.1048  0.1484  1.2260
    4CHTO   O15 1591   7.681   4.743   1.252  0.2347  0.2326  0.1158
    4CHTO   C19 1592   7.751   4.850   1.315 -0.3200 -0.0146 -0.4092
    4CHTO   H47 1593   7.833   4.793   1.361 -1.9384 -2.2136 -0.1681
    4CHTO   C20 1594   7.800   4.962   1.219 -0.3263  1.0984 -0.5842
    4CHTO   H48 1595   7.716   4.995   1.155 -1.4171 -0.8403 -0.1961
    4CHTO   O19 1596   7.884   4.900   1.120  0.1678 -0.8220 -0.3565
    4CHTO   H35 1597   7.970   4.939   1.117 -1.1124  2.2123  0.6481
    4CHTO   C21 1598   7.869   5.082   1.298 -0.0762  0.5707  0.4772
    4CHTO   H49 1599   7.960   5.050   1.349  0.7022 -2.3327 -2.5593
    4CHTO    N4 1600   7.911   5.194   1.205 -0.0045 -0.9204  0.1667
    4CHTO   H41 1601   7.827   5.255   1.176  0.0507 -0.4407  0.9846
    4CHTO   H42 1602   7.976   5.257   1.264  0.9220 -0.3709 -1.4381
    4CHTO   C22 1603   7.770   5.132   1.405 -0.2475 -0.3884 -0.2926
    4CHTO   H50 1604   7.682   5.169   1.352 -2.3504 -1.0801  2.5984
    4CHTO   O14 1605   7.739   5.022   1.491  0.3687  0.0541 -0.6733
    4CHTO   C23 1606   7.668   4.913   1.435  0.3117 -0.3066  0.2808
    4CHTO   H51 1607   7.573   4.955   1.400  0.3755 -0.9981 -0.7210
    4CHTO   C34 1608   7.649   4.814   1.554 -0.0090  0.0939 -0.1300
    4CHTO   O23 1609   7.578   4.866   1.672 -0.5464 -0.8498  0.2482
    4CHTO   H38 1610   7.619   4.938   1.716  1.7811 -1.7964 -0.3329
    4CHTO   O16 1611   7.834   5.240   1.483  0.2952 -0.0538  0.1591
    4CHTO   C24 1612   7.726   5.339   1.536 -0.3637 -0.1452  0.1696
    4CHTO   H52 1613   7.628   5.292   1.541  0.0913 -1.3372 -1.8090
    4CHTO   C26 1614   7.722   5.461   1.437 -0.2699 -0.0209 -0.4845
    4CHTO   H54 1615   7.822   5.508   1.434  0.1189 -0.9758 -3.0370
    4CHTO   O20 1616   7.691   5.416   1.300  0.3282 -0.1578 -0.5515
    4CHTO   H36 1617   7.690   5.486   1.238  2.0968  2.1562  1.9003
    4CHTO   C30 1618   7.625   5.572   1.486 -0.0915  0.2551  0.4809
    4CHTO   H58 1619   7.521   5.546   1.464  0.9845 -2.2322 -2.0077
    4CHTO    N6 1620   7.646   5.703   1.418 -0.5930 -0.3415 -0.3667
    4CHTO   H45 1621   7.599   5.789   1.463 -0.1191 -0.0538 -0.4142
    4CHTO   H46 1622   7.615   5.700   1.314  0.3641 -2.5229 -0.6154
    4CHTO   C33 1623   7.630   5.599   1.643  0.1131 -0.0258  0.0042
    4CHTO   H61 1624   7.713   5.662   1.676  0.7148 -1.0133  0.4009
    4CHTO   O18 1625   7.638   5.475   1.716 -0.5630  0.3484 -0.0724
    4CHTO   C28 1626   7.751   5.396   1.679  0.4007  0.3958 -0.5032
    4CHTO   H56 1627   7.845   5.452   1.672  0.2591  0.5968 -0.8066
    4CHTO   C35 1628   7.775   5.293   1.798  0.5730 -0.3467 -0.7640
    4CHTO   O24 1629   7.686   5.188   1.786 -0.2680 -0.2710  0.3927
    4CHTO   H39 1630   7.728   5.112   1.749 -1.6637 -0.4011 -0.9895
    4CHTO    O9 1631   7.508   5.671   1.675  0.1197  0.6402 -0.3443
    4CHTO   C13 1632   7.487   5.699   1.833 -0.1026 -0.2087  0.3229
    4CHTO   H26 1633   7.508   5.601   1.880 -2.6356 -0.2222  1.5015
    4CHTO   C11 1634   7.343   5.753   1.867 -0.2555 -0.1223  0.5541
    4CHTO   H24 1635   7.263   5.690   1.826  0.9645 -0.6356 -1.1133
    4CHTO    O8 1636   7.316   5.878   1.798 -0.3745 -0.1201  0.2376
    4CHTO    H3 1637   7.353   5.879   1.711  1.3691 -0.4169  0.9531
    4CHTO    C9 1638   7.318   5.766   2.021  0.2949  0.2169 -0.0581
    4CHTO   H22 1639   7.332   5.666   2.064 -2.4080 -0.0715  0.1894
    4CHTO    N2 1640   7.184   5.809   2.062 -0.2715  0.3199 -0.0591
    4CHTO   H10 1641   7.116   5.740   2.013 -2.3164  0.2986  2.6933
    4CHTO   H11 1642   7.156   5.819   2.165 -1.9649  1.1192 -0.5685
    4CHTO    C7 1643   7.433   5.853   2.090 -0.0127  0.0091 -0.4457
    4CHTO   H20 1644   7.432   5.831   2.199  1.0805  0.7202 -0.2758
    4CHTO    O4 1645   7.562   5.805   2.042  0.5048 -0.0115  0.8284
    4CHTO   C14 1646   7.597   5.795   1.900  0.2352 -0.1250 -0.4091
    4CHTO   H27 1647   7.693   5.739   1.889  0.4561 -0.2667  1.8420
    4CHTO   C18 1648   7.614   5.937   1.832 -1.0397 -0.6965  0.0152
    4CHTO   O13 1649   7.732   6.007   1.879 -0.4325 -0.4733 -0.5569
    4CHTO    H7 1650   7.751   5.990   1.969 -2.0611 -0.7070 -0.2395
    4CHTO    O2 1651   7.427   6.014   2.056 -0.1361 -0.5084 -0.1852
    4CHTO    C1 1652   7.442   6.109   2.168 -0.4258 -0.3686  0.5060
    4CHTO   H14 1653   7.500   6.193   2.123  1.2078 -0.1783  2.8775
    4CHTO    C2 1654   7.510   6.065   2.303 -0.5412  0.0722  0.6558
    4CHTO   H15 1655   7.443   5.988   2.344  1.0132 -0.2732  2.6551
    4CHTO    O6 1656   7.635   6.005   2.269  0.2832  0.4287 -0.3118
    4CHTO    H1 1657   7.691   6.075   2.242  0.9004 -0.0484 -0.2902
    4CHTO    C3 1658   7.522   6.190   2.402 -0.0077 -0.6682 -0.5377
    4CHTO   H16 1659   7.602   6.256   2.366  0.8464  0.1927  2.7593
    4CHTO    N1 1660   7.563   6.152   2.545  0.1702  0.2126  0.0456
    4CHTO    H8 1661   7.628   6.065   2.540 -0.9344 -0.6799  0.7367
    4CHTO    H9 1662   7.607   6.238   2.591  0.7775 -0.9345  1.6623
    4CHTO    C4 1663   7.385   6.273   2.411 -0.4293  0.4211  0.4608
    4CHTO   H17 1664   7.311   6.228   2.478  0.1406  0.3716  1.0580
    4CHTO    O1 1665   7.325   6.289   2.277  0.1975 -0.1492  0.2463
    4CHTO    C5 1666   7.301   6.168   2.202 -0.1001 -0.3077 -0.0042
    4CHTO   H18 1667   7.247   6.096   2.263  0.9231 -0.0491  1.2079
    4CHTO   C16 1668   7.212   6.196   2.077  0.1537  0.0726 -0.1020
    4CHTO   O11 1669   7.083   6.235   2.114  0.0056  0.1915 -0.5537
    4CHTO    H5 1670   7.082   6.328   2.100  2.3880  0.3669  0.2353
    4CHTO    O3 1671   7.412   6.405   2.465 -0.1611 -0.2965  0.4288
    4CHTO    C6 1672   7.302   6.480   2.524 -0.4791  0.8165 -0.1555
    4CHTO   H19 1673   7.209   6.430   2.497 -1.4527  1.0937  2.5312
    4CHTO    C8 1674   7.321   6.508   2.680  0.3222  0.3771 -0.5730
    4CHTO   H21 1675   7.411   6.570   2.691  0.4520  0.1000 -0.0825
    4CHTO    O7 1676   7.334   6.381   2.749 -0.5416 -0.5437  0.4601
    4CHTO    H2 1677   7.412   6.337   2.722  0.2487  0.6254  0.8105
    4CHTO   C12 1678   7.195   6.590   2.737  0.0379  0.4445 -0.4641
    4CHTO   H25 1679   7.104   6.528   2.724  0.7892 -0.3800 -1.9228
    4CHTO    N3 1680   7.205   6.625   2.884 -0.9004  0.0771 -0.4651
    4CHTO   H12 1681   7.183   6.543   2.951  2.3126 -0.5778 -0.1236
    4CHTO   H13 1682   7.304   6.666   2.898 -1.6399  1.6454  0.3149
    4CHTO   C15 1683   7.172   6.721   2.654 -0.8022 -0.3149  0.6898
    4CHTO   H28 1684   7.247   6.798   2.669 -0.5005 -0.7478  1.4034
    4CHTO   O10 1685   7.040   6.768   2.659  0.5400 -0.0253  0.4759
    4CHTO    H4 1686   7.005   6.745   2.743 -0.9010  0.6806  0.0749
    4CHTO    O5 1687   7.175   6.692   2.509 -0.1642  0.6374 -0.5649
    4CHTO   C10 1688   7.296   6.624   2.465 -0.0001  0.1502 -0.2690
    4CHTO   H23 1689   7.376   6.683   2.508 -0.8787  0.9493  0.3001
    4CHTO   C17 1690   7.316   6.630   2.313  0.2106 -0.2183  0.1118
    4CHTO   O12 1691   7.420   6.716   2.267 -0.1546  0.4601  0.3161
    4CHTO    H6 1692   7.441   6.694   2.178 -0.4574 -0.0844  0.3774
    5CHTO  H203 1693   8.197   2.816   1.672 -0.5877 -0.1534  0.8742
    5CHTO   O82 1694   8.133   2.790   1.608  0.2115  0.9062 -0.3526
    5CHTO  C123 1695   8.034   2.704   1.669  0.3463  0.2522  1.2792
    5CHTO  H227 1696   8.083   2.608   1.690 -1.1457 -0.8641 -0.1634
    5CHTO   O77 1697   7.990   2.761   1.794 -0.3830 -0.1751 -0.4220
    5CHTO  C118 1698   7.923   2.665   1.878 -0.2888  0.1536 -0.4540
    5CHTO  H222 1699   7.986   2.575   1.890  0.9472  0.9565 -0.8056
    5CHTO  C125 1700   7.900   2.721   2.023  0.4987  0.2245 -0.0881
    5CHTO   O84 1701   8.030   2.767   2.061  0.2601 -0.9057  0.0794
    5CHTO  H205 1702   8.094   2.704   2.086 -1.1957 -3.0796 -1.5505
    5CHTO  C114 1703   7.789   2.630   1.813 -0.2106  0.7341  0.4782
    5CHTO  H218 1704   7.729   2.721   1.804  0.2271  0.9697 -0.0644
    5CHTO  C116 1705   7.810   2.567   1.666  0.0058 -0.2207  0.2431
    5CHTO  H220 1706   7.854   2.465   1.676 -1.1526 -0.8468 -0.9165
    5CHTO   O79 1707   7.677   2.541   1.607  0.3288 -0.3003 -0.3339
    5CHTO  H201 1708   7.658   2.450   1.622  0.7748 -0.4397 -0.5838
    5CHTO  C120 1709   7.902   2.667   1.584 -0.4117  0.6722 -0.0536
    5CHTO  H224 1710   7.840   2.757   1.567  0.4330  0.7977 -2.7679
    5CHTO   N21 1711   7.922   2.622   1.445 -0.4494  0.1444  0.6782
    5CHTO  H211 1712   7.864   2.680   1.375  2.1517  0.2202 -1.4889
    5CHTO  H212 1713   7.905   2.516   1.431  1.1938  0.0506 -0.7162
    5CHTO   O75 1714   7.729   2.539   1.902  0.2907 -0.1779 -0.0127
    5CHTO  C112 1715   7.564   2.577   1.915 -0.2494  0.0679  0.8263
    5CHTO  H216 1716   7.512   2.591   1.819 -0.2464 -0.4027  0.7577
    5CHTO   O73 1717   7.556   2.693   1.998  0.2091 -0.3526  0.4103
    5CHTO  C113 1718   7.423   2.743   2.025  0.1035  0.2365  0.9151
    5CHTO  H217 1719   7.379   2.756   1.924  0.8686  2.9793  0.9166
    5CHTO  C124 1720   7.417   2.880   2.091  0.6749 -0.3661  0.4151
    5CHTO   O83 1721   7.416   2.986   1.995  0.1976 -0.5587 -0.4942
    5CHTO  H204 1722   7.462   2.964   1.917 -1.7713  0.5601 -2.0192
    5CHTO  C109 1723   7.343   2.644   2.103 -0.1948 -0.0281  0.5762
    5CHTO  H213 1724   7.391   2.631   2.201 -1.1594  0.2035  1.0856
    5CHTO  C110 1725   7.339   2.507   2.031 -0.0745 -0.8451  0.6040
    5CHTO  H214 1726   7.282   2.515   1.938 -0.3185 -2.3202  0.6140
    5CHTO   O78 1727   7.278   2.413   2.116 -0.6594 -0.2014  0.2668
    5CHTO  H200 1728   7.217   2.368   2.060  0.2147 -3.1821  1.6068
    5CHTO  C111 1729   7.487   2.462   1.986 -0.7302  0.2795  0.9378
    5CHTO  H215 1730   7.547   2.441   2.076 -0.2705 -1.3325  0.2699
    5CHTO   N19 1731   7.486   2.345   1.903 -0.2618  0.6289  0.1770
    5CHTO  H207 1732   7.534   2.364   1.808  1.1390  0.9024  0.9252
    5CHTO  H208 1733   7.527   2.263   1.960  1.1821  1.0957 -0.1727
    5CHTO   O74 1734   7.212   2.699   2.122 -0.1644  0.1714  0.3622
    5CHTO  C115 1735   7.147   2.677   2.247 -0.1216  0.0025 -0.5145
    5CHTO  H219 1736   7.187   2.588   2.295  1.4554  1.7084  1.4383
    5CHTO   O76 1737   7.175   2.795   2.345 -0.0789 -0.1194  0.0928
    5CHTO  C122 1738   7.097   2.912   2.317  0.2902  0.4191  0.3129
    5CHTO  H226 1739   7.126   2.963   2.225 -1.1210  1.7625  0.5960
    5CHTO  C126 1740   7.134   3.010   2.426 -0.1654  0.4237 -0.6662
    5CHTO   O85 1741   7.060   2.984   2.549 -0.0603 -0.3301  0.2070
    5CHTO  H206 1742   6.984   3.039   2.556  0.8909  1.0313 -0.0192
    5CHTO  C121 1743   6.940   2.893   2.300 -0.0756  0.3117  0.0388
    5CHTO  H225 1744   6.882   2.958   2.369  0.4755  0.3502  0.4670
    5CHTO   O81 1745   6.886   2.934   2.169  0.7879 -0.5969 -0.2162
    5CHTO  H202 1746   6.906   3.025   2.157 -0.2420 -0.2497  0.6508
    5CHTO  C119 1747   6.909   2.744   2.329 -0.4383 -0.5783 -0.1291
    5CHTO  H223 1748   6.956   2.739   2.428 -0.3526  2.4084  0.0495
    5CHTO  C117 1749   6.988   2.665   2.222  0.3033 -0.4968 -0.0560
    5CHTO  H221 1750   6.962   2.691   2.119 -0.1325  4.5260  1.1415
    5CHTO   N20 1751   6.945   2.522   2.226  0.1032 -0.1990 -0.0564
    5CHTO  H209 1752   6.988   2.468   2.143  1.5820 -0.7394  1.0249
    5CHTO  H210 1753   6.837   2.521   2.233  0.1174 -0.3124  0.1756
    5CHTO   O80 1754   6.765   2.721   2.372 -0.3366  0.2147 -0.4968
    5CHTO  C103 1755   6.641   2.760   2.273 -0.2847  0.1335 -0.0657
    5CHTO  H190 1756   6.651   2.864   2.244 -2.6648  1.1828  2.5368
    5CHTO  C101 1757   6.614   2.671   2.144 -0.1408 -0.1886  0.0984
    5CHTO  H188 1758   6.626   2.567   2.172  0.8675 -0.3282 -0.8105
    5CHTO   O68 1759   6.712   2.704   2.026  0.0165  0.1176 -0.1379
    5CHTO  H168 1760   6.693   2.793   2.003  1.7136  0.2226 -1.2420
    5CHTO   C99 1761   6.463   2.689   2.094 -0.3250 -0.5095 -0.2041
    5CHTO  H186 1762   6.443   2.790   2.051 -0.7493  0.5777  2.4820
    5CHTO   N17 1763   6.424   2.589   1.987  0.2289 -0.1656 -0.7122
    5CHTO  H174 1764   6.436   2.486   2.017 -2.3999 -0.2532  0.0739
    5CHTO  H175 1765   6.327   2.612   1.945 -1.0493  1.4722  2.9626
    5CHTO   C97 1766   6.371   2.673   2.216 -0.2537 -0.1345  0.4069
    5CHTO  H184 1767   6.398   2.576   2.261  0.9839 -0.5268 -1.1424
    5CHTO   O64 1768   6.393   2.780   2.312 -0.6513  0.3561 -0.3194
    5CHTO  C104 1769   6.525   2.754   2.383 -0.0551 -0.3413 -0.0769
    5CHTO  H191 1770   6.522   2.655   2.428  1.4481 -1.2151 -1.8386
    5CHTO  C108 1771   6.544   2.856   2.506  0.5282  0.7222 -0.7173
    5CHTO   O71 1772   6.570   2.984   2.449  0.3130 -0.4440  0.1157
    5CHTO  H171 1773   6.643   2.981   2.389 -1.0679 -1.8676 -1.5722
    5CHTO   O62 1774   6.232   2.685   2.182  0.1403 -0.0814  0.1734
    5CHTO   C91 1775   6.140   2.614   2.266  0.1399 -0.2223  0.3149
    5CHTO  H178 1776   6.186   2.602   2.365 -0.5242 -2.1496  0.4066
    5CHTO   C92 1777   6.127   2.466   2.220 -0.5514  0.4720 -0.4646
    5CHTO  H179 1778   6.126   2.474   2.110  0.9420 -0.1106 -0.5210
    5CHTO   O66 1779   6.249   2.394   2.251  0.2068 -0.2256 -0.3984
    5CHTO  H166 1780   6.319   2.441   2.210 -0.5792  0.2755 -1.1832
    5CHTO   C93 1781   5.999   2.392   2.271 -0.1127 -0.1318 -0.1804
    5CHTO  H180 1782   6.010   2.386   2.380  0.6354 -1.9822 -0.3413
    5CHTO   N16 1783   5.975   2.253   2.223  0.4117  0.1343 -0.4307
    5CHTO  H172 1784   5.883   2.203   2.249  0.6815 -0.0032  0.2878
    5CHTO  H173 1785   6.059   2.190   2.194  1.2379 -0.5501  3.1469
    5CHTO   C94 1786   5.876   2.484   2.239 -0.5393 -0.2265  0.0788
    5CHTO  H181 1787   5.874   2.510   2.133 -1.2740  1.7103  0.5398
    5CHTO   O61 1788   5.888   2.607   2.311 -0.1600  0.7825  0.3753
    5CHTO   C95 1789   6.002   2.687   2.284 -0.4337 -0.3636 -0.2029
    5CHTO  H182 1790   5.989   2.733   2.186 -0.6374  0.6663  0.3004
    5CHTO  C106 1791   6.016   2.799   2.392 -1.1125  0.3665 -0.0834
    5CHTO   O69 1792   5.993   2.757   2.528  0.2676  0.7231 -0.7475
    5CHTO  H169 1793   6.069   2.765   2.581  0.9636  0.4029 -1.6791
    5CHTO   O63 1794   5.729   2.417   2.290  0.1158  0.4331 -0.1105
    5CHTO   C96 1795   5.639   2.390   2.179 -0.7471 -0.8239  0.5387
    5CHTO  H183 1796   5.700   2.358   2.095 -1.4031 -0.7511  0.0279
    5CHTO   C98 1797   5.559   2.518   2.141  0.1800 -0.5296  0.2140
    5CHTO  H185 1798   5.513   2.558   2.233 -1.1127 -1.1939 -0.1349
    5CHTO   O67 1799   5.648   2.617   2.089 -0.2707  0.0923  0.1164
    5CHTO  H167 1800   5.610   2.701   2.073  3.0534  1.3000 -1.8539
    5CHTO  C102 1801   5.444   2.502   2.029 -0.3502  0.2103 -0.4396
    5CHTO  H189 1802   5.500   2.483   1.937 -1.0457  0.7870 -0.9967
    5CHTO   N18 1803   5.361   2.623   2.006  0.2085  0.0411  0.1634
    5CHTO  H176 1804   5.320   2.659   2.100 -1.2694 -2.7804  0.6600
    5CHTO  H177 1805   5.414   2.702   1.955 -1.1339  0.6244 -0.3382
    5CHTO  C105 1806   5.369   2.372   2.059  0.0053 -0.0771  0.6388
    5CHTO  H192 1807   5.297   2.389   2.139  1.0206 -3.0224  2.2660
    5CHTO   O65 1808   5.451   2.264   2.100 -0.2894 -0.2415  0.0774
    5CHTO  C100 1809   5.535   2.280   2.212  0.0526 -0.4185  0.0846
    5CHTO  H187 1810   5.471   2.316   2.294  1.2595  1.0336  0.4094
    5CHTO  C107 1811   5.592   2.154   2.252 -0.1638 -0.1723 -0.2697
    5CHTO   O70 1812   5.665   2.143   2.379 -0.1170 -0.0880 -0.1871
    5CHTO  H170 1813   5.674   2.226   2.422  0.1302 -0.7917  1.1670
    5CHTO   O57 1814   5.295   2.338   1.914  0.6117  0.2610 -0.1003
    5CHTO   C85 1815   5.210   2.231   1.879  0.0506  0.0339 -0.4936
    5CHTO  H157 1816   5.120   2.259   1.937  1.2004  0.6907  1.0246
    5CHTO   C83 1817   5.264   2.097   1.946 -0.3576  0.9610  0.4017
    5CHTO  H155 1818   5.268   2.102   2.054  1.7159 -0.3314  0.4098
    5CHTO   O56 1819   5.401   2.081   1.904  0.5780  0.0380  0.5529
    5CHTO  H135 1820   5.425   2.059   1.816  0.0227  1.0851  0.1371
    5CHTO   C81 1821   5.175   1.979   1.903  0.0713 -0.6840  0.4284
    5CHTO  H153 1822   5.075   1.998   1.942 -0.9059 -2.1675 -1.2488
    5CHTO   N14 1823   5.225   1.854   1.964  0.1027 -0.1038 -0.2472
    5CHTO  H141 1824   5.295   1.804   1.900  0.5647 -1.3579  1.1926
    5CHTO  H142 1825   5.277   1.876   2.054  0.4447  1.4327 -0.8057
    5CHTO   C79 1826   5.151   1.965   1.750 -0.0795 -0.2971 -0.2950
    5CHTO  H151 1827   5.077   1.886   1.740 -1.4529  0.7993  1.0349
    5CHTO   O52 1828   5.099   2.099   1.691  0.2891 -0.2907  0.6954
    5CHTO   C86 1829   5.177   2.214   1.729 -0.0156  0.1490  0.0601
    5CHTO  H158 1830   5.270   2.194   1.671  0.1901  0.6123  0.2265
    5CHTO   C90 1831   5.120   2.347   1.672 -0.3333  0.2518  0.1566
    5CHTO   O60 1832   5.113   2.338   1.526  0.0340 -0.6750 -0.0898
    5CHTO  H138 1833   5.024   2.325   1.499 -0.1446 -1.2615  0.7657
    5CHTO   O50 1834   5.271   1.928   1.671 -0.4037 -0.0638  0.0937
    5CHTO   C73 1835   5.309   1.878   1.543  0.5902  0.3547 -0.5698
    5CHTO  H145 1836   5.232   1.899   1.468  1.5917  0.8837 -1.4495
    5CHTO   C74 1837   5.333   1.726   1.543 -0.7421 -0.3842 -0.4348
    5CHTO  H146 1838   5.239   1.673   1.566 -0.2955 -1.0414 -0.1338
    5CHTO   O54 1839   5.355   1.688   1.403  0.0858  0.1082  0.0737
    5CHTO  H133 1840   5.379   1.598   1.397  1.0965  0.2118  1.9792
    5CHTO   C75 1841   5.449   1.678   1.635 -0.0146 -0.4403  0.5151
    5CHTO  H147 1842   5.431   1.705   1.740 -1.9057 -0.3300  0.1629
    5CHTO   N13 1843   5.457   1.526   1.644  0.9288 -0.5133  0.1171
    5CHTO  H139 1844   5.366   1.476   1.675  1.1698  0.0586  1.7876
    5CHTO  H140 1845   5.506   1.480   1.560 -1.6293 -2.5427 -0.3463
    5CHTO   C76 1846   5.579   1.762   1.606  0.4615  0.5386  0.7988
    5CHTO  H148 1847   5.612   1.723   1.510  0.7905 -0.4707  1.3148
    5CHTO   O49 1848   5.557   1.903   1.589  0.3277  0.0570 -0.3192
    5CHTO   C77 1849   5.446   1.937   1.505  0.3858  0.3919 -0.3603
    5CHTO  H149 1850   5.467   1.897   1.406 -0.8126  1.8146 -1.2130
    5CHTO   C88 1851   5.434   2.088   1.490  0.1936 -0.4602 -0.2888
    5CHTO   O58 1852   5.332   2.134   1.384 -0.1138  0.5868 -0.1885
    5CHTO  H136 1853   5.255   2.165   1.428 -1.2797 -3.4719  0.8936
    5CHTO   O51 1854   5.683   1.745   1.728 -0.3485 -0.2166 -0.2221
    5CHTO   C78 1855   5.819   1.817   1.693  0.1357 -0.2042  0.2932
    5CHTO  H150 1856   5.810   1.883   1.604 -3.6185  2.9828  2.9309
    5CHTO   C80 1857   5.933   1.709   1.676  0.3799 -0.3246 -0.1315
    5CHTO  H152 1858   5.927   1.644   1.766  0.6831 -2.2984 -1.5023
    5CHTO   O55 1859   5.894   1.636   1.563  0.1236 -0.2256  0.0703
    5CHTO  H134 1860   5.941   1.554   1.559 -0.0230 -0.2632 -0.9068
    5CHTO   C84 1861   6.077   1.769   1.657  0.3565  0.2065  0.3768
    5CHTO  H156 1862   6.075   1.823   1.563  1.4819  1.6628  1.1668
    5CHTO   N15 1863   6.186   1.671   1.637 -0.2662 -0.3654  0.0530
    5CHTO  H143 1864   6.282   1.719   1.639  0.2021 -1.2922  3.7627
    5CHTO  H144 1865   6.181   1.600   1.717 -0.0003 -0.6839 -0.2075
    5CHTO   C87 1866   6.108   1.863   1.781 -0.5955 -0.2085  0.6759
    5CHTO  H159 1867   6.121   1.812   1.877  0.5702 -0.4442  0.4036
    5CHTO   O53 1868   5.981   1.957   1.794 -0.7914 -0.2709  0.0191
    5CHTO   C82 1869   5.858   1.894   1.821  0.5188 -0.3510 -0.0024
    5CHTO  H154 1870   5.856   1.836   1.914  0.2160 -0.8393 -0.3136
    5CHTO   C89 1871   5.773   2.014   1.849  0.1345 -0.6884 -0.0448
    5CHTO   O59 1872   5.812   2.091   1.969  0.2729  0.1367  0.7720
    5CHTO  H137 1873   5.886   2.144   1.951  0.1762 -0.4376 -1.4479
    5CHTO   O45 1874   6.241   1.946   1.745 -0.0316 -0.2789  1.1099
    5CHTO   C67 1875   6.312   1.964   1.869 -0.4614 -0.0268 -0.0951
    5CHTO  H124 1876   6.242   1.968   1.952 -0.5543  1.3278 -0.2252
    5CHTO   C65 1877   6.411   1.840   1.897 -0.8359  0.7936  0.3015
    5CHTO  H122 1878   6.427   1.791   1.801  0.1861  0.7031  0.5112
    5CHTO   O44 1879   6.347   1.748   1.980 -0.2233 -0.5579  0.2686
    5CHTO  H102 1880   6.368   1.757   2.071  1.4118 -1.5996  0.0267
    5CHTO   C63 1881   6.565   1.881   1.928  0.1857  0.1768 -0.0385
    5CHTO  H120 1882   6.607   1.930   1.840 -0.3376 -0.0086 -0.3942
    5CHTO   N11 1883   6.659   1.773   1.962 -0.4624  0.2429 -0.0704
    5CHTO  H108 1884   6.615   1.681   1.930 -2.4554  1.3014 -0.4186
    5CHTO  H109 1885   6.683   1.780   2.066  0.2348  0.8182 -0.2701
    5CHTO   C61 1886   6.553   2.003   2.029  0.1352 -0.6557 -0.3245
    5CHTO  H118 1887   6.657   2.035   2.046  0.8002 -1.3181 -2.9054
    5CHTO   O40 1888   6.481   2.115   1.972 -0.0328  0.1762  0.3737
    5CHTO   C68 1889   6.391   2.103   1.861  0.0788  0.5825 -0.4602
    5CHTO  H125 1890   6.444   2.107   1.763 -1.7216  0.2662 -1.4858
    5CHTO   C72 1891   6.302   2.223   1.866  0.4030  0.2461  0.7527
    5CHTO   O48 1892   6.216   2.240   1.978  0.2695  0.3575 -0.3619
    5CHTO  H105 1893   6.260   2.288   2.045  2.5770  0.2304 -1.7139
    5CHTO   O38 1894   6.503   1.974   2.158 -0.1193  0.2337 -0.4808
    5CHTO   C55 1895   6.450   2.076   2.248  1.1533  0.1371 -0.4321
    5CHTO  H112 1896   6.366   2.134   2.205 -0.4133 -1.0704  0.9347
    5CHTO   C56 1897   6.570   2.171   2.303 -0.6825 -0.2535 -0.3329
    5CHTO  H113 1898   6.649   2.109   2.348 -0.6255 -0.7295 -1.0778
    5CHTO   O42 1899   6.621   2.244   2.192  0.0538  0.5695 -0.1040
    5CHTO  H100 1900   6.551   2.287   2.145 -1.5851 -1.3955  0.4449
    5CHTO   C57 1901   6.516   2.263   2.422 -0.3686 -0.9208 -0.0761
    5CHTO  H114 1902   6.446   2.327   2.369  0.8806  2.6138  2.3392
    5CHTO   N10 1903   6.617   2.349   2.492 -0.8153  0.3589  0.1036
    5CHTO  H106 1904   6.685   2.394   2.421 -0.0876  0.3967  0.8176
    5CHTO  H107 1905   6.673   2.290   2.563 -0.2038 -0.6221 -1.1835
    5CHTO   C58 1906   6.439   2.180   2.524 -0.3477 -0.8470 -0.0659
    5CHTO  H115 1907   6.511   2.115   2.578 -1.1614 -1.3051  0.4851
    5CHTO   O37 1908   6.341   2.099   2.460  0.6411 -0.1302 -0.2400
    5CHTO   C59 1909   6.384   2.001   2.362  0.2009  0.3740  0.6585
    5CHTO  H116 1910   6.459   1.930   2.397  0.1193 -0.8649 -1.6102
    5CHTO   C70 1911   6.252   1.927   2.327  0.5285 -0.3598  0.3461
    5CHTO   O46 1912   6.260   1.788   2.347  0.1588 -0.2336  0.7327
    5CHTO  H103 1913   6.202   1.727   2.305 -1.0559 -0.1509  2.2146
    5CHTO   O39 1914   6.359   2.271   2.644 -0.5376  0.1257  0.7468
    5CHTO   C60 1915   6.219   2.302   2.634  0.0718  0.1835  0.0879
    5CHTO  H117 1916   6.197   2.303   2.528 -0.0082  0.4222  0.1068
    5CHTO   C62 1917   6.120   2.193   2.694 -0.0308  0.3363  0.9104
    5CHTO  H119 1918   6.147   2.098   2.643 -0.4048 -0.3036  1.8795
    5CHTO   O43 1919   6.151   2.176   2.832 -0.3096 -0.1653  0.1263
    5CHTO  H101 1920   6.089   2.125   2.881  1.4707 -1.2629  1.3331
    5CHTO   C66 1921   5.969   2.222   2.653  0.2228 -0.7952 -0.2802
    5CHTO  H123 1922   5.960   2.244   2.546  1.3939 -1.0151 -0.4270
    5CHTO   N12 1923   5.872   2.117   2.689 -0.0918  0.3434 -0.2413
    5CHTO  H110 1924   5.827   2.145   2.783 -1.9015 -2.2991 -0.2703
    5CHTO  H111 1925   5.803   2.114   2.606  0.0521  0.1981 -0.3576
    5CHTO   C69 1926   5.930   2.360   2.713 -0.3634  0.2895 -0.9885
    5CHTO  H126 1927   5.936   2.355   2.823 -0.5083  0.8947 -0.9523
    5CHTO   O41 1928   6.045   2.466   2.664  0.1648  0.0943  0.2960
    5CHTO   C64 1929   6.172   2.439   2.695 -0.0792  0.0253 -0.5024
    5CHTO  H121 1930   6.190   2.439   2.804 -1.8588  0.4485 -0.1878
    5CHTO   C71 1931   6.248   2.558   2.638  0.1614 -0.5492 -0.0165
    5CHTO   O47 1932   6.389   2.560   2.658  0.3872  0.2896 -0.4028
    5CHTO  H104 1933   6.414   2.577   2.747 -0.7825 -1.8110  0.3565
    5CHTO   O34 1934   5.790   2.421   2.647 -0.9710 -0.2640 -0.0591
    5CHTO   C49 1935   5.665   2.428   2.729 -0.1691  0.0582  0.2741
    5CHTO   H91 1936   5.639   2.325   2.755 -1.0841  0.3281  0.4725
    5CHTO   C47 1937   5.557   2.505   2.649  0.0393  0.2112 -0.5059
    5CHTO   H89 1938   5.464   2.489   2.706  0.5160 -0.3689  0.1215
    5CHTO   O33 1939   5.541   2.432   2.528  0.5062 -0.3187  0.0784
    5CHTO   H70 1940   5.577   2.482   2.457 -1.8333 -0.9770 -1.6162
    5CHTO   C45 1941   5.586   2.662   2.636 -0.0592  0.4761  0.2225
    5CHTO   H87 1942   5.687   2.680   2.595 -1.5891  2.6333 -2.7776
    5CHTO    N8 1943   5.496   2.728   2.545  0.4359 -0.2849  0.2087
    5CHTO   H75 1944   5.434   2.808   2.581 -2.0176 -2.6978  1.5622
    5CHTO   H76 1945   5.517   2.736   2.440  1.6821 -0.6601  0.4251
    5CHTO   C43 1946   5.595   2.727   2.784  0.6653  0.2358  0.3270
    5CHTO   H85 1947   5.622   2.832   2.780 -2.6371  1.1297 -0.3351
    5CHTO   O29 1948   5.687   2.648   2.873 -0.6936 -0.0587 -0.2877
    5CHTO   C50 1949   5.671   2.503   2.870 -0.3566 -0.1423 -0.1182
    5CHTO   H92 1950   5.747   2.444   2.923  1.3111 -0.2019 -2.5010
    5CHTO   C54 1951   5.547   2.470   2.956 -0.2486  0.2377  0.7000
    5CHTO   O36 1952   5.537   2.334   2.980  0.1174  0.2867  0.0640
    5CHTO   H72 1953   5.486   2.297   2.910 -1.0367 -0.9164  1.5251
    5CHTO   O27 1954   5.461   2.729   2.840  0.3444 -0.4124  0.1109
    5CHTO   C37 1955   5.385   2.838   2.893  0.2747 -0.3483  0.6205
    5CHTO   H79 1956   5.430   2.935   2.868 -1.4538  0.4318  0.4399
    5CHTO   C38 1957   5.237   2.827   2.840 -0.5566  0.3791 -0.6721
    5CHTO   H80 1958   5.205   2.723   2.852  1.1331  0.0445  1.1699
    5CHTO   O31 1959   5.238   2.860   2.701  0.1331 -0.0071  0.2677
    5CHTO   H68 1960   5.152   2.873   2.665  0.4386 -0.4439 -0.6571
    5CHTO   C39 1961   5.140   2.928   2.919  0.3229  0.2037 -0.3166
    5CHTO   H81 1962   5.166   3.033   2.916  1.4360 -0.0965 -1.6930
    5CHTO    N7 1963   4.992   2.925   2.884  0.3737 -0.4912 -0.0473
    5CHTO   H73 1964   4.954   3.025   2.869  1.3275 -0.2298 -0.8333
    5CHTO   H74 1965   4.933   2.842   2.919  0.9467 -0.7787  0.2386
    5CHTO   C40 1966   5.156   2.892   3.072 -0.5281 -0.0955 -0.3283
    5CHTO   H82 1967   5.134   2.786   3.086 -2.5764  0.1589 -1.3882
    5CHTO   O26 1968   5.294   2.926   3.106  0.4433 -0.2475  0.4878
    5CHTO   C41 1969   5.387   2.834   3.048 -0.6072  0.0221 -0.1009
    5CHTO   H83 1970   5.355   2.734   3.082  3.2567 -1.0691  0.5780
    5CHTO   C52 1971   5.525   2.871   3.117 -0.1463 -0.4508 -0.0679
    5CHTO   O35 1972   5.590   3.004   3.082 -0.2957 -0.2100  0.1580
    5CHTO   H71 1973   5.672   2.983   3.042 -0.8822 -0.5820 -0.8530
    5CHTO   O28 1974   5.074   2.970   3.166 -0.3134 -0.1302  0.5829
    5CHTO   C42 1975   5.070   2.943   3.309  0.2994 -0.0602 -0.5629
    5CHTO   H84 1976   4.978   2.994   3.337  1.5102  1.7366  0.1997
    5CHTO   C44 1977   5.188   3.013   3.390  0.5473  0.0465  0.0308
    5CHTO   H86 1978   5.282   3.000   3.336  3.1448 -1.2459  4.6399
    5CHTO   O32 1979   5.155   3.153   3.376  0.8549 -0.6763 -0.6476
    5CHTO   H69 1980   5.219   3.211   3.411  1.9170 -1.8507 -0.6122
    5CHTO   C48 1981   5.219   2.945   3.528  0.3775  0.2194  0.1511
    5CHTO   H90 1982   5.133   2.975   3.589  0.5252  0.0962  0.4242
    5CHTO    N9 1983   5.346   2.986   3.588 -0.3155  0.2240  0.1311
    5CHTO   H77 1984   5.425   2.918   3.561 -0.8810 -0.7030  0.7586
    5CHTO   H78 1985   5.329   2.977   3.694 -0.3020 -0.3200  0.0884
    5CHTO   C51 1986   5.209   2.788   3.523 -0.2820 -0.6579 -0.6494
    5CHTO   H93 1987   5.284   2.761   3.448  0.8981 -1.7081  0.8766
    5CHTO   O30 1988   5.080   2.756   3.476  0.8954  0.1719  0.2699
    5CHTO   C46 1989   5.051   2.786   3.339  0.3104 -0.0130  0.6415
    5CHTO   H88 1990   5.117   2.725   3.277 -0.8418 -1.5496  0.8782
    5CHTO   C53 1991   4.906   2.733   3.316 -0.5957 -0.1003 -0.6605
    5CHTO   O72 1992   4.906   2.661   3.192  0.0337 -0.0205  0.2110
    5CHTO  H199 1993   4.971   2.594   3.187 -2.0968 -2.1976  0.9787
    5CHTO   O22 1994   5.242   2.713   3.645  0.2872 -0.1942  0.3766
    5CHTO   C31 1995   5.289   2.577   3.625  0.0033 -0.6558  0.0965
    5CHTO   H59 1996   5.297   2.533   3.727  0.9197 -1.8036 -0.4600
    5CHTO   C29 1997   5.208   2.488   3.531 -0.1923  0.5985 -0.7683
    5CHTO   H57 1998   5.206   2.546   3.438  1.9982  0.4096 -0.9631
    5CHTO   O21 1999   5.075   2.480   3.595 -0.2251  0.2394  0.7016
    5CHTO   H37 2000   5.019   2.491   3.521  0.2443 -0.2600  0.2663
    5CHTO   C27 2001   5.264   2.345   3.491  0.1150  0.2084  0.2373
    5CHTO   H55 2002   5.261   2.281   3.580 -1.0418 -0.5996 -0.3721
    5CHTO    N5 2003   5.196   2.277   3.381  0.1537 -0.7092  0.0175
    5CHTO   H43 2004   5.266   2.227   3.315  0.4091  0.8131 -0.8927
    5CHTO   H44 2005   5.138   2.200   3.429  1.4517 -0.5124  2.0009
    5CHTO   C25 2006   5.414   2.366   3.462 -0.6635 -0.4369  0.0716
    5CHTO   H53 2007   5.424   2.400   3.358 -1.2403  0.5892  0.3404
    5CHTO   O17 2008   5.480   2.449   3.558  0.0148  0.0405 -0.1493
    5CHTO   C32 2009   5.431   2.579   3.569 -0.0941  0.0269  0.0332
    5CHTO   H60 2010   5.429   2.622   3.469 -1.0865 -0.5670 -0.2093
    5CHTO   C36 2011   5.536   2.661   3.647 -0.4674  0.6078  0.0897
    5CHTO   O25 2012   5.669   2.651   3.585 -0.1305  0.1549  0.3667
    5CHTO   H40 2013   5.658   2.693   3.501 -0.5498  2.4241  1.5257
    5CHTO   O15 2014   5.486   2.257   3.460 -0.0305  0.3475  0.0854
    5CHTO   C19 2015   5.600   2.163   3.467 -0.0104  0.0777 -0.1594
    5CHTO   H47 2016   5.639   2.182   3.568 -0.1066  2.6618 -0.5925
    5CHTO   C20 2017   5.561   2.015   3.448  0.8934  0.0478 -0.1971
    5CHTO   H48 2018   5.514   1.996   3.351  0.3432 -0.1317  0.0998
    5CHTO   O19 2019   5.466   1.974   3.549  0.2382 -0.7005 -0.0911
    5CHTO   H35 2020   5.401   1.922   3.505  0.2301  0.0750 -1.0166
    5CHTO   C21 2021   5.680   1.924   3.455  0.5628 -0.1495  0.2576
    5CHTO   H49 2022   5.727   1.946   3.550  1.3242  0.5997 -0.2813
    5CHTO    N4 2023   5.654   1.775   3.458 -0.2411  0.3640 -0.1713
    5CHTO   H41 2024   5.559   1.758   3.508  0.7934 -1.9240  1.0752
    5CHTO   H42 2025   5.733   1.723   3.510 -0.3636  1.0432  0.7115
    5CHTO   C22 2026   5.785   1.966   3.349 -0.1667 -0.0616  0.4170
    5CHTO   H50 2027   5.756   1.951   3.245  0.6593 -0.9878  0.3078
    5CHTO   O14 2028   5.823   2.102   3.375 -0.5738 -0.1355 -0.0154
    5CHTO   C23 2029   5.718   2.202   3.374  0.8423  0.1233 -0.4323
    5CHTO   H51 2030   5.685   2.215   3.269 -1.9874 -0.9896  0.2799
    5CHTO   C34 2031   5.797   2.325   3.418 -0.2751  0.4920  0.2381
    5CHTO   O23 2032   5.895   2.371   3.321 -0.0240  0.7787  0.0496
    5CHTO   H38 2033   5.856   2.374   3.236  1.3152  0.1093 -0.6035
    5CHTO   O16 2034   5.906   1.905   3.380 -0.1161  0.2177 -0.2135
    5CHTO   C24 2035   6.005   1.855   3.261  0.3411  0.8124  0.0664
    5CHTO   H52 2036   5.953   1.837   3.167  0.9487  0.9680 -0.3038
    5CHTO   C26 2037   6.066   1.720   3.299  0.3905  0.8797  0.2285
    5CHTO   H54 2038   6.101   1.726   3.405  0.2371 -2.5286  0.5149
    5CHTO   O20 2039   5.965   1.624   3.310 -0.0037  0.7182 -0.1239
    5CHTO   H36 2040   5.898   1.664   3.363 -0.1149 -1.7408  1.7152
    5CHTO   C30 2041   6.175   1.674   3.202 -0.2020 -0.1188 -0.1331
    5CHTO   H58 2042   6.118   1.661   3.109 -0.3122 -0.2305 -0.0496
    5CHTO    N6 2043   6.237   1.548   3.243 -0.2017  0.2363 -0.0395
    5CHTO   H45 2044   6.218   1.519   3.346  0.1820 -1.3108 -0.3860
    5CHTO   H46 2045   6.344   1.549   3.226 -0.5442  1.3971 -2.2993
    5CHTO   C33 2046   6.282   1.787   3.179  0.2770 -0.4710 -0.2859
    5CHTO   H61 2047   6.336   1.803   3.273  2.0005 -1.7435 -1.0288
    5CHTO   O18 2048   6.215   1.908   3.134 -0.3270 -0.2403 -0.0474
    5CHTO   C28 2049   6.114   1.957   3.229 -0.5478  0.3445 -0.0590
    5CHTO   H56 2050   6.167   1.980   3.321  0.4959 -0.6567 -0.3924
    5CHTO   C35 2051   6.063   2.085   3.166 -0.8898 -0.3624 -0.0767
    5CHTO   O24 2052   6.167   2.187   3.134  0.1429 -0.1209 -0.3750
    5CHTO   H39 2053   6.191   2.212   3.221  0.4269 -1.8202  0.0663
    5CHTO    O9 2054   6.384   1.744   3.087  0.3584 -0.4912  0.4247
    5CHTO   C13 2055   6.348   1.739   2.940 -0.1467 -0.5318  0.4132
    5CHTO   H26 2056   6.238   1.723   2.930 -0.8889  2.3810  3.0553
    5CHTO   C11 2057   6.434   1.627   2.871  0.6746  0.2404  0.2255
    5CHTO   H24 2058   6.383   1.534   2.898 -0.5330  0.0888 -2.4714
    5CHTO    O8 2059   6.573   1.631   2.913 -0.6155 -0.3600 -0.5250
    5CHTO    H3 2060   6.590   1.578   2.988  2.1865  0.0076 -0.8599
    5CHTO    C9 2061   6.406   1.635   2.722 -0.2139  1.2386  0.3096
    5CHTO   H22 2062   6.296   1.639   2.717 -0.2945  0.0145  0.8494
    5CHTO    N2 2063   6.447   1.515   2.650  0.2197 -0.1649 -0.5004
    5CHTO   H10 2064   6.554   1.500   2.654  0.1346 -0.7735 -0.3425
    5CHTO   H11 2065   6.386   1.432   2.684 -1.7667  1.6431  0.4946
    5CHTO    C7 2066   6.448   1.769   2.659 -0.6746  0.3055  0.5208
    5CHTO   H20 2067   6.412   1.754   2.555  0.3886 -0.2833  0.2321
    5CHTO    O4 2068   6.391   1.884   2.729 -0.2015 -0.3819  0.2003
    5CHTO   C14 2069   6.386   1.880   2.875  0.1014 -0.5767 -0.0428
    5CHTO   H27 2070   6.296   1.941   2.894 -0.3441 -1.3454  0.3653
    5CHTO   C18 2071   6.500   1.952   2.944 -0.1018 -0.2145  0.0782
    5CHTO   O13 2072   6.511   2.086   2.895  1.1522 -0.1554 -0.3046
    5CHTO    H7 2073   6.505   2.082   2.801  3.5784 -0.5962 -0.4868
    5CHTO    O2 2074   6.623   1.779   2.671  0.3687 -0.4007  0.1420
    5CHTO    C1 2075   6.697   1.829   2.558  0.2326 -0.3864 -0.8798
    5CHTO   H14 2076   6.631   1.902   2.509 -2.0917 -0.5451  1.8742
    5CHTO    C2 2077   6.746   1.719   2.460  0.0076  0.6676  0.5028
    5CHTO   H15 2078   6.798   1.642   2.519 -0.6263  0.3055  0.5976
    5CHTO    O6 2079   6.624   1.654   2.420 -0.2165  0.5170 -0.3880
    5CHTO    H1 2080   6.616   1.590   2.352 -3.2227  1.4424 -1.0190
    5CHTO    C3 2081   6.832   1.775   2.342 -0.1557 -0.0980 -0.5342
    5CHTO   H16 2082   6.769   1.846   2.285 -0.1013  1.4363  1.2693
    5CHTO    N1 2083   6.890   1.674   2.242 -0.1158  0.6805 -0.1154
    5CHTO    H8 2084   6.982   1.626   2.276 -0.6461 -2.5827 -2.9472
    5CHTO    H9 2085   6.917   1.729   2.153 -0.1792  1.1194  0.1355
    5CHTO    C4 2086   6.949   1.862   2.402  0.1947 -0.2260  0.4653
    5CHTO   H17 2087   7.030   1.797   2.436  2.1675  0.8327 -2.0815
    5CHTO    O1 2088   6.901   1.952   2.509  0.2442 -0.3086 -0.4956
    5CHTO    C5 2089   6.824   1.896   2.612  0.1883  0.3500 -0.3182
    5CHTO   H18 2090   6.888   1.828   2.670 -0.2438  0.2968  0.0979
    5CHTO   C16 2091   6.788   2.016   2.698 -0.7011  0.4800 -0.2613
    5CHTO   O11 2092   6.898   2.068   2.766  0.1190  0.6491  0.1837
    5CHTO    H5 2093   6.968   2.100   2.713 -0.4230  1.1378 -0.2326
    5CHTO    O3 2094   7.001   1.952   2.298 -0.0228 -0.1841  0.1370
    5CHTO    C6 2095   7.143   1.986   2.304  0.4340 -0.0978  0.3418
    5CHTO   H19 2096   7.192   1.945   2.392  3.6798  1.2715 -0.7281
    5CHTO    C8 2097   7.215   1.930   2.176  0.6190 -0.6063 -0.1405
    5CHTO   H21 2098   7.159   1.968   2.091 -0.4114 -2.0896 -0.1599
    5CHTO    O7 2099   7.204   1.786   2.184  0.2695 -0.0693 -0.0162
    5CHTO    H2 2100   7.232   1.751   2.102  1.2714  0.1076  0.2480
    5CHTO   C12 2101   7.367   1.979   2.164 -0.2346  0.3840 -0.2748
    5CHTO   H25 2102   7.425   1.910   2.229 -0.2415  1.7221  1.1899
    5CHTO    N3 2103   7.407   1.959   2.026 -0.1140  0.0510 -0.6056
    5CHTO   H12 2104   7.322   1.931   1.965 -0.7604  1.2640 -0.2740
    5CHTO   H13 2105   7.480   1.880   2.019  0.6252  0.4786  1.9087
    5CHTO   C15 2106   7.388   2.129   2.212 -0.0530  0.3856 -0.4372
    5CHTO   H28 2107   7.377   2.205   2.135  1.3525  1.1798  0.1235
    5CHTO   O10 2108   7.551   2.146   2.280 -0.2297  0.5397 -0.0589
    5CHTO    H4 2109   7.544   2.197   2.358 -0.2686 -1.2372  1.1273
    5CHTO    O5 2110   7.306   2.159   2.325  0.0646  0.2581 -0.0830
    5CHTO   C10 2111   7.164   2.140   2.309  0.1509  0.5726  0.2823
    5CHTO   H23 2112   7.120   2.179   2.217  0.0655  0.3320  0.2196
    5CHTO   C17 2113   7.097   2.213   2.424  0.7447 -0.8649  0.3264
    5CHTO   O12 2114   6.958   2.216   2.404  0.1037 -0.0889  0.0082
    5CHTO    H6 2115   6.924   2.151   2.463  0.0932 -0.5962 -0.5519
    6CHTO  H203 2116   7.034   3.887   0.549  0.5384  0.2750  0.9658
    6CHTO   O82 2117   7.051   3.970   0.508 -0.6252 -0.2109 -0.5800
    6CHTO  C123 2118   6.954   4.075   0.530 -0.3085 -0.3140 -0.1273
    6CHTO  H227 2119   6.983   4.156   0.461  1.1703 -1.0383 -0.3756
    6CHTO   O77 2120   6.825   4.019   0.490 -0.3007  0.2263 -0.4725
    6CHTO  C118 2121   6.719   4.111   0.477  0.5704 -0.1775 -0.2021
    6CHTO  H222 2122   6.761   4.185   0.408 -1.2997  0.0486 -1.1265
    6CHTO  C125 2123   6.595   4.041   0.411 -0.1730 -0.0466  0.6284
    6CHTO   O84 2124   6.479   4.131   0.395 -0.4382  0.7074 -0.0812
    6CHTO  H205 2125   6.419   4.098   0.330 -0.5243  0.1320  0.2827
    6CHTO  C114 2126   6.685   4.172   0.616  0.3777  0.2440  0.0604
    6CHTO  H218 2127   6.634   4.094   0.673 -0.5784  0.3104 -0.6996
    6CHTO  C116 2128   6.815   4.214   0.691 -0.2509  0.5494 -0.6896
    6CHTO  H220 2129   6.843   4.312   0.649 -1.4922  1.1716 -0.1083
    6CHTO   O79 2130   6.778   4.238   0.830 -0.2396  1.0741  0.1105
    6CHTO  H201 2131   6.738   4.165   0.873 -1.4233  2.2105  0.9652
    6CHTO  C120 2132   6.940   4.113   0.682 -0.1994 -0.2947 -0.0297
    6CHTO  H224 2133   6.918   4.021   0.740  0.5870 -0.9668 -0.7715
    6CHTO   N21 2134   7.062   4.172   0.740  0.9002  0.3836  0.0665
    6CHTO  H211 2135   7.150   4.127   0.697  0.4031 -2.4148  1.8055
    6CHTO  H212 2136   7.062   4.279   0.747  1.0601  0.4976 -1.5706
    6CHTO   O75 2137   6.598   4.281   0.590  0.0892 -0.2358 -0.1750
    6CHTO  C112 2138   6.471   4.291   0.706 -0.3254 -0.1811 -0.5843
    6CHTO  H216 2139   6.517   4.293   0.806  0.7667 -0.1347 -1.0842
    6CHTO   O73 2140   6.384   4.176   0.681  0.2480 -0.1800  0.0387
    6CHTO  C113 2141   6.266   4.171   0.757 -0.2484  0.8616 -0.2578
    6CHTO  H217 2142   6.300   4.166   0.862  0.9371  0.9939 -0.6317
    6CHTO  C124 2143   6.208   4.031   0.729 -0.1276  0.6298 -0.5417
    6CHTO   O83 2144   6.107   3.990   0.827 -0.2506  0.1900 -0.1262
    6CHTO  H204 2145   6.026   4.026   0.795 -0.4142  0.1952  0.2910
    6CHTO  C109 2146   6.167   4.287   0.729 -0.2288  0.1577 -0.3984
    6CHTO  H213 2147   6.138   4.280   0.623  0.0696  2.3089 -0.6432
    6CHTO  C110 2148   6.239   4.419   0.753  0.0576  0.2809  0.5021
    6CHTO  H214 2149   6.248   4.429   0.861 -1.4331  3.6635  0.3902
    6CHTO   O78 2150   6.166   4.531   0.703  0.3443 -0.3968  0.1346
    6CHTO  H200 2151   6.168   4.539   0.610 -1.5859  1.3645  0.2316
    6CHTO  C111 2152   6.384   4.424   0.689 -0.0298  0.1562  0.1548
    6CHTO  H215 2153   6.369   4.430   0.580  1.5408  0.2439 -0.0724
    6CHTO   N19 2154   6.469   4.536   0.728  0.2198  0.3168 -0.4510
    6CHTO  H207 2155   6.497   4.510   0.828 -0.1502 -0.2330 -0.4867
    6CHTO  H208 2156   6.418   4.631   0.718 -2.7621 -1.0027  1.5242
    6CHTO   O74 2157   6.043   4.275   0.808 -0.0189 -0.5887  0.1780
    6CHTO  C115 2158   6.017   4.348   0.946 -0.1522  0.2479 -0.3401
    6CHTO  H219 2159   6.103   4.341   1.013  0.2976  1.7876 -0.7477
    6CHTO   O76 2160   5.986   4.494   0.930  0.9709 -0.1543  0.2919
    6CHTO  C122 2161   5.887   4.533   0.834  0.3651 -0.0997  0.5503
    6CHTO  H226 2162   5.936   4.529   0.737 -1.8108 -2.1613 -0.5299
    6CHTO  C126 2163   5.850   4.684   0.862 -0.3724 -0.0415  0.1631
    6CHTO   O85 2164   5.952   4.778   0.832 -0.2373  0.0682  0.6894
    6CHTO  H206 2165   5.956   4.789   0.739  0.7264 -2.6361  0.3618
    6CHTO  C121 2166   5.762   4.444   0.837  0.0252 -0.9110 -0.2094
    6CHTO  H225 2167   5.664   4.495   0.827  0.3852  0.1567  1.3950
    6CHTO   O81 2168   5.763   4.352   0.725  0.2597  0.2036  0.1479
    6CHTO  H202 2169   5.847   4.310   0.720  1.5537  2.6737  0.3101
    6CHTO  C119 2170   5.760   4.370   0.976 -0.3728  0.7622  0.2381
    6CHTO  H223 2171   5.762   4.451   1.049  0.4013  0.2287  0.8215
    6CHTO  C117 2172   5.891   4.276   1.007 -0.2780 -0.6256 -1.2631
    6CHTO  H221 2173   5.887   4.174   0.970  0.5781 -0.4666 -1.8115
    6CHTO   N20 2174   5.909   4.262   1.155 -0.5379 -0.5398 -0.5448
    6CHTO  H209 2175   6.005   4.224   1.184 -0.2951  0.9933  0.7339
    6CHTO  H210 2176   5.850   4.181   1.193 -0.1044  0.3486  2.1086
    6CHTO   O80 2177   5.624   4.308   0.996  1.1056 -0.4538 -0.0004
    6CHTO  C103 2178   5.558   4.276   1.160  1.1202 -0.5152  1.0338
    6CHTO  H190 2179   5.641   4.250   1.226  2.8125  1.3879 -0.2921
    6CHTO  C101 2180   5.482   4.392   1.223 -0.2184 -0.2670  0.7918
    6CHTO  H188 2181   5.416   4.428   1.144 -0.1399 -1.1264  0.3357
    6CHTO   O68 2182   5.579   4.505   1.268 -0.3538  0.4847  0.4086
    6CHTO  H168 2183   5.619   4.555   1.200  0.6516  0.9501  1.3357
    6CHTO   C99 2184   5.390   4.329   1.342 -0.2329 -0.0677  0.5764
    6CHTO  H186 2185   5.443   4.301   1.435  2.1360 -0.2955 -0.8201
    6CHTO   N17 2186   5.294   4.436   1.394 -0.2646  0.2084 -0.0900
    6CHTO  H174 2187   5.213   4.455   1.326 -0.3643  0.2670  0.0460
    6CHTO  H175 2188   5.256   4.409   1.491  0.9682 -1.0884  0.0452
    6CHTO   C97 2189   5.316   4.204   1.303  0.1990  0.3947 -0.3755
    6CHTO  H184 2190   5.240   4.230   1.227 -0.4964  1.3766  0.6426
    6CHTO   O64 2191   5.406   4.105   1.256 -0.2072  0.2851 -0.5056
    6CHTO  C104 2192   5.469   4.145   1.133 -0.7210  0.0415 -0.1994
    6CHTO  H191 2193   5.398   4.164   1.052 -0.8381  1.4863  0.2234
    6CHTO  C108 2194   5.564   4.034   1.077  0.4021 -0.3375 -0.1177
    6CHTO   O71 2195   5.658   3.992   1.178 -0.0134  0.0262  0.2833
    6CHTO  H171 2196   5.718   4.062   1.195 -1.8757  1.9555 -0.9584
    6CHTO   O62 2197   5.253   4.142   1.423  0.4389 -0.7367  0.1689
    6CHTO   C91 2198   5.148   4.042   1.407 -0.0879  0.1965 -0.1171
    6CHTO  H178 2199   5.056   4.100   1.394 -0.8284 -0.5419  1.6902
    6CHTO   C92 2200   5.134   3.969   1.537  0.2100 -0.1522 -0.2743
    6CHTO  H179 2201   5.159   4.025   1.629 -0.5861 -0.2535  0.0070
    6CHTO   O66 2202   4.998   3.936   1.566  0.5988  0.3562  0.0215
    6CHTO  H166 2203   4.944   4.003   1.602 -0.7851 -0.6348 -0.1570
    6CHTO   C93 2204   5.210   3.833   1.548 -0.0470 -0.2175 -0.1712
    6CHTO  H180 2205   5.171   3.785   1.639  0.4613  1.3618  0.9071
    6CHTO   N16 2206   5.359   3.846   1.567  0.3704  0.2912 -0.6776
    6CHTO  H172 2207   5.410   3.755   1.537 -0.4249 -0.2285 -0.4780
    6CHTO  H173 2208   5.388   3.863   1.670 -2.2125  2.5270 -0.2648
    6CHTO   C94 2209   5.184   3.737   1.422  0.6046  0.2801 -0.0539
    6CHTO  H181 2210   5.278   3.716   1.372  1.5480  0.8679  1.4253
    6CHTO   O61 2211   5.099   3.800   1.326 -0.1527 -0.0576 -0.3634
    6CHTO   C95 2212   5.154   3.928   1.284 -0.2515 -0.1386 -0.1831
    6CHTO  H182 2213   5.256   3.918   1.248 -0.4882  1.8452 -1.5017
    6CHTO  C106 2214   5.076   3.966   1.154 -0.1579 -0.2783  0.0708
    6CHTO   O69 2215   5.080   4.106   1.120 -0.2712 -0.4949 -0.7502
    6CHTO  H169 2216   5.155   4.129   1.069  1.2573  0.4198  1.8745
    6CHTO   O63 2217   5.127   3.580   1.475  0.0898 -0.1938 -0.0881
    6CHTO   C96 2218   5.172   3.468   1.381 -0.2407 -0.3387  0.0479
    6CHTO  H183 2219   5.277   3.489   1.359 -0.3577  0.3854  0.1739
    6CHTO   C98 2220   5.087   3.447   1.247  0.1645  0.6322  0.2564
    6CHTO  H185 2221   4.981   3.431   1.275  0.6660  0.6862  2.2576
    6CHTO   O67 2222   5.087   3.565   1.165  0.1802  0.5397 -0.8634
    6CHTO  H167 2223   5.068   3.637   1.222 -2.0112  0.1931 -1.1199
    6CHTO  C102 2224   5.152   3.336   1.150 -0.0715  0.3926 -0.3921
    6CHTO  H189 2225   5.219   3.391   1.082  0.2700  1.6845  0.9493
    6CHTO   N18 2226   5.050   3.264   1.061 -0.4647 -0.7209 -0.5821
    6CHTO  H176 2227   5.024   3.172   1.111 -0.1667 -0.5148 -0.0467
    6CHTO  H177 2228   5.098   3.233   0.969  1.2688 -0.0581  0.0788
    6CHTO  C105 2229   5.226   3.235   1.231  0.4934 -0.0659  0.2656
    6CHTO  H192 2230   5.233   3.140   1.177  0.6424  0.3680 -0.4884
    6CHTO   O65 2231   5.173   3.221   1.366 -0.4943 -0.4428  0.3520
    6CHTO  C100 2232   5.176   3.337   1.456  0.0624  0.4916  0.4045
    6CHTO  H187 2233   5.083   3.332   1.515 -0.1250  0.1163  0.0834
    6CHTO  C107 2234   5.297   3.322   1.549 -0.0639  0.1628 -0.1138
    6CHTO   O70 2235   5.293   3.409   1.669 -0.3234 -0.5326  0.1130
    6CHTO  H170 2236   5.327   3.492   1.642  0.2478 -0.1783  1.8697
    6CHTO   O57 2237   5.372   3.292   1.229 -0.1913 -0.3265  0.1598
    6CHTO   C85 2238   5.471   3.303   1.125  0.2999 -0.1302  0.4056
    6CHTO  H157 2239   5.420   3.321   1.027  0.5402  0.9904  0.4741
    6CHTO   C83 2240   5.544   3.168   1.120 -0.3316 -0.7002  0.3586
    6CHTO  H155 2241   5.477   3.090   1.084 -1.8865 -0.0889  1.8278
    6CHTO   O56 2242   5.581   3.119   1.246 -0.0449 -0.1885  0.7139
    6CHTO  H135 2243   5.611   3.191   1.297 -1.1119  2.1823 -1.8876
    6CHTO   C81 2244   5.671   3.190   1.026  0.2195 -0.5983 -0.2611
    6CHTO  H153 2245   5.641   3.220   0.926  2.9149 -2.2483 -1.6170
    6CHTO   N14 2246   5.750   3.063   0.993 -0.5418 -0.2045 -0.0681
    6CHTO  H141 2247   5.821   3.078   0.914 -0.8954 -0.8366 -0.5030
    6CHTO  H142 2248   5.805   3.040   1.082  1.7795 -2.1614 -1.9449
    6CHTO   C79 2249   5.767   3.307   1.074  0.7239  0.1320  0.0219
    6CHTO  H151 2250   5.840   3.323   0.996  0.9066 -2.1126 -0.2918
    6CHTO   O52 2251   5.681   3.429   1.076  0.0127  0.0785  0.4532
    6CHTO   C86 2252   5.566   3.422   1.156  0.5375 -0.1858 -0.6562
    6CHTO  H158 2253   5.607   3.416   1.259 -1.2340 -0.6687  0.0377
    6CHTO   C90 2254   5.481   3.557   1.147 -0.2603 -0.0300  0.1794
    6CHTO   O60 2255   5.564   3.670   1.179  0.2776  0.0627  0.3045
    6CHTO  H138 2256   5.562   3.726   1.104 -1.5066 -3.2946 -2.3223
    6CHTO   O50 2257   5.830   3.298   1.208  0.2439 -0.3052 -0.4337
    6CHTO   C73 2258   5.924   3.250   1.314  0.3062 -0.0653  0.2091
    6CHTO  H145 2259   5.952   3.147   1.288 -0.3741 -0.6293  1.6149
    6CHTO   C74 2260   5.852   3.274   1.457  0.4703  0.5927 -0.2636
    6CHTO  H146 2261   5.758   3.216   1.463  1.4080 -0.9380 -0.3187
    6CHTO   O54 2262   5.943   3.218   1.559 -0.4957 -0.0661 -0.0163
    6CHTO  H133 2263   6.012   3.282   1.561 -0.7618  0.2925 -1.7120
    6CHTO   C75 2264   5.825   3.432   1.475  0.3831  0.2118  0.7417
    6CHTO  H147 2265   5.743   3.458   1.406 -0.5091  1.2796  2.1656
    6CHTO   N13 2266   5.769   3.482   1.604  0.0337 -0.3976  0.4076
    6CHTO  H139 2267   5.833   3.553   1.653  1.2131 -0.7481 -0.6100
    6CHTO  H140 2268   5.762   3.401   1.676 -0.8451 -0.8960 -0.2192
    6CHTO   C76 2269   5.961   3.510   1.434 -0.0396 -0.0965 -0.3850
    6CHTO  H148 2270   6.033   3.496   1.515 -0.3120 -1.3566 -0.3581
    6CHTO   O49 2271   6.010   3.478   1.301 -0.3445 -0.8991 -0.9217
    6CHTO   C77 2272   6.053   3.346   1.301 -0.5903 -0.0634  0.5047
    6CHTO  H149 2273   6.128   3.322   1.377  0.5290  0.6551 -0.3618
    6CHTO   C88 2274   6.136   3.333   1.174  0.4142  0.1896  0.0775
    6CHTO   O58 2275   6.140   3.208   1.120  0.2677  0.0566 -0.1171
    6CHTO  H136 2276   6.223   3.192   1.080  0.1152  1.7953 -1.2155
    6CHTO   O51 2277   5.926   3.668   1.418 -0.3359 -0.2396 -0.4550
    6CHTO   C78 2278   6.046   3.769   1.431  0.3874 -0.8628  0.0918
    6CHTO  H150 2279   6.148   3.726   1.428  1.0644  0.7091  0.4348
    6CHTO   C80 2280   6.026   3.838   1.567 -0.0257 -0.5021  0.5405
    6CHTO  H152 2281   5.931   3.895   1.563  0.9064  1.0561  0.1434
    6CHTO   O55 2282   6.025   3.729   1.666  0.4040 -0.3840  0.3620
    6CHTO  H134 2283   6.111   3.705   1.696 -0.5906 -0.8928  2.9778
    6CHTO   C84 2284   6.132   3.951   1.591 -0.3473 -0.5518 -0.6130
    6CHTO  H156 2285   6.226   3.898   1.576  0.4893  0.5997  0.4193
    6CHTO   N15 2286   6.131   4.013   1.726  0.3846 -0.0551  0.0217
    6CHTO  H143 2287   6.031   4.039   1.751  0.4316  0.0917  0.0577
    6CHTO  H144 2288   6.170   3.949   1.802 -1.2324 -0.2599  0.6889
    6CHTO   C87 2289   6.121   4.054   1.472  0.0817 -0.0432  0.1480
    6CHTO  H159 2290   6.024   4.103   1.465  0.3849  0.5578  0.1371
    6CHTO   O53 2291   6.145   3.972   1.334 -0.2315 -0.3736  0.1698
    6CHTO   C82 2292   6.040   3.868   1.313 -0.2042 -0.1678  0.0806
    6CHTO  H154 2293   5.947   3.923   1.301  0.1209  0.5559  0.8260
    6CHTO   C89 2294   6.071   3.785   1.176 -0.9952 -0.0095  0.0107
    6CHTO   O59 2295   6.201   3.725   1.174  0.1374  0.0451  0.1173
    6CHTO  H137 2296   6.262   3.796   1.180  0.3642 -0.3247  2.5615
    6CHTO   O45 2297   6.246   4.175   1.494 -0.2832  0.1955 -0.4076
    6CHTO   C67 2298   6.370   4.150   1.430 -0.0258  0.2885 -0.6901
    6CHTO  H124 2299   6.410   4.050   1.450 -0.0862  0.3692 -0.1653
    6CHTO   C65 2300   6.361   4.170   1.274 -0.4232  0.0794 -0.1462
    6CHTO  H122 2301   6.258   4.167   1.238 -0.5471  3.4243 -0.2773
    6CHTO   O44 2302   6.437   4.063   1.217  0.5464  0.4372 -0.1162
    6CHTO  H102 2303   6.432   4.079   1.125 -1.4599 -1.4569 -0.3765
    6CHTO   C63 2304   6.407   4.319   1.235  0.0524 -0.6462  0.2689
    6CHTO  H120 2305   6.346   4.389   1.293 -2.1203 -2.7110  0.5616
    6CHTO   N11 2306   6.371   4.358   1.098 -0.6856 -0.3812 -0.1251
    6CHTO  H108 2307   6.264   4.366   1.089 -0.6604 -1.4976 -1.5821
    6CHTO  H109 2308   6.407   4.457   1.082 -2.1315  0.0216 -1.0464
    6CHTO   C61 2309   6.552   4.341   1.284  0.3495  0.3484 -0.6002
    6CHTO  H118 2310   6.562   4.450   1.297 -0.5640  0.7372 -2.9055
    6CHTO   O40 2311   6.581   4.284   1.416  0.1402 -0.0885  0.4298
    6CHTO   C68 2312   6.470   4.255   1.495 -0.3918  0.2575  0.3389
    6CHTO  H125 2313   6.416   4.350   1.514  0.1475  0.4028  1.2042
    6CHTO   C72 2314   6.510   4.196   1.630  0.1528  0.9673 -0.7425
    6CHTO   O48 2315   6.608   4.267   1.703  0.1374  0.1788 -0.2462
    6CHTO  H105 2316   6.679   4.277   1.642  0.9573 -1.2327  0.4508
    6CHTO   O38 2317   6.650   4.285   1.189  0.3135 -0.1688  0.5754
    6CHTO   C55 2318   6.780   4.352   1.201 -0.2457 -0.4914  0.6297
    6CHTO  H112 2319   6.782   4.411   1.294 -0.7642 -0.9260  0.9167
    6CHTO   C56 2320   6.798   4.450   1.078 -0.2407 -0.2681 -0.6104
    6CHTO  H113 2321   6.782   4.395   0.984  1.1715  0.5098 -1.3127
    6CHTO   O42 2322   6.703   4.561   1.074  0.1234 -0.0379  0.0859
    6CHTO  H100 2323   6.710   4.618   1.148  1.1330 -0.6246  0.4533
    6CHTO   C57 2324   6.947   4.505   1.079 -0.6874  0.0380 -0.6212
    6CHTO  H114 2325   6.950   4.571   1.166 -0.0920 -0.1781 -0.4746
    6CHTO   N10 2326   6.979   4.597   0.965  0.3252 -0.4858 -0.7486
    6CHTO  H106 2327   7.083   4.601   0.939  0.6439 -3.4083 -0.1020
    6CHTO  H107 2328   6.947   4.699   0.984  0.4617 -0.9651  2.2955
    6CHTO   C58 2329   7.053   4.394   1.111 -0.2470  0.5063 -0.0784
    6CHTO  H115 2330   7.060   4.330   1.021 -0.6904  0.5645 -0.1587
    6CHTO   O37 2331   7.019   4.312   1.221 -0.6139 -0.3552  0.0571
    6CHTO   C59 2332   6.894   4.243   1.208  0.5376 -0.3127 -0.1688
    6CHTO  H116 2333   6.893   4.184   1.116 -0.3479 -1.7876  0.7881
    6CHTO   C70 2334   6.882   4.151   1.334 -0.6446 -0.0224 -0.8200
    6CHTO   O46 2335   6.812   4.027   1.315  0.1395  0.0321 -0.0438
    6CHTO  H103 2336   6.775   4.000   1.397 -0.0143 -0.1324 -0.1672
    6CHTO   O39 2337   7.204   4.459   1.144 -0.1622  0.1968  0.0073
    6CHTO   C60 2338   7.315   4.361   1.158  0.8255  0.1048  0.0258
    6CHTO  H117 2339   7.264   4.269   1.184 -0.7923  0.8526 -0.4078
    6CHTO   C62 2340   7.398   4.336   1.030  0.4124 -0.6753 -0.4697
    6CHTO  H119 2341   7.330   4.281   0.962  1.0198 -1.5968 -0.3284
    6CHTO   O43 2342   7.439   4.462   0.969 -0.5000 -0.0333 -0.2603
    6CHTO  H101 2343   7.374   4.529   0.963  0.1281  0.5465 -0.6498
    6CHTO   C66 2344   7.527   4.244   1.062 -0.5577  0.0095  0.6194
    6CHTO  H123 2345   7.492   4.145   1.090  3.3362 -2.1996 -1.8705
    6CHTO   N12 2346   7.604   4.210   0.935 -0.6304  0.3441  0.1999
    6CHTO  H110 2347   7.566   4.148   0.855  0.3194  0.2972 -0.2157
    6CHTO  H111 2348   7.656   4.295   0.892 -1.0803  1.9014  2.6658
    6CHTO   C69 2349   7.615   4.314   1.168  0.1856 -0.1749 -0.4625
    6CHTO  H126 2350   7.641   4.417   1.135  1.3394 -0.2520  0.1606
    6CHTO   O41 2351   7.528   4.320   1.301  0.9249  0.3361 -0.1186
    6CHTO   C64 2352   7.396   4.408   1.282 -0.2636 -0.5930  0.0930
    6CHTO  H121 2353   7.424   4.516   1.275 -2.1164 -0.0317  1.0843
    6CHTO   C71 2354   7.321   4.397   1.414  0.3875 -0.5650 -0.1035
    6CHTO   O47 2355   7.308   4.258   1.448 -0.3628  0.4281 -0.2327
    6CHTO  H104 2356   7.218   4.237   1.430 -0.5183 -0.4067  1.4128
    6CHTO   O34 2357   7.738   4.230   1.205 -0.1493  0.2382  0.6942
    6CHTO   C49 2358   7.880   4.205   1.164  0.3274 -0.5921 -0.5047
    6CHTO   H91 2359   7.883   4.115   1.103 -0.0250 -0.8844 -0.0881
    6CHTO   C47 2360   7.970   4.175   1.289  0.0049 -0.4822  0.0138
    6CHTO   H89 2361   8.068   4.135   1.254 -0.0277  0.7032 -1.4996
    6CHTO   O33 2362   7.909   4.078   1.372 -0.7631 -0.1865 -0.1851
    6CHTO   H70 2363   7.817   4.098   1.379 -0.3636  1.3114  1.1336
    6CHTO   C45 2364   8.005   4.312   1.367  0.3688 -0.8919 -0.4366
    6CHTO   H87 2365   7.939   4.310   1.455  2.1600  2.7145  1.0649
    6CHTO    N8 2366   8.145   4.308   1.413  0.9301 -0.2156  0.2176
    6CHTO   H75 2367   8.146   4.283   1.518 -1.9817  1.3423  0.6591
    6CHTO   H76 2368   8.200   4.396   1.387  1.1803 -0.3803  0.1877
    6CHTO   C43 2369   7.957   4.450   1.288  0.0373 -0.9126 -0.3290
    6CHTO   H85 2370   7.848   4.443   1.292  0.2171 -2.7564  2.5532
    6CHTO   O29 2371   8.002   4.428   1.149  0.3999 -0.2078 -0.5054
    6CHTO   C50 2372   7.928   4.325   1.085  0.0247 -0.4359  0.0464
    6CHTO   H92 2373   7.835   4.381   1.067  0.3541  0.2267  0.3988
    6CHTO   C54 2374   7.996   4.284   0.956 -0.3020 -0.5316  0.2648
    6CHTO   O36 2375   7.984   4.387   0.855 -0.1336 -0.0097 -0.0733
    6CHTO   H72 2376   8.027   4.357   0.777  2.5678  2.0090  0.5483
    6CHTO   O27 2377   8.005   4.572   1.345  0.1375  0.2462 -0.3592
    6CHTO   C37 2378   8.118   4.641   1.400 -0.1899  0.1355 -0.2092
    6CHTO   H79 2379   8.208   4.578   1.407 -0.0944  0.4064  1.0510
    6CHTO   C38 2380   8.141   4.758   1.298  0.2359  0.0093  0.5805
    6CHTO   H80 2381   8.046   4.812   1.283  0.6346  0.5812  0.0492
    6CHTO   O31 2382   8.190   4.713   1.171  0.0921  0.4001 -0.1324
    6CHTO   H68 2383   8.131   4.660   1.119  1.6493 -0.7416 -0.7853
    6CHTO   C39 2384   8.244   4.869   1.359  0.3917 -0.0599  0.2447
    6CHTO   H81 2385   8.344   4.830   1.375 -0.8425 -2.9504  1.4304
    6CHTO    N7 2386   8.265   4.994   1.279 -0.0860  0.2251 -0.1956
    6CHTO   H73 2387   8.225   4.976   1.180  0.3451  2.3394 -0.7708
    6CHTO   H74 2388   8.370   5.005   1.259 -0.5475  1.3083 -2.1200
    6CHTO   C40 2389   8.194   4.908   1.498 -0.3589 -0.5743  0.0631
    6CHTO   H82 2390   8.105   4.969   1.513 -0.1680 -0.2942  0.0467
    6CHTO   O26 2391   8.188   4.787   1.577  0.1988  0.0963  0.2305
    6CHTO   C41 2392   8.085   4.691   1.543  0.3511  0.4679  0.1598
    6CHTO   H83 2393   7.986   4.736   1.530 -0.5706 -1.6255 -0.2513
    6CHTO   C52 2394   8.069   4.585   1.650 -0.2406 -0.1981  0.2198
    6CHTO   O35 2395   8.187   4.533   1.679 -0.3293 -0.2268  0.1154
    6CHTO   H71 2396   8.178   4.445   1.710  0.1252  0.2081  1.5418
    6CHTO   O28 2397   8.289   4.987   1.568  0.2352  0.2869 -0.1730
    6CHTO   C42 2398   8.270   5.045   1.704 -0.6698  0.1549 -0.6384
    6CHTO   H84 2399   8.357   5.110   1.716 -0.1043 -0.5491 -0.8706
    6CHTO   C44 2400   8.278   4.943   1.825  0.4412 -0.2538  0.8005
    6CHTO   H86 2401   8.192   4.877   1.812 -0.9690  1.9007 -1.0830
    6CHTO   O32 2402   8.390   4.853   1.801 -0.3985  0.0839  0.5351
    6CHTO   H69 2403   8.363   4.783   1.743 -0.6726 -0.3263  1.1523
    6CHTO   C48 2404   8.282   5.001   1.973 -0.1549  0.0379  0.7833
    6CHTO   H90 2405   8.378   5.050   1.989 -0.6454  0.9475  0.9697
    6CHTO    N9 2406   8.275   4.892   2.073  0.1245 -0.2942  0.6867
    6CHTO   H77 2407   8.267   4.792   2.033  1.4374 -0.6777  1.3303
    6CHTO   H78 2408   8.352   4.904   2.148  1.5019  0.1797 -0.7805
    6CHTO   C51 2409   8.157   5.098   1.989  0.2745 -0.2676  0.0482
    6CHTO   H93 2410   8.066   5.038   1.998  1.3350 -2.0380 -0.8982
    6CHTO   O30 2411   8.145   5.188   1.880 -0.3151 -0.0581 -0.1764
    6CHTO   C46 2412   8.146   5.127   1.726 -0.0045 -0.5379 -0.2036
    6CHTO   H88 2413   8.069   5.051   1.714 -0.8147 -0.1190  2.0008
    6CHTO   C53 2414   8.121   5.234   1.623 -0.6760 -0.6153 -0.2269
    6CHTO   O72 2415   8.215   5.339   1.638 -0.1097 -0.0401  0.1914
    6CHTO  H199 2416   8.254   5.360   1.555 -1.7448  0.6250 -0.4227
    6CHTO   O22 2417   8.174   5.183   2.106  1.0024  0.3183  0.4221
    6CHTO   C31 2418   8.076   5.266   2.174 -0.2317 -0.3238 -1.2080
    6CHTO   H59 2419   8.124   5.306   2.266 -1.3101 -0.8055 -0.4208
    6CHTO   C29 2420   8.023   5.386   2.090 -0.3964 -0.2247 -0.2818
    6CHTO   H57 2421   7.958   5.346   2.010 -0.0354  1.8032 -1.6365
    6CHTO   O21 2422   8.133   5.452   2.022  0.2107 -0.6228  0.3221
    6CHTO   H37 2423   8.104   5.484   1.940  2.3364  0.5158 -0.0280
    6CHTO   C27 2424   7.934   5.479   2.179  0.2957 -0.1560  0.4468
    6CHTO   H55 2425   7.995   5.523   2.259  1.6833  1.8918 -1.6549
    6CHTO    N5 2426   7.885   5.593   2.100  0.6095 -0.6210  0.1138
    6CHTO   H43 2427   7.824   5.648   2.169 -2.4665 -0.0659 -2.9257
    6CHTO   H44 2428   7.977   5.646   2.081 -0.5914  1.5346  0.1924
    6CHTO   C25 2429   7.815   5.386   2.239 -0.1089 -0.2770 -0.4970
    6CHTO   H53 2430   7.753   5.349   2.156  0.6959  1.7679 -2.0622
    6CHTO   O17 2431   7.866   5.272   2.308  0.0587  0.3386  0.0225
    6CHTO   C32 2432   7.951   5.189   2.223 -0.2978 -0.0796 -0.0313
    6CHTO   H60 2433   7.901   5.146   2.136  0.7473 -2.5478  0.5458
    6CHTO   C36 2434   8.004   5.068   2.321 -0.3412  0.0025  0.1245
    6CHTO   O25 2435   7.894   4.988   2.362 -0.3703 -0.0106 -0.0778
    6CHTO   H40 2436   7.929   4.911   2.402 -0.9826 -0.6512 -0.7641
    6CHTO   O15 2437   7.728   5.469   2.333  0.3855 -0.3972 -0.2690
    6CHTO   C19 2438   7.598   5.507   2.387 -0.2756  0.5228  0.3149
    6CHTO   H47 2439   7.580   5.418   2.449 -1.3246  0.2460 -0.3765
    6CHTO   C20 2440   7.602   5.633   2.473 -0.9186  0.3190 -0.3413
    6CHTO   H48 2441   7.629   5.721   2.414 -2.8940  0.5834 -0.8716
    6CHTO   O19 2442   7.700   5.612   2.579 -0.1307  0.7328  0.1655
    6CHTO   H35 2443   7.791   5.625   2.557  0.6916  0.0621  2.9209
    6CHTO   C21 2444   7.464   5.663   2.544  0.4870  0.4336  0.1084
    6CHTO   H49 2445   7.449   5.591   2.624 -0.6428  1.4484  0.8376
    6CHTO    N4 2446   7.460   5.795   2.619 -0.3962 -0.5627 -1.0354
    6CHTO   H41 2447   7.359   5.833   2.630  0.0140  0.1061  0.6175
    6CHTO   H42 2448   7.507   5.797   2.716 -1.6614 -0.3788 -0.4131
    6CHTO   C22 2449   7.344   5.656   2.444  0.5018  0.5293  0.1324
    6CHTO   H50 2450   7.346   5.740   2.375 -0.9568 -0.9660 -1.7904
    6CHTO   O14 2451   7.353   5.533   2.361 -0.2762  0.7001  0.0448
    6CHTO   C23 2452   7.472   5.512   2.297 -0.7515 -0.2272  0.0249
    6CHTO   H51 2453   7.478   5.593   2.223 -1.4540  0.6943  0.9657
    6CHTO   C34 2454   7.451   5.389   2.205  0.3266  0.1849  0.7817
    6CHTO   O23 2455   7.439   5.267   2.283  0.3676 -0.0760 -0.1824
    6CHTO   H38 2456   7.519   5.249   2.328 -0.3694 -2.8149  0.0866
    6CHTO   O16 2457   7.224   5.650   2.513  0.4194  0.1316 -0.0695
    6CHTO   C24 2458   7.102   5.717   2.431  0.6075 -0.2614  0.1903
    6CHTO   H52 2459   7.116   5.710   2.323 -1.0852  0.8750 -0.1147
    6CHTO   C26 2460   7.069   5.864   2.469 -0.4502 -0.2063  0.1337
    6CHTO   H54 2461   7.052   5.878   2.578 -1.3325 -0.3413  0.0166
    6CHTO   O20 2462   7.186   5.947   2.441  0.2213  0.1204  0.3108
    6CHTO   H36 2463   7.204   5.952   2.349  0.9875  0.0675  0.4544
    6CHTO   C30 2464   6.943   5.909   2.386 -0.1401  0.4825 -0.5800
    6CHTO   H58 2465   6.967   5.890   2.281  1.2113 -2.7481  0.2640
    6CHTO    N6 2466   6.913   6.054   2.408 -0.2851 -0.0676  1.0228
    6CHTO   H45 2467   7.009   6.099   2.426 -0.8220  2.4852 -2.1176
    6CHTO   H46 2468   6.871   6.093   2.317  1.7757 -0.0488  0.0552
    6CHTO   C33 2469   6.823   5.809   2.416 -0.5405 -1.1632 -0.7563
    6CHTO   H61 2470   6.790   5.823   2.521 -0.3754 -1.9562 -0.5947
    6CHTO   O18 2471   6.866   5.675   2.393 -0.0625  0.4193 -0.2942
    6CHTO   C28 2472   6.983   5.630   2.463 -0.3380 -0.1775  0.3372
    6CHTO   H56 2473   6.969   5.636   2.571 -1.1016 -0.4497  0.2528
    6CHTO   C35 2474   7.010   5.475   2.431  0.0212 -0.1884  0.1044
    6CHTO   O24 2475   6.912   5.374   2.462 -0.2049 -0.1217 -0.5170
    6CHTO   H39 2476   6.911   5.325   2.383 -0.3358  0.5064 -0.9061
    6CHTO    O9 2477   6.712   5.845   2.338  0.0691  0.3685 -0.3559
    6CHTO   C13 2478   6.575   5.861   2.406 -0.4758 -0.3848  0.4653
    6CHTO   H26 2479   6.589   5.933   2.490 -0.2588  1.6675 -1.2741
    6CHTO   C11 2480   6.513   5.726   2.454  0.2852  0.0319  0.7451
    6CHTO   H24 2481   6.577   5.691   2.536  2.0785  2.3184  0.3775
    6CHTO    O8 2482   6.517   5.629   2.345  0.4197  0.3211  0.0725
    6CHTO    H3 2483   6.501   5.542   2.374 -0.4768 -0.0497 -1.4538
    6CHTO    C9 2484   6.374   5.755   2.513  0.3541 -0.3891 -0.2451
    6CHTO   H22 2485   6.387   5.835   2.588  1.0463  0.4255 -1.2151
    6CHTO    N2 2486   6.316   5.642   2.587 -0.0189  0.3531 -1.5679
    6CHTO   H10 2487   6.210   5.626   2.570 -0.1252 -0.6660 -0.0255
    6CHTO   H11 2488   6.344   5.650   2.691 -2.3293  2.2982 -1.0514
    6CHTO    C7 2489   6.281   5.804   2.396  0.0977  0.0322 -0.0296
    6CHTO   H20 2490   6.181   5.822   2.438  0.3110 -0.1131  0.5393
    6CHTO    O4 2491   6.335   5.929   2.348 -0.3655  0.6029  0.1773
    6CHTO   C14 2492   6.471   5.936   2.306 -0.2025 -0.0539  0.0071
    6CHTO   H27 2493   6.495   6.044   2.308  1.0201 -0.3160  0.0087
    6CHTO   C18 2494   6.484   5.886   2.158 -0.3014 -0.1476  0.0341
    6CHTO   O13 2495   6.457   5.987   2.060  0.4662 -0.5559  0.1432
    6CHTO    H7 2496   6.450   5.946   1.975  0.5060  0.5151 -0.3766
    6CHTO    O2 2497   6.260   5.701   2.275  0.2396 -0.1806  0.3730
    6CHTO    C1 2498   6.127   5.699   2.218  0.1160  0.0016  0.1664
    6CHTO   H14 2499   6.122   5.641   2.123 -3.3460  0.9925 -0.3331
    6CHTO    C2 2500   6.060   5.836   2.182 -0.5401  0.7725  0.1494
    6CHTO   H15 2501   6.050   5.893   2.276  0.4721 -0.9502  1.3364
    6CHTO    O6 2502   6.146   5.911   2.088  0.4516  0.5225  0.1747
    6CHTO    H1 2503   6.130   6.000   2.111 -0.3355  0.6942 -0.9861
    6CHTO    C3 2504   5.914   5.801   2.118 -0.3239  0.0414 -0.1050
    6CHTO   H16 2505   5.934   5.732   2.034  0.0844  0.7266 -0.5702
    6CHTO    N1 2506   5.832   5.921   2.077 -0.3323 -0.4320  0.0043
    6CHTO    H8 2507   5.827   5.994   2.156 -1.3157  0.8550 -1.2323
    6CHTO    H9 2508   5.867   5.962   1.984  1.3620 -1.1810  0.2835
    6CHTO    C4 2509   5.823   5.714   2.212 -0.2537  0.2742 -0.0998
    6CHTO   H17 2510   5.801   5.773   2.300  1.2425  0.7153 -0.0003
    6CHTO    O1 2511   5.896   5.599   2.264  0.2740  0.1364 -0.1434
    6CHTO    C5 2512   6.025   5.620   2.314 -0.3519 -0.4604 -0.3170
    6CHTO   H18 2513   6.022   5.683   2.403  3.1565  1.3572 -1.3722
    6CHTO   C16 2514   6.076   5.486   2.360 -0.0697 -0.4483  0.0608
    6CHTO   O11 2515   6.083   5.395   2.250  0.4049 -0.1487 -0.0818
    6CHTO    H5 2516   6.146   5.418   2.184  0.0956  1.2068  0.0889
    6CHTO    O3 2517   5.707   5.659   2.145  0.2823  0.0897  0.5602
    6CHTO    C6 2518   5.589   5.635   2.236  0.1863 -0.0545 -0.6830
    6CHTO   H19 2519   5.610   5.646   2.342 -0.4308 -2.5305 -0.2805
    6CHTO    C8 2520   5.465   5.732   2.203 -0.1203  0.5793  0.3289
    6CHTO   H21 2521   5.433   5.713   2.101  2.3827 -1.5258 -0.1461
    6CHTO    O7 2522   5.517   5.869   2.215 -0.6556 -0.1305 -0.1267
    6CHTO    H2 2523   5.460   5.935   2.179  0.8434  0.7838 -0.8689
    6CHTO   C12 2524   5.337   5.701   2.297 -0.1693 -0.3904 -0.1442
    6CHTO   H25 2525   5.369   5.724   2.400 -0.8684  1.1412 -0.2534
    6CHTO    N3 2526   5.222   5.797   2.266 -0.1495  0.3427 -0.1217
    6CHTO   H12 2527   5.193   5.842   2.360 -2.5045  1.6053 -1.3917
    6CHTO   H13 2528   5.136   5.752   2.218  1.5082 -2.8965 -0.1851
    6CHTO   C15 2529   5.310   5.550   2.285  0.5657 -0.0818 -0.6286
    6CHTO   H28 2530   5.268   5.515   2.191 -0.6966  1.2987 -0.5868
    6CHTO   O10 2531   5.214   5.496   2.410 -0.4785  0.7492  0.7537
    6CHTO    H4 2532   5.171   5.416   2.386  1.3801  0.5127 -2.0921
    6CHTO    O5 2533   5.424   5.462   2.295 -0.2369  0.1062  0.3127
    6CHTO   C10 2534   5.537   5.499   2.214 -0.1360  0.3359 -0.8761
    6CHTO   H23 2535   5.520   5.486   2.107 -2.2945 -2.8967 -0.2279
    6CHTO   C17 2536   5.639   5.399   2.267  0.4031  0.1689 -0.0078
    6CHTO   O12 2537   5.628   5.270   2.204 -0.5634 -0.3587  0.0826
    6CHTO    H6 2538   5.639   5.195   2.259  0.2295  0.6632  1.3586
    7CHTO  H203 2539   4.612   1.434   2.307 -0.3235  2.1210  0.2106
    7CHTO   O82 2540   4.662   1.439   2.386  0.5185 -0.4495 -0.1062
    7CHTO  C123 2541   4.774   1.530   2.375  0.1371 -0.3621  0.4529
    7CHTO  H227 2542   4.740   1.632   2.355 -2.7043 -1.0293  1.5823
    7CHTO   O77 2543   4.825   1.523   2.521  0.2375 -0.8714 -0.2316
    7CHTO  C118 2544   4.938   1.611   2.546  0.3648  0.1581 -0.5065
    7CHTO  H222 2545   4.905   1.712   2.520 -0.0337  0.3346  0.6498
    7CHTO  C125 2546   4.980   1.613   2.697  0.1708  0.2657 -0.8513
    7CHTO   O84 2547   5.039   1.489   2.738 -0.1325  0.2165 -0.0367
    7CHTO  H205 2548   5.041   1.478   2.831  0.3684 -0.4074 -0.1188
    7CHTO  C114 2549   5.050   1.568   2.453 -0.1809  0.5558 -0.2406
    7CHTO  H218 2550   5.076   1.465   2.478 -0.4474  0.4367 -0.4539
    7CHTO  C116 2551   5.013   1.569   2.305 -0.1361  0.0201 -0.0170
    7CHTO  H220 2552   4.989   1.673   2.275 -0.2947  0.2825  1.0137
    7CHTO   O79 2553   5.131   1.529   2.233  0.4097 -0.1617 -0.1616
    7CHTO  H201 2554   5.146   1.582   2.157 -1.8445  2.0424  0.8439
    7CHTO  C120 2555   4.888   1.477   2.276  0.1302 -0.4351 -0.4202
    7CHTO  H224 2556   4.907   1.374   2.313  0.2597  0.7233  2.9373
    7CHTO   N21 2557   4.837   1.475   2.137 -0.8023  0.1124  0.5024
    7CHTO  H211 2558   4.880   1.392   2.082 -0.9134  0.8669 -0.7283
    7CHTO  H212 2559   4.732   1.455   2.150 -0.5521 -0.3513  1.9704
    7CHTO   O75 2560   5.148   1.665   2.489  0.2618 -0.1168 -0.0990
    7CHTO  C112 2561   5.317   1.600   2.498  0.0242 -0.2940  0.6660
    7CHTO  H216 2562   5.333   1.535   2.411  1.9703 -0.4570  1.1190
    7CHTO   O73 2563   5.338   1.530   2.618  0.5383 -0.3387  1.0127
    7CHTO  C113 2564   5.471   1.482   2.630  0.5700 -0.0926 -0.8218
    7CHTO  H217 2565   5.502   1.416   2.546  1.1590 -0.4101 -0.3524
    7CHTO  C124 2566   5.470   1.380   2.752  0.0523  0.1443 -0.1822
    7CHTO   O83 2567   5.595   1.308   2.765  0.0271  0.2398  0.4550
    7CHTO  H204 2568   5.632   1.323   2.850  0.4190 -2.4220  0.7868
    7CHTO  C109 2569   5.570   1.600   2.642 -0.0056 -0.5715  0.5657
    7CHTO  H213 2570   5.543   1.659   2.731  3.1082 -0.6643  1.6606
    7CHTO  C110 2571   5.557   1.690   2.510 -0.0189  0.0268  0.2293
    7CHTO  H214 2572   5.587   1.628   2.425 -1.1175 -0.5821  0.2805
    7CHTO   O78 2573   5.648   1.799   2.510  0.2798  0.3986 -0.4290
    7CHTO  H200 2574   5.676   1.812   2.599  2.7901  0.7921 -1.2177
    7CHTO  C111 2575   5.409   1.725   2.482  0.6463  0.4702 -0.6472
    7CHTO  H215 2576   5.371   1.789   2.563 -3.2313 -1.3077 -0.9533
    7CHTO   N19 2577   5.381   1.801   2.352 -0.1444  0.0278  0.0107
    7CHTO  H207 2578   5.298   1.866   2.372  0.5015  1.2454 -1.1722
    7CHTO  H208 2579   5.369   1.737   2.265  0.2328 -0.2187  0.1361
    7CHTO   O74 2580   5.712   1.554   2.658  0.5580 -0.4795 -0.5980
    7CHTO  C115 2581   5.814   1.637   2.746 -0.5007 -0.6356  0.5428
    7CHTO  H219 2582   5.776   1.738   2.762 -2.2432 -1.0532 -0.7920
    7CHTO   O76 2583   5.834   1.568   2.893  0.3658 -0.4436  0.0211
    7CHTO  C122 2584   5.900   1.440   2.901  0.2625 -0.5744 -0.2648
    7CHTO  H226 2585   5.826   1.368   2.866 -0.8809  0.9817 -1.1344
    7CHTO  C126 2586   5.930   1.401   3.050  0.5034  0.1343  0.0782
    7CHTO   O85 2587   5.814   1.394   3.130 -0.4422  0.0755  0.1761
    7CHTO  H206 2588   5.833   1.357   3.214 -1.2266  0.0370  0.3393
    7CHTO  C121 2589   6.034   1.454   2.828 -0.1289 -0.1683  1.0180
    7CHTO  H225 2590   6.111   1.524   2.865  2.0127 -1.3776 -1.0318
    7CHTO   O81 2591   6.108   1.333   2.838  0.1933 -0.2896  0.2177
    7CHTO  H202 2592   6.129   1.322   2.928 -0.6207 -0.3755  0.3941
    7CHTO  C119 2593   6.000   1.491   2.684 -0.7387 -0.0016 -0.5177
    7CHTO  H223 2594   6.095   1.491   2.630  0.4124 -1.2204  1.4262
    7CHTO  C117 2595   5.945   1.635   2.662 -0.7910  0.2960 -0.6767
    7CHTO  H221 2596   5.907   1.665   2.564 -1.1109 -0.7444 -0.8785
    7CHTO   N20 2597   6.043   1.740   2.696  0.3356 -0.0996  0.0311
    7CHTO  H209 2598   6.067   1.745   2.801  0.2877  2.9768 -0.0457
    7CHTO  H210 2599   6.020   1.833   2.646 -3.6927  0.4097  2.5851
    7CHTO   O80 2600   5.923   1.370   2.603  0.3382 -0.1327 -0.1954
    7CHTO  C103 2601   5.969   1.323   2.477 -0.0766  0.5862  0.2364
    7CHTO  H190 2602   5.938   1.391   2.397 -0.6032 -0.5234 -0.5022
    7CHTO  C101 2603   6.126   1.285   2.453 -0.2985 -0.2988  0.5817
    7CHTO  H188 2604   6.154   1.239   2.548 -0.7282  0.4373  1.0755
    7CHTO   O68 2605   6.215   1.410   2.421  0.1808 -0.1908  0.1831
    7CHTO  H168 2606   6.221   1.467   2.496  1.8537  0.0780 -0.1186
    7CHTO   C99 2607   6.149   1.181   2.342  0.1409  0.1158  0.2348
    7CHTO  H186 2608   6.133   1.227   2.243 -0.6861 -0.5200  0.0612
    7CHTO   N17 2609   6.290   1.122   2.341 -0.1400  0.0214  0.4857
    7CHTO  H174 2610   6.341   1.135   2.246  0.8240 -2.9456  0.5420
    7CHTO  H175 2611   6.358   1.153   2.418  1.0542  0.3101 -0.6670
    7CHTO   C97 2612   6.039   1.067   2.353  0.0772  0.0829  0.2385
    7CHTO  H184 2613   6.063   1.009   2.444  1.1699  0.7422  0.3733
    7CHTO   O64 2614   5.903   1.121   2.354  0.3449 -0.5992 -0.1752
    7CHTO  C104 2615   5.877   1.190   2.471  0.0004 -0.2605  0.1358
    7CHTO  H191 2616   5.883   1.144   2.570  0.2325  2.3378  1.3719
    7CHTO  C108 2617   5.729   1.227   2.450  0.4554 -0.7437 -0.0016
    7CHTO   O71 2618   5.639   1.113   2.450  0.1574  0.2820  0.3370
    7CHTO  H171 2619   5.649   1.059   2.525  0.5383  0.3625  0.3450
    7CHTO   O62 2620   6.028   0.978   2.238  0.0963  0.3689 -0.4960
    7CHTO   C91 2621   5.941   0.860   2.234  0.5955  0.1495 -0.5106
    7CHTO  H178 2622   5.974   0.797   2.152  1.6426  0.6582 -0.4877
    7CHTO   C92 2623   5.790   0.889   2.207  0.4674 -0.0587  0.8200
    7CHTO  H179 2624   5.756   0.971   2.273 -0.7455  0.0604  0.0670
    7CHTO   O66 2625   5.789   0.953   2.079  0.0713 -0.1923 -0.8938
    7CHTO  H166 2626   5.701   0.959   2.046  0.0604 -0.1626 -0.8601
    7CHTO   C93 2627   5.700   0.755   2.209  0.3746 -0.3446  0.4657
    7CHTO  H180 2628   5.744   0.685   2.138 -0.2207  0.3740 -0.6236
    7CHTO   N16 2629   5.561   0.764   2.155  0.8614  0.0015  0.4085
    7CHTO  H172 2630   5.553   0.826   2.067 -0.2252 -0.1225  0.4160
    7CHTO  H173 2631   5.491   0.794   2.231 -1.2338 -1.9972 -0.6896
    7CHTO   C94 2632   5.716   0.695   2.354  0.9570 -0.5243 -0.3787
    7CHTO  H181 2633   5.675   0.759   2.432  0.3374  0.3649 -1.4226
    7CHTO   O61 2634   5.856   0.662   2.360 -0.1590 -0.0129 -0.2790
    7CHTO   C95 2635   5.949   0.770   2.360  0.1502  0.0287 -0.0553
    7CHTO  H182 2636   5.929   0.834   2.446 -0.4485 -1.2706  0.7878
    7CHTO  C106 2637   6.101   0.716   2.386  0.5820  0.2868 -0.0971
    7CHTO   O69 2638   6.122   0.660   2.517 -0.2470  0.4095  0.1366
    7CHTO  H169 2639   6.074   0.710   2.581 -0.3736  3.8243 -2.4595
    7CHTO   O63 2640   5.655   0.554   2.359  0.2422 -0.0884  0.2904
    7CHTO   C96 2641   5.628   0.499   2.510 -0.1119 -0.4815  0.3023
    7CHTO  H183 2642   5.597   0.581   2.574  0.4798 -0.3208  0.3852
    7CHTO   C98 2643   5.741   0.413   2.574 -0.4011 -0.4317  0.3301
    7CHTO  H185 2644   5.796   0.352   2.500  0.5761 -0.2095  0.8541
    7CHTO   O67 2645   5.840   0.507   2.619  0.0570  0.6201 -0.7756
    7CHTO  H167 2646   5.869   0.548   2.540  0.9810 -2.3824 -2.0605
    7CHTO  C102 2647   5.687   0.309   2.691 -0.2129 -0.2772 -0.3983
    7CHTO  H189 2648   5.669   0.371   2.780  2.0531  0.1230 -0.1854
    7CHTO   N18 2649   5.789   0.216   2.742  0.1707 -0.0291 -0.4282
    7CHTO  H176 2650   5.836   0.153   2.668  0.6658 -1.3109  0.9353
    7CHTO  H177 2651   5.748   0.146   2.814 -0.8396  1.0216  0.0412
    7CHTO  C105 2652   5.551   0.248   2.655 -0.8217  0.1193  0.1225
    7CHTO  H192 2653   5.565   0.187   2.566  0.4793 -2.0999  1.8041
    7CHTO   O65 2654   5.459   0.352   2.625  0.0623  0.5850  0.2143
    7CHTO  C100 2655   5.494   0.421   2.501 -0.7146 -0.5146  0.5730
    7CHTO  H187 2656   5.509   0.352   2.417 -0.1660  1.4846 -1.0237
    7CHTO  C107 2657   5.383   0.518   2.461  0.8912 -0.3534  0.1679
    7CHTO   O70 2658   5.273   0.455   2.399 -0.0821  0.0429 -0.0356
    7CHTO  H170 2659   5.196   0.508   2.407  0.9609  1.4391  1.0085
    7CHTO   O57 2660   5.492   0.154   2.781 -0.9284 -0.3052  0.5345
    7CHTO   C85 2661   5.376   0.072   2.758  0.1665  0.8344 -0.0086
    7CHTO  H157 2662   5.335   0.086   2.655 -1.1740  0.5436  0.4771
    7CHTO   C83 2663   5.263   0.126   2.853 -1.3965  0.3651 -0.1624
    7CHTO  H155 2664   5.245   0.230   2.825 -1.2589  0.9448  1.8026
    7CHTO   O56 2665   5.309   0.126   2.991 -0.5155 -0.0850 -0.0035
    7CHTO  H135 2666   5.367   0.194   3.019  2.6251 -1.6065 -2.4634
    7CHTO   C81 2667   5.131   0.046   2.814  0.2248  0.0215 -0.7648
    7CHTO  H153 2668   5.103   0.063   2.710  0.3005 -0.1455 -0.8123
    7CHTO   N14 2669   5.005   0.090   2.888 -0.5598  0.1958  1.0938
    7CHTO  H141 2670   4.987   0.188   2.850 -0.8450  0.2037  1.2504
    7CHTO  H142 2671   4.926   0.025   2.859  0.8487 -1.6304  1.2148
    7CHTO   C79 2672   5.159  -0.107   2.835 -0.2261  0.0682  0.0485
    7CHTO  H151 2673   5.079  -0.159   2.783  1.3586 -1.2127 -1.1785
    7CHTO   O52 2674   5.275  -0.157   2.770 -0.1441  0.0427 -0.1059
    7CHTO   C86 2675   5.393  -0.073   2.793 -0.0762  0.4202  0.1606
    7CHTO  H158 2676   5.404  -0.094   2.901  0.0873 -2.8555 -0.4252
    7CHTO   C90 2677   5.513  -0.138   2.723 -0.0382  0.5249 -0.2168
    7CHTO   O60 2678   5.541  -0.275   2.757  0.0201  0.3623  0.2134
    7CHTO  H138 2679   5.582  -0.320   2.686  1.6160  2.2919 -0.1434
    7CHTO   O50 2680   5.168  -0.147   2.971  0.7038  0.0507 -0.5601
    7CHTO   C73 2681   5.168  -0.274   3.038  0.1704  1.1065 -0.4926
    7CHTO  H145 2682   5.269  -0.318   3.035 -0.2267  0.1243 -0.0039
    7CHTO   C74 2683   5.063  -0.374   2.987  0.5539 -0.4459  0.4939
    7CHTO  H146 2684   5.076  -0.396   2.880 -1.2408 -2.0744  0.5926
    7CHTO   O54 2685   5.072  -0.501   3.056 -0.3425 -0.6482 -0.6249
    7CHTO  H133 2686   5.081  -0.574   2.997 -0.8913 -0.7487 -0.5895
    7CHTO   C75 2687   4.920  -0.308   3.011  0.0560 -0.0477 -0.0893
    7CHTO  H147 2688   4.909  -0.218   2.949 -1.6192 -0.4299 -0.3590
    7CHTO   N13 2689   4.810  -0.391   2.959  0.0323  0.4430 -0.2607
    7CHTO  H139 2690   4.816  -0.499   2.969 -0.7113  0.1544 -2.7080
    7CHTO  H140 2691   4.709  -0.365   2.984  0.2212  0.1083  0.8917
    7CHTO   C76 2692   4.910  -0.271   3.165 -0.5078  0.4443  0.0264
    7CHTO  H148 2693   4.920  -0.360   3.228  0.6563  0.9615  0.5860
    7CHTO   O49 2694   5.017  -0.185   3.214 -0.0025 -0.1993 -0.2920
    7CHTO   C77 2695   5.147  -0.233   3.186 -0.1856 -0.5049 -0.0655
    7CHTO  H149 2696   5.156  -0.317   3.254 -3.5873 -1.3330 -0.5492
    7CHTO   C88 2697   5.248  -0.131   3.236  0.1383  0.3945 -0.2628
    7CHTO   O58 2698   5.393  -0.165   3.202  0.8863  0.2769 -0.0466
    7CHTO  H136 2699   5.407  -0.143   3.112 -1.9453 -2.2511 -1.1875
    7CHTO   O51 2700   4.792  -0.185   3.193  0.2651 -0.8107 -0.3519
    7CHTO   C78 2701   4.733  -0.212   3.353 -0.1051 -0.7942  0.2206
    7CHTO  H150 2702   4.822  -0.217   3.419 -0.1326 -0.1140  0.3059
    7CHTO   C80 2703   4.651  -0.340   3.365 -0.3937  0.2312  0.0260
    7CHTO  H152 2704   4.566  -0.334   3.294 -0.5131 -1.3277  0.0288
    7CHTO   O55 2705   4.734  -0.453   3.327  0.1242  0.4444  0.1388
    7CHTO  H134 2706   4.767  -0.507   3.396  0.1475 -1.3745 -1.2499
    7CHTO   C84 2707   4.601  -0.352   3.518  0.6146  0.5485 -0.2300
    7CHTO  H156 2708   4.689  -0.382   3.575  0.2506 -0.3042 -0.1099
    7CHTO   N15 2709   4.506  -0.463   3.528  0.0934  0.4134  0.0049
    7CHTO  H143 2710   4.564  -0.553   3.529 -1.1976 -0.4531 -1.5191
    7CHTO  H144 2711   4.445  -0.470   3.440 -1.6851 -1.6132  1.3673
    7CHTO   C87 2712   4.533  -0.215   3.565 -0.3763  0.3986  0.0448
    7CHTO  H159 2713   4.437  -0.202   3.514  0.2052  1.9017 -0.6922
    7CHTO   O53 2714   4.621  -0.090   3.532 -0.0465  0.1042 -0.4714
    7CHTO   C82 2715   4.653  -0.085   3.394  0.0290  0.7453  0.6859
    7CHTO  H154 2716   4.562  -0.076   3.335  0.7172 -0.0265 -0.5298
    7CHTO   C89 2717   4.730   0.047   3.376 -0.2355  0.2501 -0.5224
    7CHTO   O59 2718   4.742   0.103   3.240  0.3600 -0.3201  0.4378
    7CHTO  H137 2719   4.824   0.081   3.200 -0.2536 -2.5341  0.3516
    7CHTO   O45 2720   4.498  -0.216   3.746 -0.1808 -0.0947 -0.0981
    7CHTO   C67 2721   4.585  -0.128   3.817  0.3477  0.1084 -0.4757
    7CHTO  H124 2722   4.649  -0.066   3.755  1.2444 -1.9990 -1.6983
    7CHTO   C65 2723   4.490  -0.027   3.887 -0.1822 -0.7011 -1.4575
    7CHTO  H122 2724   4.411  -0.092   3.925  0.9264 -1.3808 -0.2920
    7CHTO   O44 2725   4.441   0.060   3.791 -0.5095 -0.2290 -0.2475
    7CHTO  H102 2726   4.392   0.131   3.827  0.5322  0.7114 -0.6635
    7CHTO   C63 2727   4.550   0.037   4.020  0.1831 -0.5210 -1.0503
    7CHTO  H120 2728   4.534  -0.035   4.100 -1.8285  1.1018  0.0543
    7CHTO   N11 2729   4.486   0.164   4.068 -0.4244  0.5423 -0.3089
    7CHTO  H108 2730   4.560   0.241   4.067 -2.2921  2.4032 -2.3538
    7CHTO  H109 2731   4.452   0.145   4.168  2.1907  0.2701  0.5452
    7CHTO   C61 2732   4.703   0.037   4.005  0.2252 -0.1480  0.3002
    7CHTO  H118 2733   4.748   0.084   4.094  0.0872  0.6888 -0.0687
    7CHTO   O40 2734   4.752  -0.103   4.002  0.2045 -0.6436  0.6660
    7CHTO   C68 2735   4.682  -0.195   3.920  0.1108  0.8109  0.1477
    7CHTO  H125 2736   4.622  -0.248   3.997  0.5968 -1.7419 -1.1903
    7CHTO   C72 2737   4.777  -0.299   3.854 -0.2697 -0.6293  0.2561
    7CHTO   O48 2738   4.876  -0.348   3.940 -0.4880  0.1830 -0.3183
    7CHTO  H105 2739   4.939  -0.279   3.944 -0.5782  0.2405  0.2548
    7CHTO   O38 2740   4.731   0.113   3.889  0.2868 -0.6388 -0.6153
    7CHTO   C55 2741   4.865   0.169   3.882  0.1532  0.3296  0.1905
    7CHTO  H112 2742   4.931   0.108   3.946  0.7592 -1.8792 -2.4639
    7CHTO   C56 2743   4.864   0.323   3.913  0.3931 -0.0824  0.2583
    7CHTO  H113 2744   4.786   0.360   3.844  0.6017  1.0169  0.6026
    7CHTO   O42 2745   4.815   0.342   4.047  0.2407  0.3080 -0.4894
    7CHTO  H100 2746   4.837   0.430   4.071 -0.4955  0.3767 -0.0736
    7CHTO   C57 2747   4.999   0.400   3.883 -0.2234 -0.3694  0.0203
    7CHTO  H114 2748   5.084   0.375   3.947 -1.9669  0.4033  2.6766
    7CHTO   N10 2749   4.986   0.549   3.903  0.1852  0.0119 -0.2025
    7CHTO  H106 2750   4.916   0.567   3.983  1.4013 -0.3697  0.9608
    7CHTO  H107 2751   5.084   0.579   3.938  0.7402 -2.7985  0.7544
    7CHTO   C58 2752   5.030   0.371   3.730  0.2999 -0.0124 -0.3381
    7CHTO  H115 2753   4.944   0.404   3.670 -0.3460 -1.7568 -0.4048
    7CHTO   O37 2754   5.045   0.225   3.715 -0.1877 -0.4151  0.3792
    7CHTO   C59 2755   4.927   0.150   3.741  0.0766  0.2959 -0.2465
    7CHTO  H116 2756   4.852   0.181   3.668  0.2027  1.9158  0.2915
    7CHTO   C70 2757   4.964   0.003   3.717 -0.2562  0.9584  0.4152
    7CHTO   O46 2758   5.021  -0.011   3.588 -0.6215  0.2144  0.9217
    7CHTO  H103 2759   5.035  -0.101   3.564 -2.1915  0.3643 -0.6596
    7CHTO   O39 2760   5.180   0.448   3.691 -0.2896  0.7824  0.2002
    7CHTO   C60 2761   5.246   0.380   3.582 -0.0607  0.4965  0.5124
    7CHTO  H117 2762   5.265   0.274   3.600 -1.0438  0.3376  0.6302
    7CHTO   C62 2763   5.162   0.388   3.453  0.4039 -0.0594  0.2110
    7CHTO  H119 2764   5.067   0.338   3.479 -0.6246  1.6720 -0.0734
    7CHTO   O43 2765   5.133   0.515   3.410  0.0631  0.2986  0.5548
    7CHTO  H101 2766   5.078   0.517   3.334  2.6209  1.8497 -1.3677
    7CHTO   C66 2767   5.235   0.300   3.343 -0.2890 -0.1192 -0.1333
    7CHTO  H123 2768   5.243   0.196   3.375 -0.0003 -0.1048 -0.1565
    7CHTO   N12 2769   5.153   0.294   3.220 -0.1885  0.3388 -0.3471
    7CHTO  H110 2770   5.059   0.347   3.220 -0.0610  0.5729  0.2350
    7CHTO  H111 2771   5.146   0.190   3.191 -1.5638  0.9623 -2.3309
    7CHTO   C69 2772   5.381   0.352   3.311 -0.0573  0.7158  0.1648
    7CHTO  H126 2773   5.384   0.435   3.237  0.0995  2.7880  2.4299
    7CHTO   O41 2774   5.454   0.394   3.421 -0.0399 -0.2535  0.3840
    7CHTO   C64 2775   5.381   0.448   3.550  0.4889  0.2551  0.1220
    7CHTO  H121 2776   5.361   0.558   3.546 -0.9276  0.1148  2.5344
    7CHTO   C71 2777   5.479   0.425   3.665 -0.0616  0.4672  0.2925
    7CHTO   O47 2778   5.534   0.292   3.679  0.2952 -0.5333  0.0902
    7CHTO  H104 2779   5.565   0.270   3.765 -0.2245 -0.5539  0.2744
    7CHTO   O34 2780   5.458   0.212   3.240 -0.2835 -0.1938  0.3900
    7CHTO   C49 2781   5.612   0.204   3.266  0.5674  0.1872  0.0760
    7CHTO   H91 2782   5.648   0.304   3.289  1.0253 -0.5232  2.6562
    7CHTO   C47 2783   5.690   0.156   3.141  1.0886  0.2133  0.7706
    7CHTO   H89 2784   5.794   0.187   3.159  1.8662 -0.1847 -2.5732
    7CHTO   O33 2785   5.642   0.224   3.028 -0.5907  0.2379 -0.1740
    7CHTO   H70 2786   5.669   0.179   2.950  1.1563 -0.8203  0.9787
    7CHTO   C45 2787   5.674  -0.009   3.120 -0.1123  0.3089  0.3146
    7CHTO   H87 2788   5.566  -0.030   3.110  0.1080 -0.1944 -1.1620
    7CHTO    N8 2789   5.743  -0.059   3.002  0.1101 -0.9416 -0.3614
    7CHTO   H75 2790   5.717  -0.160   2.977  0.6024 -1.0013 -0.6307
    7CHTO   H76 2791   5.739   0.006   2.916 -1.4938  1.2936  1.3329
    7CHTO   C43 2792   5.717  -0.080   3.256 -0.1669  0.9486 -0.0530
    7CHTO   H85 2793   5.715  -0.188   3.241 -1.1101  0.7205  1.5810
    7CHTO   O29 2794   5.646  -0.035   3.370 -0.3092 -0.1926 -0.6134
    7CHTO   C50 2795   5.646   0.112   3.388 -0.4878  0.1276  0.4852
    7CHTO   H92 2796   5.566   0.141   3.458  0.4238 -0.0200  1.5884
    7CHTO   C54 2797   5.775   0.164   3.462  0.2689  0.2135 -0.0449
    7CHTO   O36 2798   5.766   0.305   3.484 -0.2881 -0.0697  0.1149
    7CHTO   H72 2799   5.851   0.342   3.499 -0.9535  1.4157  0.3310
    7CHTO   O27 2800   5.862  -0.067   3.276  0.0058 -0.7612  0.1252
    7CHTO   C37 2801   5.984  -0.109   3.344 -0.1807  0.7670  0.2744
    7CHTO   H79 2802   5.977  -0.092   3.453 -0.7817 -2.5505  0.7964
    7CHTO   C38 2803   6.001  -0.263   3.328 -0.4971 -1.0156 -0.6171
    7CHTO   H80 2804   6.001  -0.289   3.221 -3.3432  0.1183 -0.9268
    7CHTO   O31 2805   5.883  -0.316   3.389  0.1210  0.2658  0.8659
    7CHTO   H68 2806   5.815  -0.320   3.325  0.9239  1.6940 -0.0933
    7CHTO   C39 2807   6.133  -0.310   3.404  0.3837 -0.6089  0.4623
    7CHTO   H81 2808   6.111  -0.285   3.508 -0.1693  0.4301  0.1025
    7CHTO    N7 2809   6.162  -0.460   3.406  0.0302 -0.5673  0.4435
    7CHTO   H73 2810   6.225  -0.482   3.321  0.8389 -2.4607  1.5065
    7CHTO   H74 2811   6.073  -0.521   3.401  0.0177 -0.6299  1.2860
    7CHTO   C40 2812   6.254  -0.216   3.361 -0.1016  0.6572 -0.8238
    7CHTO   H82 2813   6.316  -0.235   3.273  0.3418  1.7932 -0.7583
    7CHTO   O26 2814   6.223  -0.074   3.375  0.6734  0.2563  0.7379
    7CHTO   C41 2815   6.115  -0.040   3.283 -0.6547 -0.5811 -0.2864
    7CHTO   H83 2816   6.122  -0.080   3.180  1.3379 -1.2688  0.0861
    7CHTO   C52 2817   6.118   0.114   3.266  0.3706 -0.0610  0.1256
    7CHTO   O35 2818   6.239   0.165   3.219  0.3718 -0.0708  0.6238
    7CHTO   H71 2819   6.317   0.126   3.254 -1.2726 -1.2979  3.0683
    7CHTO   O28 2820   6.360  -0.237   3.467 -0.0960  0.2612 -0.1057
    7CHTO   C42 2821   6.496  -0.198   3.470  0.6456  0.1175 -0.2349
    7CHTO   H84 2822   6.530  -0.247   3.562 -0.9656 -0.3976  0.1052
    7CHTO   C44 2823   6.522  -0.046   3.485 -0.0044 -0.3007 -0.0260
    7CHTO   H86 2824   6.483   0.008   3.398 -0.5302 -0.9564 -0.1942
    7CHTO   O32 2825   6.457   0.000   3.608 -0.3393  0.2258  0.7117
    7CHTO   H69 2826   6.423   0.087   3.596 -1.6295 -0.4967 -1.0227
    7CHTO   C48 2827   6.679  -0.021   3.480 -1.2467  0.0818  0.1253
    7CHTO   H90 2828   6.717  -0.072   3.569  0.3932  0.7867 -0.1549
    7CHTO    N9 2829   6.710   0.124   3.497 -0.2835 -0.1771 -0.2944
    7CHTO   H77 2830   6.626   0.185   3.465 -1.3942 -1.5766 -0.0975
    7CHTO   H78 2831   6.737   0.146   3.599 -0.6393  0.8064 -0.3994
    7CHTO   C51 2832   6.739  -0.083   3.351 -0.6570 -0.7306  0.2992
    7CHTO   H93 2833   6.692  -0.035   3.265  0.5597 -1.7690 -0.9817
    7CHTO   O30 2834   6.718  -0.225   3.355 -0.3494 -0.3294 -0.1199
    7CHTO   C46 2835   6.572  -0.263   3.351  0.5812  0.4718  0.3370
    7CHTO   H88 2836   6.530  -0.218   3.262  0.7010 -0.5219 -0.2272
    7CHTO   C53 2837   6.551  -0.419   3.342 -0.0765 -0.5515  0.6598
    7CHTO   O72 2838   6.635  -0.477   3.244 -0.1645 -0.4587 -0.2233
    7CHTO  H199 2839   6.649  -0.569   3.255  2.2013 -0.1534 -0.4242
    7CHTO   O22 2840   6.888  -0.072   3.336  0.0283 -0.0459 -0.4818
    7CHTO   C31 2841   6.973  -0.065   3.221 -0.6768  0.1191  0.4164
    7CHTO   H59 2842   7.076  -0.080   3.258  0.5348 -0.6655 -3.0752
    7CHTO   C29 2843   6.951  -0.181   3.130 -0.2327  0.2291 -0.1608
    7CHTO   H57 2844   6.853  -0.187   3.081 -0.2972  2.7398 -0.3892
    7CHTO   O21 2845   6.965  -0.299   3.213 -0.0319 -0.1125  0.3709
    7CHTO   H37 2846   6.933  -0.373   3.166 -0.0186  0.2996 -0.3042
    7CHTO   C27 2847   7.061  -0.174   3.017  0.2817 -0.0810  0.1903
    7CHTO   H55 2848   7.161  -0.183   3.062  0.4544 -1.0150 -0.3531
    7CHTO    N5 2849   7.042  -0.281   2.917  0.8902 -0.1086 -0.0187
    7CHTO   H43 2850   7.116  -0.283   2.839  1.3319  2.0764  0.2984
    7CHTO   H44 2851   7.042  -0.380   2.959 -2.1505 -0.7297 -1.3420
    7CHTO   C25 2852   7.042  -0.033   2.947 -0.3632 -0.3649  0.6553
    7CHTO   H53 2853   6.945  -0.029   2.896 -0.2082  2.5724  0.5385
    7CHTO   O17 2854   7.045   0.076   3.037  0.5439  0.6730  0.8319
    7CHTO   C32 2855   6.965   0.073   3.156 -0.2354  0.1977 -0.5410
    7CHTO   H60 2856   6.862   0.084   3.125 -0.7347  1.3018  1.4552
    7CHTO   C36 2857   7.009   0.181   3.251 -0.0259  0.0254  0.0237
    7CHTO   O25 2858   6.978   0.315   3.194 -0.2028 -0.1093  0.1412
    7CHTO   H40 2859   6.939   0.305   3.109  1.0900 -1.4345 -0.3299
    7CHTO   O15 2860   7.133   0.003   2.843 -0.6128 -0.3331 -0.1083
    7CHTO   C19 2861   7.139   0.076   2.717  0.6384  0.1348  0.2697
    7CHTO   H47 2862   7.244   0.062   2.688 -0.2035 -1.2984 -2.1936
    7CHTO   C20 2863   7.049   0.020   2.608  0.8592 -0.5823 -0.9369
    7CHTO   H48 2864   6.943   0.030   2.636  0.4075 -1.4013 -2.3070
    7CHTO   O19 2865   7.083  -0.121   2.581 -0.0244 -0.0685 -0.9323
    7CHTO   H35 2866   7.147  -0.137   2.514  1.1832  0.2663  0.1323
    7CHTO   C21 2867   7.062   0.108   2.473  0.1298  0.1012  0.1168
    7CHTO   H49 2868   7.167   0.111   2.447  0.1664 -0.8740  0.1278
    7CHTO    N4 2869   6.984   0.049   2.359  0.2523 -0.1288  0.0384
    7CHTO   H41 2870   7.050  -0.017   2.304 -0.0974 -1.5099  1.2342
    7CHTO   H42 2871   6.908  -0.018   2.398  0.0453  1.1925  1.9789
    7CHTO   C22 2872   7.021   0.250   2.517  0.4190 -0.2979  0.3184
    7CHTO   H50 2873   6.920   0.246   2.557 -0.1602 -0.2690 -1.0998
    7CHTO   O14 2874   7.119   0.295   2.611  0.5210 -0.0674 -0.6587
    7CHTO   C23 2875   7.117   0.233   2.739 -0.2239  0.5857  0.4056
    7CHTO   H51 2876   7.020   0.255   2.787 -0.6046 -1.6670  0.7231
    7CHTO   C34 2877   7.234   0.294   2.819 -0.2467  0.5449 -0.1313
    7CHTO   O23 2878   7.201   0.317   2.959 -0.0529 -0.1178  0.1629
    7CHTO   H38 2879   7.149   0.395   2.963  1.3451  0.8523 -0.1387
    7CHTO   O16 2880   7.018   0.349   2.414  0.1128  0.4263 -0.3958
    7CHTO   C24 2881   6.926   0.489   2.459 -0.3502  0.1046 -0.1768
    7CHTO   H52 2882   6.905   0.495   2.565 -0.4943  1.0975 -0.2476
    7CHTO   C26 2883   6.791   0.476   2.389  0.6821 -0.1900 -0.3849
    7CHTO   H54 2884   6.810   0.481   2.279 -0.8191  1.3914 -0.6032
    7CHTO   O20 2885   6.719   0.349   2.422 -0.4346  0.2635 -0.0755
    7CHTO   H36 2886   6.631   0.351   2.392 -1.0464  0.2423  1.6743
    7CHTO   C30 2887   6.701   0.606   2.415 -0.4184  0.4646 -0.5143
    7CHTO   H58 2888   6.677   0.604   2.523 -0.2730  1.2214 -0.4656
    7CHTO    N6 2889   6.573   0.606   2.346  0.2281 -0.0333  0.1378
    7CHTO   H45 2890   6.493   0.613   2.417 -0.7251 -1.7522 -0.7138
    7CHTO   H46 2891   6.566   0.515   2.288  3.0943 -0.0530 -0.2440
    7CHTO   C33 2892   6.781   0.737   2.385  0.3518  0.5083  0.2061
    7CHTO   H61 2893   6.809   0.740   2.279  0.0684 -1.8992  0.0406
    7CHTO   O18 2894   6.899   0.730   2.466 -0.6823 -0.2764  0.2155
    7CHTO   C28 2895   6.987   0.625   2.418  0.7377  0.4224  0.0907
    7CHTO   H56 2896   6.992   0.623   2.309 -0.6833 -1.3684  0.0337
    7CHTO   C35 2897   7.121   0.641   2.477  0.0409  0.4161  0.8713
    7CHTO   O24 2898   7.194   0.752   2.420 -0.1941 -0.4319  0.3978
    7CHTO   H39 2899   7.259   0.780   2.481 -1.5311  0.8122  1.2814
    7CHTO    O9 2900   6.701   0.853   2.414  0.2569  0.1437  0.6455
    7CHTO   C13 2901   6.754   0.993   2.351  0.5254 -0.5460 -0.2157
    7CHTO   H26 2902   6.713   0.993   2.247  2.1154  0.7107 -0.8682
    7CHTO   C11 2903   6.914   1.006   2.352 -0.2344 -0.6468 -0.3729
    7CHTO   H24 2904   6.960   0.924   2.295 -1.1899 -0.8016 -0.9361
    7CHTO    O8 2905   6.967   0.995   2.483 -0.1610  0.1218  0.2414
    7CHTO    H3 2906   6.937   0.914   2.518 -1.0805 -0.4689 -1.8146
    7CHTO    C9 2907   6.951   1.143   2.283 -0.1457 -0.1398 -0.0465
    7CHTO   H22 2908   6.913   1.133   2.181  1.4271  0.7715 -0.7382
    7CHTO    N2 2909   7.096   1.150   2.260 -0.0798 -0.3492 -0.4349
    7CHTO   H10 2910   7.152   1.070   2.305 -1.6355 -0.1141  1.9805
    7CHTO   H11 2911   7.114   1.164   2.154  1.5932 -1.6689 -0.3260
    7CHTO    C7 2912   6.893   1.261   2.357 -0.5688 -0.3531  0.5154
    7CHTO   H20 2913   6.912   1.347   2.290 -1.8611 -0.2690  0.2544
    7CHTO    O4 2914   6.751   1.246   2.390  0.9087  0.3068 -0.2760
    7CHTO   C14 2915   6.689   1.116   2.420 -0.0658 -0.0749  0.1608
    7CHTO   H27 2916   6.587   1.134   2.379  0.5015 -1.4137 -1.9440
    7CHTO   C18 2917   6.682   1.099   2.575 -0.0700 -0.3911  0.1863
    7CHTO   O13 2918   6.578   1.175   2.635  0.8301  0.2618 -0.0406
    7CHTO    H7 2919   6.594   1.266   2.649 -0.9942  0.4073  1.3340
    7CHTO    O2 2920   6.978   1.283   2.492 -0.4677 -0.3454 -0.0611
    7CHTO    C1 2921   7.026   1.411   2.515 -0.0549  0.0209 -0.6614
    7CHTO   H14 2922   6.950   1.488   2.488 -0.5359  0.3253  1.4559
    7CHTO    C2 2923   7.165   1.447   2.441 -0.4879  0.5223 -0.3719
    7CHTO   H15 2924   7.237   1.368   2.466 -0.7491  0.4471  0.1518
    7CHTO    O6 2925   7.148   1.461   2.297  0.1502  0.1941 -0.3709
    7CHTO    H1 2926   7.103   1.389   2.258  0.0538  0.6957 -1.1889
    7CHTO    C3 2927   7.227   1.586   2.504 -0.2083 -0.7153 -0.5252
    7CHTO   H16 2928   7.179   1.673   2.457  0.6795 -0.2312 -0.5478
    7CHTO    N1 2929   7.363   1.610   2.449 -0.1941  0.0402  0.1893
    7CHTO    H8 2930   7.428   1.528   2.475  0.2604 -0.3747 -2.1573
    7CHTO    H9 2931   7.401   1.699   2.497  0.8869 -0.5184  0.3778
    7CHTO    C4 2932   7.212   1.602   2.662 -0.6987 -0.6384  0.1516
    7CHTO   H17 2933   7.289   1.542   2.709  1.6140  1.6592 -0.5788
    7CHTO    O1 2934   7.081   1.570   2.702 -0.0844 -0.2433 -0.1363
    7CHTO    C5 2935   7.043   1.433   2.666 -0.2993 -0.2808 -1.0482
    7CHTO   H18 2936   7.115   1.363   2.708  0.4702  0.6810 -0.7529
    7CHTO   C16 2937   6.905   1.401   2.726 -0.1443 -0.3684 -0.1864
    7CHTO   O11 2938   6.905   1.399   2.865 -0.1958  0.3574  0.2615
    7CHTO    H5 2939   6.973   1.347   2.903  0.0656 -1.5323 -2.7272
    7CHTO    O3 2940   7.231   1.741   2.703 -0.0019  0.1248 -0.2124
    7CHTO    C6 2941   7.297   1.756   2.831  0.0954 -0.9401  0.1826
    7CHTO   H19 2942   7.318   1.663   2.883  2.0465 -0.2513  0.6923
    7CHTO    C8 2943   7.428   1.828   2.805 -0.3688 -0.0214 -0.3684
    7CHTO   H21 2944   7.409   1.901   2.727  1.2108 -0.5364 -1.2543
    7CHTO    O7 2945   7.520   1.732   2.750 -0.5342 -0.3305  0.0742
    7CHTO    H2 2946   7.595   1.779   2.720 -0.5255 -0.9008 -0.7779
    7CHTO   C12 2947   7.496   1.904   2.925  0.0922 -1.0435 -0.1186
    7CHTO   H25 2948   7.545   1.820   2.979  1.2421  0.3319  1.0383
    7CHTO    N3 2949   7.602   2.005   2.889 -0.6173  0.2059 -0.3444
    7CHTO   H12 2950   7.677   2.001   2.965  2.0281  0.7118 -2.8392
    7CHTO   H13 2951   7.556   2.103   2.887  2.5159  1.7088 -2.2535
    7CHTO   C15 2952   7.383   1.966   3.015 -0.2519 -0.4762  0.2351
    7CHTO   H28 2953   7.345   2.053   2.961 -2.7914 -0.6158  1.7239
    7CHTO   O10 2954   7.422   2.009   3.151  0.0796  0.1620 -0.2329
    7CHTO    H4 2955   7.466   1.944   3.202 -0.3101  0.1440  0.0816
    7CHTO    O5 2956   7.271   1.880   3.041 -0.6607  0.0129  0.0900
    7CHTO   C10 2957   7.201   1.833   2.926  0.6073  0.5799  0.1979
    7CHTO   H23 2958   7.144   1.914   2.881 -0.3582  0.3794  1.0245
    7CHTO   C17 2959   7.100   1.735   2.979  0.0830  0.6465 -0.2750
    7CHTO   O12 2960   6.990   1.740   2.889  0.3755 -0.0785  0.0875
    7CHTO    H6 2961   6.939   1.661   2.890  0.2913 -0.0341 -0.5393
    8CHTO  H203 2962   7.083   7.614   1.372 -2.4530  1.8018 -0.6524
    8CHTO   O82 2963   7.084   7.660   1.453 -0.0928 -0.1738  0.4681
    8CHTO  C123 2964   6.979   7.614   1.538  0.7488  0.1135  0.0404
    8CHTO  H227 2965   7.006   7.520   1.588 -1.9919 -0.6504  0.1617
    8CHTO   O77 2966   6.977   7.720   1.639 -0.2907 -0.2115  0.5123
    8CHTO  C118 2967   6.901   7.679   1.752 -0.4082  0.2250 -0.4608
    8CHTO  H222 2968   6.934   7.583   1.796  0.1209  0.5810 -0.0873
    8CHTO  C125 2969   6.923   7.787   1.867 -0.0834  0.4886  0.2601
    8CHTO   O84 2970   6.886   7.919   1.823 -0.3593  0.3515 -0.3223
    8CHTO  H205 2971   6.793   7.914   1.811 -0.0374 -1.0148 -2.4359
    8CHTO  C114 2972   6.752   7.670   1.707  0.1115 -0.1730 -0.2032
    8CHTO  H218 2973   6.721   7.771   1.683  1.8950  0.7899  1.4253
    8CHTO  C116 2974   6.732   7.579   1.583 -0.2237 -0.3985 -0.8535
    8CHTO  H220 2975   6.741   7.472   1.610 -0.1803 -0.2021 -0.0732
    8CHTO   O79 2976   6.596   7.598   1.539  0.1425  0.2167 -0.6423
    8CHTO  H201 2977   6.555   7.535   1.595  0.4516 -0.4610 -1.1696
    8CHTO  C120 2978   6.837   7.612   1.473  0.4306  0.3997 -0.3157
    8CHTO  H224 2979   6.811   7.712   1.434  0.8270  0.8317  0.5100
    8CHTO   N21 2980   6.830   7.513   1.367 -0.5700  0.3158 -0.2506
    8CHTO  H211 2981   6.730   7.475   1.348 -0.0376 -0.1338 -2.2607
    8CHTO  H212 2982   6.880   7.548   1.278  0.2713 -0.3148 -0.0346
    8CHTO   O75 2983   6.683   7.619   1.822  0.2212 -0.5433  0.1785
    8CHTO  C112 2984   6.519   7.685   1.835 -0.5318 -0.4247 -0.0728
    8CHTO  H216 2985   6.483   7.716   1.735  1.0061  0.3281 -0.3971
    8CHTO   O73 2986   6.521   7.797   1.929 -0.2444 -0.0963 -0.8111
    8CHTO  C113 2987   6.397   7.879   1.921  0.1937  0.2014 -0.3858
    8CHTO  H217 2988   6.402   7.929   1.823 -2.5205 -0.4771 -0.9147
    8CHTO  C124 2989   6.425   7.988   2.029  0.3817  0.3306  0.3291
    8CHTO   O83 2990   6.317   8.081   2.039  0.4690 -0.6938  0.1513
    8CHTO  H204 2991   6.323   8.123   2.123  1.0083 -0.4813  0.0116
    8CHTO  C109 2992   6.266   7.790   1.957  0.8945  0.2445 -0.1790
    8CHTO  H213 2993   6.273   7.762   2.063 -0.6971  0.0260 -0.1167
    8CHTO  C110 2994   6.269   7.655   1.879 -0.7053  0.6685 -0.1884
    8CHTO  H214 2995   6.245   7.671   1.774 -0.9097 -3.7527 -0.8767
    8CHTO   O78 2996   6.169   7.572   1.933  0.2099  0.0084  0.5797
    8CHTO  H200 2997   6.088   7.620   1.932  0.3859  0.3019 -0.0096
    8CHTO  C111 2998   6.410   7.583   1.888 -0.6494  0.0078 -0.2120
    8CHTO  H215 2999   6.436   7.564   1.993  1.3001  0.9456 -0.5005
    8CHTO   N19 3000   6.425   7.457   1.818  0.0237  0.3119 -0.2485
    8CHTO  H207 3001   6.334   7.420   1.773  0.4591 -0.1847 -0.7377
    8CHTO  H208 3002   6.448   7.375   1.885  0.2449  0.1037 -0.5742
    8CHTO   O74 3003   6.140   7.864   1.939 -0.1443 -0.1982  0.6338
    8CHTO  C115 3004   6.071   7.880   1.783 -0.1596 -0.2213  0.6293
    8CHTO  H219 3005   6.086   7.790   1.724 -0.2710 -0.4876  1.0080
    8CHTO   O76 3006   5.931   7.893   1.788 -0.2174  0.3190 -0.0238
    8CHTO  C122 3007   5.887   8.011   1.853  0.3181 -0.4177  0.4768
    8CHTO  H226 3008   5.896   7.989   1.959  3.6666  1.8877  0.7631
    8CHTO  C126 3009   5.730   8.034   1.836  0.3156  0.6634  0.1156
    8CHTO   O85 3010   5.691   8.055   1.700 -0.2271  0.0930 -0.1497
    8CHTO  H206 3011   5.757   8.015   1.647 -0.3447  0.3570 -0.4982
    8CHTO  C121 3012   5.961   8.150   1.805 -0.3182 -0.1686  0.4418
    8CHTO  H225 3013   5.885   8.228   1.784 -0.5698 -0.7843 -0.9849
    8CHTO   O81 3014   6.050   8.197   1.907 -0.1224 -0.3337  0.3512
    8CHTO  H202 3015   6.056   8.291   1.907 -1.7720 -0.2132  0.6953
    8CHTO  C119 3016   6.042   8.117   1.680 -0.2992 -0.4510 -0.5200
    8CHTO  H223 3017   5.975   8.082   1.601  1.5422 -1.5648 -1.6072
    8CHTO  C117 3018   6.139   7.991   1.698 -0.0918 -0.6992  0.1693
    8CHTO  H221 3019   6.233   8.019   1.746  0.2958 -3.6774  1.2575
    8CHTO   N20 3020   6.182   7.944   1.560 -0.2413  0.6599 -0.0511
    8CHTO  H209 3021   6.284   7.977   1.546 -0.3626  1.1892  0.2985
    8CHTO  H210 3022   6.170   7.837   1.560 -2.0143  0.8218 -1.7421
    8CHTO   O80 3023   6.115   8.242   1.605 -0.4848  0.3325  0.2220
    8CHTO  C103 3024   6.041   8.378   1.587 -0.0823 -0.6154  0.7579
    8CHTO  H190 3025   5.948   8.376   1.643 -0.4516  0.4594  0.1863
    8CHTO  C101 3026   6.119   8.507   1.639  0.3836  0.0811 -0.2175
    8CHTO  H188 3027   6.222   8.510   1.605  0.6135 -0.2418  0.4636
    8CHTO   O68 3028   6.119   8.501   1.774  0.2962  0.5538 -0.4310
    8CHTO  H168 3029   6.199   8.531   1.813 -0.3032 -0.2428  1.4441
    8CHTO   C99 3030   6.045   8.637   1.584  0.5432  0.0963  0.1939
    8CHTO  H186 3031   5.936   8.645   1.605  0.7093 -0.5123  1.3846
    8CHTO   N17 3032   6.106   8.764   1.637  0.7358 -0.1183  0.0904
    8CHTO  H174 3033   6.151   8.749   1.734  0.6226  1.1882  0.3562
    8CHTO  H175 3034   6.170   8.810   1.562 -0.5469  0.0950 -0.8886
    8CHTO   C97 3035   6.051   8.625   1.431  1.1159 -0.5135 -0.0382
    8CHTO  H184 3036   6.153   8.613   1.392  1.5296  0.7715  0.5971
    8CHTO   O64 3037   5.964   8.522   1.391  0.4974  0.2728  0.2804
    8CHTO  C104 3038   6.012   8.389   1.431  0.6729 -0.0241 -0.2102
    8CHTO  H191 3039   6.100   8.354   1.377  0.1041 -1.0513 -0.4715
    8CHTO  C108 3040   5.899   8.295   1.390  0.2183 -0.0261  0.1775
    8CHTO   O71 3041   5.782   8.299   1.476  0.4999 -0.0221  0.1389
    8CHTO  H171 3042   5.719   8.365   1.453  0.9484  0.8226  1.2647
    8CHTO   O62 3043   5.989   8.739   1.365  0.0385 -0.1185 -0.5842
    8CHTO   C91 3044   6.054   8.790   1.247 -0.1037 -0.1081  0.0687
    8CHTO  H178 3045   6.109   8.706   1.205  0.2839  0.8825 -1.4579
    8CHTO   C92 3046   6.160   8.903   1.275 -0.1404  0.4220  0.4573
    8CHTO  H179 3047   6.115   8.985   1.334 -1.7031  0.4239 -0.6912
    8CHTO   O66 3048   6.261   8.843   1.362  0.2185  0.6570  0.3490
    8CHTO  H166 3049   6.235   8.844   1.452  1.2276 -2.8149  0.7255
    8CHTO   C93 3050   6.222   8.960   1.142 -0.7871 -0.2287  0.5640
    8CHTO  H180 3051   6.267   8.878   1.083  0.1459  0.0512  0.8744
    8CHTO   N16 3052   6.336   9.055   1.158 -0.1109  0.0106  0.1802
    8CHTO  H172 3053   6.424   9.003   1.192 -0.7670 -1.2288  0.0508
    8CHTO  H173 3054   6.306   9.139   1.219 -1.8761 -0.3217 -0.1881
    8CHTO   C94 3055   6.102   9.022   1.059  0.0888  0.7330  0.0635
    8CHTO  H181 3056   6.049   9.096   1.119 -0.4241  0.7072 -0.3564
    8CHTO   O61 3057   6.012   8.909   1.031  0.0245  0.2596  0.2801
    8CHTO   C95 3058   5.948   8.839   1.141 -0.2165  0.0379 -0.2930
    8CHTO  H182 3059   5.873   8.905   1.184 -0.4321 -0.8364  0.7028
    8CHTO  C106 3060   5.872   8.716   1.084 -0.1514 -0.8120 -0.0769
    8CHTO   O69 3061   5.776   8.656   1.178 -0.1104 -0.0600 -0.5929
    8CHTO  H169 3062   5.779   8.563   1.173  0.5153 -0.0235 -0.8613
    8CHTO   O63 3063   6.162   9.088   0.922  0.0784  0.0485 -0.2189
    8CHTO   C96 3064   6.049   9.102   0.803  0.0953  0.6552 -0.3687
    8CHTO  H183 3065   5.972   9.029   0.828  1.8607 -0.7787  0.9746
    8CHTO   C98 3066   6.108   9.060   0.663  0.1827 -0.5525  0.2714
    8CHTO  H185 3067   6.195   9.123   0.636 -0.4004 -0.3693 -1.2395
    8CHTO   O67 3068   6.158   8.922   0.665  0.4365  0.0935  0.3208
    8CHTO  H167 3069   6.252   8.920   0.662  0.5240  1.4416  1.5849
    8CHTO  C102 3070   5.998   9.076   0.549  0.3835 -0.1256  0.5513
    8CHTO  H189 3071   5.925   8.994   0.562  0.4047 -0.0358  1.2281
    8CHTO   N18 3072   6.044   9.067   0.411  0.2948  0.0032  0.1127
    8CHTO  H176 3073   6.085   8.970   0.387  0.0970  0.2734 -1.3524
    8CHTO  H177 3074   6.115   9.148   0.404 -1.8903  2.0480  0.8523
    8CHTO  C105 3075   5.900   9.200   0.561  0.1974 -0.0126 -0.0055
    8CHTO  H192 3076   5.942   9.281   0.502  0.8229 -0.5735 -0.3365
    8CHTO   O65 3077   5.890   9.254   0.693 -0.1425 -0.3966 -0.1412
    8CHTO  C100 3078   5.997   9.248   0.782 -0.4979  0.1022 -1.1172
    8CHTO  H187 3079   6.078   9.301   0.731  1.3202 -1.3723  0.1687
    8CHTO  C107 3080   5.969   9.316   0.927 -0.4277  0.3879  0.2880
    8CHTO   O70 3081   5.860   9.246   0.990  0.0384 -0.3896 -0.3016
    8CHTO  H170 3082   5.788   9.306   0.984 -1.3542 -2.0866 -1.3405
    8CHTO   O57 3083   5.755   9.156   0.523  0.3464 -0.5597  0.4807
    8CHTO   C85 3084   5.671   9.252   0.452 -0.0481  0.5657  0.4165
    8CHTO  H157 3085   5.736   9.299   0.376 -0.4922  0.0891 -0.2726
    8CHTO   C83 3086   5.624   9.362   0.544  0.1259  0.0645 -1.2363
    8CHTO  H155 3087   5.711   9.408   0.592 -0.2300  0.2960 -0.8048
    8CHTO   O56 3088   5.553   9.305   0.654  1.0057  0.1239  0.5167
    8CHTO  H135 3089   5.554   9.363   0.728  2.1329  0.8780 -0.0665
    8CHTO   C81 3090   5.542   9.467   0.464 -0.2620 -0.1251 -0.3704
    8CHTO  H153 3091   5.603   9.502   0.381  0.7539  1.1686  0.8955
    8CHTO   N14 3092   5.524   9.588   0.545 -0.2242  0.9824 -0.4188
    8CHTO  H141 3093   5.473   9.662   0.487  0.3593  1.5247 -0.2425
    8CHTO  H142 3094   5.466   9.558   0.629 -0.7643 -2.7536 -2.0001
    8CHTO   C79 3095   5.414   9.394   0.406 -0.1539  0.4234  0.3309
    8CHTO  H151 3096   5.368   9.467   0.339 -0.3402  0.0635  0.0654
    8CHTO   O52 3097   5.446   9.276   0.324 -0.3608 -0.0721  0.1454
    8CHTO   C86 3098   5.542   9.190   0.382  0.5983 -0.2916 -0.0836
    8CHTO  H158 3099   5.476   9.138   0.454 -0.2599 -0.4675 -0.9873
    8CHTO   C90 3100   5.587   9.084   0.276  0.0881  0.2550 -0.3550
    8CHTO   O60 3101   5.478   9.010   0.221  0.1066 -0.3681 -0.8027
    8CHTO  H138 3102   5.455   8.952   0.291  1.8803 -0.7908 -0.5400
    8CHTO   O50 3103   5.318   9.381   0.517 -0.3142 -0.0067  0.2581
    8CHTO   C73 3104   5.192   9.316   0.562 -0.3715 -0.3037 -0.0427
    8CHTO  H145 3105   5.152   9.251   0.483  0.5818  0.7342 -1.4098
    8CHTO   C74 3106   5.090   9.429   0.610 -0.2300 -0.2875 -0.0862
    8CHTO  H146 3107   5.075   9.493   0.522  0.4633 -0.9162 -0.6649
    8CHTO   O54 3108   4.963   9.375   0.648  0.4479  0.4253 -0.2017
    8CHTO  H133 3109   4.885   9.428   0.641 -1.5218 -2.2124  0.8924
    8CHTO   C75 3110   5.151   9.508   0.733  0.6298  0.0248 -0.6065
    8CHTO  H147 3111   5.244   9.556   0.698  0.4432 -0.8883 -2.4014
    8CHTO   N13 3112   5.067   9.618   0.791  0.3666  0.2416 -0.1027
    8CHTO  H139 3113   5.049   9.709   0.735 -0.3006 -0.0357 -0.3422
    8CHTO  H140 3114   4.972   9.581   0.828 -0.6116  2.0175 -0.7880
    8CHTO   C76 3115   5.200   9.405   0.845  0.1500  0.2731  0.0750
    8CHTO  H148 3116   5.109   9.362   0.886 -0.1662  2.1606  1.4364
    8CHTO   O49 3117   5.288   9.308   0.780  0.1831  0.4290  0.3824
    8CHTO   C77 3118   5.219   9.227   0.686 -0.4290 -0.1526 -0.4992
    8CHTO  H149 3119   5.126   9.182   0.721  0.2297 -0.7654  0.4531
    8CHTO   C88 3120   5.301   9.104   0.657  0.6755 -0.2792  0.1374
    8CHTO   O58 3121   5.240   9.007   0.557  0.3047  0.5507  0.0038
    8CHTO  H136 3122   5.206   9.055   0.483 -1.2055 -1.0647 -0.3919
    8CHTO   O51 3123   5.289   9.496   0.958 -0.4790  0.0049  0.3942
    8CHTO   C78 3124   5.335   9.403   1.068 -0.5330 -0.2155 -0.4990
    8CHTO  H150 3125   5.325   9.296   1.041 -1.9761 -0.1147 -0.4540
    8CHTO   C80 3126   5.250   9.424   1.194  0.0872 -0.0742  0.5400
    8CHTO  H152 3127   5.252   9.533   1.216  2.2712 -0.0740  0.4180
    8CHTO   O55 3128   5.114   9.403   1.152  0.2143  0.3609 -0.1400
    8CHTO  H134 3129   5.052   9.446   1.208 -0.7856 -0.8682 -0.2789
    8CHTO   C84 3130   5.298   9.338   1.320 -0.1340 -0.3523 -0.4682
    8CHTO  H156 3131   5.277   9.233   1.298 -1.2008 -0.1945 -0.2453
    8CHTO   N15 3132   5.213   9.363   1.447  0.0387 -0.0889 -0.2158
    8CHTO  H143 3133   5.135   9.426   1.411  0.8136  1.8688  1.4729
    8CHTO  H144 3134   5.165   9.280   1.495 -3.7176  1.9641 -0.2539
    8CHTO   C87 3135   5.453   9.357   1.340 -0.0397  0.1589  0.1426
    8CHTO  H159 3136   5.465   9.460   1.375  0.2608 -0.1751  1.0256
    8CHTO   O53 3137   5.523   9.336   1.205 -0.6984 -0.4378  0.7977
    8CHTO   C82 3138   5.482   9.428   1.104  0.3858 -0.1728  0.1716
    8CHTO  H154 3139   5.491   9.532   1.136 -2.8596 -0.4664  2.2619
    8CHTO   C89 3140   5.579   9.410   0.983  0.5656  0.1740  0.3008
    8CHTO   O59 3141   5.596   9.535   0.916  0.3216 -0.1912 -0.2859
    8CHTO  H137 3142   5.568   9.529   0.827 -0.2923 -1.0207 -0.0375
    8CHTO   O45 3143   5.509   9.261   1.457 -0.0724  0.0051  0.2848
    8CHTO   C67 3144   5.523   9.120   1.428  0.3778  0.1841 -0.1014
    8CHTO  H124 3145   5.476   9.100   1.332  0.2090  0.7352 -0.1316
    8CHTO   C65 3146   5.670   9.086   1.419 -0.5482 -0.8055  1.2273
    8CHTO  H122 3147   5.722   9.165   1.365 -1.4046 -1.2535 -0.2764
    8CHTO   O44 3148   5.693   8.955   1.363  0.5780  0.9721  0.2987
    8CHTO  H102 3149   5.768   8.909   1.395 -1.3848 -0.8965  2.3942
    8CHTO   C63 3150   5.723   9.102   1.569 -0.2976  0.4119  0.5455
    8CHTO  H120 3151   5.689   9.199   1.604 -1.2948 -0.3699  1.7675
    8CHTO   N11 3152   5.871   9.113   1.586 -0.0101  0.2696  0.2163
    8CHTO  H108 3153   5.906   9.214   1.593 -2.0137  0.9200  1.2618
    8CHTO  H109 3154   5.905   9.071   1.679  1.0801 -2.1085 -1.2217
    8CHTO   C61 3155   5.651   8.990   1.654 -0.2756  0.5875  0.2425
    8CHTO  H118 3156   5.677   9.020   1.756  0.9181  1.0915 -0.2030
    8CHTO   O40 3157   5.511   8.990   1.648  0.2956  0.0848 -0.7040
    8CHTO   C68 3158   5.436   9.035   1.533  0.9343 -0.4105  0.2434
    8CHTO  H125 3159   5.359   9.104   1.574  1.0202 -0.3840  0.3625
    8CHTO   C72 3160   5.355   8.920   1.462 -0.7208 -0.1389 -0.1734
    8CHTO   O48 3161   5.249   8.887   1.547 -0.0755  0.3770 -0.5228
    8CHTO  H105 3162   5.230   8.796   1.558 -0.2076  0.5147  0.4926
    8CHTO   O38 3163   5.691   8.856   1.621 -0.1472 -0.4798 -0.4565
    8CHTO   C55 3164   5.644   8.736   1.681 -0.0752  0.6685  0.0387
    8CHTO  H112 3165   5.536   8.747   1.694 -0.0896  1.6612 -0.8695
    8CHTO   C56 3166   5.716   8.688   1.813 -0.1176  0.3846  0.6997
    8CHTO  H113 3167   5.821   8.670   1.785 -0.1815 -2.2059  2.0312
    8CHTO   O42 3168   5.708   8.793   1.910  0.3385 -0.0104 -0.6366
    8CHTO  H100 3169   5.759   8.863   1.874 -1.8221  1.1654 -1.4999
    8CHTO   C57 3170   5.651   8.558   1.871  0.2496 -0.4076 -1.6491
    8CHTO  H114 3171   5.548   8.577   1.901 -0.0475 -0.8402 -2.3766
    8CHTO   N10 3172   5.718   8.513   1.997 -0.0787 -0.1284  0.2844
    8CHTO  H106 3173   5.668   8.549   2.086 -2.3657  2.5463 -2.0065
    8CHTO  H107 3174   5.824   8.535   1.996  0.9788 -4.5988 -0.4096
    8CHTO   C58 3175   5.642   8.447   1.765  0.1784  0.4660 -0.0540
    8CHTO  H115 3176   5.743   8.410   1.737  0.5497  2.1898 -1.0722
    8CHTO   O37 3177   5.586   8.501   1.646 -0.1107 -0.1257  0.3772
    8CHTO   C59 3178   5.652   8.611   1.581  0.3071  0.6835  0.2486
    8CHTO  H116 3179   5.755   8.589   1.554  0.9282  1.6624  1.7652
    8CHTO   C70 3180   5.576   8.642   1.450 -0.1091 -0.5453  0.3907
    8CHTO   O46 3181   5.595   8.536   1.357  0.0244 -0.2987 -0.3520
    8CHTO  H103 3182   5.510   8.507   1.329 -0.4221  0.3615  0.2964
    8CHTO   O39 3183   5.537   8.315   1.821  0.6689  0.8756 -0.1779
    8CHTO   C60 3184   5.389   8.335   1.844  0.1969  0.1578  0.8086
    8CHTO  H117 3185   5.370   8.433   1.886  3.6458  0.9037  0.8068
    8CHTO   C62 3186   5.311   8.321   1.711 -0.2430  1.0063 -0.0201
    8CHTO  H119 3187   5.348   8.405   1.649 -1.9453  1.3812 -0.5635
    8CHTO   O43 3188   5.349   8.201   1.646 -0.4534 -0.0983  0.5776
    8CHTO  H101 3189   5.337   8.134   1.711 -1.3957 -1.6726 -1.1759
    8CHTO   C66 3190   5.149   8.340   1.738 -0.0078  0.3891 -0.2198
    8CHTO  H123 3191   5.135   8.441   1.776  0.7816 -0.2232  1.7998
    8CHTO   N12 3192   5.067   8.334   1.612 -0.0758  0.6313  0.3573
    8CHTO  H110 3193   5.071   8.428   1.560 -3.0023 -0.1283 -1.3545
    8CHTO  H111 3194   4.972   8.286   1.627  0.7638 -1.0591  0.3808
    8CHTO   C69 3195   5.098   8.232   1.832  0.1357 -0.2274 -0.6437
    8CHTO  H126 3196   5.091   8.134   1.780 -1.5420 -0.1873 -0.5106
    8CHTO   O41 3197   5.188   8.229   1.961  0.3823  0.1952 -0.2868
    8CHTO   C64 3198   5.338   8.222   1.943  0.5381 -0.1946 -0.1241
    8CHTO  H121 3199   5.346   8.122   1.897  0.3239 -0.4732  0.4385
    8CHTO   C71 3200   5.395   8.223   2.081  0.3833 -0.2158  0.4760
    8CHTO   O47 3201   5.538   8.226   2.088 -0.1232 -0.0412 -0.5729
    8CHTO  H104 3202   5.566   8.170   2.157  0.7868  1.2764  0.1445
    8CHTO   O34 3203   4.948   8.249   1.875 -0.5140 -0.0816 -0.8054
    8CHTO   C49 3204   4.838   8.297   1.945  0.2617  0.4507 -0.0641
    8CHTO   H91 3205   4.832   8.240   2.038 -0.5541  0.8929  0.1597
    8CHTO   C47 3206   4.705   8.284   1.866  0.6253 -0.6203 -0.2951
    8CHTO   H89 3207   4.625   8.320   1.934  1.3003 -1.3045  0.8829
    8CHTO   O33 3208   4.680   8.146   1.835  0.6049  0.1151 -0.6652
    8CHTO   H70 3209   4.607   8.137   1.776  0.1499 -3.8893  0.3720
    8CHTO   C45 3210   4.706   8.377   1.739  0.4706 -0.7062 -0.3098
    8CHTO   H87 3211   4.789   8.342   1.676 -0.5039  0.5464 -2.3753
    8CHTO    N8 3212   4.580   8.365   1.661 -0.4615  0.5847 -0.1618
    8CHTO   H75 3213   4.489   8.330   1.708 -0.6853  0.6071 -0.5751
    8CHTO   H76 3214   4.609   8.310   1.573  0.6447 -1.0969  1.2213
    8CHTO   C43 3215   4.737   8.532   1.776  0.1882  0.1484  0.8750
    8CHTO   H85 3216   4.755   8.585   1.683  1.6615  0.2233  1.1776
    8CHTO   O29 3217   4.853   8.536   1.862  0.4233  0.0336  0.0215
    8CHTO   C50 3218   4.862   8.449   1.973 -0.2372  0.3375 -0.2614
    8CHTO   H92 3219   4.961   8.465   2.019  1.2424 -1.3655 -2.7770
    8CHTO   C54 3220   4.774   8.510   2.088 -0.0385 -0.0150 -0.4012
    8CHTO   O36 3221   4.773   8.423   2.204  0.3576 -0.1393  0.0440
    8CHTO   H72 3222   4.707   8.438   2.269  1.4351  0.0814  1.1189
    8CHTO   O27 3223   4.630   8.594   1.847  0.4675  0.5348 -0.1575
    8CHTO   C37 3224   4.584   8.733   1.858  0.5528  0.0113  0.8487
    8CHTO   H79 3225   4.527   8.730   1.953 -1.0638 -1.2884 -0.1332
    8CHTO   C38 3226   4.707   8.838   1.879 -0.6025  0.1562  0.3773
    8CHTO   H80 3227   4.778   8.819   1.798 -1.8624 -1.0941 -0.4598
    8CHTO   O31 3228   4.773   8.810   2.008  0.1233  0.3524 -0.3357
    8CHTO   H68 3229   4.785   8.718   2.013  0.8524  0.4613 -0.1278
    8CHTO   C39 3230   4.658   8.988   1.865  0.0820 -0.5404  0.2994
    8CHTO   H81 3231   4.585   9.009   1.944 -1.3775 -0.4711 -1.0350
    8CHTO    N7 3232   4.767   9.090   1.883 -0.0393  0.1279  0.2516
    8CHTO   H73 3233   4.826   9.075   1.972  0.8186 -0.1368 -0.3564
    8CHTO   H74 3234   4.811   9.118   1.788  0.3838 -0.4329  0.2813
    8CHTO   C40 3235   4.565   9.009   1.732  0.5495  0.0340 -0.0570
    8CHTO   H82 3236   4.628   9.007   1.644 -0.3804  0.6570 -0.7481
    8CHTO   O26 3237   4.456   8.910   1.726  0.5399 -0.7017  0.6118
    8CHTO   C41 3238   4.493   8.771   1.727 -0.5311  0.4530 -0.7889
    8CHTO   H83 3239   4.546   8.762   1.631  0.6019  0.4166 -0.1656
    8CHTO   C52 3240   4.364   8.694   1.718  0.3759 -0.1849 -0.2163
    8CHTO   O35 3241   4.306   8.702   1.604 -0.0979  0.0006 -0.2190
    8CHTO   H71 3242   4.263   8.621   1.585  0.0548 -0.3860  0.9931
    8CHTO   O28 3243   4.504   9.143   1.737 -0.0825  0.1468 -0.2885
    8CHTO   C42 3244   4.465   9.218   1.616 -0.0068 -0.0883  1.0563
    8CHTO   H84 3245   4.427   9.311   1.658  1.8401  0.9165  0.5719
    8CHTO   C44 3246   4.351   9.159   1.530 -0.0065 -0.5702 -0.1686
    8CHTO   H86 3247   4.367   9.052   1.513 -0.7786 -0.9169  1.1417
    8CHTO   O32 3248   4.244   9.153   1.623  0.2568 -0.0877 -0.1609
    8CHTO   H69 3249   4.174   9.101   1.590 -0.7000  1.4668 -0.6179
    8CHTO   C48 3250   4.320   9.242   1.397  0.7130 -0.8383  0.2654
    8CHTO   H90 3251   4.280   9.338   1.428  1.0182 -0.9963  1.1580
    8CHTO    N9 3252   4.206   9.177   1.318  0.0489 -0.5937  0.1641
    8CHTO   H77 3253   4.228   9.072   1.307  1.8711 -0.3932  1.8347
    8CHTO   H78 3254   4.210   9.222   1.220  1.3838 -0.7092  0.1665
    8CHTO   C51 3255   4.457   9.269   1.322 -0.0800  0.0174 -0.4056
    8CHTO   H93 3256   4.485   9.168   1.295 -1.0377  0.1776 -2.0888
    8CHTO   O30 3257   4.554   9.334   1.410  0.0186 -0.2440 -0.0528
    8CHTO   C46 3258   4.588   9.264   1.525 -0.0026  0.6698  0.1525
    8CHTO   H88 3259   4.638   9.174   1.492 -0.4214  0.4732  0.0433
    8CHTO   C53 3260   4.684   9.349   1.616 -0.3342  0.2761 -0.4999
    8CHTO   O72 3261   4.801   9.388   1.543  0.2957  0.2111  0.0945
    8CHTO  H199 3262   4.786   9.421   1.456 -0.0157 -1.5268 -0.5466
    8CHTO   O22 3263   4.443   9.358   1.209  0.5257  0.2778 -0.2285
    8CHTO   C31 3264   4.521   9.343   1.088 -0.3794  0.1617  0.0387
    8CHTO   H59 3265   4.525   9.445   1.045 -0.5999  1.4803  3.0521
    8CHTO   C29 3266   4.670   9.295   1.105 -0.7134  0.5715 -0.6034
    8CHTO   H57 3267   4.673   9.195   1.151 -2.6619  0.2409 -1.1428
    8CHTO   O21 3268   4.731   9.392   1.193 -0.3333 -0.0734  0.1105
    8CHTO   H37 3269   4.823   9.379   1.207  0.2562  1.7178 -1.9012
    8CHTO   C27 3270   4.745   9.289   0.965  0.0434  0.6316 -0.6959
    8CHTO   H55 3271   4.744   9.389   0.917 -2.0262  0.8718 -0.2069
    8CHTO    N5 3272   4.886   9.240   0.959 -0.3597  0.2309  0.0616
    8CHTO   H43 3273   4.907   9.205   1.059  0.9543  0.2794 -0.1934
    8CHTO   H44 3274   4.951   9.317   0.920  0.8548 -0.8040  0.0092
    8CHTO   C25 3275   4.657   9.193   0.863 -0.3264  1.2230  0.3910
    8CHTO   H53 3276   4.674   9.086   0.884 -1.1936  0.8834 -0.5964
    8CHTO   O17 3277   4.516   9.231   0.862 -0.0915 -0.3872 -0.6227
    8CHTO   C32 3278   4.448   9.251   0.994  0.6549  0.3864  0.1431
    8CHTO   H60 3279   4.445   9.152   1.039 -0.7010  0.7328  0.8436
    8CHTO   C36 3280   4.306   9.293   0.966  1.1222 -0.2343 -0.0439
    8CHTO   O25 3281   4.207   9.189   0.949 -0.0670 -0.3579 -0.4715
    8CHTO   H40 3282   4.204   9.169   0.858 -1.1954  0.4340 -0.6206
    8CHTO   O15 3283   4.710   9.210   0.696  0.1559 -0.1955  0.4513
    8CHTO   C19 3284   4.720   9.129   0.573 -0.0718 -0.7903  0.3601
    8CHTO   H47 3285   4.635   9.060   0.569 -0.1578 -0.6363 -0.7819
    8CHTO   C20 3286   4.709   9.218   0.444  0.0001 -0.5670  0.6067
    8CHTO   H48 3287   4.778   9.304   0.446 -0.5467 -0.0241 -1.7670
    8CHTO   O19 3288   4.573   9.261   0.435 -0.1963  0.2965 -0.1878
    8CHTO   H35 3289   4.519   9.190   0.465  0.6577  0.4405  1.8339
    8CHTO   C21 3290   4.734   9.136   0.311 -0.0016  0.1520 -1.1796
    8CHTO   H49 3291   4.644   9.078   0.290  0.4139 -1.1876  0.6816
    8CHTO    N4 3292   4.764   9.217   0.190 -0.4403  0.2586 -0.1659
    8CHTO   H41 3293   4.869   9.239   0.181 -0.4985 -0.0679 -1.8516
    8CHTO   H42 3294   4.726   9.182   0.095 -0.8159  2.4996 -0.8778
    8CHTO   C22 3295   4.850   9.033   0.327  0.0861 -0.1145 -0.1300
    8CHTO   H50 3296   4.944   9.089   0.329  0.1909 -0.1233 -3.1091
    8CHTO   O14 3297   4.835   8.959   0.451  0.0909  0.2460  0.0855
    8CHTO   C23 3298   4.849   9.044   0.568 -0.1274  0.5821  0.3869
    8CHTO   H51 3299   4.939   9.108   0.563 -1.5307  2.5539 -0.1068
    8CHTO   C34 3300   4.864   8.952   0.696  0.2957  0.6007  0.5777
    8CHTO   O23 3301   4.985   8.885   0.699  0.4358  0.1430  0.1940
    8CHTO   H38 3302   4.979   8.813   0.639 -2.4323  0.0802  0.4860
    8CHTO   O16 3303   4.841   8.937   0.218  0.4124  0.5288  0.0841
    8CHTO   C24 3304   5.001   8.888   0.193 -0.2069  0.4229 -0.6153
    8CHTO   H52 3305   5.063   8.906   0.280  1.8082 -2.4214 -1.3722
    8CHTO   C26 3306   5.076   8.960   0.078  0.2541 -0.3026  0.0839
    8CHTO   H54 3307   5.022   8.944  -0.017  1.8741 -0.7982 -0.7644
    8CHTO   O20 3308   5.059   9.099   0.094 -0.4809 -0.3109 -0.6056
    8CHTO   H36 3309   5.096   9.155   0.028 -0.0462  0.1159 -0.0066
    8CHTO   C30 3310   5.227   8.908   0.051 -0.1787  0.2591 -0.3634
    8CHTO   H58 3311   5.278   8.928   0.147 -0.5705  0.2594 -0.1537
    8CHTO    N6 3312   5.307   8.976  -0.054  0.0003  0.0729  0.3376
    8CHTO   H45 3313   5.403   8.930  -0.070  0.4186  1.0840 -0.0777
    8CHTO   H46 3314   5.256   8.986  -0.148  0.0404 -0.4210  0.2630
    8CHTO   C33 3315   5.225   8.752   0.040  0.3858 -0.2524  0.2180
    8CHTO   H61 3316   5.170   8.726  -0.051 -1.1250  0.8727  0.7923
    8CHTO   O18 3317   5.156   8.700   0.152 -0.2364  0.6847  0.4670
    8CHTO   C28 3318   5.018   8.735   0.164  0.3497  0.6677 -0.4752
    8CHTO   H56 3319   4.954   8.709   0.080  1.5633 -3.2687 -0.2823
    8CHTO   C35 3320   4.956   8.651   0.280  0.2081  0.4231  0.3941
    8CHTO   O24 3321   5.035   8.648   0.403  0.4779 -0.1135  0.1511
    8CHTO   H39 3322   5.016   8.567   0.446 -1.1592 -0.8855 -1.8770
    8CHTO    O9 3323   5.357   8.702   0.020 -0.0683 -0.0028 -0.2317
    8CHTO   C13 3324   5.353   8.570  -0.079  0.2689 -0.1828 -0.9906
    8CHTO   H26 3325   5.291   8.601  -0.165  0.7000  3.2492 -0.1502
    8CHTO   C11 3326   5.288   8.446   0.002 -0.3091 -1.0629  0.6744
    8CHTO   H24 3327   5.179   8.460   0.010 -0.3685 -0.4954 -1.1397
    8CHTO    O8 3328   5.336   8.436   0.139 -0.1859 -0.4719  0.3617
    8CHTO    H3 3329   5.269   8.389   0.185 -0.9246  0.6796  0.4982
    8CHTO    C9 3330   5.321   8.317  -0.076 -0.2318 -0.3293 -0.1169
    8CHTO   H22 3331   5.288   8.333  -0.179  1.1165  1.6154 -0.2867
    8CHTO    N2 3332   5.246   8.200  -0.026  0.6465 -0.0482  0.3605
    8CHTO   H10 3333   5.283   8.169   0.071 -1.7606 -3.3934  0.2778
    8CHTO   H11 3334   5.250   8.112  -0.089 -1.8282 -0.8137  1.2213
    8CHTO    C7 3335   5.479   8.295  -0.082 -0.2258  0.3243  0.9968
    8CHTO   H20 3336   5.499   8.247  -0.180  0.1107  0.5760  0.9404
    8CHTO    O4 3337   5.549   8.422  -0.065 -0.4924  0.3161  0.2193
    8CHTO   C14 3338   5.495   8.533  -0.140  0.2774  0.4722 -0.6056
    8CHTO   H27 3339   5.490   8.499  -0.245 -1.6118  2.8669 -1.3305
    8CHTO   C18 3340   5.591   8.651  -0.134  0.1396  0.3719 -0.5949
    8CHTO   O13 3341   5.533   8.767  -0.205 -0.2501 -0.9260 -0.0113
    8CHTO    H7 3342   5.532   8.747  -0.297 -2.9973  0.1728 -0.2442
    8CHTO    O2 3343   5.541   8.184   0.029  0.2694 -0.0864  0.1845
    8CHTO    C1 3344   5.680   8.179   0.076  0.1379  0.6517 -0.3046
    8CHTO   H14 3345   5.718   8.279   0.104  2.2471 -0.0301 -0.6251
    8CHTO    C2 3346   5.768   8.110  -0.032 -0.6333  0.8953  0.1077
    8CHTO   H15 3347   5.717   8.024  -0.078  3.0298 -0.4764 -1.6073
    8CHTO    O6 3348   5.791   8.203  -0.142  0.5765 -0.2753  0.1022
    8CHTO    H1 3349   5.749   8.175  -0.221 -0.1904 -1.8936  1.0760
    8CHTO    C3 3350   5.911   8.070   0.028  0.2840  0.4990 -0.5010
    8CHTO   H16 3351   5.979   8.154   0.046  1.9144 -0.9115  0.0901
    8CHTO    N1 3352   5.981   7.985  -0.074  0.2165  0.8119  0.0166
    8CHTO    H8 3353   6.023   8.046  -0.152 -2.2247 -1.0045 -2.8594
    8CHTO    H9 3354   5.907   7.921  -0.121  0.7346 -0.3549  0.7703
    8CHTO    C4 3355   5.899   7.996   0.163 -0.6862  1.1023  0.1437
    8CHTO   H17 3356   5.842   7.904   0.147  1.2193  0.1188 -1.1185
    8CHTO    O1 3357   5.822   8.071   0.254 -0.1239 -0.0367  0.1339
    8CHTO    C5 3358   5.691   8.103   0.212 -0.2725 -0.1128 -0.5731
    8CHTO   H18 3359   5.638   8.008   0.204  1.5333 -1.5107  2.9738
    8CHTO   C16 3360   5.618   8.180   0.321  0.0539 -0.1202 -0.1109
    8CHTO   O11 3361   5.613   8.112   0.449  0.3179 -0.1997  0.5212
    8CHTO    H5 3362   5.536   8.133   0.499  1.2520  0.9545  1.4854
    8CHTO    O3 3363   6.031   7.966   0.219 -0.0731 -0.2828 -0.5163
    8CHTO    C6 3364   6.038   7.886   0.341 -0.2615  0.5778  0.6631
    8CHTO   H19 3365   5.949   7.873   0.402 -0.5651  1.6566  0.4620
    8CHTO    C8 3366   6.085   7.738   0.306  1.1723 -0.5276 -0.2549
    8CHTO   H21 3367   6.164   7.741   0.231  0.5905 -0.5408 -0.8689
    8CHTO    O7 3368   5.973   7.681   0.243  0.2530  0.0804 -0.0595
    8CHTO    H2 3369   5.984   7.590   0.224 -1.3220 -0.2667  0.5964
    8CHTO   C12 3370   6.137   7.659   0.434  0.2057  0.1759  0.7084
    8CHTO   H25 3371   6.041   7.637   0.485 -1.4248 -2.8025 -3.3757
    8CHTO    N3 3372   6.198   7.526   0.409 -0.3583  0.1840 -0.1630
    8CHTO   H12 3373   6.152   7.454   0.475 -1.8874 -0.1384 -1.5486
    8CHTO   H13 3374   6.205   7.490   0.308 -1.6364 -0.2933 -0.0906
    8CHTO   C15 3375   6.229   7.750   0.523 -0.1710 -0.6284 -0.3803
    8CHTO   H28 3376   6.325   7.759   0.473 -0.5069  1.7536 -0.6765
    8CHTO   O10 3377   6.256   7.692   0.672 -0.1176 -0.0058 -0.4309
    8CHTO    H4 3378   6.307   7.759   0.714 -0.0416  0.4911 -1.3161
    8CHTO    O5 3379   6.158   7.876   0.544 -0.4525 -0.1217  0.4810
    8CHTO   C10 3380   6.142   7.958   0.430  0.4953 -0.4745  0.2442
    8CHTO   H23 3381   6.236   7.959   0.376  0.0669  0.6182 -0.4845
    8CHTO   C17 3382   6.100   8.100   0.474 -0.0622  0.3269  0.0531
    8CHTO   O12 3383   5.970   8.108   0.532  0.2624  0.2703  0.1573
    8CHTO    H6 3384   5.956   8.045   0.600  0.6151  0.0257  0.0050
    9CHTO  H203 3385   7.629   2.937   1.358  0.4588  0.2595  0.8319
    9CHTO   O82 3386   7.707   2.903   1.320 -0.0598 -0.2239  0.1857
    9CHTO  C123 3387   7.775   3.014   1.258 -0.0837  0.6469  0.8339
    9CHTO  H227 3388   7.808   3.081   1.339 -1.7345  1.5276  0.8059
    9CHTO   O77 3389   7.900   2.959   1.189  0.0431 -0.0943 -0.6707
    9CHTO  C118 3390   7.976   3.061   1.120 -0.2961 -0.6106 -0.4343
    9CHTO  H222 3391   7.991   3.149   1.184 -0.5954 -1.9957  1.5831
    9CHTO  C125 3392   8.111   3.012   1.076  0.2710 -0.1917  0.2051
    9CHTO   O84 3393   8.188   2.981   1.195  0.2921 -0.3334  0.4188
    9CHTO  H205 3394   8.269   2.936   1.183  0.0080 -1.1859  1.6110
    9CHTO  C114 3395   7.893   3.112   0.998  1.4520  0.5883 -0.8694
    9CHTO  H218 3396   7.857   3.022   0.948 -1.9830  1.8928 -0.9079
    9CHTO  C116 3397   7.769   3.185   1.054 -0.0413  0.2484 -0.2421
    9CHTO  H220 3398   7.808   3.271   1.113  1.3915 -1.3045  1.1236
    9CHTO   O79 3399   7.696   3.233   0.940 -0.0059  0.0064  0.1614
    9CHTO  H201 3400   7.643   3.167   0.901  0.6404 -2.0396  2.6147
    9CHTO  C120 3401   7.685   3.083   1.150 -0.5521  0.2221  0.6743
    9CHTO  H224 3402   7.658   3.000   1.083  1.4066  0.9624 -1.1096
    9CHTO   N21 3403   7.570   3.148   1.209  0.0591 -0.1063  0.4399
    9CHTO  H211 3404   7.483   3.137   1.146  0.5254  0.6579 -0.3264
    9CHTO  H212 3405   7.542   3.103   1.304  3.2335  0.2249  1.5793
    9CHTO   O75 3406   7.983   3.184   0.916 -0.1295 -0.2296 -0.5549
    9CHTO  C112 3407   7.972   3.149   0.760 -0.2471 -0.5952 -0.4084
    9CHTO  H216 3408   7.872   3.188   0.736 -0.8101 -0.1626  2.4824
    9CHTO   O73 3409   7.980   3.005   0.745  0.2302  0.2305 -0.0826
    9CHTO  C113 3410   7.978   2.958   0.612 -0.2324  0.0279 -0.5204
    9CHTO  H217 3411   7.877   2.972   0.570 -0.2526  2.1161  0.2002
    9CHTO  C124 3412   7.996   2.808   0.616  0.2656 -0.4261  0.2350
    9CHTO   O83 3413   7.917   2.723   0.706  0.2569 -0.4729  0.6577
    9CHTO  H204 3414   7.832   2.763   0.713  1.5093  2.3488  0.4629
    9CHTO  C109 3415   8.093   3.017   0.529  0.5413 -0.3924 -0.6652
    9CHTO  H213 3416   8.185   2.983   0.578 -1.2726 -2.7470  1.2246
    9CHTO  C110 3417   8.077   3.176   0.535 -0.1800 -0.1870  0.2922
    9CHTO  H214 3418   7.981   3.213   0.499  0.8190  1.0539 -1.1642
    9CHTO   O78 3419   8.185   3.221   0.451 -0.5178 -0.0637 -0.0407
    9CHTO  H200 3420   8.180   3.180   0.366 -2.7144  0.6664 -0.2921
    9CHTO  C111 3421   8.089   3.218   0.682 -0.0799  0.7628  0.7941
    9CHTO  H215 3422   8.178   3.169   0.725  0.5075  2.8839  2.1056
    9CHTO   N19 3423   8.096   3.361   0.714 -0.1540 -0.6488 -0.4140
    9CHTO  H207 3424   8.122   3.386   0.816 -1.1214  0.3741 -0.4014
    9CHTO  H208 3425   8.002   3.410   0.695 -0.4036 -2.4920 -4.3974
    9CHTO   O74 3426   8.082   2.971   0.394 -1.0005 -0.1400  0.1616
    9CHTO  C115 3427   8.218   2.888   0.339 -0.7410  0.3359 -0.1189
    9CHTO  H219 3428   8.306   2.903   0.401 -1.4003  0.0530  0.8918
    9CHTO   O76 3429   8.190   2.707   0.327 -0.3683  0.0708  0.4763
    9CHTO  C122 3430   8.083   2.673   0.239  0.0330  0.5057  0.6156
    9CHTO  H226 3431   7.993   2.716   0.282  0.5279  1.3600  0.7969
    9CHTO  C126 3432   8.067   2.514   0.232 -0.0967  0.5248 -0.1571
    9CHTO   O85 3433   8.045   2.468   0.365  0.0382  0.2323 -0.0128
    9CHTO  H206 3434   8.015   2.379   0.367 -0.5332  0.4362  1.2866
    9CHTO  C121 3435   8.113   2.728   0.096  0.1916  0.1058 -0.3804
    9CHTO  H225 3436   8.205   2.676   0.061 -0.0109 -0.0410 -0.6944
    9CHTO   O81 3437   7.997   2.700   0.017  0.6201  0.2126 -0.6327
    9CHTO  H202 3438   8.020   2.659  -0.065 -0.1449  1.1116 -1.3096
    9CHTO  C119 3439   8.142   2.890   0.103 -0.3962  0.1195 -0.4868
    9CHTO  H223 3440   8.163   2.914  -0.002 -0.9141  0.7892 -0.4405
    9CHTO  C117 3441   8.259   2.937   0.195 -0.2307 -0.5289 -1.0831
    9CHTO  H221 3442   8.262   3.045   0.209  0.6459 -0.7690  0.8125
    9CHTO   N20 3443   8.393   2.899   0.148  1.0034  0.5316 -0.5406
    9CHTO  H209 3444   8.381   2.852   0.051 -0.5150  2.7314 -1.4587
    9CHTO  H210 3445   8.467   2.978   0.142  1.3627  0.2436  0.0320
    9CHTO   O80 3446   7.999   2.969   0.135  0.0460  0.6191 -0.6702
    9CHTO  C103 3447   7.958   3.099   0.048 -0.1786  0.1387 -0.3359
    9CHTO  H190 3448   7.880   3.144   0.109 -0.7758 -1.4852  0.1205
    9CHTO  C101 3449   8.074   3.203   0.021 -0.4042  0.4452  0.2224
    9CHTO  H188 3450   8.159   3.153  -0.026 -1.0525  0.1350 -0.6319
    9CHTO   O68 3451   8.125   3.269   0.165  0.4652  0.3975 -0.1280
    9CHTO  H168 3452   8.103   3.360   0.172  0.9592  0.5714 -0.8722
    9CHTO   C99 3453   8.024   3.303  -0.080  0.0621  0.2536  0.1573
    9CHTO  H186 3454   7.938   3.356  -0.035  0.5118  2.0724 -1.1041
    9CHTO   N17 3455   8.125   3.410  -0.114  1.1523 -0.2371 -0.3048
    9CHTO  H174 3456   8.081   3.477  -0.187 -1.2068 -0.1575  1.1645
    9CHTO  H175 3457   8.207   3.354  -0.158  2.0647 -1.6197  3.0207
    9CHTO   C97 3458   7.960   3.231  -0.205 -0.5459 -0.6296 -0.0457
    9CHTO  H184 3459   8.041   3.175  -0.254  0.0927  0.2876 -0.0298
    9CHTO   O64 3460   7.850   3.148  -0.164  0.0117  0.3436 -0.3639
    9CHTO  C104 3461   7.895   3.042  -0.083  0.0334  1.0126 -0.3037
    9CHTO  H191 3462   7.971   2.979  -0.130 -0.3927  1.5144 -1.6748
    9CHTO  C108 3463   7.776   2.945  -0.051 -0.5490  0.2986 -0.5517
    9CHTO   O71 3464   7.710   2.889  -0.163 -0.4041 -0.0935  0.7904
    9CHTO  H171 3465   7.751   2.805  -0.177  1.1110  0.5779  1.1316
    9CHTO   O62 3466   7.894   3.325  -0.291 -0.5824 -0.5095 -0.5427
    9CHTO   C91 3467   7.854   3.285  -0.417 -0.2076 -0.2382 -0.1634
    9CHTO  H178 3468   7.906   3.195  -0.449  0.2728 -0.2220  0.5682
    9CHTO   C92 3469   7.889   3.397  -0.528 -0.6545  0.0434  0.4907
    9CHTO  H179 3470   7.994   3.427  -0.519 -0.3029 -0.9579 -0.1321
    9CHTO   O66 3471   7.871   3.332  -0.655 -0.0239 -0.2206 -0.1726
    9CHTO  H166 3472   7.931   3.262  -0.674  0.0418 -0.0367 -0.6630
    9CHTO   C93 3473   7.805   3.530  -0.502  0.1425 -0.3789  0.3916
    9CHTO  H180 3474   7.804   3.571  -0.604 -0.8140  1.0774  0.9697
    9CHTO   N16 3475   7.867   3.640  -0.420 -0.5266  0.2467  0.3611
    9CHTO  H172 3476   7.824   3.639  -0.321 -3.7619  1.2633 -0.9771
    9CHTO  H173 3477   7.974   3.625  -0.413 -0.3718  0.7835 -0.8954
    9CHTO   C94 3478   7.660   3.497  -0.456 -0.0033  0.7867  0.4740
    9CHTO  H181 3479   7.649   3.509  -0.348  1.3411 -0.7953  0.8003
    9CHTO   O61 3480   7.623   3.357  -0.486 -0.4442  0.7402 -0.2760
    9CHTO   C95 3481   7.696   3.253  -0.415 -0.2742  0.0287  0.6751
    9CHTO  H182 3482   7.669   3.255  -0.309  0.1311 -2.4114  0.8602
    9CHTO  C106 3483   7.670   3.119  -0.477  0.0004 -0.0926  0.6300
    9CHTO   O69 3484   7.739   3.088  -0.604 -0.2544 -0.4650 -0.5145
    9CHTO  H169 3485   7.782   3.006  -0.586  0.8130  0.4904  1.5735
    9CHTO   O63 3486   7.559   3.608  -0.533 -0.2889 -0.5363  0.1219
    9CHTO   C96 3487   7.429   3.638  -0.457 -0.7150 -0.3029  0.4659
    9CHTO  H183 3488   7.455   3.626  -0.352  2.0175 -1.5673 -0.3069
    9CHTO   C98 3489   7.313   3.545  -0.485 -0.2456  0.1693  0.0183
    9CHTO  H185 3490   7.307   3.524  -0.593 -0.5051 -0.0047  0.0630
    9CHTO   O67 3491   7.339   3.413  -0.433  0.0956 -0.3587  0.0123
    9CHTO  H167 3492   7.259   3.378  -0.399  0.6459 -2.4010 -0.7486
    9CHTO  C102 3493   7.169   3.598  -0.428 -0.0646  0.5785  0.1294
    9CHTO  H189 3494   7.176   3.567  -0.323  1.7402 -0.1568 -0.1727
    9CHTO   N18 3495   7.056   3.524  -0.489  0.0302 -0.6991 -0.0648
    9CHTO  H176 3496   7.064   3.418  -0.470  0.2424 -0.7395 -0.3722
    9CHTO  H177 3497   6.960   3.559  -0.457 -0.0872 -0.6651 -0.4531
    9CHTO  C105 3498   7.152   3.751  -0.448 -0.8514  0.0288  0.0122
    9CHTO  H192 3499   7.121   3.767  -0.552  1.9774 -0.6197 -0.9812
    9CHTO   O65 3500   7.269   3.826  -0.410 -0.2604  0.0867 -0.1441
    9CHTO  C100 3501   7.385   3.785  -0.482  0.4447 -0.3934  0.4035
    9CHTO  H187 3502   7.359   3.800  -0.588  0.4215  1.8426  0.6997
    9CHTO  C107 3503   7.489   3.895  -0.467 -0.3756 -0.0277 -0.4297
    9CHTO   O70 3504   7.551   3.880  -0.336 -0.0615  0.5654  0.1482
    9CHTO  H170 3505   7.562   3.965  -0.296  0.6466  1.5285 -2.0086
    9CHTO   O57 3506   7.054   3.792  -0.361  0.2262 -0.5748  0.1183
    9CHTO   C85 3507   6.962   3.901  -0.380  0.5660 -0.3767  0.2318
    9CHTO  H157 3508   6.920   3.890  -0.482  1.6256 -0.1628 -0.2372
    9CHTO   C83 3509   7.047   4.036  -0.389 -0.0128  0.1350 -0.9434
    9CHTO  H155 3510   7.119   4.023  -0.470 -1.1543  0.7987 -2.0737
    9CHTO   O56 3511   7.137   4.041  -0.281 -0.4902 -0.2482 -0.8661
    9CHTO  H135 3512   7.105   4.049  -0.193  0.4263  0.7751 -0.6201
    9CHTO   C81 3513   6.950   4.157  -0.418 -0.0094 -0.0342  0.3990
    9CHTO  H153 3514   6.887   4.134  -0.504 -1.3156  1.7799  0.8303
    9CHTO   N14 3515   7.018   4.284  -0.441 -0.0148  0.2300  0.2696
    9CHTO  H141 3516   6.986   4.317  -0.538  2.7271 -2.4926 -1.6748
    9CHTO  H142 3517   7.125   4.280  -0.441 -0.0460 -0.8573 -1.4757
    9CHTO   C79 3518   6.851   4.169  -0.297  0.1151 -0.1269  0.5463
    9CHTO  H151 3519   6.780   4.248  -0.320  1.0794  0.5607 -0.1269
    9CHTO   O52 3520   6.775   4.048  -0.271 -0.3377 -0.0595 -0.4845
    9CHTO   C86 3521   6.848   3.920  -0.267 -0.0519  0.4556 -0.0616
    9CHTO  H158 3522   6.882   3.930  -0.162 -1.4562 -0.4836  0.4885
    9CHTO   C90 3523   6.755   3.798  -0.273 -0.4891  0.3721 -0.2731
    9CHTO   O60 3524   6.673   3.798  -0.392  0.3509  0.3098  0.4971
    9CHTO  H138 3525   6.588   3.765  -0.369 -0.2213  1.2621 -0.2153
    9CHTO   O50 3526   6.916   4.193  -0.171 -0.0556 -0.0087  0.0412
    9CHTO   C73 3527   6.914   4.281  -0.053  0.5904  0.0110  0.2243
    9CHTO  H145 3528   6.812   4.313  -0.028  0.6136 -0.0872  0.4374
    9CHTO   C74 3529   7.013   4.405  -0.068  0.0206  0.1910 -0.1859
    9CHTO  H146 3530   6.982   4.463  -0.156  0.1937 -0.7754 -0.8902
    9CHTO   O54 3531   7.003   4.500   0.043 -0.0341  0.7323  0.1940
    9CHTO  H133 3532   6.914   4.514   0.070  0.4731  2.8524  0.8683
    9CHTO   C75 3533   7.165   4.346  -0.081  0.2430 -0.2865  0.5292
    9CHTO  H147 3534   7.160   4.286  -0.173  1.1349  1.3432 -0.6173
    9CHTO   N13 3535   7.269   4.448  -0.097 -0.1903  0.1709  0.4982
    9CHTO  H139 3536   7.236   4.511  -0.178  3.1832 -1.0126 -1.9118
    9CHTO  H140 3537   7.355   4.399  -0.140 -0.2570  0.3370  0.1802
    9CHTO   C76 3538   7.203   4.250   0.045  0.3517 -0.3137  0.8476
    9CHTO  H148 3539   7.194   4.307   0.137  1.0455  0.0912  0.6648
    9CHTO   O49 3540   7.102   4.149   0.043 -0.3288 -0.5852 -0.5008
    9CHTO   C77 3541   6.966   4.194   0.067  0.8653 -0.0950  0.1252
    9CHTO  H149 3542   6.961   4.250   0.160  0.9977  1.6846 -0.9174
    9CHTO   C88 3543   6.877   4.072   0.092  0.1405  0.0534  0.2055
    9CHTO   O58 3544   6.915   3.993   0.199 -0.3028 -0.3674 -0.2383
    9CHTO  H136 3545   6.862   3.916   0.201 -2.4797  1.0857 -0.2185
    9CHTO   O51 3546   7.335   4.176   0.025 -0.5273  0.6594  0.5748
    9CHTO   C78 3547   7.410   4.130   0.140  0.7633  0.4082 -0.6693
    9CHTO  H150 3548   7.349   4.072   0.213  0.1150  0.8678 -0.8431
    9CHTO   C80 3549   7.486   4.242   0.214 -0.3185 -0.1652 -0.0244
    9CHTO  H152 3550   7.535   4.300   0.134 -1.9008  0.0938 -0.8223
    9CHTO   O55 3551   7.387   4.331   0.280 -0.2643 -0.7376 -0.5596
    9CHTO  H134 3552   7.360   4.397   0.218 -1.9189 -0.9118 -0.0654
    9CHTO   C84 3553   7.585   4.181   0.320 -0.7477  0.8212 -0.0608
    9CHTO  H156 3554   7.519   4.148   0.400  1.2477 -1.8445  0.5676
    9CHTO   N15 3555   7.672   4.285   0.385 -0.4428 -0.3853  0.0522
    9CHTO  H143 3556   7.746   4.247   0.452 -0.3473 -0.5046 -0.1232
    9CHTO  H144 3557   7.716   4.346   0.309 -2.1026  0.4743 -0.2446
    9CHTO   C87 3558   7.670   4.069   0.265  0.1798 -0.0475  0.3530
    9CHTO  H159 3559   7.733   4.095   0.180  1.5142 -0.1608  1.2870
    9CHTO   O53 3560   7.565   3.975   0.206 -0.2570 -0.3854  0.1274
    9CHTO   C82 3561   7.505   4.021   0.086 -0.0001  0.0337  0.0846
    9CHTO  H154 3562   7.579   4.060   0.017 -0.0880  1.0733  0.5664
    9CHTO   C89 3563   7.437   3.899   0.017  0.0781  0.3959 -0.2910
    9CHTO   O59 3564   7.377   3.931  -0.110 -0.1378 -0.2568 -0.3802
    9CHTO  H137 3565   7.420   3.996  -0.161 -1.3762 -1.2736 -2.8074
    9CHTO   O45 3566   7.758   3.981   0.386 -0.6189  0.6200 -0.1999
    9CHTO   C67 3567   7.789   3.842   0.366 -0.3196  0.1289  0.2548
    9CHTO  H124 3568   7.715   3.789   0.307 -0.8862  2.3486 -1.0964
    9CHTO   C65 3569   7.926   3.819   0.301 -0.5755 -0.1305  0.0440
    9CHTO  H122 3570   7.975   3.910   0.336  0.5734 -0.6794 -0.1254
    9CHTO   O44 3571   7.908   3.829   0.159  0.4995 -0.1336 -0.3822
    9CHTO  H102 3572   7.971   3.889   0.123 -0.4962 -0.0972 -2.1123
    9CHTO   C63 3573   8.007   3.692   0.361 -0.5025 -0.6022  0.3344
    9CHTO  H120 3574   8.042   3.719   0.461  0.7167 -1.3924  0.1334
    9CHTO   N11 3575   8.137   3.659   0.291  0.1111 -0.1620 -0.4126
    9CHTO  H108 3576   8.133   3.630   0.188  0.9524  0.5818 -0.6586
    9CHTO  H109 3577   8.211   3.734   0.305  0.8831 -0.6647 -1.7191
    9CHTO   C61 3578   7.909   3.574   0.392 -0.1116  0.2588 -0.1527
    9CHTO  H118 3579   7.965   3.498   0.448 -1.2282 -0.1877  0.3586
    9CHTO   O40 3580   7.809   3.620   0.484 -0.5293  0.5814  0.0969
    9CHTO   C68 3581   7.789   3.762   0.506 -0.2080 -0.0496 -0.4594
    9CHTO  H125 3582   7.875   3.796   0.566 -0.1006 -0.8685 -0.1344
    9CHTO   C72 3583   7.662   3.779   0.588 -0.5934  0.2099 -0.0658
    9CHTO   O48 3584   7.643   3.908   0.644  0.3478  0.2626  0.5278
    9CHTO  H105 3585   7.578   3.905   0.711  0.3817  2.2976  0.6750
    9CHTO   O38 3586   7.849   3.509   0.278  0.8776  0.2877  0.6768
    9CHTO   C55 3587   7.721   3.447   0.295  0.1252  0.2287  0.0811
    9CHTO  H112 3588   7.649   3.521   0.334 -0.3352  0.0808 -0.4732
    9CHTO   C56 3589   7.720   3.309   0.373 -0.1777 -0.2182  0.6684
    9CHTO  H113 3590   7.807   3.253   0.336 -0.6112 -0.1424 -0.4713
    9CHTO   O42 3591   7.755   3.341   0.511 -0.4420  0.3263  0.3970
    9CHTO  H100 3592   7.783   3.258   0.543  1.7944  0.7643 -0.3636
    9CHTO   C57 3593   7.584   3.233   0.360  0.2658  0.0706  0.1978
    9CHTO  H114 3594   7.509   3.287   0.418 -0.6856 -0.9769 -0.0593
    9CHTO   N10 3595   7.575   3.096   0.417  0.4605 -0.3670  0.2220
    9CHTO  H106 3596   7.470   3.074   0.426  0.1958  0.5553 -0.5469
    9CHTO  H107 3597   7.617   3.027   0.345  3.1301  0.0640  1.2806
    9CHTO   C58 3598   7.541   3.236   0.212  0.1105 -0.7619 -0.5600
    9CHTO  H115 3599   7.609   3.174   0.149  0.4552 -1.1339  0.1710
    9CHTO   O37 3600   7.536   3.364   0.152 -0.0697 -0.0359 -0.0475
    9CHTO   C59 3601   7.665   3.425   0.151 -0.2494  0.4289 -0.1484
    9CHTO  H116 3602   7.732   3.360   0.094  1.7422  1.9472  0.4132
    9CHTO   C70 3603   7.662   3.557   0.078  0.0540 -0.1987 -0.8653
    9CHTO   O46 3604   7.671   3.545  -0.059 -0.0935 -0.2190 -0.6053
    9CHTO  H103 3605   7.644   3.620  -0.107  0.9808  0.0229 -0.8514
    9CHTO   O39 3606   7.397   3.203   0.195 -0.0315 -0.2027  0.0835
    9CHTO   C60 3607   7.363   3.080   0.124  0.0029  0.8084 -0.0899
    9CHTO  H117 3608   7.456   3.023   0.113 -0.3397  0.3409 -0.5333
    9CHTO   C62 3609   7.263   3.000   0.210 -0.4486  0.9750 -0.7632
    9CHTO  H119 3610   7.312   2.988   0.309 -0.2728 -0.0712 -0.9723
    9CHTO   O43 3611   7.145   3.079   0.232 -0.3489  0.1177 -0.1321
    9CHTO  H101 3612   7.088   3.052   0.301  0.5521  0.8111  0.8894
    9CHTO   C66 3613   7.244   2.848   0.145 -0.4287  0.7366  0.0382
    9CHTO  H123 3614   7.336   2.790   0.156 -1.2920 -0.2735  2.2380
    9CHTO   N12 3615   7.145   2.766   0.216 -0.2079 -0.2052  0.0146
    9CHTO  H110 3616   7.112   2.808   0.310 -1.1925 -0.5699 -0.1649
    9CHTO  H111 3617   7.066   2.744   0.146  1.1222 -0.8637 -1.3055
    9CHTO   C69 3618   7.225   2.854  -0.010  0.2921  0.5899 -0.0119
    9CHTO  H126 3619   7.121   2.882  -0.038  0.0174 -0.3335  0.0782
    9CHTO   O41 3620   7.310   2.954  -0.070  0.5843 -0.1090  0.2244
    9CHTO   C64 3621   7.308   3.092  -0.018 -0.3936 -0.1903 -0.4510
    9CHTO  H121 3622   7.205   3.135  -0.012 -0.6950 -0.5827 -2.5660
    9CHTO   C71 3623   7.400   3.184  -0.108 -0.0819  0.3288  0.7051
    9CHTO   O47 3624   7.361   3.218  -0.242 -0.0969  0.0554 -0.2364
    9CHTO  H104 3625   7.273   3.194  -0.261  0.0573  0.7497 -1.8205
    9CHTO   O34 3626   7.253   2.723  -0.065 -0.3095  0.0238  0.3679
    9CHTO   C49 3627   7.324   2.650  -0.201 -0.2406  0.5748  0.1272
    9CHTO   H91 3628   7.299   2.710  -0.288 -0.7143  0.8742  0.4671
    9CHTO   C47 3629   7.253   2.509  -0.202 -0.2346 -0.0661  0.4774
    9CHTO   H89 3630   7.256   2.477  -0.308 -0.7942 -1.2839  0.8190
    9CHTO   O33 3631   7.115   2.522  -0.175 -0.1231 -0.0449 -0.9660
    9CHTO   H70 3632   7.070   2.534  -0.256  1.6522 -2.6773 -2.4179
    9CHTO   C45 3633   7.315   2.399  -0.101 -0.5558  0.0041  0.3200
    9CHTO   H87 3634   7.245   2.375  -0.020  0.4156  0.1923  1.2407
    9CHTO    N8 3635   7.356   2.274  -0.163 -0.4497  0.3948  0.1767
    9CHTO   H75 3636   7.457   2.240  -0.150 -0.6419  0.0837  0.8450
    9CHTO   H76 3637   7.331   2.255  -0.267  0.9321  0.9321 -0.2743
    9CHTO   C43 3638   7.426   2.469  -0.013 -0.5295  0.1244  0.3777
    9CHTO   H85 3639   7.374   2.545   0.046  1.1336  2.4781 -1.1269
    9CHTO   O29 3640   7.522   2.535  -0.093  0.1815  0.4976 -0.8556
    9CHTO   C50 3641   7.477   2.638  -0.182  0.9836  0.8297  1.1855
    9CHTO   H92 3642   7.510   2.739  -0.154  0.5955  1.7281 -1.4711
    9CHTO   C54 3643   7.541   2.600  -0.324 -0.2427 -0.0705 -0.9129
    9CHTO   O36 3644   7.549   2.717  -0.406  0.2319 -0.6052  0.1454
    9CHTO   H72 3645   7.564   2.692  -0.496  0.4047  1.2983 -0.3745
    9CHTO   O27 3646   7.483   2.393   0.091  0.2810  0.1476  0.4365
    9CHTO   C37 3647   7.527   2.423   0.221  0.2394 -0.4621 -0.1842
    9CHTO   H79 3648   7.581   2.337   0.262  0.0787 -0.2431  0.4965
    9CHTO   C38 3649   7.615   2.547   0.230  0.3267 -1.3788  0.0693
    9CHTO   H80 3650   7.566   2.629   0.175  2.4854  0.1398  0.3372
    9CHTO   O31 3651   7.734   2.518   0.150  0.2186 -0.1485 -0.6266
    9CHTO   H68 3652   7.769   2.441   0.191  0.6845  0.3137 -0.1421
    9CHTO   C39 3653   7.655   2.599   0.375  0.2925 -0.5593  0.0686
    9CHTO   H81 3654   7.725   2.528   0.419 -1.6530 -0.3793  3.7019
    9CHTO    N7 3655   7.729   2.729   0.372 -0.0143  0.8635  0.1858
    9CHTO   H73 3656   7.800   2.730   0.290 -0.6026  1.6991 -0.3198
    9CHTO   H74 3657   7.767   2.759   0.468  1.5082 -0.2426 -0.0508
    9CHTO   C40 3658   7.523   2.612   0.456  0.0953  0.0615 -0.1872
    9CHTO   H82 3659   7.472   2.699   0.414  0.9202  0.0220 -1.2972
    9CHTO   O26 3660   7.434   2.494   0.447  0.3340 -0.6238  0.0887
    9CHTO   C41 3661   7.403   2.451   0.312  0.2626  0.0454  0.2624
    9CHTO   H83 3662   7.346   2.533   0.266  1.1114 -0.8250 -2.4817
    9CHTO   C52 3663   7.308   2.329   0.331 -0.1507  0.2054 -0.4446
    9CHTO   O35 3664   7.185   2.367   0.323  0.0928  0.6120 -0.5175
    9CHTO   H71 3665   7.122   2.332   0.383  0.2840 -0.0460 -0.6979
    9CHTO   O28 3666   7.546   2.640   0.603  0.8096  1.0287  0.4809
    9CHTO   C42 3667   7.456   2.714   0.694  0.9889  0.5638  0.1199
    9CHTO   H84 3668   7.480   2.671   0.791  2.3494  0.4552 -0.2486
    9CHTO   C44 3669   7.299   2.685   0.673  0.3088 -0.2261 -0.3753
    9CHTO   H86 3670   7.271   2.700   0.569 -1.4402  1.1424  0.2597
    9CHTO   O32 3671   7.284   2.549   0.703 -0.4350  0.0029 -0.1132
    9CHTO   H69 3672   7.200   2.518   0.676 -0.7636 -0.1689  1.0829
    9CHTO   C48 3673   7.207   2.784   0.754  0.4391 -0.3165 -0.5945
    9CHTO   H90 3674   7.228   2.751   0.856  2.2561 -0.1816 -0.9080
    9CHTO    N9 3675   7.065   2.751   0.721  0.0358 -0.3643  0.0624
    9CHTO   H77 3676   7.003   2.797   0.797  1.8268 -0.7232  1.7884
    9CHTO   H78 3677   7.034   2.786   0.624 -0.2265  1.4522  0.7891
    9CHTO   C51 3678   7.255   2.925   0.720  1.1061 -0.1962 -0.1028
    9CHTO   H93 3679   7.263   2.937   0.612 -1.7774  0.3923 -0.2823
    9CHTO   O30 3680   7.383   2.928   0.786  0.1662  0.3449 -0.0961
    9CHTO   C46 3681   7.483   2.862   0.707 -0.2772  0.3013 -0.2825
    9CHTO   H88 3682   7.479   2.907   0.608 -1.9633  0.0169 -0.3523
    9CHTO   C53 3683   7.618   2.887   0.772 -0.2576 -0.2629  0.2661
    9CHTO   O72 3684   7.649   3.020   0.743  0.0084 -0.5526  0.4202
    9CHTO  H199 3685   7.643   3.064   0.825  0.9661 -0.2320  0.3238
    9CHTO   O22 3686   7.184   3.035   0.791 -0.1314  0.2574  0.3959
    9CHTO   C31 3687   7.188   3.175   0.740  0.7551  0.3667 -0.3262
    9CHTO   H59 3688   7.111   3.232   0.797  0.2220 -1.8617  1.2684
    9CHTO   C29 3689   7.321   3.240   0.761  0.2460 -0.2673 -0.0118
    9CHTO   H57 3690   7.384   3.176   0.697  0.5065 -0.3715  0.3510
    9CHTO   O21 3691   7.370   3.227   0.898 -0.1438 -0.0289 -0.0898
    9CHTO   H37 3692   7.461   3.214   0.914 -0.7071 -1.7390  1.9954
    9CHTO   C27 3693   7.321   3.387   0.701 -0.0352 -0.0114  0.0994
    9CHTO   H55 3694   7.249   3.451   0.755  0.1415 -0.2060  0.5664
    9CHTO    N5 3695   7.455   3.446   0.701 -0.8940  0.1189 -0.2012
    9CHTO   H43 3696   7.483   3.485   0.798 -1.4152  0.7352 -0.2942
    9CHTO   H44 3697   7.466   3.519   0.622  1.5353 -2.4861 -2.3705
    9CHTO   C25 3698   7.261   3.391   0.557  0.8411  0.7173 -0.3080
    9CHTO   H53 3699   7.322   3.331   0.489  1.2017  0.2774  0.3893
    9CHTO   O17 3700   7.129   3.320   0.554  0.0545  0.5110  0.5226
    9CHTO   C32 3701   7.139   3.180   0.587 -0.5672  0.3411 -0.5859
    9CHTO   H60 3702   7.218   3.143   0.521  0.1887 -0.8885  0.9680
    9CHTO   C36 3703   7.005   3.101   0.570 -0.5399 -0.2011  0.5231
    9CHTO   O25 3704   6.959   3.137   0.440  0.0904  0.4664 -0.8213
    9CHTO   H40 3705   6.920   3.059   0.405  1.3814 -0.5859  0.0508
    9CHTO   O15 3706   7.246   3.544   0.496  0.1589 -0.4031  0.1052
    9CHTO   C19 3707   7.190   3.583   0.368 -0.5483  0.0728  0.5971
    9CHTO   H47 3708   7.194   3.693   0.376  0.3457 -0.0806  2.5002
    9CHTO   C20 3709   7.289   3.542   0.246  0.2025 -0.3943  0.2901
    9CHTO   H48 3710   7.307   3.433   0.245  0.3050 -0.3968  1.3333
    9CHTO   O19 3711   7.410   3.614   0.276 -0.7699 -0.2953  0.4057
    9CHTO   H35 3712   7.417   3.620   0.369 -2.5231 -2.2871  0.7099
    9CHTO   C21 3713   7.228   3.577   0.102  0.8701  0.4696  1.0107
    9CHTO   H49 3714   7.212   3.685   0.098 -0.7136  0.2010 -1.3173
    9CHTO    N4 3715   7.310   3.542  -0.015 -0.2174 -0.1553 -0.6512
    9CHTO   H41 3716   7.404   3.590   0.009  0.0899 -0.7012 -0.7540
    9CHTO   H42 3717   7.275   3.585  -0.107  0.3294 -0.8163 -1.1717
    9CHTO   C22 3718   7.089   3.507   0.096 -0.7788 -0.1199 -0.3317
    9CHTO   H50 3719   7.104   3.400   0.116  0.8486  0.2770  0.6793
    9CHTO   O14 3720   7.011   3.568   0.203  0.4647 -0.3061  0.1975
    9CHTO   C23 3721   7.042   3.541   0.342  0.4064 -0.0072 -0.0080
    9CHTO   H51 3722   7.029   3.432   0.353  0.2688  0.0443  0.3760
    9CHTO   C34 3723   6.939   3.620   0.428 -0.7073  0.3305  0.2690
    9CHTO   O23 3724   6.822   3.536   0.439  0.0398  0.0942  0.4931
    9CHTO   H38 3725   6.755   3.601   0.428  0.7396  0.6064 -0.8918
    9CHTO   O16 3726   7.012   3.550  -0.020  0.0289  0.2961 -0.3702
    9CHTO   C24 3727   6.893   3.436  -0.037 -0.0207 -0.1243  0.3329
    9CHTO   H52 3728   6.887   3.370   0.049  1.6075  0.5294  0.9706
    9CHTO   C26 3729   6.912   3.357  -0.164 -0.0998  0.3071 -0.2328
    9CHTO   H54 3730   6.936   3.431  -0.242  2.9576  0.4392  0.7329
    9CHTO   O20 3731   7.018   3.264  -0.148 -0.4521  0.2495  0.6908
    9CHTO   H36 3732   7.097   3.305  -0.177 -0.8854  1.3529  1.0403
    9CHTO   C30 3733   6.790   3.280  -0.221 -0.4964  0.1798  1.1139
    9CHTO   H58 3734   6.783   3.183  -0.170  0.9652 -1.0472 -0.9875
    9CHTO    N6 3735   6.807   3.246  -0.364 -0.4378 -0.2733  0.4614
    9CHTO   H45 3736   6.841   3.335  -0.414  0.5857 -0.9848 -0.1181
    9CHTO   H46 3737   6.884   3.171  -0.372 -0.1557 -0.0059  0.6366
    9CHTO   C33 3738   6.656   3.350  -0.188 -0.3743 -0.8228  0.0671
    9CHTO   H61 3739   6.644   3.429  -0.263  1.1688 -0.1030  0.5738
    9CHTO   O18 3740   6.663   3.406  -0.059 -0.3203  0.0576  0.1595
    9CHTO   C28 3741   6.753   3.511  -0.051 -0.0262 -0.2082  0.1237
    9CHTO   H56 3742   6.749   3.568  -0.144 -0.7610 -0.4239  0.0180
    9CHTO   C35 3743   6.729   3.596   0.075  0.0547 -0.2306  0.2400
    9CHTO   O24 3744   6.777   3.730   0.073 -0.5340 -0.1715  0.1200
    9CHTO   H39 3745   6.736   3.781   0.006  1.1748 -0.8926 -1.5138
    9CHTO    O9 3746   6.538   3.266  -0.203 -0.9961 -0.5338 -0.2531
    9CHTO   C13 3747   6.399   3.350  -0.219  0.5460  1.1891 -0.7578
    9CHTO   H26 3748   6.413   3.423  -0.302 -1.1544  1.5589 -0.7252
    9CHTO   C11 3749   6.362   3.424  -0.081 -0.0742 -0.2119 -0.7346
    9CHTO   H24 3750   6.440   3.499  -0.063  0.1921 -0.2059 -1.9113
    9CHTO    O8 3751   6.366   3.327   0.029  0.4325 -0.1066  0.6001
    9CHTO    H3 3752   6.438   3.267   0.018  0.2932  0.1055 -1.9015
    9CHTO    C9 3753   6.225   3.491  -0.103  0.0310  0.3469  0.1672
    9CHTO   H22 3754   6.236   3.551  -0.194 -0.6007  0.6489  0.2838
    9CHTO    N2 3755   6.186   3.588   0.005 -0.7619  0.0559 -0.1282
    9CHTO   H10 3756   6.213   3.690  -0.017  0.6796 -0.4240 -0.7059
    9CHTO   H11 3757   6.241   3.551   0.091  1.8231 -0.3065 -1.8833
    9CHTO    C7 3758   6.115   3.376  -0.126  0.0253  0.5799  0.5649
    9CHTO   H20 3759   6.018   3.428  -0.138 -0.9614 -1.1766  0.8422
    9CHTO    O4 3760   6.142   3.310  -0.253  0.1535  0.5341 -0.0948
    9CHTO   C14 3761   6.279   3.252  -0.270 -0.3177  0.2391 -0.9837
    9CHTO   H27 3762   6.282   3.232  -0.380  0.1121 -0.2698 -0.8780
    9CHTO   C18 3763   6.281   3.114  -0.194 -0.5116  0.2738  0.4120
    9CHTO   O13 3764   6.220   3.012  -0.272 -0.2774 -0.3297  0.0325
    9CHTO    H7 3765   6.284   2.974  -0.330  1.3932  0.8010  1.1037
    9CHTO    O2 3766   6.101   3.262  -0.005  0.2963 -0.1737  0.5008
    9CHTO    C1 3767   5.975   3.199   0.027 -0.1640  0.2393 -0.3752
    9CHTO   H14 3768   5.988   3.121   0.105 -0.4100 -2.1396 -2.6213
    9CHTO    C2 3769   5.903   3.141  -0.100  0.1832  0.2493  0.4182
    9CHTO   H15 3770   5.905   3.211  -0.185  0.5903 -0.2337  0.0286
    9CHTO    O6 3771   5.971   3.017  -0.137  0.0898 -0.8804  0.2294
    9CHTO    H1 3772   6.041   3.037  -0.197 -0.0381 -2.6018 -0.5279
    9CHTO    C3 3773   5.748   3.106  -0.063 -0.9358  0.3715 -0.8836
    9CHTO   H16 3774   5.756   3.017   0.001  0.6199 -0.2426 -1.8881
    9CHTO    N1 3775   5.684   3.063  -0.187 -0.2381  0.1127  0.4135
    9CHTO    H8 3776   5.586   3.028  -0.157 -0.8566  1.0038 -0.5439
    9CHTO    H9 3777   5.670   3.142  -0.258 -0.9799 -0.2850  0.1096
    9CHTO    C4 3778   5.678   3.217   0.020 -0.0488 -0.0671 -0.4096
    9CHTO   H17 3779   5.666   3.307  -0.039 -0.0488  1.3092  1.6215
    9CHTO    O1 3780   5.761   3.250   0.137 -0.0290  0.4125  0.5341
    9CHTO    C5 3781   5.885   3.306   0.103  0.3336 -0.4861  0.3148
    9CHTO   H18 3782   5.872   3.391   0.036  2.8575  0.0843  0.4841
    9CHTO   C16 3783   5.953   3.359   0.234  1.2029 -0.0038  0.3293
    9CHTO   O11 3784   5.862   3.447   0.298  0.4508  0.1516  0.6362
    9CHTO    H5 3785   5.883   3.442   0.389  1.7041  1.0799  0.4115
    9CHTO    O3 3786   5.549   3.184   0.063  0.1809  0.4759  0.4216
    9CHTO    C6 3787   5.445   3.286   0.081  0.2292 -0.3403  0.7315
    9CHTO   H19 3788   5.469   3.389   0.058  0.4266 -0.9540 -2.0093
    9CHTO    C8 3789   5.337   3.257  -0.027 -0.4180  0.3221  0.1583
    9CHTO   H21 3790   5.296   3.156  -0.019  1.0989 -0.2118  1.4891
    9CHTO    O7 3791   5.394   3.279  -0.158 -0.2578  0.3973 -0.7060
    9CHTO    H2 3792   5.320   3.285  -0.216 -1.6093 -3.1281  0.5258
    9CHTO   C12 3793   5.214   3.359  -0.019  0.1657 -0.0449 -0.0118
    9CHTO   H25 3794   5.259   3.454  -0.054 -1.8793  0.0763 -2.4507
    9CHTO    N3 3795   5.102   3.345  -0.116 -0.1107  0.0341  0.5784
    9CHTO   H12 3796   5.052   3.249  -0.121  0.9591 -0.4501 -1.1607
    9CHTO   H13 3797   5.140   3.362  -0.215 -1.1545 -1.3968 -0.0905
    9CHTO   C15 3798   5.160   3.377   0.130 -0.3623 -0.1082  0.2477
    9CHTO   H28 3799   5.089   3.299   0.156 -0.9218 -0.0984 -1.2179
    9CHTO   O10 3800   5.073   3.509   0.153  0.3995 -0.3291 -0.2961
    9CHTO    H4 3801   5.111   3.589   0.182  2.2436 -1.3218  0.0731
    9CHTO    O5 3802   5.266   3.384   0.225 -0.5209 -0.3027  0.1645
    9CHTO   C10 3803   5.370   3.279   0.221  0.8578 -0.4324 -0.4383
    9CHTO   H23 3804   5.319   3.184   0.237 -0.9214  0.6102  0.3028
    9CHTO   C17 3805   5.464   3.288   0.340  0.2965 -0.9930  0.7495
    9CHTO   O12 3806   5.544   3.406   0.318  0.3974 -0.2587  0.1609
    9CHTO    H6 3807   5.632   3.385   0.297 -0.4868 -2.0503 -1.8939
   10CHTO  H203 3808   5.015   5.760   2.586  1.3731 -1.3981 -0.6942
   10CHTO   O82 3809   4.957   5.701   2.542  0.3038 -0.2517 -0.8154
   10CHTO  C123 3810   4.835   5.777   2.505 -0.5873 -0.5441 -0.8937
   10CHTO  H227 3811   4.835   5.797   2.397 -2.6646  0.8176 -0.6636
   10CHTO   O77 3812   4.735   5.678   2.554  0.1621  0.5371 -0.0507
   10CHTO  C118 3813   4.600   5.720   2.545  0.7749  0.5387  0.1439
   10CHTO  H222 3814   4.572   5.755   2.445 -2.4455  0.2800  0.9213
   10CHTO  C125 3815   4.513   5.593   2.589 -0.3494 -0.2059 -0.1272
   10CHTO   O84 3816   4.542   5.491   2.495  0.3207 -0.7784 -0.2626
   10CHTO  H205 3817   4.601   5.434   2.540 -0.4926 -0.3464  1.3732
   10CHTO  C114 3818   4.583   5.841   2.640  0.3225 -0.2714  0.5486
   10CHTO  H218 3819   4.604   5.807   2.742 -1.7373 -2.5886  0.2731
   10CHTO  C116 3820   4.683   5.958   2.591  0.0869  0.1358  0.2449
   10CHTO  H220 3821   4.648   5.999   2.493  1.8853  1.7397  0.2513
   10CHTO   O79 3822   4.668   6.062   2.686  0.5029 -0.4625 -0.1678
   10CHTO  H201 3823   4.711   6.032   2.764 -0.9318 -0.8995  0.4711
   10CHTO  C120 3824   4.826   5.911   2.588 -0.1262  0.4688  0.5965
   10CHTO  H224 3825   4.861   5.902   2.693  0.6569 -0.3596  0.2745
   10CHTO   N21 3826   4.919   6.016   2.535  0.2173 -0.2439 -1.0311
   10CHTO  H211 3827   5.016   6.004   2.579  0.5757  4.3678 -0.2935
   10CHTO  H212 3828   4.883   6.117   2.552 -1.8476 -0.8621 -1.5614
   10CHTO   O75 3829   4.443   5.871   2.626 -0.2600 -0.1334  0.2923
   10CHTO  C112 3830   4.362   5.904   2.768  0.1373 -1.1198  0.8823
   10CHTO  H216 3831   4.433   5.949   2.840 -0.9361 -0.5443  1.5865
   10CHTO   O73 3832   4.297   5.781   2.815 -0.4927 -0.7444  0.0016
   10CHTO  C113 3833   4.233   5.794   2.942  0.3684 -0.2954  0.4334
   10CHTO  H217 3834   4.309   5.831   3.014 -0.0275  0.9899  0.2016
   10CHTO  C124 3835   4.190   5.652   2.984  0.0468  0.0310 -0.2485
   10CHTO   O83 3836   4.084   5.593   2.910 -0.1329  0.1409 -0.1064
   10CHTO  H204 3837   4.052   5.518   2.956  0.5237  1.3883  2.4483
   10CHTO  C109 3838   4.116   5.898   2.938  0.0054 -0.0260 -0.1104
   10CHTO  H213 3839   4.039   5.850   2.876  0.3149  0.6266 -1.0132
   10CHTO  C110 3840   4.166   6.026   2.871 -0.1783  0.1220 -0.5731
   10CHTO  H214 3841   4.234   6.071   2.943 -1.8075 -0.8355  1.6239
   10CHTO   O78 3842   4.061   6.120   2.861  0.0757 -0.1936  0.2663
   10CHTO  H200 3843   4.004   6.112   2.787 -0.7868 -0.0858  0.9030
   10CHTO  C111 3844   4.241   6.006   2.738  0.0180  0.0131 -0.7918
   10CHTO  H215 3845   4.173   5.957   2.666  0.5221 -1.0051 -0.5825
   10CHTO   N19 3846   4.292   6.125   2.667  0.0963  0.0975  0.0541
   10CHTO  H207 3847   4.202   6.171   2.629 -0.5573 -1.2118 -0.0027
   10CHTO  H208 3848   4.324   6.194   2.745 -2.6586  0.2452  1.0820
   10CHTO   O74 3849   4.067   5.934   3.075 -0.0585  0.0944 -0.3001
   10CHTO  C115 3850   3.891   5.931   3.075 -1.4494  0.6475  0.1320
   10CHTO  H219 3851   3.850   5.974   2.983 -2.3499  0.2736  0.3469
   10CHTO   O76 3852   3.836   5.789   3.074 -0.0078 -0.1436  0.2241
   10CHTO  C122 3853   3.880   5.719   3.191 -0.3219 -0.3537 -0.6987
   10CHTO  H226 3854   3.985   5.694   3.172  0.1562  1.0417  0.0419
   10CHTO  C126 3855   3.807   5.578   3.198 -0.5033  0.3236 -0.5800
   10CHTO   O85 3856   3.849   5.504   3.082 -0.2067  0.0703 -0.1955
   10CHTO  H206 3857   3.940   5.485   3.092 -0.6856 -1.4171  1.6307
   10CHTO  C121 3858   3.862   5.798   3.330 -0.4219 -0.1830  0.6539
   10CHTO  H225 3859   3.804   5.734   3.399 -0.2160  0.6547  1.6161
   10CHTO   O81 3860   3.993   5.829   3.377  0.2001  0.3060 -0.0941
   10CHTO  H202 3861   3.990   5.859   3.466  1.7514  1.0918 -0.2907
   10CHTO  C119 3862   3.778   5.936   3.306  0.0510  0.0519 -0.1875
   10CHTO  H223 3863   3.687   5.896   3.261 -0.4166 -0.6165  1.3420
   10CHTO  C117 3864   3.837   6.022   3.190  0.1313  0.3994  0.5804
   10CHTO  H221 3865   3.924   6.080   3.218  0.3839  0.2370  0.1399
   10CHTO   N20 3866   3.733   6.128   3.150  0.1674 -0.6285  0.1023
   10CHTO  H209 3867   3.714   6.185   3.239 -1.3855 -0.1208 -0.5327
   10CHTO  H210 3868   3.643   6.071   3.131 -1.5158  1.1547  2.3880
   10CHTO   O80 3869   3.720   6.011   3.446  0.2572  0.3443  0.7591
   10CHTO  C103 3870   3.590   5.992   3.498 -0.1515  0.0802  0.9282
   10CHTO  H190 3871   3.586   6.053   3.588  3.3886  0.3279  0.9771
   10CHTO  C101 3872   3.476   6.029   3.389 -0.2974  0.1618  0.1430
   10CHTO  H188 3873   3.503   5.967   3.303 -1.8294 -1.0417  0.5100
   10CHTO   O68 3874   3.475   6.188   3.358  0.3216  0.0815  0.0509
   10CHTO  H168 3875   3.433   6.222   3.435 -2.2669 -0.8473 -0.8958
   10CHTO   C99 3876   3.339   5.976   3.442  0.1884  0.3929 -0.4773
   10CHTO  H186 3877   3.310   6.031   3.534  0.3167  1.2012 -0.9158
   10CHTO   N17 3878   3.224   6.000   3.341 -0.1023  1.1563 -0.4364
   10CHTO  H174 3879   3.143   6.062   3.376  0.5470  2.0393 -0.4604
   10CHTO  H175 3880   3.192   5.906   3.300  3.3943  0.2934 -1.3592
   10CHTO   C97 3881   3.342   5.820   3.484  0.1320 -0.5846 -0.5210
   10CHTO  H184 3882   3.358   5.753   3.397 -0.5952 -0.7110 -0.5605
   10CHTO   O64 3883   3.447   5.809   3.579 -0.1877  0.3703 -0.2808
   10CHTO  C104 3884   3.582   5.839   3.544 -0.3011 -0.7930 -0.1263
   10CHTO  H191 3885   3.615   5.775   3.462 -1.8927 -0.3615 -1.1217
   10CHTO  C108 3886   3.675   5.814   3.666  0.0225  0.2943  0.4437
   10CHTO   O71 3887   3.641   5.679   3.712 -0.1704  0.1780 -1.0527
   10CHTO  H171 3888   3.662   5.659   3.802 -0.2392 -0.4210 -1.1696
   10CHTO   O62 3889   3.225   5.776   3.544  0.2490  0.1612 -0.7291
   10CHTO   C91 3890   3.197   5.641   3.567 -0.4490 -0.1047 -0.2618
   10CHTO  H178 3891   3.209   5.594   3.470  0.1053 -0.0699 -0.2106
   10CHTO   C92 3892   3.044   5.630   3.602  0.0760 -0.3235 -0.3104
   10CHTO  H179 3893   2.994   5.707   3.542 -0.6457 -0.0348  0.6428
   10CHTO   O66 3894   3.002   5.497   3.567  0.5488  0.2058 -0.1462
   10CHTO  H166 3895   2.910   5.494   3.585  0.9303 -0.9779  1.6890
   10CHTO   C93 3896   3.016   5.661   3.760  0.1736 -0.1502  0.7113
   10CHTO  H180 3897   2.925   5.604   3.780 -0.9915  1.0325 -1.1153
   10CHTO   N16 3898   2.980   5.802   3.788  0.2271 -0.1133 -0.3745
   10CHTO  H172 3899   3.070   5.860   3.770  0.1415 -0.6368 -2.6528
   10CHTO  H173 3900   2.907   5.825   3.711  0.9527 -0.9111 -1.3174
   10CHTO   C94 3901   3.138   5.606   3.843 -1.4122 -0.3387  0.2639
   10CHTO  H181 3902   3.210   5.685   3.865  0.5949 -1.7530 -1.0502
   10CHTO   O61 3903   3.206   5.502   3.766 -0.0080 -0.0112  0.1523
   10CHTO   C95 3904   3.285   5.559   3.665  0.6695 -0.1960  0.2460
   10CHTO  H182 3905   3.363   5.621   3.707  1.1622  0.4834 -1.6025
   10CHTO  C106 3906   3.353   5.430   3.592 -0.2881 -0.3086 -0.5163
   10CHTO   O69 3907   3.414   5.467   3.469  0.6724 -0.4585  0.1649
   10CHTO  H169 3908   3.342   5.508   3.425 -0.0064 -1.1854  0.6082
   10CHTO   O63 3909   3.083   5.539   3.967 -0.9505 -0.4364  0.3342
   10CHTO   C96 3910   3.180   5.502   4.088 -0.5032  0.5073  0.4754
   10CHTO  H183 3911   3.269   5.564   4.085  0.8417 -1.3394  1.2723
   10CHTO   C98 3912   3.230   5.357   4.098 -0.7151  0.5839  0.2249
   10CHTO  H185 3913   3.143   5.301   4.060  1.7889 -1.6979 -2.3428
   10CHTO   O67 3914   3.331   5.331   4.000  0.2299 -0.2410  0.6566
   10CHTO  H167 3915   3.364   5.243   4.003 -0.7754 -0.6850 -0.7597
   10CHTO  C102 3916   3.273   5.294   4.231 -0.0345  0.1097  0.3553
   10CHTO  H189 3917   3.378   5.325   4.246  0.2104 -0.0204 -1.0419
   10CHTO   N18 3918   3.267   5.145   4.243  0.3918 -0.4498 -1.2994
   10CHTO  H176 3919   3.337   5.100   4.174  0.1054 -0.1532 -1.7845
   10CHTO  H177 3920   3.164   5.121   4.222  0.7487 -1.9661 -1.3901
   10CHTO  C105 3921   3.199   5.359   4.352  0.3752  0.4521 -0.2506
   10CHTO  H192 3922   3.095   5.325   4.350  1.0010 -1.8036  2.3660
   10CHTO   O65 3923   3.200   5.503   4.331  0.2900  0.1931  0.5268
   10CHTO  C100 3924   3.113   5.537   4.220 -0.4754  0.5420  0.6875
   10CHTO  H187 3925   3.012   5.494   4.225 -0.9845  1.2584 -2.3694
   10CHTO  C107 3926   3.076   5.692   4.231  0.2215  0.1471 -0.2079
   10CHTO   O70 3927   3.003   5.717   4.356  0.5893  0.1695 -0.9364
   10CHTO  H170 3928   2.972   5.805   4.349  1.8180  0.6589 -0.2643
   10CHTO   O57 3929   3.258   5.302   4.490 -0.5991  0.1798 -0.5155
   10CHTO   C85 3930   3.178   5.305   4.613 -0.1941  0.3350  0.2926
   10CHTO  H157 3931   3.074   5.279   4.585  0.7205 -2.1499 -0.9210
   10CHTO   C83 3932   3.174   5.450   4.670  0.0170 -0.6256 -0.3571
   10CHTO  H155 3933   3.131   5.520   4.598  0.2656 -3.2453 -3.1453
   10CHTO   O56 3934   3.315   5.488   4.685  0.1502 -0.4431 -0.0302
   10CHTO  H135 3935   3.347   5.532   4.609  0.0992  2.0190  1.3088
   10CHTO   C81 3936   3.092   5.466   4.802 -0.4059  0.3429  0.0318
   10CHTO  H153 3937   2.990   5.433   4.782  0.4610 -1.9764 -0.7317
   10CHTO   N14 3938   3.080   5.603   4.847 -0.0753 -0.2820  0.2736
   10CHTO  H141 3939   3.173   5.652   4.863  1.2604 -3.3622  2.4106
   10CHTO  H142 3940   3.021   5.654   4.774  1.3470  0.3911 -0.4042
   10CHTO   C79 3941   3.156   5.372   4.910  0.2382 -0.0162 -0.5843
   10CHTO  H151 3942   3.081   5.352   4.986  0.6354 -1.7794 -0.6305
   10CHTO   O52 3943   3.167   5.233   4.856  0.0280 -0.4536 -0.4687
   10CHTO   C86 3944   3.228   5.210   4.725 -0.2430  0.5262 -0.1655
   10CHTO  H158 3945   3.338   5.223   4.734 -0.0564 -1.2139  0.2835
   10CHTO   C90 3946   3.215   5.058   4.676 -0.3194 -0.4941  0.2380
   10CHTO   O60 3947   3.081   5.011   4.660  0.6950 -0.4634  0.6172
   10CHTO  H138 3948   3.028   5.066   4.606 -0.3392 -4.1780 -2.4117
   10CHTO   O50 3949   3.288   5.407   4.960 -0.0781 -0.7452  0.2943
   10CHTO   C73 3950   3.348   5.399   5.084  0.3171  0.6290  0.0095
   10CHTO  H145 3951   3.327   5.300   5.127  0.5527 -0.1643 -1.6539
   10CHTO   C74 3952   3.291   5.490   5.196  0.4511 -0.1851  0.0596
   10CHTO  H146 3953   3.183   5.472   5.203  0.1843  1.4510  0.3713
   10CHTO   O54 3954   3.343   5.446   5.325 -0.0012 -0.4451  0.0827
   10CHTO  H133 3955   3.436   5.452   5.330 -0.0370 -0.8923  1.5482
   10CHTO   C75 3956   3.325   5.641   5.161  0.4334  0.1322  0.3225
   10CHTO  H147 3957   3.269   5.676   5.073  1.2233 -0.6852 -0.5228
   10CHTO   N13 3958   3.277   5.738   5.261 -0.1421 -0.1141 -0.5880
   10CHTO  H139 3959   3.305   5.708   5.361  0.3255  1.8894 -0.0961
   10CHTO  H140 3960   3.313   5.840   5.249 -2.6924  0.8133 -0.5547
   10CHTO   C76 3961   3.484   5.650   5.134  0.0770 -0.1331  0.7590
   10CHTO  H148 3962   3.520   5.627   5.234 -3.3202 -0.4614  2.0033
   10CHTO   O49 3963   3.536   5.545   5.047 -0.4334 -0.8952 -0.2675
   10CHTO   C77 3964   3.508   5.413   5.081  0.4417 -0.0731  0.3441
   10CHTO  H149 3965   3.543   5.403   5.184 -0.0480 -0.3398  0.4847
   10CHTO   C88 3966   3.570   5.303   4.993  0.3103  0.5080 -0.0253
   10CHTO   O58 3967   3.558   5.174   5.042  0.6122  0.3043 -0.2830
   10CHTO  H136 3968   3.584   5.174   5.133  0.4861 -3.0637 -0.1945
   10CHTO   O51 3969   3.522   5.820   5.077 -0.5879 -0.0748  0.7511
   10CHTO   C78 3970   3.672   5.860   5.100 -0.1512  0.1335  0.3748
   10CHTO  H150 3971   3.743   5.789   5.052 -0.7624 -0.1470 -0.1303
   10CHTO   C80 3972   3.709   5.867   5.254 -0.4637 -0.2084 -0.0313
   10CHTO  H152 3973   3.622   5.910   5.309 -1.0832 -1.0899 -0.3168
   10CHTO   O55 3974   3.723   5.738   5.312  0.5330  0.2772 -0.2188
   10CHTO  H134 3975   3.742   5.739   5.404 -0.9166  0.9324  0.0876
   10CHTO   C84 3976   3.846   5.948   5.288  0.6393  0.4166  0.2057
   10CHTO  H156 3977   3.930   5.886   5.256 -0.0647 -0.3554 -0.1559
   10CHTO   N15 3978   3.868   5.968   5.431 -0.0111 -0.2156  0.4177
   10CHTO  H143 3979   3.796   5.916   5.492  0.1746  0.1477  0.9414
   10CHTO  H144 3980   3.964   5.930   5.456 -1.1181 -2.5014  1.3955
   10CHTO   C87 3981   3.856   6.078   5.208  0.1451  0.4587  0.8938
   10CHTO  H159 3982   3.791   6.156   5.249  0.6181  2.2113 -1.5481
   10CHTO   O53 3983   3.822   6.047   5.048 -0.3270 -0.3368  0.1103
   10CHTO   C82 3984   3.687   5.999   5.038  0.1404 -0.0456  0.3653
   10CHTO  H154 3985   3.610   6.063   5.081  0.1352  2.8222 -3.6062
   10CHTO   C89 3986   3.652   5.991   4.892  0.2413  0.7608  0.3987
   10CHTO   O59 3987   3.646   6.125   4.847 -0.2265 -0.2243  0.2572
   10CHTO  H137 3988   3.628   6.126   4.755 -0.4615 -0.9083  0.2889
   10CHTO   O45 3989   4.003   6.130   5.217 -0.1897  0.8266 -0.0562
   10CHTO   C67 3990   4.016   6.261   5.172 -0.7985 -0.1990  0.4542
   10CHTO  H124 3991   3.937   6.283   5.102  0.6102 -1.7051 -1.6623
   10CHTO   C65 3992   4.007   6.365   5.290  0.1151  0.0346 -0.0056
   10CHTO  H122 3993   3.982   6.306   5.378  1.4420 -0.2406  0.1924
   10CHTO   O44 3994   3.892   6.452   5.260 -0.3442 -0.3154  0.4784
   10CHTO  H102 3995   3.812   6.405   5.277  0.4686 -1.7773  0.3806
   10CHTO   C63 3996   4.145   6.439   5.324  0.7043 -0.1583  0.3667
   10CHTO  H120 3997   4.214   6.359   5.349 -0.6194 -1.8298 -1.1379
   10CHTO   N11 3998   4.143   6.523   5.443  0.3639 -1.2836  0.6282
   10CHTO  H108 3999   4.143   6.482   5.542 -2.2944  1.1241  1.7269
   10CHTO  H109 4000   4.132   6.628   5.426 -1.1632 -1.7336 -1.2971
   10CHTO   C61 4001   4.192   6.502   5.187 -0.2136  0.1061  0.0445
   10CHTO  H118 4002   4.299   6.524   5.202 -0.3671 -0.3083  1.9208
   10CHTO   O40 4003   4.188   6.416   5.068  0.2582 -1.3940  0.0323
   10CHTO   C68 4004   4.148   6.273   5.091  0.0270  0.6845  0.4122
   10CHTO  H125 4005   4.229   6.224   5.150 -0.0158  0.9065  0.6543
   10CHTO   C72 4006   4.151   6.205   4.953 -0.3358 -0.2426 -0.1989
   10CHTO   O48 4007   4.288   6.219   4.906 -0.0566  0.1165  0.0157
   10CHTO  H105 4008   4.282   6.276   4.832 -0.2489  0.0474 -0.0204
   10CHTO   O38 4009   4.115   6.617   5.158  0.2190 -0.1631 -0.2060
   10CHTO   C55 4010   4.172   6.743   5.103 -0.7128  0.1507 -0.4183
   10CHTO  H112 4011   4.097   6.791   5.039 -0.6326  0.8588  0.0133
   10CHTO   C56 4012   4.317   6.737   5.029 -0.2868  0.3133  0.7490
   10CHTO  H113 4013   4.400   6.702   5.093 -0.9397 -0.3964  1.2177
   10CHTO   O42 4014   4.293   6.641   4.921  0.5578 -0.0216 -0.1817
   10CHTO  H100 4015   4.371   6.632   4.870  0.8952 -2.3050  0.6726
   10CHTO   C57 4016   4.358   6.881   4.972  0.3665  0.9000 -0.1307
   10CHTO  H114 4017   4.279   6.923   4.910 -1.3980  0.8235  2.0005
   10CHTO   N10 4018   4.488   6.884   4.897 -0.2295  0.1696 -0.0462
   10CHTO  H106 4019   4.495   6.787   4.849  1.0483  0.0531  0.3558
   10CHTO  H107 4020   4.486   6.960   4.820 -1.7919 -1.4081 -1.6365
   10CHTO   C58 4021   4.360   6.977   5.088 -0.1684  0.3285 -0.0563
   10CHTO  H115 4022   4.447   6.963   5.156 -0.3359 -1.2833 -0.1380
   10CHTO   O37 4023   4.241   6.971   5.173  0.1158  0.1020 -0.0837
   10CHTO   C59 4024   4.193   6.843   5.218  0.5009  0.3030  0.0371
   10CHTO  H116 4025   4.261   6.807   5.295  0.0005 -0.1797  0.2522
   10CHTO   C70 4026   4.055   6.885   5.280  0.4435  0.5291  0.0937
   10CHTO   O46 4027   4.073   6.924   5.420 -0.4831  0.1730 -0.1129
   10CHTO  H103 4028   4.107   6.845   5.457 -2.8660 -0.7960  0.1061
   10CHTO   O39 4029   4.340   7.130   5.029  0.0225 -0.0703  0.3746
   10CHTO   C60 4030   4.348   7.245   5.110  0.2878 -0.2653 -0.5655
   10CHTO  H117 4031   4.266   7.252   5.182  1.5138  1.8307  0.6367
   10CHTO   C62 4032   4.475   7.231   5.193 -0.1689 -0.8099  0.1893
   10CHTO  H119 4033   4.453   7.144   5.259 -2.4244 -1.3445 -1.2196
   10CHTO   O43 4034   4.595   7.215   5.113  0.2877 -0.1447  0.3360
   10CHTO  H101 4035   4.667   7.251   5.161  1.4865 -2.2286  0.1913
   10CHTO   C66 4036   4.487   7.366   5.282 -0.3273 -0.3167  0.2598
   10CHTO  H123 4037   4.396   7.382   5.340 -1.2316 -0.2108 -1.1618
   10CHTO   N12 4038   4.606   7.365   5.370 -0.4422  0.4235 -0.1629
   10CHTO  H110 4039   4.612   7.450   5.436  1.2197 -0.1907  0.5184
   10CHTO  H111 4040   4.695   7.351   5.311 -1.2907  0.1164 -1.3838
   10CHTO   C69 4041   4.489   7.487   5.187  0.0592 -0.0992  0.0864
   10CHTO  H126 4042   4.582   7.482   5.126  0.0454  1.8085 -0.1165
   10CHTO   O41 4043   4.343   7.484   5.099 -0.5140 -0.0978  0.0771
   10CHTO   C64 4044   4.346   7.375   5.018  0.3826 -0.1514  0.0387
   10CHTO  H121 4045   4.441   7.370   4.960 -1.1429 -3.1606 -2.3305
   10CHTO   C71 4046   4.217   7.390   4.920  0.4148  0.5259  0.3541
   10CHTO   O47 4047   4.236   7.497   4.820 -0.4537  0.5040 -0.3901
   10CHTO  H104 4048   4.294   7.557   4.862  2.2131 -2.3203  0.1646
   10CHTO   O34 4049   4.494   7.613   5.245 -0.2707  0.2076 -0.1319
   10CHTO   C49 4050   4.575   7.734   5.175 -0.0874  0.1247  0.0538
   10CHTO   H91 4051   4.664   7.701   5.121  1.3485  2.8768  0.6769
   10CHTO   C47 4052   4.602   7.840   5.279  0.4537 -0.5428 -1.0249
   10CHTO   H89 4053   4.659   7.922   5.232  0.8528 -0.0886  0.2287
   10CHTO   O33 4054   4.690   7.783   5.378  0.0413  0.3772  0.2369
   10CHTO   H70 4055   4.781   7.775   5.355 -0.4670 -0.3557 -1.6086
   10CHTO   C45 4056   4.465   7.902   5.335 -0.1914 -0.2424  0.6608
   10CHTO   H87 4057   4.406   7.811   5.357  0.1358 -0.6905 -0.3118
   10CHTO    N8 4058   4.475   7.990   5.459 -0.1106  0.1740 -0.0340
   10CHTO   H75 4059   4.574   7.991   5.502 -0.7605  0.6265  1.4943
   10CHTO   H76 4060   4.414   7.942   5.534 -0.6249 -0.2526 -0.7270
   10CHTO   C43 4061   4.384   7.968   5.217  0.1522 -0.2271 -0.1330
   10CHTO   H85 4062   4.286   7.990   5.259  1.1155 -0.7370  2.5009
   10CHTO   O29 4063   4.365   7.872   5.106  0.1500  0.0639 -0.6608
   10CHTO   C50 4064   4.475   7.787   5.060 -0.2374 -0.1952  0.2895
   10CHTO   H92 4065   4.421   7.704   5.012 -1.4297  0.4148  0.5412
   10CHTO   C54 4066   4.550   7.846   4.936 -0.4886  0.0522  0.1493
   10CHTO   O36 4067   4.625   7.958   4.982  0.0798  0.4422 -0.2892
   10CHTO   H72 4068   4.572   8.033   5.002 -0.8760  0.2234 -1.8752
   10CHTO   O27 4069   4.451   8.083   5.173  0.1603  0.1400  0.2672
   10CHTO   C37 4070   4.456   8.212   5.095 -0.2213  0.0476  0.0189
   10CHTO   H79 4071   4.553   8.221   5.043 -1.5043 -0.9572 -2.6610
   10CHTO   C38 4072   4.346   8.223   4.994  0.2694  0.2564 -0.1140
   10CHTO   H80 4073   4.251   8.199   5.043  0.8243  0.3010  1.0061
   10CHTO   O31 4074   4.373   8.118   4.894  0.5228  0.4861 -0.6417
   10CHTO   H68 4075   4.302   8.104   4.833  0.7213  2.1029 -1.2588
   10CHTO   C39 4076   4.340   8.360   4.920  0.4254 -0.4481 -0.3535
   10CHTO   H81 4077   4.422   8.363   4.848 -0.3957  0.2043 -1.2693
   10CHTO    N7 4078   4.212   8.366   4.849  0.4231  0.0400 -0.2154
   10CHTO   H73 4079   4.220   8.286   4.777  0.4280  0.9926 -1.3023
   10CHTO   H74 4080   4.212   8.455   4.787 -0.0946  0.6244  0.6200
   10CHTO   C40 4081   4.355   8.478   5.022 -0.1321 -0.4191  0.5659
   10CHTO   H82 4082   4.258   8.491   5.071 -0.1508  0.1608  0.3862
   10CHTO   O26 4083   4.455   8.457   5.116 -0.0546  0.3364 -0.0199
   10CHTO   C41 4084   4.431   8.331   5.188  0.3550 -0.0680  0.1851
   10CHTO   H83 4085   4.332   8.332   5.236 -0.1624  0.3722 -0.8852
   10CHTO   C52 4086   4.531   8.331   5.308  1.2257 -0.1529 -0.3270
   10CHTO   O35 4087   4.509   8.442   5.413 -0.4999  0.1311  0.0960
   10CHTO   H71 4088   4.438   8.419   5.470 -1.5682 -1.2161 -1.7261
   10CHTO   O28 4089   4.397   8.598   4.953  0.5856  0.0443  0.4321
   10CHTO   C42 4090   4.344   8.731   4.990  0.8752 -0.2579 -0.3202
   10CHTO   H84 4091   4.277   8.712   5.074  0.1288  0.5719 -0.7332
   10CHTO   C44 4092   4.262   8.803   4.878  0.0466  0.0448 -0.1974
   10CHTO   H86 4093   4.337   8.821   4.800  1.6359  0.5606  1.3935
   10CHTO   O32 4094   4.160   8.715   4.836 -0.2867  0.1978  0.1549
   10CHTO   H69 4095   4.139   8.733   4.746  0.2613 -1.7357 -0.3965
   10CHTO   C48 4096   4.212   8.949   4.920 -0.2742  0.9355 -0.9660
   10CHTO   H90 4097   4.133   8.941   4.995 -0.2499  2.3539 -0.7748
   10CHTO    N9 4098   4.138   9.022   4.816 -0.1899 -0.0523 -0.8221
   10CHTO   H77 4099   4.044   9.053   4.860  1.7937  1.6820  2.4019
   10CHTO   H78 4100   4.192   9.106   4.774 -0.9736  1.1203  0.4694
   10CHTO   C51 4101   4.330   9.034   4.986  0.7859 -0.3832 -0.3061
   10CHTO   H93 4102   4.396   9.045   4.899 -0.3249 -0.8209 -1.2190
   10CHTO   O30 4103   4.392   8.956   5.092 -0.2470 -0.7120  0.5739
   10CHTO   C46 4104   4.455   8.830   5.035 -0.8347  0.1838 -0.5247
   10CHTO   H88 4105   4.516   8.855   4.949 -0.0166 -1.5402 -0.4749
   10CHTO   C53 4106   4.548   8.770   5.147 -0.1082 -0.4163  0.3819
   10CHTO   O72 4107   4.481   8.771   5.272 -0.0396  0.0396  0.1748
   10CHTO  H199 4108   4.425   8.696   5.271 -1.6195  1.1980 -1.0325
   10CHTO   O22 4109   4.289   9.162   5.041  0.0400  0.0150 -0.1325
   10CHTO   C31 4110   4.381   9.276   5.024  0.2411  0.3277 -0.4609
   10CHTO   H59 4111   4.337   9.360   5.081  1.9399  0.6957  0.3592
   10CHTO   C29 4112   4.529   9.253   5.082  0.5244 -0.1856  0.6517
   10CHTO   H57 4113   4.569   9.161   5.037  0.3212 -0.2617  0.6248
   10CHTO   O21 4114   4.524   9.209   5.216 -0.0380  0.1060 -0.7586
   10CHTO   H37 4115   4.466   9.136   5.225 -0.8244  0.8002 -0.1028
   10CHTO   C27 4116   4.632   9.374   5.059  0.0056 -0.0399 -0.6948
   10CHTO   H55 4117   4.594   9.464   5.109  0.0141 -0.0406 -0.6863
   10CHTO    N5 4118   4.771   9.345   5.106 -0.0779 -0.1568  0.5314
   10CHTO   H43 4119   4.764   9.257   5.169 -2.5139 -0.1696  0.3104
   10CHTO   H44 4120   4.824   9.430   5.144 -0.6568 -0.4498  2.0418
   10CHTO   C25 4121   4.629   9.414   4.914  0.0043  0.4036  0.5034
   10CHTO   H53 4122   4.672   9.338   4.847  0.2087  1.1714 -0.2459
   10CHTO   O17 4123   4.489   9.448   4.871 -0.2724 -0.5251  0.1340
   10CHTO   C32 4124   4.390   9.335   4.876  0.0730 -0.2046  0.1372
   10CHTO   H60 4125   4.418   9.258   4.805  0.6238  1.5040 -1.5501
   10CHTO   C36 4126   4.247   9.391   4.843 -0.6093  0.6913  0.7294
   10CHTO   O25 4127   4.232   9.423   4.709 -0.0361 -0.1432 -0.1075
   10CHTO   H40 4128   4.307   9.466   4.672 -1.3327  3.2850  1.0727
   10CHTO   O15 4129   4.723   9.552   4.874  0.2586 -0.6207 -0.5848
   10CHTO   C19 4130   4.731   9.615   4.745  0.0895  0.2322  0.0952
   10CHTO   H47 4131   4.681   9.547   4.675  0.9938 -0.8893  0.5410
   10CHTO   C20 4132   4.656   9.753   4.734  0.0814 -0.0342  0.0231
   10CHTO   H48 4133   4.693   9.828   4.806  0.3738  0.8556 -1.0228
   10CHTO   O19 4134   4.516   9.721   4.767  0.0101 -0.5477 -0.4646
   10CHTO   H35 4135   4.508   9.722   4.860  0.3609  1.5629 -0.4149
   10CHTO   C21 4136   4.661   9.821   4.593 -0.2668 -0.1444 -0.0892
   10CHTO   H49 4137   4.607   9.756   4.524  0.7095  1.1957 -2.1645
   10CHTO    N4 4138   4.593   9.949   4.572  0.4786  0.3382  0.2167
   10CHTO   H41 4139   4.619   9.991   4.475 -0.1156  1.0963  0.3775
   10CHTO   H42 4140   4.588  10.027   4.647 -0.8636 -0.5976  1.1089
   10CHTO   C22 4141   4.810   9.822   4.548 -0.1604 -0.0349  0.2528
   10CHTO   H50 4142   4.866   9.881   4.620  0.4045 -0.6433  0.3247
   10CHTO   O14 4143   4.860   9.687   4.559  0.0287  0.1782  0.3884
   10CHTO   C23 4144   4.875   9.627   4.688  0.2481 -0.4048  0.7409
   10CHTO   H51 4145   4.937   9.697   4.745 -1.4048  0.9707  0.9010
   10CHTO   C34 4146   4.963   9.503   4.671  0.9678  0.2890 -0.5020
   10CHTO   O23 4147   5.088   9.511   4.593  0.3597 -0.3405 -0.3136
   10CHTO   H38 4148   5.085   9.567   4.517 -3.3349  2.0141  1.4197
   10CHTO   O16 4149   4.824   9.864   4.409 -0.3466 -0.0150  0.3738
   10CHTO   C24 4150   4.970   9.891   4.363  0.8535  0.8463 -0.6690
   10CHTO   H52 4151   5.044   9.861   4.437  1.5593  2.0511 -0.8729
   10CHTO   C26 4152   4.974  10.036   4.327 -0.0618  0.0669  0.2559
   10CHTO   H54 4153   4.883  10.057   4.266  0.0323 -1.4550 -0.4317
   10CHTO   O20 4154   4.953  10.107   4.458 -0.2072 -0.0168  0.1521
   10CHTO   H36 4155   4.954  10.199   4.442  1.7380 -0.0080  0.2467
   10CHTO   C30 4156   5.110  10.067   4.261 -0.3695 -0.4055  0.0582
   10CHTO   H58 4157   5.185  10.062   4.341 -0.3405  0.3937  0.0780
   10CHTO    N6 4158   5.112  10.208   4.219  0.9239  0.0928  0.5970
   10CHTO   H45 4159   5.038  10.238   4.146  1.6512 -1.4215 -0.8016
   10CHTO   H46 4160   5.112  10.283   4.296 -1.4746 -1.3494  2.0741
   10CHTO   C33 4161   5.160   9.966   4.147 -0.1963 -0.1843 -0.8677
   10CHTO   H61 4162   5.104   9.979   4.054 -3.1903  1.6932  1.1036
   10CHTO   O18 4163   5.135   9.838   4.202 -0.3155 -0.2408 -0.3738
   10CHTO   C28 4164   5.001   9.808   4.241 -0.2032 -0.0556  0.2287
   10CHTO   H56 4165   4.926   9.835   4.166 -0.0143  0.8813  0.3781
   10CHTO   C35 4166   4.986   9.661   4.266  0.1573 -0.5847  0.1941
   10CHTO   O24 4167   4.855   9.617   4.239  0.1809 -0.0594 -0.0977
   10CHTO   H39 4168   4.798   9.632   4.312 -2.2086 -2.3309 -1.4086
   10CHTO    O9 4169   5.299   9.987   4.120  0.4498 -0.3957 -0.1854
   10CHTO   C13 4170   5.349  10.052   3.963 -0.8203  0.1349  0.0626
   10CHTO   H26 4171   5.276  10.130   3.935  1.1627  1.4449 -1.6094
   10CHTO   C11 4172   5.340   9.925   3.859 -0.1238  0.0547  0.2175
   10CHTO   H24 4173   5.233   9.917   3.833 -0.0796  2.6016 -0.9301
   10CHTO    O8 4174   5.376   9.805   3.935 -0.6156  0.1042  0.2887
   10CHTO    H3 4175   5.310   9.788   4.000 -1.5822  2.5528 -0.0051
   10CHTO    C9 4176   5.439   9.949   3.744  0.4269  0.8001  0.2554
   10CHTO   H22 4177   5.405  10.042   3.696  0.0545  0.9546  0.8226
   10CHTO    N2 4178   5.426   9.857   3.634 -0.0893  0.2816  0.5840
   10CHTO   H10 4179   5.426   9.905   3.537 -0.4109 -0.6378  0.1185
   10CHTO   H11 4180   5.488   9.769   3.643 -0.0484  0.1005 -1.1637
   10CHTO    C7 4181   5.585   9.965   3.807 -0.4970  0.0157  0.1290
   10CHTO   H20 4182   5.635  10.018   3.724  0.5425  1.5894  1.7258
   10CHTO    O4 4183   5.591  10.037   3.930  0.0789 -0.1944 -0.4624
   10CHTO   C14 4184   5.487  10.126   3.977  0.3058 -0.5032  0.1579
   10CHTO   H27 4185   5.488  10.218   3.915  0.0563 -0.0347  0.8409
   10CHTO   C18 4186   5.526  10.163   4.119 -0.4528 -0.0092  0.1765
   10CHTO   O13 4187   5.423  10.241   4.187  0.0394 -0.0598  0.4656
   10CHTO    H7 4188   5.433  10.241   4.280  0.4012  0.7447  0.4291
   10CHTO    O2 4189   5.664   9.814   3.835  0.6662  0.0184 -0.3185
   10CHTO    C1 4190   5.783   9.807   3.916  0.5501 -0.1682  0.1683
   10CHTO   H14 4191   5.808   9.906   3.961 -0.7240  1.0715 -1.7358
   10CHTO    C2 4192   5.908   9.762   3.833  0.2351  0.4532 -0.2457
   10CHTO   H15 4193   5.892   9.668   3.779  1.8122 -0.0036  0.0726
   10CHTO    O6 4194   5.936   9.857   3.733 -0.0752 -0.9396  0.0723
   10CHTO    H1 4195   5.996   9.923   3.761 -0.7808  0.3585 -1.3873
   10CHTO    C3 4196   6.032   9.733   3.926 -0.9875  0.0755  0.3651
   10CHTO   H16 4197   6.074   9.826   3.968  0.6435  0.6345 -2.3810
   10CHTO    N1 4198   6.152   9.676   3.853 -0.2157 -0.0251 -0.0913
   10CHTO    H8 4199   6.241   9.735   3.862  0.1667 -0.6718  0.3918
   10CHTO    H9 4200   6.178   9.584   3.903  1.1500  0.8246  0.7932
   10CHTO    C4 4201   5.992   9.650   4.047  0.7028 -0.0815 -0.0372
   10CHTO   H17 4202   5.972   9.547   4.016 -0.6683  0.2738 -0.3889
   10CHTO    O1 4203   5.879   9.703   4.116  0.2367  0.7033 -0.7625
   10CHTO    C5 4204   5.769   9.702   4.031  0.3020  0.3276  0.2363
   10CHTO   H18 4205   5.751   9.603   3.989  0.2904  1.7493 -3.3571
   10CHTO   C16 4206   5.641   9.729   4.109 -0.0120 -0.6083 -0.4269
   10CHTO   O11 4207   5.597   9.636   4.213  0.1473  0.4888  0.3669
   10CHTO    H5 4208   5.527   9.582   4.181  0.5354 -0.3895  0.9712
   10CHTO    O3 4209   6.100   9.651   4.145  0.6304  0.9299 -0.0826
   10CHTO    C6 4210   6.087   9.558   4.257 -0.3975  0.3411 -0.0237
   10CHTO   H19 4211   5.983   9.527   4.269  0.3881 -2.9345 -1.3791
   10CHTO    C8 4212   6.170   9.421   4.227  0.1774 -0.4384 -0.8790
   10CHTO   H21 4213   6.269   9.451   4.193  0.9847 -0.6718  1.1461
   10CHTO    O7 4214   6.097   9.348   4.127 -0.4374 -0.3134  0.2042
   10CHTO    H2 4215   6.004   9.355   4.137 -0.4464 -1.3956  0.8580
   10CHTO   C12 4216   6.186   9.342   4.362 -0.1143 -0.2934 -0.3260
   10CHTO   H25 4217   6.092   9.297   4.401  0.4028  0.1866  1.5340
   10CHTO    N3 4218   6.268   9.217   4.332 -0.9014  0.1514 -0.3781
   10CHTO   H12 4219   6.372   9.230   4.360 -0.8046  0.6430 -0.9656
   10CHTO   H13 4220   6.232   9.137   4.395  0.4407  0.6804  1.1246
   10CHTO   C15 4221   6.243   9.433   4.473  0.2097 -0.8394 -0.4523
   10CHTO   H28 4222   6.338   9.475   4.441 -1.5145  2.6947 -1.1560
   10CHTO   O10 4223   6.238   9.380   4.613  0.3373 -0.4175 -0.4528
   10CHTO    H4 4224   6.281   9.428   4.681  3.0900 -0.8225 -1.8513
   10CHTO    O5 4225   6.151   9.542   4.487 -0.4556 -0.3092 -0.5432
   10CHTO   C10 4226   6.132   9.630   4.381 -0.3773 -0.7212  0.6947
   10CHTO   H23 4227   6.228   9.677   4.361 -0.1929 -1.3206  0.1540
   10CHTO   C17 4228   6.035   9.733   4.439  0.5956  0.5297  0.7535
   10CHTO   O12 4229   6.108   9.814   4.532  0.2289 -0.7172 -0.7024
   10CHTO    H6 4230   6.168   9.774   4.591 -0.6197 -0.9104  0.0481
   11CHTO  H203 4231   7.264   4.297   0.474  0.1015  2.3948  0.5529
   11CHTO   O82 4232   7.181   4.313   0.434 -0.1992  0.1751  0.2350
   11CHTO  C123 4233   7.155   4.452   0.434 -0.5164 -0.4897  0.0417
   11CHTO  H227 4234   7.167   4.490   0.332  2.1986  0.7431  0.7699
   11CHTO   O77 4235   7.008   4.452   0.449  0.4063 -0.0278 -0.2675
   11CHTO  C118 4236   6.949   4.584   0.445  0.1097 -0.3161  0.4946
   11CHTO  H222 4237   6.968   4.636   0.350  1.0394 -0.5825  0.5276
   11CHTO  C125 4238   6.793   4.557   0.462  0.0166 -0.1715  0.0141
   11CHTO   O84 4239   6.743   4.471   0.355 -0.3962 -0.0843  0.7041
   11CHTO  H205 4240   6.746   4.379   0.375 -0.7842 -0.4927 -1.0176
   11CHTO  C114 4241   7.000   4.665   0.568  0.3090  0.2811 -0.2492
   11CHTO  H218 4242   6.970   4.610   0.657  2.3587 -0.5395 -0.0413
   11CHTO  C116 4243   7.158   4.671   0.571 -0.1405 -0.3861 -0.0626
   11CHTO  H220 4244   7.196   4.739   0.492  1.9593 -1.4978 -0.0225
   11CHTO   O79 4245   7.209   4.738   0.687 -0.0839 -0.4354 -0.4959
   11CHTO  H201 4246   7.300   4.718   0.694 -0.3409 -1.4569  0.0570
   11CHTO  C120 4247   7.226   4.529   0.547  0.3976 -0.6769 -0.2873
   11CHTO  H224 4248   7.215   4.479   0.646  0.9163 -0.0031  0.1096
   11CHTO   N21 4249   7.375   4.541   0.528  0.0879  0.4165  0.0755
   11CHTO  H211 4250   7.412   4.620   0.591  1.0646  0.1121 -0.1177
   11CHTO  H212 4251   7.430   4.449   0.546  0.2469  0.1836 -1.5606
   11CHTO   O75 4252   6.939   4.799   0.555 -0.6412  0.1503 -0.0148
   11CHTO  C112 4253   6.815   4.844   0.644 -0.0852 -0.5861 -0.4896
   11CHTO  H216 4254   6.789   4.766   0.717 -0.6434 -0.1642 -0.2364
   11CHTO   O73 4255   6.707   4.876   0.559 -0.1094  0.1915  0.1313
   11CHTO  C113 4256   6.586   4.896   0.623  0.2804 -0.1366 -0.1010
   11CHTO  H217 4257   6.555   4.809   0.686 -0.8431  0.2266 -0.1315
   11CHTO  C124 4258   6.481   4.921   0.508  0.1715  0.3096 -0.0825
   11CHTO   O83 4259   6.443   4.800   0.444  0.4001 -0.5059 -0.0078
   11CHTO  H204 4260   6.421   4.738   0.511 -1.0102 -1.3036 -1.1789
   11CHTO  C109 4261   6.589   5.019   0.711  0.1080 -0.4581 -0.4697
   11CHTO  H213 4262   6.609   5.104   0.645 -0.5534  0.5865  0.6330
   11CHTO  C110 4263   6.706   5.010   0.810 -0.1038 -0.2862  1.2503
   11CHTO  H214 4264   6.682   4.929   0.879 -1.7850 -0.3424  0.6302
   11CHTO   O78 4265   6.724   5.133   0.877 -0.1669 -0.2611 -0.0775
   11CHTO  H200 4266   6.810   5.141   0.914 -0.4834 -0.2489  0.6833
   11CHTO  C111 4267   6.840   4.974   0.734  0.0026 -0.0788  0.0166
   11CHTO  H215 4268   6.862   5.056   0.664  0.3991  0.7050  1.0528
   11CHTO   N19 4269   6.961   4.961   0.813  0.0065  0.5723 -0.6805
   11CHTO  H207 4270   6.988   5.063   0.833 -1.8960  1.3737 -2.0849
   11CHTO  H208 4271   6.920   4.910   0.900 -0.5088 -0.4730 -1.5261
   11CHTO   O74 4272   6.468   5.045   0.784 -0.2498 -0.4643 -0.0248
   11CHTO  C115 4273   6.396   5.191   0.742 -0.7862 -0.1233 -0.1670
   11CHTO  H219 4274   6.459   5.247   0.672  0.0392 -0.2776  0.4404
   11CHTO   O76 4275   6.253   5.169   0.662  0.0207 -0.0052 -0.1766
   11CHTO  C122 4276   6.150   5.133   0.752  0.5935  0.1604  0.2351
   11CHTO  H226 4277   6.181   5.044   0.806 -1.1139 -0.9313 -0.5400
   11CHTO  C126 4278   6.034   5.088   0.658 -0.7532 -0.7135 -0.2198
   11CHTO   O85 4279   6.069   4.965   0.594 -0.2194 -0.5217  0.4875
   11CHTO  H206 4280   6.159   4.977   0.570 -0.4369 -0.2089 -0.1763
   11CHTO  C121 4281   6.113   5.251   0.849  0.3488  0.4536  0.8662
   11CHTO  H225 4282   6.023   5.302   0.810 -0.8561 -0.1699  2.7814
   11CHTO   O81 4283   6.077   5.204   0.980  0.5521  0.5679  0.0931
   11CHTO  H202 4284   6.154   5.184   1.030 -0.2668  3.0800  2.5249
   11CHTO  C119 4285   6.230   5.355   0.862  0.3752  0.4181 -0.4931
   11CHTO  H223 4286   6.223   5.399   0.762 -0.8987 -0.6217 -0.8906
   11CHTO  C117 4287   6.370   5.282   0.873  0.1213  0.1129  0.7277
   11CHTO  H221 4288   6.389   5.215   0.957 -0.1449 -0.4065  0.3787
   11CHTO   N20 4289   6.477   5.381   0.882  0.2649  0.0330 -0.3131
   11CHTO  H209 4290   6.542   5.364   0.966  1.0804  0.4318 -0.8516
   11CHTO  H210 4291   6.537   5.377   0.792  0.4649 -0.4738 -0.1563
   11CHTO   O80 4292   6.193   5.496   0.966 -0.3017 -0.3257 -0.2453
   11CHTO  C103 4293   6.179   5.475   1.121  0.3561 -0.2611 -0.1575
   11CHTO  H190 4294   6.145   5.374   1.142 -0.1817 -0.3653 -1.4325
   11CHTO  C101 4295   6.312   5.494   1.211 -0.3603  1.0184 -0.3705
   11CHTO  H188 4296   6.372   5.581   1.183  1.6575 -0.3617 -0.4445
   11CHTO   O68 4297   6.405   5.372   1.191 -0.0234  0.0245  0.0840
   11CHTO  H168 4298   6.369   5.325   1.119 -1.5512  2.1767 -0.5869
   11CHTO   C99 4299   6.276   5.511   1.358  0.0880  0.6549  0.1207
   11CHTO  H186 4300   6.224   5.422   1.399 -0.5884  0.7432 -0.5398
   11CHTO   N17 4301   6.394   5.532   1.452 -0.6800  0.1076 -0.0147
   11CHTO  H174 4302   6.437   5.630   1.446  0.6027 -0.5151 -1.4111
   11CHTO  H175 4303   6.357   5.511   1.552 -3.2929  0.9966 -0.7668
   11CHTO   C97 4304   6.171   5.628   1.370  0.0466 -0.1711 -0.5886
   11CHTO  H184 4305   6.218   5.712   1.317  1.2386  0.7460  1.8647
   11CHTO   O64 4306   6.049   5.582   1.308  0.1892  0.0159  0.4258
   11CHTO  C104 4307   6.060   5.574   1.168 -0.7620 -0.1030  0.4589
   11CHTO  H191 4308   6.086   5.675   1.136  0.1297 -0.1083  1.1117
   11CHTO  C108 4309   5.930   5.537   1.092 -0.2626  0.0956  0.0619
   11CHTO   O71 4310   5.871   5.423   1.152  0.0989 -0.1477 -0.0469
   11CHTO  H171 4311   5.783   5.420   1.120 -0.1734  0.8027  0.5804
   11CHTO   O62 4312   6.137   5.658   1.506 -0.0050  0.0948 -0.5607
   11CHTO   C91 4313   6.086   5.794   1.525 -0.2532  0.1823  0.1969
   11CHTO  H178 4314   6.041   5.824   1.431  0.7081  0.3327 -0.2240
   11CHTO   C92 4315   6.211   5.886   1.540 -0.3240  0.3673 -0.3050
   11CHTO  H179 4316   6.302   5.836   1.502 -0.1902  0.1060  0.3604
   11CHTO   O66 4317   6.205   6.000   1.450 -0.3633  0.4174  0.0471
   11CHTO  H166 4318   6.142   6.060   1.484 -1.7955 -2.1073  1.9648
   11CHTO   C93 4319   6.236   5.953   1.683 -0.1634 -0.3941  0.1819
   11CHTO  H180 4320   6.302   6.040   1.670 -0.1925 -0.0048  2.4264
   11CHTO   N16 4321   6.314   5.866   1.773  0.2780 -0.4582 -0.4758
   11CHTO  H172 4322   6.385   5.926   1.828 -0.2194 -0.3292  0.0248
   11CHTO  H173 4323   6.357   5.786   1.714 -1.5831  0.1435 -2.7057
   11CHTO   C94 4324   6.100   6.009   1.746 -0.1478  0.0170 -0.0756
   11CHTO  H181 4325   6.092   5.988   1.853 -1.7148 -0.5076 -0.2936
   11CHTO   O61 4326   5.978   5.956   1.688 -0.6135  0.4053  0.0166
   11CHTO   C95 4327   5.991   5.815   1.649 -0.1029 -0.3146  0.4578
   11CHTO  H182 4328   6.018   5.752   1.735  0.4259 -0.4213  0.2157
   11CHTO  C106 4329   5.839   5.785   1.619  0.3270  0.3302  0.1013
   11CHTO   O69 4330   5.820   5.645   1.598 -0.1315  0.0033 -0.3591
   11CHTO  H169 4331   5.842   5.625   1.509  1.5993  0.0247  0.0628
   11CHTO   O63 4332   6.111   6.160   1.722 -0.1782 -0.3937  0.2006
   11CHTO   C96 4333   6.108   6.246   1.849  0.4930 -0.5118  0.3884
   11CHTO  H183 4334   6.134   6.190   1.939  0.7373  0.2401  0.7930
   11CHTO   C98 4335   5.971   6.316   1.872  0.5825  0.0541 -0.0637
   11CHTO  H185 4336   5.941   6.375   1.784 -0.4981  0.1264  0.3366
   11CHTO   O67 4337   5.874   6.214   1.878 -0.6390  0.0073 -0.0050
   11CHTO  H167 4338   5.901   6.140   1.929  1.0261  1.1993  0.9255
   11CHTO  C102 4339   5.972   6.398   2.008  0.0229 -0.2236 -0.0705
   11CHTO  H189 4340   5.965   6.325   2.090 -2.6311  0.1924  0.1054
   11CHTO   N18 4341   5.857   6.491   2.028 -0.6215  0.7714 -0.2008
   11CHTO  H176 4342   5.766   6.435   2.039 -0.8304  1.2798  0.6921
   11CHTO  H177 4343   5.851   6.560   1.945  0.2681  2.7731  1.3449
   11CHTO  C105 4344   6.110   6.474   2.018  0.2616 -1.3813 -0.0087
   11CHTO  H192 4345   6.091   6.577   2.047 -0.1257 -1.6409  0.6683
   11CHTO   O65 4346   6.181   6.482   1.898  0.3229 -0.4291  0.4651
   11CHTO  C100 4347   6.218   6.358   1.834  0.0032  0.0716  0.6340
   11CHTO  H187 4348   6.228   6.378   1.726 -0.8543 -0.1782  0.5015
   11CHTO  C107 4349   6.358   6.312   1.887  0.6127  0.1826 -0.4212
   11CHTO   O70 4350   6.469   6.403   1.866 -0.1732 -0.0651  0.2714
   11CHTO  H170 4351   6.541   6.388   1.924  0.4538  0.2323 -0.4170
   11CHTO   O57 4352   6.188   6.384   2.134 -0.3215  0.1890 -0.5898
   11CHTO   C85 4353   6.191   6.440   2.264 -0.4929  0.0510  0.3057
   11CHTO  H157 4354   6.086   6.469   2.286  0.3630  0.6492  4.0310
   11CHTO   C83 4355   6.275   6.572   2.249  0.5551 -0.0126 -0.5915
   11CHTO  H155 4356   6.224   6.642   2.183 -0.1520 -0.1651 -0.2077
   11CHTO   O56 4357   6.404   6.542   2.185 -0.6311 -0.0470 -0.2630
   11CHTO  H135 4358   6.460   6.489   2.238 -0.8512  2.8951  3.0993
   11CHTO   C81 4359   6.274   6.642   2.389  0.0890  0.0497 -0.5418
   11CHTO  H153 4360   6.173   6.647   2.430  0.6850 -0.9989  1.0979
   11CHTO   N14 4361   6.317   6.781   2.371 -0.0502  0.1150 -0.5581
   11CHTO  H141 4362   6.424   6.789   2.367  0.0196 -0.9499 -0.9680
   11CHTO  H142 4363   6.275   6.818   2.280 -0.0757  0.0510 -0.5718
   11CHTO   C79 4364   6.361   6.557   2.489  0.3516 -0.4201 -0.4998
   11CHTO  H151 4365   6.345   6.598   2.588 -0.0083  1.5279 -1.3453
   11CHTO   O52 4366   6.300   6.427   2.503  0.4465 -0.2558 -0.0762
   11CHTO   C86 4367   6.253   6.354   2.383  0.9402  0.1832 -0.1228
   11CHTO  H158 4368   6.336   6.293   2.342  0.2054 -0.7409 -0.2532
   11CHTO   C90 4369   6.146   6.250   2.426 -0.2100 -0.5975  0.0625
   11CHTO   O60 4370   6.197   6.130   2.481  0.0646  0.0770  0.0194
   11CHTO  H138 4371   6.135   6.060   2.470 -0.1766  0.3740 -0.6065
   11CHTO   O50 4372   6.496   6.550   2.442  0.1490 -0.2687 -0.0110
   11CHTO   C73 4373   6.631   6.515   2.469 -0.1136 -0.5347 -0.4381
   11CHTO  H145 4374   6.632   6.447   2.555 -0.7066 -0.4687 -0.3762
   11CHTO   C74 4375   6.714   6.638   2.513  0.3626 -0.1664 -0.3483
   11CHTO  H146 4376   6.646   6.681   2.588  0.2848 -1.7788  0.5175
   11CHTO   O54 4377   6.835   6.597   2.575  0.0154 -0.1488 -0.1904
   11CHTO  H133 4378   6.824   6.583   2.667 -0.9734 -0.6209 -0.3718
   11CHTO   C75 4379   6.734   6.736   2.389 -0.0091  0.2325 -0.0197
   11CHTO  H147 4380   6.634   6.761   2.352 -0.3996 -1.8629 -0.4642
   11CHTO   N13 4381   6.796   6.859   2.433 -0.4300 -0.0059  0.1882
   11CHTO  H139 4382   6.719   6.925   2.471 -2.8524 -2.3032 -0.5606
   11CHTO  H140 4383   6.839   6.897   2.342 -0.2105 -0.3764  0.1399
   11CHTO   C76 4384   6.822   6.657   2.278 -0.1202  0.1820  0.6095
   11CHTO  H148 4385   6.920   6.632   2.317  0.5151  1.0663 -0.4118
   11CHTO   O49 4386   6.745   6.537   2.242  0.4221  0.1215  0.4028
   11CHTO   C77 4387   6.705   6.445   2.347 -0.1557 -0.5656  0.0624
   11CHTO  H149 4388   6.801   6.407   2.383  0.1312  0.6855  0.6640
   11CHTO   C88 4389   6.632   6.322   2.293  0.2659 -0.2802  0.1966
   11CHTO   O58 4390   6.697   6.236   2.187 -0.2425  0.3069 -0.1332
   11CHTO  H136 4391   6.790   6.244   2.195 -0.2088 -0.6140  0.3740
   11CHTO   O51 4392   6.835   6.749   2.121  0.5034 -0.7520  0.2668
   11CHTO   C78 4393   6.987   6.740   2.075  0.4029 -0.3369  0.1985
   11CHTO  H150 4394   7.033   6.657   2.132 -0.6906 -0.6216  0.6875
   11CHTO   C80 4395   7.055   6.875   2.117 -0.3196  0.0831 -0.1226
   11CHTO  H152 4396   6.987   6.960   2.101 -1.5355 -0.1755  3.2239
   11CHTO   O55 4397   7.078   6.872   2.258  0.0073  0.0558  0.0013
   11CHTO  H134 4398   7.105   6.786   2.286 -1.6834 -0.0951  1.2135
   11CHTO   C84 4399   7.187   6.902   2.024  0.1376  0.7928 -0.1298
   11CHTO  H156 4400   7.262   6.840   2.073 -1.8646  0.3211  2.4531
   11CHTO   N15 4401   7.239   7.045   2.034  1.1127  0.0047  0.5338
   11CHTO  H143 4402   7.208   7.102   1.948 -2.4450 -1.6244  0.6373
   11CHTO  H144 4403   7.345   7.041   2.042  1.3628  2.4440 -0.8680
   11CHTO   C87 4404   7.171   6.866   1.879  0.2529  0.3270  0.3326
   11CHTO  H159 4405   7.095   6.917   1.820 -1.2865  2.6413  4.1021
   11CHTO   O53 4406   7.130   6.727   1.880 -0.5818 -0.2909  0.2581
   11CHTO   C82 4407   6.993   6.715   1.926  0.7144  0.5538  0.1346
   11CHTO  H154 4408   6.932   6.790   1.875  0.4781 -0.3331 -0.9165
   11CHTO   C89 4409   6.935   6.578   1.889  0.2134  0.0560  0.4456
   11CHTO   O59 4410   6.995   6.470   1.951 -0.5152 -0.3476 -0.3053
   11CHTO  H137 4411   7.011   6.487   2.042 -0.2149  1.9326 -0.7552
   11CHTO   O45 4412   7.316   6.855   1.801 -0.3253  0.2267 -0.0207
   11CHTO   C67 4413   7.300   6.851   1.656 -0.0664  0.3616 -0.2086
   11CHTO  H124 4414   7.217   6.785   1.629  0.8544 -0.4002 -1.2549
   11CHTO   C65 4415   7.271   6.990   1.592 -0.8729 -0.5450  0.3861
   11CHTO  H122 4416   7.314   7.068   1.655 -0.9082 -0.1008 -0.1361
   11CHTO   O44 4417   7.127   7.001   1.591 -0.3651  0.3744 -0.0680
   11CHTO  H102 4418   7.091   6.933   1.539  1.5176 -1.7701  1.3249
   11CHTO   C63 4419   7.342   6.999   1.452 -0.0886 -0.0591 -0.2552
   11CHTO  H120 4420   7.447   7.021   1.472 -0.1077 -0.6348  0.5008
   11CHTO   N11 4421   7.299   7.117   1.373 -0.2192  0.0162  0.0104
   11CHTO  H108 4422   7.353   7.126   1.281  1.2202  0.4750  0.8896
   11CHTO  H109 4423   7.315   7.209   1.424  0.7826 -0.3674  0.3881
   11CHTO   C61 4424   7.344   6.867   1.373  0.0372 -0.1491  0.0056
   11CHTO  H118 4425   7.411   6.876   1.286  1.0285 -3.1966  0.3714
   11CHTO   O40 4426   7.407   6.760   1.446  0.2933  0.1153 -0.1286
   11CHTO   C68 4427   7.427   6.782   1.593 -0.2752 -0.0818  0.7480
   11CHTO  H125 4428   7.512   6.853   1.598 -0.6135  0.4233 -0.4836
   11CHTO   C72 4429   7.469   6.652   1.662  0.0740 -0.2839 -0.1211
   11CHTO   O48 4430   7.382   6.542   1.666 -0.2858  0.2841 -0.3728
   11CHTO  H105 4431   7.436   6.466   1.675 -1.2948 -0.5736 -1.3861
   11CHTO   O38 4432   7.213   6.830   1.330 -0.9675 -0.0974 -0.1392
   11CHTO   C55 4433   7.201   6.725   1.238 -0.0529 -0.5218 -0.7223
   11CHTO  H112 4434   7.288   6.658   1.234 -1.5214 -2.5158 -0.3558
   11CHTO   C56 4435   7.159   6.777   1.088 -0.0911 -0.6857  0.7123
   11CHTO  H113 4436   7.070   6.841   1.097  0.8219  0.5070  1.3874
   11CHTO   O42 4437   7.266   6.856   1.027  0.5821  0.8540 -0.1444
   11CHTO  H100 4438   7.345   6.810   1.005 -0.7660 -0.5242 -2.3120
   11CHTO   C57 4439   7.120   6.650   1.001  0.3786  0.1629 -0.1035
   11CHTO  H114 4440   7.205   6.588   0.970 -2.1035 -2.2158 -2.4335
   11CHTO   N10 4441   7.059   6.686   0.871  0.3880  0.1540  0.4027
   11CHTO  H106 4442   7.138   6.687   0.797  1.7132 -1.0581  1.7577
   11CHTO  H107 4443   7.016   6.785   0.872  3.3174  1.4926  0.1146
   11CHTO   C58 4444   7.020   6.566   1.080 -0.2370  0.7896  0.0860
   11CHTO  H115 4445   6.930   6.628   1.095 -0.5416  1.0217 -2.4566
   11CHTO   O37 4446   7.076   6.515   1.201  0.2918 -0.0848 -0.0100
   11CHTO   C59 4447   7.091   6.626   1.293  0.1122  0.2369  0.0123
   11CHTO  H116 4448   6.996   6.675   1.316  0.1348  0.3265 -0.0892
   11CHTO   C70 4449   7.132   6.568   1.429 -0.3433  0.1382 -0.5565
   11CHTO   O46 4450   7.037   6.477   1.478  0.2182 -0.2908  0.0130
   11CHTO  H103 4451   7.080   6.416   1.534 -2.1291 -0.2079  2.0031
   11CHTO   O39 4452   6.996   6.431   0.992 -0.2710  0.0968 -0.5767
   11CHTO   C60 4453   6.854   6.398   0.971  0.3710 -0.0354  0.1253
   11CHTO  H117 4454   6.794   6.426   1.057  3.1338  1.8778  1.5114
   11CHTO   C62 4455   6.805   6.448   0.833  0.1267 -0.1096  0.3196
   11CHTO  H119 4456   6.809   6.558   0.830 -0.7648 -0.1091 -2.1658
   11CHTO   O43 4457   6.897   6.403   0.734  0.0439  0.1558  0.3383
   11CHTO  H101 4458   6.868   6.423   0.647  0.6095  0.6842  0.2679
   11CHTO   C66 4459   6.648   6.402   0.811 -0.8270 -0.1666 -0.3138
   11CHTO  H123 4460   6.584   6.445   0.887  1.1632  1.3011  0.5809
   11CHTO   N12 4461   6.589   6.439   0.683  0.1297 -0.5134 -0.4814
   11CHTO  H110 4462   6.624   6.378   0.601 -0.5942  0.7379 -1.7314
   11CHTO  H111 4463   6.487   6.472   0.670 -0.1802 -1.2565  0.0082
   11CHTO   C69 4464   6.628   6.248   0.837  0.4851 -0.5038  0.3522
   11CHTO  H126 4465   6.663   6.188   0.750 -0.4514  1.6252 -1.5352
   11CHTO   O41 4466   6.712   6.193   0.960 -0.2849  0.3389  0.0027
   11CHTO   C64 4467   6.847   6.245   0.965 -0.6870 -0.1544 -0.5107
   11CHTO  H121 4468   6.895   6.202   0.874  0.6392  0.2900 -0.0289
   11CHTO   C71 4469   6.926   6.177   1.084  0.8552  0.1466 -0.4558
   11CHTO   O47 4470   6.877   6.222   1.214  0.0106 -0.5583  0.6832
   11CHTO  H104 4471   6.933   6.284   1.258 -1.3273  0.4418  1.0198
   11CHTO   O34 4472   6.462   6.206   0.858  0.3156 -0.3249  0.6720
   11CHTO   C49 4473   6.410   6.056   0.793 -0.1388  0.3183  0.8125
   11CHTO   H91 4474   6.493   5.997   0.755 -1.0416 -0.3000 -0.2730
   11CHTO   C47 4475   6.317   6.080   0.670 -0.4747  0.4263 -0.3902
   11CHTO   H89 4476   6.289   5.983   0.625 -1.4006  0.3776  0.2686
   11CHTO   O33 4477   6.395   6.145   0.571  0.7863  0.1238 -0.0803
   11CHTO   H70 4478   6.411   6.235   0.588  1.3099  0.1171 -0.5139
   11CHTO   C45 4479   6.181   6.155   0.720  0.1730 -0.4994  0.3604
   11CHTO   H87 4480   6.220   6.240   0.778  1.5664 -0.0110 -1.2601
   11CHTO    N8 4481   6.104   6.208   0.603 -0.0753 -0.3807  0.4135
   11CHTO   H75 4482   6.156   6.279   0.540  0.3559 -0.8988  0.1807
   11CHTO   H76 4483   6.017   6.265   0.631  0.7769  0.2479  1.8169
   11CHTO   C43 4484   6.099   6.064   0.828  0.5074 -1.0505  0.2762
   11CHTO   H85 4485   6.021   6.126   0.871  1.8049  1.1036 -0.3942
   11CHTO   O29 4486   6.189   6.013   0.927 -0.2358 -0.1370 -0.1795
   11CHTO   C50 4487   6.330   5.979   0.900 -0.0023  0.0218  0.3707
   11CHTO   H92 4488   6.399   5.985   0.985  0.2499  2.8101  0.0064
   11CHTO   C54 4489   6.335   5.828   0.878  0.4715  0.3400 -0.3411
   11CHTO   O36 4490   6.300   5.766   0.999 -0.0213 -0.5533 -0.3187
   11CHTO   H72 4491   6.349   5.687   1.014  2.8589  0.8895 -1.8300
   11CHTO   O27 4492   6.028   5.945   0.778  0.3802  0.0569  0.6652
   11CHTO   C37 4493   5.923   5.854   0.815 -0.5040 -0.0178  0.5844
   11CHTO   H79 4494   5.944   5.816   0.916 -1.2378  0.5367  0.9494
   11CHTO   C38 4495   5.786   5.925   0.814 -0.0330  0.1058  0.2838
   11CHTO   H80 4496   5.764   5.962   0.713 -1.1722  1.0162  0.8473
   11CHTO   O31 4497   5.792   6.025   0.918 -0.3387  0.1180  0.1859
   11CHTO   H68 4498   5.819   5.981   0.997 -0.1958  0.6937  0.4575
   11CHTO   C39 4499   5.676   5.820   0.855 -0.0372 -0.6068 -0.4030
   11CHTO   H81 4500   5.703   5.783   0.954 -0.0543 -0.9054 -0.5094
   11CHTO    N7 4501   5.534   5.885   0.856  0.4327 -0.2644  0.4305
   11CHTO   H73 4502   5.473   5.837   0.931  0.0714  0.8910  0.8865
   11CHTO   H74 4503   5.536   5.992   0.872  0.7731 -0.3254  0.8176
   11CHTO   C40 4504   5.679   5.692   0.766 -0.2418 -0.5566  0.3180
   11CHTO   H82 4505   5.628   5.712   0.672 -0.8920  1.6353  1.1015
   11CHTO   O26 4506   5.810   5.638   0.751  0.2395 -0.2226  0.4903
   11CHTO   C41 4507   5.919   5.736   0.711 -0.1294  0.1473 -0.0273
   11CHTO   H83 4508   5.905   5.781   0.612  0.2606  2.3236  0.8643
   11CHTO   C52 4509   6.044   5.641   0.705 -0.2098  0.0354 -0.8359
   11CHTO   O35 4510   6.030   5.545   0.598 -0.4839  0.0971 -0.4426
   11CHTO   H71 4511   6.075   5.467   0.625  0.1492  0.3013 -0.8902
   11CHTO   O28 4512   5.619   5.584   0.841 -0.5317 -0.1040  0.1793
   11CHTO   C42 4513   5.531   5.483   0.772  0.0175 -0.6263 -0.1012
   11CHTO   H84 4514   5.565   5.492   0.669  0.1393  0.6647  0.0380
   11CHTO   C44 4515   5.384   5.526   0.765 -0.1410 -0.0150  0.0194
   11CHTO   H86 4516   5.351   5.537   0.869  1.6259 -2.9729  0.9697
   11CHTO   O32 4517   5.370   5.656   0.706 -0.0047  0.3575 -0.0268
   11CHTO   H69 4518   5.430   5.661   0.634  0.6681 -0.4671  0.4647
   11CHTO   C48 4519   5.283   5.420   0.702  0.0019  0.1034  0.5951
   11CHTO   H90 4520   5.310   5.406   0.598  0.3181  1.3733  0.5006
   11CHTO    N9 4521   5.133   5.457   0.712  0.0173 -0.0406  0.7150
   11CHTO   H77 4522   5.064   5.391   0.762  0.6087  0.5155  2.2855
   11CHTO   H78 4523   5.123   5.556   0.753 -0.4629 -1.0999  3.1905
   11CHTO   C51 4524   5.308   5.281   0.771 -0.5412  0.6328  0.4709
   11CHTO   H93 4525   5.294   5.294   0.878  3.0457 -0.6833  1.1655
   11CHTO   O30 4526   5.441   5.235   0.749  0.0594  0.0848 -0.6048
   11CHTO   C46 4527   5.547   5.335   0.811  0.0966  0.0052  0.0137
   11CHTO   H88 4528   5.532   5.333   0.919 -2.2883  0.3164 -0.2821
   11CHTO   C53 4529   5.685   5.278   0.785  0.0372 -0.0268  0.1819
   11CHTO   O72 4530   5.750   5.305   0.658 -0.1073 -0.6125  0.3628
   11CHTO  H199 4531   5.813   5.236   0.649  0.6820  0.2522 -0.7667
   11CHTO   O22 4532   5.237   5.165   0.714  0.3293 -0.1534 -0.5599
   11CHTO   C31 4533   5.220   5.049   0.797  0.2764  0.1071 -0.3679
   11CHTO   H59 4534   5.302   5.053   0.872 -0.1069  0.4843  0.0393
   11CHTO   C29 4535   5.091   5.047   0.873  0.1056 -0.2458 -1.1008
   11CHTO   H57 4536   5.018   5.054   0.791 -0.4931 -2.9712 -0.8396
   11CHTO   O21 4537   5.066   5.172   0.944 -0.5830  0.1534 -0.3778
   11CHTO   H37 4538   5.095   5.245   0.893  0.0231  0.9069  0.9908
   11CHTO   C27 4539   5.070   4.917   0.956  0.3456 -0.0323  0.2702
   11CHTO   H55 4540   5.147   4.918   1.035  2.2699  0.6204 -1.5622
   11CHTO    N5 4541   4.934   4.909   1.012 -0.9029  0.3386  0.4932
   11CHTO   H43 4542   4.934   4.924   1.119 -0.2743  0.2606  0.5056
   11CHTO   H44 4543   4.866   4.971   0.955  0.0074  2.1691  1.3579
   11CHTO   C25 4544   5.107   4.787   0.881 -0.1817 -1.1345  1.2078
   11CHTO   H53 4545   5.032   4.776   0.802  0.1540  1.7605  0.4356
   11CHTO   O17 4546   5.227   4.796   0.803 -0.3711 -0.3507 -0.0579
   11CHTO   C32 4547   5.225   4.915   0.714 -0.7325  0.1585 -0.3216
   11CHTO   H60 4548   5.137   4.904   0.650 -1.2760  1.3357  0.1951
   11CHTO   C36 4549   5.344   4.906   0.612  0.4768  0.1417  0.1004
   11CHTO   O25 4550   5.463   4.901   0.691  0.0253 -0.0658 -0.6781
   11CHTO   H40 4551   5.545   4.879   0.651  0.3040 -2.1303  0.9236
   11CHTO   O15 4552   5.119   4.665   0.975 -0.4964  0.0842 -0.0611
   11CHTO   C19 4553   5.058   4.531   0.994  0.7379 -0.5292 -0.2007
   11CHTO   H47 4554   5.127   4.487   1.068 -0.4067 -2.9559 -0.5283
   11CHTO   C20 4555   4.911   4.524   1.038 -0.4550  0.3107  1.0072
   11CHTO   H48 4556   4.843   4.584   0.976 -1.0447  0.0525  1.3931
   11CHTO   O19 4557   4.915   4.590   1.165 -0.9711 -0.3461  0.4933
   11CHTO   H35 4558   4.962   4.670   1.149 -2.2070  0.1308 -0.8514
   11CHTO   C21 4559   4.857   4.375   1.041  0.3859 -0.3245 -0.2255
   11CHTO   H49 4560   4.922   4.319   1.108  2.2415  1.0097 -0.8904
   11CHTO    N4 4561   4.719   4.361   1.087  0.6077  0.1183 -0.3264
   11CHTO   H41 4562   4.692   4.258   1.070  3.0012 -0.2700 -1.9709
   11CHTO   H42 4563   4.651   4.422   1.029 -1.4647  0.1186  2.0024
   11CHTO   C22 4564   4.884   4.308   0.901  0.6827 -0.7491 -0.2258
   11CHTO   H50 4565   4.824   4.361   0.827  2.3182  0.0816 -0.9573
   11CHTO   O14 4566   5.021   4.311   0.870  0.5039 -0.7779  0.1605
   11CHTO   C23 4567   5.082   4.441   0.866  0.9194  0.5706 -0.3597
   11CHTO   H51 4568   5.054   4.491   0.772 -2.5297 -0.9556 -0.2309
   11CHTO   C34 4569   5.233   4.417   0.866  0.3473 -0.4572  0.5396
   11CHTO   O23 4570   5.287   4.330   0.763 -0.0714 -0.5786  0.8046
   11CHTO   H38 4571   5.378   4.351   0.753 -1.1394  3.1437 -2.3700
   11CHTO   O16 4572   4.853   4.175   0.898  0.0304 -0.0328 -0.1454
   11CHTO   C24 4573   4.773   4.128   0.754 -0.0767 -0.2805 -0.3296
   11CHTO   H52 4574   4.777   4.206   0.678  1.6096  0.2014  0.2316
   11CHTO   C26 4575   4.625   4.092   0.789 -0.3244  0.3894  0.0102
   11CHTO   H54 4576   4.633   4.011   0.864 -0.8928  0.5146  0.2109
   11CHTO   O20 4577   4.556   4.197   0.858  0.1970  0.0365  0.4121
   11CHTO   H36 4578   4.472   4.155   0.869  0.6496 -1.0073 -0.0364
   11CHTO   C30 4579   4.548   4.041   0.663 -0.0893  0.6209  0.1784
   11CHTO   H58 4580   4.504   4.125   0.608 -0.5299  0.2635 -0.0250
   11CHTO    N6 4581   4.431   3.963   0.698  0.2666 -0.0487 -0.1926
   11CHTO   H45 4582   4.370   3.939   0.612  1.0612 -0.9192 -0.5135
   11CHTO   H46 4583   4.376   4.021   0.771  1.4146  1.0498 -0.1722
   11CHTO   C33 4584   4.638   3.966   0.555  0.4933 -0.4804 -0.7068
   11CHTO   H61 4585   4.627   3.858   0.573  0.3735 -0.0946  1.6868
   11CHTO   O18 4586   4.776   4.001   0.562  0.3847  0.5010  0.8097
   11CHTO   C28 4587   4.835   4.003   0.692  0.4059 -0.4880  0.2587
   11CHTO   H56 4588   4.812   3.913   0.749  3.0996 -2.0063 -0.9741
   11CHTO   C35 4589   4.990   4.024   0.690  0.4108 -0.2408  0.7640
   11CHTO   O24 4590   5.062   3.978   0.808  0.1045  0.0779  0.3618
   11CHTO   H39 4591   5.154   3.991   0.793 -0.1606  1.4922 -0.0758
   11CHTO    O9 4592   4.582   3.991   0.420  0.3848 -0.6281 -0.1317
   11CHTO   C13 4593   4.622   4.143   0.359  0.4729 -0.6555 -0.1616
   11CHTO   H26 4594   4.659   4.203   0.445 -0.7228  0.4361 -0.3814
   11CHTO   C11 4595   4.502   4.218   0.289 -0.0107  0.1406  0.0522
   11CHTO   H24 4596   4.418   4.226   0.359  0.3320  0.5736  0.4149
   11CHTO    O8 4597   4.456   4.146   0.174  0.6739  0.0402  0.7161
   11CHTO    H3 4598   4.527   4.108   0.126 -0.9556 -0.2653 -1.4974
   11CHTO    C9 4599   4.548   4.361   0.255  0.1696 -0.3700 -0.1928
   11CHTO   H22 4600   4.556   4.418   0.349 -0.2675  1.7005 -1.3596
   11CHTO    N2 4601   4.444   4.443   0.191  0.0447 -0.4112 -0.4904
   11CHTO   H10 4602   4.452   4.432   0.084  0.8642 -0.2662 -0.4514
   11CHTO   H11 4603   4.344   4.417   0.222  0.6266 -0.7213  1.1587
   11CHTO    C7 4604   4.694   4.354   0.187  0.0833  0.1046 -0.3844
   11CHTO   H20 4605   4.764   4.394   0.263  1.2008 -1.4243 -0.5718
   11CHTO    O4 4606   4.735   4.220   0.146 -0.4982 -0.1221  0.0778
   11CHTO   C14 4607   4.746   4.131   0.259  0.1671  0.0889  0.0419
   11CHTO   H27 4608   4.841   4.146   0.315  0.5107  0.4993 -0.6487
   11CHTO   C18 4609   4.758   3.993   0.192  0.0126 -0.6713  0.7083
   11CHTO   O13 4610   4.799   3.886   0.271  0.5997 -0.0068  0.8123
   11CHTO    H7 4611   4.825   3.819   0.210  1.7049  0.1663  1.0982
   11CHTO    O2 4612   4.707   4.454   0.055 -0.2757  0.1874  0.6354
   11CHTO    C1 4613   4.826   4.537   0.063 -0.3720  0.6200  0.1064
   11CHTO   H14 4614   4.873   4.529   0.164  0.8988 -0.2638 -0.5474
   11CHTO    C2 4615   4.789   4.686   0.043 -0.0950  0.4427  0.2345
   11CHTO   H15 4616   4.729   4.684  -0.049 -0.8424  1.3259  0.6917
   11CHTO    O6 4617   4.705   4.723   0.155 -0.6063 -0.3089  0.1128
   11CHTO    H1 4618   4.655   4.801   0.135 -0.3835 -0.8775 -2.8798
   11CHTO    C3 4619   4.918   4.777   0.029  0.6432  0.4535  0.4591
   11CHTO   H16 4620   4.965   4.772   0.128  1.1509 -0.8768  0.1701
   11CHTO    N1 4621   4.886   4.923   0.007 -0.1559 -0.0481 -0.9780
   11CHTO    H8 4622   4.820   4.966   0.080  0.7698  0.4702 -0.4444
   11CHTO    H9 4623   4.976   4.982   0.014 -0.8067  0.6718  1.6550
   11CHTO    C4 4624   5.021   4.717  -0.072  0.5253 -0.0002  0.1960
   11CHTO   H17 4625   4.972   4.723  -0.169 -0.6716 -0.1605  0.7747
   11CHTO    O1 4626   5.040   4.578  -0.041  0.1037  0.2732  0.3441
   11CHTO    C5 4627   4.928   4.487  -0.043  0.6463 -0.4380 -0.0587
   11CHTO   H18 4628   4.866   4.484  -0.132 -2.2931 -1.2188  1.9200
   11CHTO   C16 4629   4.982   4.349  -0.018  0.1249  0.2278 -0.1406
   11CHTO   O11 4630   5.072   4.353   0.096  0.6868 -0.2761  0.1116
   11CHTO    H5 4631   5.041   4.292   0.160  0.5046  0.8268  1.0961
   11CHTO    O3 4632   5.153   4.775  -0.078 -0.7070  0.2492  0.0672
   11CHTO    C6 4633   5.222   4.775  -0.206  0.1702  0.5722  0.4178
   11CHTO   H19 4634   5.167   4.714  -0.278  0.2864  0.5633  0.3361
   11CHTO    C8 4635   5.229   4.915  -0.275  0.0686 -0.3108  0.2779
   11CHTO   H21 4636   5.261   4.989  -0.202 -0.2023  0.1516 -0.0608
   11CHTO    O7 4637   5.098   4.951  -0.321 -0.3753 -0.2357 -0.0340
   11CHTO    H2 4638   5.074   4.890  -0.389 -0.3389 -0.3409  0.0476
   11CHTO   C12 4639   5.330   4.931  -0.399  0.1533 -0.1499 -0.2562
   11CHTO   H25 4640   5.281   4.874  -0.481  1.4097  0.1663 -1.2283
   11CHTO    N3 4641   5.349   5.068  -0.452 -0.2382 -0.2029 -0.4404
   11CHTO   H12 4642   5.284   5.143  -0.408 -0.4595 -0.1663 -0.8227
   11CHTO   H13 4643   5.341   5.071  -0.560  1.1948  1.3742 -0.5218
   11CHTO   C15 4644   5.461   4.852  -0.369  0.6601 -0.3843 -0.0724
   11CHTO   H28 4645   5.529   4.904  -0.301  0.5167 -0.3681  0.0581
   11CHTO   O10 4646   5.534   4.824  -0.509  0.0741  0.9610 -0.2650
   11CHTO    H4 4647   5.488   4.758  -0.555 -1.4900  1.4908  0.5025
   11CHTO    O5 4648   5.433   4.722  -0.318  0.1027  0.1536  0.1647
   11CHTO   C10 4649   5.361   4.717  -0.192  0.9214 -0.5199  0.6330
   11CHTO   H23 4650   5.414   4.765  -0.109 -0.5050 -0.0268  1.2607
   11CHTO   C17 4651   5.352   4.567  -0.165 -0.2813 -0.5837  0.0669
   11CHTO   O12 4652   5.474   4.497  -0.172  0.5729 -0.1347  0.2105
   11CHTO    H6 4653   5.548   4.555  -0.171  0.3860  0.0960  0.5791
   12CHTO  H203 4654   5.237   1.269   2.240 -1.3231  2.6413 -0.2187
   12CHTO   O82 4655   5.154   1.227   2.226 -0.3796  0.5885  0.1886
   12CHTO  C123 4656   5.143   1.141   2.338 -0.0845 -0.0123 -0.6673
   12CHTO  H227 4657   5.190   1.194   2.421 -0.9098  0.6789 -0.6271
   12CHTO   O77 4658   5.003   1.146   2.352  0.3166  0.1691 -0.1188
   12CHTO  C118 4659   4.941   1.081   2.462  0.8366  0.1527 -0.0154
   12CHTO  H222 4660   4.987   1.108   2.558  0.8216 -0.6121  0.2098
   12CHTO  C125 4661   4.786   1.116   2.455 -0.2316 -0.5082  0.0236
   12CHTO   O84 4662   4.727   1.083   2.327  0.1010 -0.0884  0.2953
   12CHTO  H205 4663   4.678   1.155   2.293 -1.1884 -1.0859 -0.0080
   12CHTO  C114 4664   4.966   0.925   2.447 -0.3116 -0.0505  0.1156
   12CHTO  H218 4665   4.920   0.892   2.354  2.2507 -1.5690 -0.6760
   12CHTO  C116 4666   5.123   0.896   2.418 -0.1721  0.0371  0.4608
   12CHTO  H220 4667   5.173   0.916   2.516  3.7362 -0.3929 -1.3613
   12CHTO   O79 4668   5.129   0.754   2.388 -0.7707  0.1165 -0.0925
   12CHTO  H201 4669   5.118   0.724   2.300 -0.7073  0.7842 -0.3289
   12CHTO  C120 4670   5.188   0.990   2.307 -0.1189 -0.2455 -0.6678
   12CHTO  H224 4671   5.150   0.950   2.212  0.9430 -4.0676  0.4447
   12CHTO   N21 4672   5.337   0.983   2.309 -0.4509 -0.4176  0.3143
   12CHTO  H211 4673   5.372   0.954   2.407 -1.3802  0.1215  0.8117
   12CHTO  H212 4674   5.371   0.923   2.225  1.5392  1.0890  0.0142
   12CHTO   O75 4675   4.922   0.873   2.568  0.2636 -0.2130 -0.1974
   12CHTO  C112 4676   4.840   0.734   2.563 -0.4341 -0.1378 -0.3011
   12CHTO  H216 4677   4.862   0.677   2.471 -2.2540 -0.4061 -0.5833
   12CHTO   O73 4678   4.705   0.779   2.560  0.2268  0.1615 -0.3047
   12CHTO  C113 4679   4.614   0.664   2.554  0.5694 -0.8129 -0.1039
   12CHTO  H217 4680   4.611   0.597   2.466 -0.8827 -0.4561 -0.3379
   12CHTO  C124 4681   4.470   0.721   2.543 -0.4510  0.7435 -0.0578
   12CHTO   O83 4682   4.457   0.802   2.427 -0.0319  0.1062  0.2568
   12CHTO  H204 4683   4.529   0.860   2.420  1.1946 -1.5282 -1.2923
   12CHTO  C109 4684   4.631   0.574   2.682 -0.4764 -0.5011 -0.1792
   12CHTO  H213 4685   4.607   0.636   2.770  0.2075  1.7634 -1.5331
   12CHTO  C110 4686   4.782   0.530   2.693  0.1299  0.4787 -0.0172
   12CHTO  H214 4687   4.808   0.472   2.604  2.5617  0.9865  0.3258
   12CHTO   O78 4688   4.805   0.442   2.801 -0.3677 -0.0959 -0.6982
   12CHTO  H200 4689   4.897   0.434   2.818 -1.0528 -0.4509  3.6174
   12CHTO  C111 4690   4.878   0.651   2.688  0.2726  0.9097  0.1602
   12CHTO  H215 4691   4.860   0.713   2.777 -3.6263  1.6366 -1.0267
   12CHTO   N19 4692   5.019   0.613   2.683  0.7578  0.4067  0.3280
   12CHTO  H207 4693   5.081   0.701   2.667  0.1949  0.6051 -0.7724
   12CHTO  H208 4694   5.046   0.554   2.770 -1.2530 -2.1875 -0.7582
   12CHTO   O74 4695   4.538   0.469   2.677  0.0559  0.0425 -0.5419
   12CHTO  C115 4696   4.517   0.395   2.814 -0.3416 -0.1925 -0.3842
   12CHTO  H219 4697   4.593   0.422   2.887 -0.1369  0.4859 -0.8469
   12CHTO   O76 4698   4.377   0.444   2.885 -0.6056 -0.0490  0.1645
   12CHTO  C122 4699   4.373   0.394   3.023  0.1726 -0.3169 -0.3637
   12CHTO  H226 4700   4.277   0.418   3.068  1.3688  2.9891  0.5330
   12CHTO  C126 4701   4.479   0.458   3.121  0.6282 -0.4762  0.3059
   12CHTO   O85 4702   4.447   0.598   3.154  0.0570 -0.0875  0.1552
   12CHTO  H206 4703   4.437   0.650   3.077  0.9973 -0.8083 -0.4687
   12CHTO  C121 4704   4.386   0.236   3.032  0.4280 -0.1131  0.1673
   12CHTO  H225 4705   4.391   0.201   3.137  2.7565  3.8473  1.4788
   12CHTO   O81 4706   4.263   0.182   2.972 -0.0766 -0.2874 -0.1916
   12CHTO  H202 4707   4.191   0.166   3.030 -0.4240 -3.3603 -1.3595
   12CHTO  C119 4708   4.508   0.183   2.955 -0.2468  0.1972 -0.6734
   12CHTO  H223 4709   4.593   0.229   3.005 -1.8575  1.4624  0.9529
   12CHTO  C117 4710   4.516   0.240   2.807  0.1481  0.1591  0.3706
   12CHTO  H221 4711   4.428   0.218   2.746 -1.3506 -0.1502  2.5750
   12CHTO   N20 4712   4.629   0.190   2.726 -0.1735  0.1578 -0.2564
   12CHTO  H209 4713   4.716   0.179   2.789 -1.1213 -0.6373  0.9370
   12CHTO  H210 4714   4.639   0.242   2.632  0.8238 -1.0076 -0.8106
   12CHTO   O80 4715   4.533   0.027   2.979 -0.3449  0.2287 -0.2525
   12CHTO  C103 4716   4.434  -0.101   2.896  0.3412  1.0354  0.7963
   12CHTO  H190 4717   4.333  -0.064   2.878  0.2386  1.0804  1.4483
   12CHTO  C101 4718   4.492  -0.193   2.777  0.8176  0.6220 -0.0524
   12CHTO  H188 4719   4.598  -0.218   2.788  0.6103 -0.4993 -0.5934
   12CHTO   O68 4720   4.482  -0.113   2.660 -0.7795  0.8734 -0.5999
   12CHTO  H168 4721   4.394  -0.099   2.629 -0.9987  0.3841 -0.2052
   12CHTO   C99 4722   4.401  -0.331   2.763 -0.0865  0.2859  0.1951
   12CHTO  H186 4723   4.298  -0.292   2.744 -0.0670  0.5453  0.6324
   12CHTO   N17 4724   4.439  -0.410   2.649  0.8628  0.7557  0.3385
   12CHTO  H174 4725   4.357  -0.474   2.620  0.1571  0.9469  1.8412
   12CHTO  H175 4726   4.475  -0.352   2.566  0.6243  0.4005 -0.0146
   12CHTO   C97 4727   4.396  -0.410   2.898 -0.1860 -0.6433 -0.4496
   12CHTO  H184 4728   4.496  -0.444   2.926 -0.7609 -0.5243  1.8624
   12CHTO   O64 4729   4.345  -0.318   2.991  0.0935  0.1441  0.9531
   12CHTO  C104 4730   4.416  -0.200   3.022 -0.4996  0.8619 -0.1081
   12CHTO  H191 4731   4.513  -0.229   3.062 -2.0125 -0.6200  2.6428
   12CHTO  C108 4732   4.337  -0.130   3.132 -0.6105 -0.7343 -0.2560
   12CHTO   O71 4733   4.324  -0.208   3.252 -0.6656 -0.0889  0.4136
   12CHTO  H171 4734   4.252  -0.265   3.234 -1.7000  1.8184 -1.7406
   12CHTO   O62 4735   4.298  -0.514   2.900  0.4498 -0.1519  0.0190
   12CHTO   C91 4736   4.338  -0.630   2.975 -0.3046  0.0203 -0.2786
   12CHTO  H178 4737   4.439  -0.618   3.016 -0.3545 -0.2500 -0.0770
   12CHTO   C92 4738   4.343  -0.751   2.877 -0.2974  0.2397  0.0949
   12CHTO  H179 4739   4.254  -0.756   2.812  1.3120  1.5677 -2.2902
   12CHTO   O66 4740   4.452  -0.729   2.787 -0.8026  0.4830 -0.0783
   12CHTO  H166 4741   4.450  -0.790   2.716 -1.0477  2.4350 -1.7622
   12CHTO   C93 4742   4.365  -0.890   2.952  0.0080  0.5218 -0.3787
   12CHTO  H180 4743   4.462  -0.882   3.003  0.5424 -2.8531 -0.7636
   12CHTO   N16 4744   4.363  -1.003   2.854  0.2410  0.2111 -0.0771
   12CHTO  H172 4745   4.443  -1.074   2.870  0.2120  0.4286  1.0998
   12CHTO  H173 4746   4.367  -0.963   2.754 -0.1846 -2.3066 -1.1534
   12CHTO   C94 4747   4.258  -0.906   3.052 -0.2081 -0.1107  0.1918
   12CHTO  H181 4748   4.158  -0.898   3.011  0.3871  2.1813 -0.9410
   12CHTO   O61 4749   4.263  -0.794   3.149 -0.0650 -0.0297  0.1021
   12CHTO   C95 4750   4.240  -0.665   3.089 -0.1776 -0.5773  0.7102
   12CHTO  H182 4751   4.141  -0.662   3.044  1.2530  0.4326 -2.4953
   12CHTO  C106 4752   4.249  -0.557   3.198  0.0811  0.3879 -0.1707
   12CHTO   O69 4753   4.129  -0.548   3.269  0.5171  0.2193 -0.1845
   12CHTO  H169 4754   4.107  -0.632   3.304 -0.9078  1.4167  1.9402
   12CHTO   O63 4755   4.283  -1.054   3.152  0.2531 -0.9296 -0.2531
   12CHTO   C96 4756   4.396  -1.063   3.248 -0.4313  0.9122 -0.5961
   12CHTO  H183 4757   4.467  -0.979   3.242  1.1249 -0.4167 -1.1897
   12CHTO   C98 4758   4.477  -1.192   3.222 -0.2241  0.2644 -0.9098
   12CHTO  H185 4759   4.412  -1.276   3.195 -1.0710  0.2448  1.1209
   12CHTO   O67 4760   4.548  -1.161   3.098 -0.1922  0.4914 -0.5460
   12CHTO  H167 4761   4.583  -1.075   3.093 -0.5275  0.5328 -2.3098
   12CHTO  C102 4762   4.574  -1.248   3.348  0.4881 -0.1269  0.7156
   12CHTO  H189 4763   4.663  -1.183   3.347  0.9395 -0.7446 -2.0199
   12CHTO   N18 4764   4.627  -1.379   3.314  0.1457  0.0131  0.5794
   12CHTO  H176 4765   4.690  -1.376   3.226 -0.3462 -1.3184  0.1679
   12CHTO  H177 4766   4.550  -1.453   3.300 -1.6703  1.9362  0.1843
   12CHTO  C105 4767   4.488  -1.244   3.477 -0.3701  0.2757  0.5427
   12CHTO  H192 4768   4.412  -1.320   3.463 -1.7590  1.6639  0.3544
   12CHTO   O65 4769   4.430  -1.106   3.494  0.4147 -0.2047  0.1609
   12CHTO  C100 4770   4.331  -1.065   3.392  0.1071  0.2654  0.1630
   12CHTO  H187 4771   4.250  -1.139   3.395 -0.1763  0.5970  0.7785
   12CHTO  C107 4772   4.270  -0.931   3.441 -0.0690 -0.7471  0.1342
   12CHTO   O70 4773   4.375  -0.831   3.454 -0.6955  0.0860 -0.1921
   12CHTO  H170 4774   4.338  -0.745   3.453 -0.9494 -0.0276 -1.1660
   12CHTO   O57 4775   4.578  -1.260   3.598  0.6089  0.4308 -0.3236
   12CHTO   C85 4776   4.531  -1.311   3.725  1.0083 -0.0043 -0.1155
   12CHTO  H157 4777   4.436  -1.360   3.696  0.6762  1.0464 -0.8228
   12CHTO   C83 4778   4.489  -1.195   3.818  0.0695 -0.3227 -0.0692
   12CHTO  H155 4779   4.415  -1.138   3.761 -1.9688 -1.3445  1.4784
   12CHTO   O56 4780   4.600  -1.117   3.839 -0.4700 -0.2006 -0.3425
   12CHTO  H135 4781   4.599  -1.049   3.774 -2.2704  0.6556  0.5466
   12CHTO   C81 4782   4.430  -1.253   3.946  0.3648  0.6343  0.2671
   12CHTO  H153 4783   4.336  -1.303   3.920 -0.1894  2.0626 -0.5127
   12CHTO   N14 4784   4.376  -1.144   4.030  0.5232 -0.3707 -0.4833
   12CHTO  H141 4785   4.329  -1.181   4.120  1.1621 -1.7367 -0.6963
   12CHTO  H142 4786   4.459  -1.081   4.050  1.0391 -1.0634 -0.4053
   12CHTO   C79 4787   4.523  -1.355   4.014 -0.0170 -0.2610 -0.4369
   12CHTO  H151 4788   4.460  -1.399   4.092  0.6522 -2.7244 -1.2587
   12CHTO   O52 4789   4.564  -1.462   3.925 -0.3702  0.3838  0.0057
   12CHTO   C86 4790   4.622  -1.414   3.802 -0.3311 -0.4466 -0.3156
   12CHTO  H158 4791   4.722  -1.372   3.829 -0.3485 -0.8521  0.3619
   12CHTO   C90 4792   4.654  -1.534   3.719  0.6664  0.2332  0.3333
   12CHTO   O60 4793   4.740  -1.499   3.611 -0.3361  0.8122 -0.2274
   12CHTO  H138 4794   4.713  -1.420   3.569 -0.1758  0.5060 -0.9081
   12CHTO   O50 4795   4.629  -1.293   4.083 -0.5846  0.5851  0.5236
   12CHTO   C73 4796   4.708  -1.292   4.202 -0.5621 -0.4148 -0.3036
   12CHTO  H145 4797   4.652  -1.333   4.287 -0.4313 -1.2157 -0.5954
   12CHTO   C74 4798   4.744  -1.148   4.242 -0.3556 -0.1258  0.4404
   12CHTO  H146 4799   4.649  -1.094   4.252 -0.0589  0.3761  0.5884
   12CHTO   O54 4800   4.804  -1.139   4.368  0.3162  0.0929 -0.1716
   12CHTO  H133 4801   4.787  -1.055   4.407 -0.4958  0.1290 -0.6027
   12CHTO   C75 4802   4.836  -1.087   4.120 -0.5266  0.2271  0.1767
   12CHTO  H147 4803   4.766  -1.072   4.036 -0.9695 -1.1323  0.2937
   12CHTO   N13 4804   4.875  -0.943   4.152 -0.7390  0.1201 -0.1449
   12CHTO  H139 4805   4.913  -0.896   4.062  0.0979  0.1681  0.2275
   12CHTO  H140 4806   4.939  -0.944   4.239 -0.9403 -3.4123  0.0377
   12CHTO   C76 4807   4.954  -1.178   4.066 -0.4548  0.0732 -0.0019
   12CHTO  H148 4808   5.035  -1.164   4.138  1.6436  0.8213 -2.4511
   12CHTO   O49 4809   4.907  -1.322   4.055  0.4527 -0.0048 -0.0462
   12CHTO   C77 4810   4.839  -1.375   4.172  0.0422 -0.3621  0.3421
   12CHTO  H149 4811   4.905  -1.367   4.259 -0.9206 -0.2623  1.0719
   12CHTO   C88 4812   4.821  -1.524   4.150  0.6010  0.1210 -0.6847
   12CHTO   O58 4813   4.939  -1.593   4.131 -0.8593  0.0537 -0.7409
   12CHTO  H136 4814   4.979  -1.581   4.047 -0.2836  0.2401 -0.4477
   12CHTO   O51 4815   5.005  -1.131   3.921  0.4167  0.1687 -0.4828
   12CHTO   C78 4816   5.152  -1.175   3.904  0.1298 -0.1000  0.0841
   12CHTO  H150 4817   5.191  -1.220   3.997 -0.8812 -3.1645 -0.9223
   12CHTO   C80 4818   5.233  -1.047   3.875  0.2125 -0.1914  0.2370
   12CHTO  H152 4819   5.197  -0.998   3.782  0.4570  1.1838  0.8399
   12CHTO   O55 4820   5.208  -0.953   3.981 -0.0124 -0.4928 -0.3270
   12CHTO  H134 4821   5.123  -0.915   3.975  0.0941 -0.0309  0.8456
   12CHTO   C84 4822   5.386  -1.091   3.854 -0.4224 -0.9034  0.7801
   12CHTO  H156 4823   5.415  -1.133   3.951  0.9199 -0.3433  0.6363
   12CHTO   N15 4824   5.472  -0.975   3.831 -0.2830 -0.4184  0.0264
   12CHTO  H143 4825   5.575  -1.002   3.843 -0.3202 -1.1424 -1.1646
   12CHTO  H144 4826   5.451  -0.887   3.888  1.5612  0.2784 -0.3060
   12CHTO   C87 4827   5.388  -1.186   3.734 -0.5287 -0.4409 -0.3154
   12CHTO  H159 4828   5.379  -1.136   3.638 -0.2818  0.9907  0.4002
   12CHTO   O53 4829   5.305  -1.305   3.759 -0.5518  0.2428  0.7419
   12CHTO   C82 4830   5.168  -1.268   3.779  0.0459 -0.2039  1.0581
   12CHTO  H154 4831   5.128  -1.209   3.697  1.3271  0.5258  0.9408
   12CHTO   C89 4832   5.083  -1.386   3.791  0.2448 -0.0347  0.2130
   12CHTO   O59 4833   5.131  -1.473   3.895 -0.3735  0.0165 -0.2412
   12CHTO  H137 4834   5.103  -1.448   3.981  1.2524 -0.3217  0.4050
   12CHTO   O45 4835   5.544  -1.256   3.707  0.2958 -0.1117 -0.4423
   12CHTO   C67 4836   5.590  -1.283   3.572  0.8219  0.0291  0.6297
   12CHTO  H124 4837   5.679  -1.343   3.589  0.3847 -0.7326  0.2524
   12CHTO   C65 4838   5.492  -1.366   3.492  0.6114 -0.4062 -0.1201
   12CHTO  H122 4839   5.397  -1.345   3.540  0.2164  1.1685 -1.5515
   12CHTO   O44 4840   5.529  -1.501   3.507 -0.8530  0.4422  0.3435
   12CHTO  H102 4841   5.621  -1.519   3.507 -1.3258 -2.2029  1.5375
   12CHTO   C63 4842   5.467  -1.312   3.345 -0.7593 -0.3033  0.1836
   12CHTO  H120 4843   5.417  -1.216   3.352  0.1698  0.2624 -0.7843
   12CHTO   N11 4844   5.367  -1.391   3.260 -0.2626 -0.0180 -0.5226
   12CHTO  H108 4845   5.418  -1.426   3.173  0.1286  0.6996 -0.5909
   12CHTO  H109 4846   5.290  -1.324   3.224  0.7706  1.6088  0.2469
   12CHTO   C61 4847   5.604  -1.278   3.280  0.8319 -0.5635  0.0785
   12CHTO  H118 4848   5.587  -1.234   3.181 -2.6373 -0.8729  0.4641
   12CHTO   O40 4849   5.679  -1.184   3.359 -0.0188  0.3521  0.1481
   12CHTO   C68 4850   5.639  -1.157   3.498  0.0125  0.5228 -0.1046
   12CHTO  H125 4851   5.549  -1.092   3.508  1.5019  2.4152  1.2947
   12CHTO   C72 4852   5.761  -1.093   3.570 -0.6191 -0.1478  0.3270
   12CHTO   O48 4853   5.757  -1.079   3.711 -1.0685 -0.3673 -0.1108
   12CHTO  H105 4854   5.839  -1.101   3.752 -1.4684 -1.0062  0.3574
   12CHTO   O38 4855   5.681  -1.395   3.259 -0.4730 -0.2339  0.5808
   12CHTO   C55 4856   5.805  -1.394   3.189 -0.4047  0.0480 -0.1198
   12CHTO  H112 4857   5.853  -1.296   3.199 -2.3112  1.0731 -0.6605
   12CHTO   C56 4858   5.795  -1.442   3.041  0.9754 -0.4107 -0.6325
   12CHTO  H113 4859   5.752  -1.542   3.052 -0.5775  0.4296  1.0876
   12CHTO   O42 4860   5.702  -1.362   2.964  0.3914  0.1954  0.1619
   12CHTO  H100 4861   5.626  -1.413   2.946  0.9744 -1.0345  1.0608
   12CHTO   C57 4862   5.933  -1.456   2.969  0.2710  0.2409  0.4937
   12CHTO  H114 4863   5.976  -1.356   2.972 -2.5740  1.5022  0.4326
   12CHTO   N10 4864   5.931  -1.522   2.832 -0.1566 -0.0926  0.5553
   12CHTO  H106 4865   6.012  -1.485   2.771 -0.5634 -2.4391 -1.4887
   12CHTO  H107 4866   5.839  -1.511   2.775 -0.1829 -1.0186  0.4132
   12CHTO   C58 4867   6.025  -1.546   3.058  0.3355 -0.4072  0.6084
   12CHTO  H115 4868   5.981  -1.648   3.051 -0.6409  0.1870 -2.6197
   12CHTO   O37 4869   6.032  -1.501   3.197  0.0600 -0.0176 -0.5518
   12CHTO   C59 4870   5.903  -1.497   3.260  0.5069 -0.6732  0.1300
   12CHTO  H116 4871   5.852  -1.593   3.262 -0.1629 -0.3112  0.6047
   12CHTO   C70 4872   5.925  -1.465   3.405 -0.5932  0.1262 -0.5414
   12CHTO   O46 4873   5.992  -1.568   3.485  0.5938  0.5391  0.4122
   12CHTO  H103 4874   5.924  -1.625   3.514  0.3956  0.8426  0.5528
   12CHTO   O39 4875   6.192  -1.533   3.017 -0.0087 -0.2668 -0.7270
   12CHTO   C60 4876   6.279  -1.635   3.068 -1.1038 -0.0958 -0.0432
   12CHTO  H117 4877   6.244  -1.666   3.166  1.3077 -0.5164  0.7236
   12CHTO   C62 4878   6.285  -1.765   2.971  0.2807 -0.5113 -0.1753
   12CHTO  H119 4879   6.184  -1.811   2.974 -0.2901  0.8246  3.6814
   12CHTO   O43 4880   6.319  -1.715   2.839  0.1418 -0.1936  0.2860
   12CHTO  H101 4881   6.345  -1.784   2.782 -1.5689  0.0893 -0.8713
   12CHTO   C66 4882   6.393  -1.862   3.020 -0.4164  0.4407  0.4184
   12CHTO  H123 4883   6.377  -1.883   3.126  1.0298 -0.7211  0.4195
   12CHTO   N12 4884   6.382  -1.989   2.952 -0.3227  0.5190  0.2393
   12CHTO  H110 4885   6.412  -1.981   2.849  0.1834 -2.6057  0.0899
   12CHTO  H111 4886   6.455  -2.057   2.995  0.8734  1.3457 -0.4677
   12CHTO   C69 4887   6.530  -1.792   3.008  0.1303  0.4077  0.2366
   12CHTO  H126 4888   6.538  -1.733   2.914 -0.4934  0.4312  0.1971
   12CHTO   O41 4889   6.527  -1.701   3.122  0.5833 -0.5511  0.4261
   12CHTO   C64 4890   6.424  -1.575   3.093  0.6695 -0.1626 -0.7026
   12CHTO  H121 4891   6.461  -1.521   3.003 -1.5129  0.4245 -1.2885
   12CHTO   C71 4892   6.416  -1.489   3.222 -0.0170  1.0994  0.6280
   12CHTO   O47 4893   6.400  -1.565   3.343 -0.0811  0.1253  0.2854
   12CHTO  H104 4894   6.323  -1.542   3.391 -0.4371 -1.0744  0.3132
   12CHTO   O34 4895   6.659  -1.876   3.012  0.0668 -0.0764 -0.6746
   12CHTO   C49 4896   6.808  -1.862   3.045  0.2150  0.0096 -0.1301
   12CHTO   H91 4897   6.848  -1.809   2.958  3.3612 -1.1934  0.5316
   12CHTO   C47 4898   6.867  -2.005   3.052  0.6838  0.7241 -0.0224
   12CHTO   H89 4899   6.974  -1.989   3.080  1.2072  1.8586 -2.4873
   12CHTO   O33 4900   6.865  -2.073   2.926  0.2980  0.0630 -0.3985
   12CHTO   H70 4901   6.936  -2.041   2.874  0.1920  0.3455 -0.3708
   12CHTO   C45 4902   6.797  -2.076   3.176 -0.3827  0.6931 -0.8171
   12CHTO   H87 4903   6.699  -2.113   3.143 -0.4237 -0.5246  0.6281
   12CHTO    N8 4904   6.877  -2.192   3.227 -0.2239 -0.6700 -0.3618
   12CHTO   H75 4905   6.973  -2.157   3.260 -0.1884  0.3150 -1.4520
   12CHTO   H76 4906   6.824  -2.249   3.302  2.3742  0.2084  2.2259
   12CHTO   C43 4907   6.767  -1.966   3.294 -0.1946 -0.1291 -0.0058
   12CHTO   H85 4908   6.669  -1.924   3.272 -0.5920 -1.4808 -0.8818
   12CHTO   O29 4909   6.867  -1.870   3.297  0.1741 -0.3451  0.4944
   12CHTO   C50 4910   6.843  -1.782   3.182 -0.4169  0.2770 -0.2262
   12CHTO   H92 4911   6.766  -1.709   3.209  0.8954  0.7603  2.4082
   12CHTO   C54 4912   6.973  -1.706   3.155 -0.4779 -0.0942 -0.2499
   12CHTO   O36 4913   7.018  -1.642   3.272  0.1884 -0.9830  0.5345
   12CHTO   H72 4914   6.972  -1.560   3.277  2.8966  0.7336 -1.1982
   12CHTO   O27 4915   6.758  -2.011   3.434 -0.1620 -0.2286 -0.4624
   12CHTO   C37 4916   6.676  -1.982   3.547 -0.5735 -0.0789 -0.3136
   12CHTO   H79 4917   6.745  -1.989   3.632  2.4354  0.4509 -2.6126
   12CHTO   C38 4918   6.622  -1.834   3.546 -0.2672  0.5091  0.0010
   12CHTO   H80 4919   6.562  -1.824   3.454 -0.1169 -0.6173 -0.2267
   12CHTO   O31 4920   6.742  -1.752   3.551 -0.0297  0.0589  0.0765
   12CHTO   H68 4921   6.800  -1.800   3.607 -0.7454 -0.9919 -0.0657
   12CHTO   C39 4922   6.523  -1.803   3.664  0.6854 -0.1473 -0.2014
   12CHTO   H81 4923   6.589  -1.807   3.751  1.0966 -1.1150 -0.5416
   12CHTO    N7 4924   6.454  -1.669   3.652  0.3464  0.3393  0.0205
   12CHTO   H73 4925   6.408  -1.664   3.554  0.5663 -0.8028 -0.1457
   12CHTO   H74 4926   6.381  -1.669   3.731  1.3907  0.3939  1.0018
   12CHTO   C40 4927   6.420  -1.926   3.678 -0.2135  0.0839  0.3309
   12CHTO   H82 4928   6.354  -1.924   3.591 -1.3868 -2.1005  1.1336
   12CHTO   O26 4929   6.486  -2.057   3.688  0.2638 -0.3646 -0.6604
   12CHTO   C41 4930   6.558  -2.088   3.565 -0.0450 -0.2768  0.2686
   12CHTO   H83 4931   6.495  -2.077   3.476 -1.3889 -2.6822  0.8706
   12CHTO   C52 4932   6.620  -2.230   3.573 -0.6156  0.1439  0.3029
   12CHTO   O35 4933   6.517  -2.342   3.602  0.4790  0.6649  0.0830
   12CHTO   H71 4934   6.521  -2.383   3.686  0.0019  0.8602  0.2004
   12CHTO   O28 4935   6.339  -1.903   3.797 -0.2904  0.3216 -0.0412
   12CHTO   C42 4936   6.203  -1.956   3.828  0.4966 -0.1527 -0.7336
   12CHTO   H84 4937   6.204  -1.980   3.935 -0.6175  0.7427 -0.5073
   12CHTO   C44 4938   6.161  -2.083   3.749 -0.0677  0.4820  0.0361
   12CHTO   H86 4939   6.171  -2.058   3.643 -1.2220  0.7347 -0.0247
   12CHTO   O32 4940   6.257  -2.185   3.777  0.4074 -0.1889 -0.0795
   12CHTO   H69 4941   6.275  -2.198   3.868 -0.6890 -0.2667  0.1262
   12CHTO   C48 4942   6.007  -2.127   3.780 -0.1484  0.3014 -0.1606
   12CHTO   H90 4943   6.015  -2.175   3.878 -2.0405  0.2083 -0.0291
   12CHTO    N9 4944   5.957  -2.227   3.681  0.2628 -0.9835 -0.0449
   12CHTO   H77 4945   6.013  -2.318   3.700 -0.2627 -1.1884  0.4970
   12CHTO   H78 4946   5.852  -2.244   3.695  0.3035 -0.7808  0.4751
   12CHTO   C51 4947   5.905  -2.011   3.786  0.7716  0.2530  0.2231
   12CHTO   H93 4948   5.896  -1.975   3.683  1.8574  1.1766  0.4417
   12CHTO   O30 4949   5.956  -1.910   3.869  0.7732 -0.4370  0.0713
   12CHTO   C46 4950   6.091  -1.847   3.821  0.0965  0.0412  0.3154
   12CHTO   H88 4951   6.079  -1.822   3.716  1.8102  2.1839  0.5895
   12CHTO   C53 4952   6.127  -1.721   3.908  0.3425  0.7427  0.2110
   12CHTO   O72 4953   6.026  -1.621   3.886 -0.8619 -0.0249  0.7025
   12CHTO  H199 4954   6.077  -1.543   3.890  0.2047 -0.7283  0.8998
   12CHTO   O22 4955   5.783  -2.057   3.841 -0.5057  0.4553 -0.2516
   12CHTO   C31 4956   5.653  -1.995   3.814 -1.0247 -0.0423  0.8114
   12CHTO   H59 4957   5.577  -2.061   3.860 -0.0586 -1.8630 -0.1240
   12CHTO   C29 4958   5.644  -1.853   3.883  0.2755 -0.1675 -0.1543
   12CHTO   H57 4959   5.733  -1.800   3.845  0.3522 -0.5609 -0.5324
   12CHTO   O21 4960   5.653  -1.864   4.027 -0.5457 -0.1203 -0.5406
   12CHTO   H37 4961   5.572  -1.881   4.072 -0.2718  1.9170  0.7625
   12CHTO   C27 4962   5.515  -1.772   3.841  0.0090  0.3737  0.1476
   12CHTO   H55 4963   5.430  -1.814   3.898  1.1087 -1.2362  0.6246
   12CHTO    N5 4964   5.527  -1.629   3.880  0.4655  0.2341 -1.4214
   12CHTO   H43 4965   5.541  -1.627   3.987 -2.2390  2.1538 -1.0387
   12CHTO   H44 4966   5.597  -1.569   3.824  1.3579  2.3536  1.8381
   12CHTO   C25 4967   5.487  -1.787   3.690 -0.1827 -0.0081  0.0434
   12CHTO   H53 4968   5.563  -1.724   3.641 -1.3176 -0.2918 -2.1128
   12CHTO   O17 4969   5.491  -1.927   3.645 -0.1629 -0.1595  0.0094
   12CHTO   C32 4970   5.619  -1.987   3.661  0.3109  0.9869 -0.1762
   12CHTO   H60 4971   5.689  -1.921   3.610  0.5898 -0.7919 -2.1556
   12CHTO   C36 4972   5.612  -2.124   3.604  0.3058 -0.3348 -0.0694
   12CHTO   O25 4973   5.533  -2.214   3.677 -0.3843  0.0729  0.2421
   12CHTO   H40 4974   5.554  -2.305   3.667 -2.3313 -0.1552 -2.2103
   12CHTO   O15 4975   5.355  -1.742   3.647  0.2175  0.0805  0.4033
   12CHTO   C19 4976   5.239  -1.716   3.556 -0.7257  0.1792  0.0035
   12CHTO   H47 4977   5.217  -1.609   3.568  0.0562  0.1465  2.0384
   12CHTO   C20 4978   5.270  -1.761   3.405 -0.5529 -0.5457 -0.6806
   12CHTO   H48 4979   5.283  -1.870   3.397  1.2545 -0.4441  0.5555
   12CHTO   O19 4980   5.381  -1.680   3.367 -0.2154 -0.2996 -0.4564
   12CHTO   H35 4981   5.456  -1.697   3.420 -1.5564 -1.0432  1.2301
   12CHTO   C21 4982   5.150  -1.723   3.311 -0.3431 -0.2381 -0.7371
   12CHTO   H49 4983   5.136  -1.615   3.311  0.1117 -0.1412  1.6409
   12CHTO    N4 4984   5.169  -1.762   3.170  0.4060  0.0578 -0.5721
   12CHTO   H41 4985   5.099  -1.696   3.120 -0.0473 -1.5447 -2.0717
   12CHTO   H42 4986   5.136  -1.863   3.150  0.4143 -0.0164 -0.2182
   12CHTO   C22 4987   5.015  -1.777   3.370 -0.3266 -0.3334  0.1663
   12CHTO   H50 4988   4.995  -1.884   3.359  1.9705 -0.7931  0.1692
   12CHTO   O14 4989   5.006  -1.740   3.511  0.1804  1.0745 -0.1069
   12CHTO   C23 4990   5.108  -1.792   3.595  0.4866 -0.1268  0.0028
   12CHTO   H51 4991   5.116  -1.900   3.575 -3.2206 -0.5736  0.5456
   12CHTO   C34 4992   5.044  -1.769   3.738 -0.6314  0.2618  0.3845
   12CHTO   O23 4993   4.924  -1.837   3.764 -0.3377 -0.0921 -0.0256
   12CHTO   H38 4994   4.887  -1.794   3.838 -2.8426 -1.9558 -0.1334
   12CHTO   O16 4995   4.896  -1.702   3.328 -0.0599  0.4689  0.2654
   12CHTO   C24 4996   4.784  -1.785   3.241 -0.1543  0.2703  0.1974
   12CHTO   H52 4997   4.812  -1.890   3.229 -1.6937 -0.1797  0.3883
   12CHTO   C26 4998   4.748  -1.716   3.110  0.5964 -0.6005  0.1267
   12CHTO   H54 4999   4.724  -1.609   3.127 -1.7438 -1.2671  1.2124
   12CHTO   O20 5000   4.866  -1.715   3.026  0.1286  0.0183  0.3202
   12CHTO   H36 5001   4.855  -1.653   2.957  2.7717 -1.8816 -1.9189
   12CHTO   C30 5002   4.630  -1.790   3.038  0.4143  0.7600  0.4153
   12CHTO   H58 5003   4.671  -1.881   2.993 -1.6799  0.7398 -1.5755
   12CHTO    N6 5004   4.592  -1.711   2.917  0.3388  0.8491 -0.2737
   12CHTO   H45 5005   4.529  -1.769   2.850 -0.0038  0.4742  0.3682
   12CHTO   H46 5006   4.538  -1.622   2.946  1.3220  1.3791 -0.0517
   12CHTO   C33 5007   4.506  -1.833   3.122 -0.2604 -0.0519 -0.0686
   12CHTO   H61 5008   4.442  -1.744   3.130 -0.9636 -0.5810  0.3630
   12CHTO   O18 5009   4.555  -1.868   3.254 -0.6230 -0.6551  0.2181
   12CHTO   C28 5010   4.652  -1.786   3.320  0.0524 -0.3856 -0.3162
   12CHTO   H56 5011   4.619  -1.682   3.330  0.3470  0.0559 -3.1990
   12CHTO   C35 5012   4.677  -1.862   3.447 -0.6249  0.4028  0.3278
   12CHTO   O24 5013   4.556  -1.881   3.517 -0.2920 -0.2925 -0.0985
   12CHTO   H39 5014   4.557  -1.958   3.570 -1.6120 -0.7195 -0.6834
   12CHTO    O9 5015   4.427  -1.941   3.066 -0.1502 -0.0121 -0.0013
   12CHTO   C13 5016   4.484  -2.090   3.068 -0.2589  0.3275  0.5522
   12CHTO   H26 5017   4.593  -2.077   3.056 -0.0042 -2.0998 -0.0677
   12CHTO   C11 5018   4.422  -2.184   2.956 -0.1883 -0.6058 -0.0873
   12CHTO   H24 5019   4.451  -2.128   2.865  1.3999  0.5602  1.0950
   12CHTO    O8 5020   4.277  -2.187   2.960 -0.1702  0.2082  0.6250
   12CHTO    H3 5021   4.258  -2.276   2.985  1.6340 -0.1558  0.7505
   12CHTO    C9 5022   4.511  -2.312   2.956  0.0593 -0.9079 -0.4754
   12CHTO   H22 5023   4.612  -2.273   2.942 -1.4557  2.3793 -2.7931
   12CHTO    N2 5024   4.499  -2.397   2.836 -0.6607  0.1644 -0.4084
   12CHTO   H10 5025   4.580  -2.470   2.834  0.0190  0.8420  1.1515
   12CHTO   H11 5026   4.482  -2.353   2.740  1.1321 -1.7739 -1.6654
   12CHTO    C7 5027   4.494  -2.387   3.095 -0.0160 -0.7587  0.2154
   12CHTO   H20 5028   4.570  -2.467   3.094 -0.3648 -1.0962  0.5910
   12CHTO    O4 5029   4.519  -2.292   3.203 -0.1495 -0.4109  0.1840
   12CHTO   C14 5030   4.464  -2.158   3.210 -0.3652 -0.5375 -0.1135
   12CHTO   H27 5031   4.521  -2.112   3.293 -1.6348 -0.8441  0.9468
   12CHTO   C18 5032   4.318  -2.155   3.259  0.0354 -0.3412 -0.1209
   12CHTO   O13 5033   4.315  -2.194   3.399  0.6973  0.2069 -0.2986
   12CHTO    H7 5034   4.291  -2.121   3.452  1.6943 -0.0075  0.4527
   12CHTO    O2 5035   4.360  -2.447   3.099 -0.5836  0.1565 -0.1399
   12CHTO    C1 5036   4.364  -2.576   3.154 -0.2683 -0.2494  0.2443
   12CHTO   H14 5037   4.443  -2.589   3.231 -0.1370 -1.4603 -0.0763
   12CHTO    C2 5038   4.395  -2.679   3.040 -0.1642 -0.1409 -0.5940
   12CHTO   H15 5039   4.332  -2.654   2.954  1.4087 -1.2475 -2.1163
   12CHTO    O6 5040   4.535  -2.677   3.007 -0.5351 -0.0722  0.0355
   12CHTO    H1 5041   4.552  -2.752   2.955 -0.0396 -0.8027  1.2200
   12CHTO    C3 5042   4.350  -2.828   3.074 -0.4347  0.3260  0.3959
   12CHTO   H16 5043   4.426  -2.877   3.136 -1.4325  0.9509  2.1494
   12CHTO    N1 5044   4.349  -2.911   2.948  0.3660  0.0493 -0.1095
   12CHTO    H8 5045   4.293  -3.002   2.957 -2.4227  1.7809  0.7546
   12CHTO    H9 5046   4.452  -2.935   2.924  0.1360 -0.8468 -0.1827
   12CHTO    C4 5047   4.217  -2.829   3.154 -0.1867 -0.2856  0.2906
   12CHTO   H17 5048   4.137  -2.796   3.088  1.8795 -0.6482 -2.4824
   12CHTO    O1 5049   4.232  -2.744   3.267 -0.6185 -0.2213 -0.2976
   12CHTO    C5 5050   4.228  -2.611   3.223  0.4563 -0.2114 -0.1833
   12CHTO   H18 5051   4.154  -2.585   3.147 -2.0196  3.3514  3.3055
   12CHTO   C16 5052   4.205  -2.510   3.346 -0.2122 -0.5726 -0.1004
   12CHTO   O11 5053   4.301  -2.537   3.444  0.6235  0.1714  0.4253
   12CHTO    H5 5054   4.311  -2.468   3.508  0.6833  1.0183 -0.4792
   12CHTO    O3 5055   4.175  -2.959   3.193 -0.2689  0.0558 -0.4919
   12CHTO    C6 5056   4.068  -2.982   3.295 -0.2452 -0.1040  0.1992
   12CHTO   H19 5057   4.089  -2.939   3.393  1.1417 -1.7620  0.6600
   12CHTO    C8 5058   3.926  -2.939   3.238  0.0164 -0.0336  0.4580
   12CHTO   H21 5059   3.917  -2.974   3.135 -1.0901  0.3280  0.4257
   12CHTO    O7 5060   3.926  -2.795   3.248  0.1812  1.1269  0.6683
   12CHTO    H2 5061   3.954  -2.769   3.334  2.0767  0.9204  0.1219
   12CHTO   C12 5062   3.805  -2.993   3.330 -0.4848  0.4410 -0.0195
   12CHTO   H25 5063   3.788  -2.933   3.422 -1.5367  1.3746 -0.8187
   12CHTO    N3 5064   3.680  -2.984   3.251 -0.1145 -0.2341 -0.1756
   12CHTO   H12 5065   3.677  -2.886   3.207 -0.6477 -1.3543 -2.6862
   12CHTO   H13 5066   3.685  -3.057   3.172  0.6828  0.3176 -0.6439
   12CHTO   C15 5067   3.827  -3.138   3.368 -0.3526 -0.3467 -0.2365
   12CHTO   H28 5068   3.791  -3.212   3.296  0.6077 -0.5088 -0.5597
   12CHTO   O10 5069   3.758  -3.165   3.509 -0.5273 -0.2658  0.5418
   12CHTO    H4 5070   3.753  -3.081   3.550 -0.1295  0.5761 -1.0840
   12CHTO    O5 5071   3.957  -3.160   3.417 -0.7604  0.4121  0.0163
   12CHTO   C10 5072   4.061  -3.136   3.320  0.6323  0.1200  0.3376
   12CHTO   H23 5073   4.036  -3.181   3.223  0.1761 -0.3688  0.6823
   12CHTO   C17 5074   4.190  -3.198   3.371 -0.0412  0.2008 -0.1564
   12CHTO   O12 5075   4.299  -3.198   3.284  0.4384  0.1725  0.1529
   12CHTO    H6 5076   4.281  -3.250   3.208  0.8452  0.3478 -0.0676
   13CHTO  H203 5077   7.880   3.599   1.916 -1.8180  1.3494 -1.5579
   13CHTO   O82 5078   7.944   3.667   1.908 -0.3165  0.2263  0.2025
   13CHTO  C123 5079   7.916   3.767   1.811 -0.0316  0.1744 -0.0180
   13CHTO  H227 5080   7.941   3.726   1.712  0.3230 -1.1889  0.6305
   13CHTO   O77 5081   7.765   3.782   1.822 -0.9167 -0.0939 -0.3865
   13CHTO  C118 5082   7.705   3.875   1.732 -0.1976 -0.7715 -0.5284
   13CHTO  H222 5083   7.719   3.844   1.628 -3.2306 -2.2980 -0.5235
   13CHTO  C125 5084   7.551   3.875   1.755  0.5624 -0.3762 -0.2848
   13CHTO   O84 5085   7.490   3.770   1.681 -0.5879 -0.1084  0.6305
   13CHTO  H205 5086   7.409   3.738   1.715 -0.6995 -1.1623 -0.5710
   13CHTO  C114 5087   7.762   4.017   1.765  0.0562 -0.0466 -0.3631
   13CHTO  H218 5088   7.748   4.032   1.872 -1.4846 -0.8525 -0.4368
   13CHTO  C116 5089   7.918   4.015   1.749  0.5487 -0.1987  0.7776
   13CHTO  H220 5090   7.940   3.999   1.641  1.3597  0.1314  0.8944
   13CHTO   O79 5091   7.960   4.148   1.778  0.1539  0.1359  0.3099
   13CHTO  H201 5092   7.929   4.173   1.863  0.9142  0.4120  0.5123
   13CHTO  C120 5093   7.983   3.906   1.846  0.0572  0.0208  0.1889
   13CHTO  H224 5094   7.959   3.925   1.952  1.0817  0.8399  0.2746
   13CHTO   N21 5095   8.133   3.890   1.826  0.5183  0.2444 -0.5935
   13CHTO  H211 5096   8.161   3.789   1.850 -2.6075 -0.7815 -1.0312
   13CHTO  H212 5097   8.184   3.964   1.887  1.3745  0.9082 -2.0860
   13CHTO   O75 5098   7.679   4.111   1.695 -0.1141 -0.0176  0.1058
   13CHTO  C112 5099   7.635   4.250   1.786  0.5098 -0.1769 -0.3504
   13CHTO  H216 5100   7.723   4.280   1.845  1.2293  0.0841 -1.5434
   13CHTO   O73 5101   7.525   4.217   1.874 -0.0783 -0.2560 -0.4092
   13CHTO  C113 5102   7.462   4.317   1.950 -0.7248 -0.2662 -0.1488
   13CHTO  H217 5103   7.528   4.379   2.014 -0.7811 -0.4211  0.0595
   13CHTO  C124 5104   7.357   4.257   2.041 -0.2071 -0.0205  0.1243
   13CHTO   O83 5105   7.234   4.225   1.971 -0.5005 -0.0380 -0.2520
   13CHTO  H204 5106   7.200   4.300   1.926 -0.1254  1.3763  1.7520
   13CHTO  C109 5107   7.398   4.420   1.851 -0.2735 -0.1807 -0.1667
   13CHTO  H213 5108   7.332   4.363   1.783  0.6887 -0.0695 -1.2255
   13CHTO  C110 5109   7.509   4.484   1.759  0.3590  0.2618  0.2473
   13CHTO  H214 5110   7.574   4.543   1.823  1.6140  0.7732 -1.4721
   13CHTO   O78 5111   7.456   4.581   1.670 -0.3692  0.0569 -0.2906
   13CHTO  H200 5112   7.408   4.652   1.708  1.2316  0.6828  0.6268
   13CHTO  C111 5113   7.589   4.368   1.685 -0.0837  0.3697 -0.8657
   13CHTO  H215 5114   7.523   4.316   1.613  0.0083  1.5297 -1.7850
   13CHTO   N19 5115   7.704   4.406   1.607 -0.3269  0.2272 -0.5324
   13CHTO  H207 5116   7.764   4.472   1.668 -0.9502 -1.5613  2.0734
   13CHTO  H208 5117   7.684   4.456   1.513  3.7150 -0.4100 -1.8379
   13CHTO   O74 5118   7.319   4.521   1.927 -0.0933  0.0273  0.0552
   13CHTO  C115 5119   7.189   4.594   1.849 -0.5357 -0.2863  0.0757
   13CHTO  H219 5120   7.221   4.683   1.794 -0.9872 -0.2982 -0.2098
   13CHTO   O76 5121   7.123   4.496   1.734  0.1176 -0.2886  0.0616
   13CHTO  C122 5122   7.017   4.401   1.774 -0.4505  0.2947  0.2523
   13CHTO  H226 5123   7.067   4.305   1.787  0.6127  1.1931  3.0679
   13CHTO  C126 5124   6.924   4.380   1.650  0.1890  0.1863  0.1786
   13CHTO   O85 5125   6.860   4.498   1.598 -0.8198 -0.5325  0.4752
   13CHTO  H206 5126   6.785   4.528   1.646 -0.9188  1.6734 -0.9747
   13CHTO  C121 5127   6.932   4.443   1.903  0.4104 -0.1630  0.0854
   13CHTO  H225 5128   6.824   4.420   1.892  0.4824 -0.7023  0.4775
   13CHTO   O81 5129   6.974   4.361   2.013 -0.2903  0.1883 -0.3018
   13CHTO  H202 5130   6.897   4.342   2.064  0.7727  0.0318  1.2795
   13CHTO  C119 5131   6.946   4.602   1.925  0.0039 -0.2125  0.3573
   13CHTO  H223 5132   6.926   4.647   1.828  0.2768 -0.1790  0.3181
   13CHTO  C117 5133   7.093   4.635   1.966  0.4011 -0.0862 -1.0849
   13CHTO  H221 5134   7.125   4.581   2.056  1.3880  0.4554 -1.1062
   13CHTO   N20 5135   7.103   4.777   2.000  0.4746  0.2019  0.0098
   13CHTO  H209 5136   7.189   4.817   1.948  1.4864 -1.2782  0.5055
   13CHTO  H210 5137   7.114   4.796   2.105  1.5136  0.1228 -0.0766
   13CHTO   O80 5138   6.823   4.666   2.018  0.1024  0.3040 -0.4365
   13CHTO  C103 5139   6.673   4.716   1.941  0.9903  0.0981 -0.4333
   13CHTO  H190 5140   6.624   4.782   2.013  1.8091 -1.5837  1.7570
   13CHTO  C101 5141   6.678   4.785   1.805 -0.4016 -0.1172  0.4353
   13CHTO  H188 5142   6.746   4.727   1.743 -1.0520  1.0068 -1.3536
   13CHTO   O68 5143   6.758   4.914   1.835  0.8417 -0.5306 -0.4691
   13CHTO  H168 5144   6.844   4.907   1.800  0.5332  0.1658 -1.3982
   13CHTO   C99 5145   6.533   4.802   1.730  1.0617  0.0623  0.5995
   13CHTO  H186 5146   6.476   4.873   1.794 -0.8213 -0.2081 -0.7287
   13CHTO   N17 5147   6.533   4.867   1.593 -0.3356 -0.1921  0.1356
   13CHTO  H174 5148   6.434   4.907   1.572  0.3436  1.0865 -0.6844
   13CHTO  H175 5149   6.569   4.791   1.525 -1.0927  0.3815 -0.9281
   13CHTO   C97 5150   6.459   4.670   1.730 -0.5209  0.7777 -0.4637
   13CHTO  H184 5151   6.493   4.599   1.653 -1.2388 -0.6044  0.4669
   13CHTO   O64 5152   6.462   4.611   1.862  0.3036  0.0044  0.1968
   13CHTO  C104 5153   6.587   4.584   1.914  0.9123  0.0037  0.1237
   13CHTO  H191 5154   6.636   4.523   1.838 -0.2811 -1.2157  0.3202
   13CHTO  C108 5155   6.570   4.500   2.040  0.1431 -0.1910 -0.8680
   13CHTO   O71 5156   6.509   4.378   2.014  0.1312 -0.1283 -0.0180
   13CHTO  H171 5157   6.570   4.308   2.024  0.5791  0.1556 -0.7355
   13CHTO   O62 5158   6.318   4.684   1.719  0.6118  0.3961 -0.1525
   13CHTO   C91 5159   6.247   4.575   1.657  0.2189  0.8492  0.4652
   13CHTO  H178 5160   6.312   4.488   1.644  0.5185  1.2960 -1.2258
   13CHTO   C92 5161   6.221   4.606   1.505  0.1943 -0.0720 -0.5379
   13CHTO  H179 5162   6.182   4.709   1.498 -0.5273 -0.1062  2.3413
   13CHTO   O66 5163   6.342   4.605   1.430 -0.3709  0.2206  0.2824
   13CHTO  H166 5164   6.382   4.690   1.432 -0.4677  0.2340  1.7382
   13CHTO   C93 5165   6.113   4.516   1.436 -0.5504 -0.6082 -0.4332
   13CHTO  H180 5166   6.166   4.420   1.423  0.6759  0.1694 -1.3120
   13CHTO   N16 5167   6.070   4.564   1.301 -0.0741  0.1068 -0.1005
   13CHTO  H172 5168   6.159   4.600   1.252 -0.7251  2.4392  0.3555
   13CHTO  H173 5169   6.006   4.650   1.320  1.6098  1.3340  0.1304
   13CHTO   C94 5170   5.986   4.495   1.522  0.2760 -0.2930  0.1213
   13CHTO  H181 5171   5.939   4.590   1.546 -0.3369 -0.1088 -1.6984
   13CHTO   O61 5172   6.031   4.435   1.647 -0.2579 -0.1342 -0.0330
   13CHTO   C95 5173   6.112   4.526   1.727  0.1658 -0.1311  0.6086
   13CHTO  H182 5174   6.050   4.612   1.751 -0.9622 -1.1868  1.5865
   13CHTO  C106 5175   6.142   4.473   1.870  0.1298  0.8081  0.0630
   13CHTO   O69 5176   6.203   4.349   1.845 -0.0296 -0.7569 -0.2472
   13CHTO  H169 5177   6.154   4.273   1.872 -0.2227 -0.2583  0.8238
   13CHTO   O63 5178   5.862   4.401   1.453  0.7890 -0.0416  0.6537
   13CHTO   C96 5179   5.721   4.380   1.555 -0.2814  0.0126  0.2391
   13CHTO  H183 5180   5.629   4.376   1.497 -1.8944  2.0639  2.5987
   13CHTO   C98 5181   5.696   4.499   1.650 -0.7726 -0.2427 -0.2517
   13CHTO  H185 5182   5.786   4.528   1.706  1.0182 -2.1646 -2.0360
   13CHTO   O67 5183   5.671   4.604   1.557  0.2674 -0.3678 -0.9199
   13CHTO  H167 5184   5.618   4.669   1.601  2.0806  0.5035  0.0107
   13CHTO  C102 5185   5.567   4.469   1.741 -0.0829  1.0242  0.3785
   13CHTO  H189 5186   5.486   4.456   1.668 -1.6173  1.3250  1.9784
   13CHTO   N18 5187   5.525   4.581   1.829  0.3965 -0.2916 -0.4692
   13CHTO  H176 5188   5.467   4.659   1.782 -1.6763 -0.0187  2.4153
   13CHTO  H177 5189   5.606   4.624   1.887  0.4896  1.0104 -1.5350
   13CHTO  C105 5190   5.590   4.337   1.816 -0.0349 -0.4729  0.5337
   13CHTO  H192 5191   5.674   4.349   1.884  0.4501  0.9071 -0.2919
   13CHTO   O65 5192   5.629   4.231   1.727 -0.4979 -0.2474 -0.1732
   13CHTO  C100 5193   5.739   4.248   1.633  0.4110  0.3933 -0.1207
   13CHTO  H187 5194   5.832   4.257   1.691  0.8158 -0.8407 -0.5689
   13CHTO  C107 5195   5.742   4.126   1.539 -0.6429 -0.1139  0.4170
   13CHTO   O70 5196   5.621   4.072   1.480 -0.4709  0.2813 -0.0085
   13CHTO  H170 5197   5.577   4.021   1.544 -0.4347  1.2065  0.7577
   13CHTO   O57 5198   5.443   4.294   1.906 -0.2050  0.4142 -0.3475
   13CHTO   C85 5199   5.330   4.242   1.837 -0.7963  0.5116 -0.1905
   13CHTO  H157 5200   5.364   4.207   1.737  1.8503  0.6070  0.6258
   13CHTO   C83 5201   5.220   4.348   1.811 -0.6347 -0.0187 -0.0078
   13CHTO  H155 5202   5.273   4.427   1.758 -1.2967  0.2278 -0.2993
   13CHTO   O56 5203   5.165   4.408   1.930  0.0442 -0.2660 -0.5333
   13CHTO  H135 5204   5.220   4.472   1.970  0.9796 -2.4584  1.8111
   13CHTO   C81 5205   5.107   4.286   1.724 -0.2710 -0.4344 -0.2336
   13CHTO  H153 5206   5.147   4.248   1.630 -0.4280 -1.4546  0.1104
   13CHTO   N14 5207   5.012   4.396   1.678  0.2931 -0.0764 -0.4510
   13CHTO  H141 5208   4.942   4.368   1.602  1.6266  1.3177 -2.2246
   13CHTO  H142 5209   4.961   4.438   1.761  1.4070  1.5963 -0.5838
   13CHTO   C79 5210   5.034   4.172   1.808  0.5563 -0.0849  0.9628
   13CHTO  H151 5211   4.974   4.116   1.736 -0.8213 -0.6232  2.5144
   13CHTO   O52 5212   5.137   4.077   1.842 -0.2863 -0.0427 -0.4599
   13CHTO   C86 5213   5.257   4.128   1.916  0.3193  0.0097  0.7086
   13CHTO  H158 5214   5.216   4.165   2.012  0.3771  0.5281  0.5320
   13CHTO   C90 5215   5.346   4.002   1.952 -0.5133 -0.7828 -0.7343
   13CHTO   O60 5216   5.460   4.032   2.029 -0.6827  0.2003  0.5052
   13CHTO  H138 5217   5.439   4.061   2.116 -0.8611 -0.8747  0.8340
   13CHTO   O50 5218   4.953   4.206   1.920  0.0467  0.0477 -0.2902
   13CHTO   C73 5219   4.818   4.154   1.949  0.0303 -0.7916 -0.2932
   13CHTO  H145 5220   4.783   4.083   1.872  1.3560 -0.5914 -1.0943
   13CHTO   C74 5221   4.721   4.272   1.960 -0.3498 -0.4017  0.5632
   13CHTO  H146 5222   4.715   4.320   1.861  1.2280  1.2674  1.2439
   13CHTO   O54 5223   4.589   4.222   1.974 -0.1084 -0.5751 -0.2536
   13CHTO  H133 5224   4.582   4.200   2.065  0.8161 -3.0471 -0.7497
   13CHTO   C75 5225   4.760   4.377   2.072 -0.6532  0.2938 -0.3359
   13CHTO  H147 5226   4.854   4.429   2.046 -0.2766 -0.0172  0.3732
   13CHTO   N13 5227   4.668   4.493   2.087  0.6491  0.1440  0.7324
   13CHTO  H139 5228   4.710   4.578   2.139  0.7358  1.1964 -1.0015
   13CHTO  H140 5229   4.583   4.461   2.145  1.0048 -2.1374  0.0425
   13CHTO   C76 5230   4.782   4.290   2.207 -0.0154  0.6798  0.5363
   13CHTO  H148 5231   4.688   4.249   2.243  0.7525 -1.7480 -0.1429
   13CHTO   O49 5232   4.874   4.175   2.188  0.3743  0.3677  0.3427
   13CHTO   C77 5233   4.828   4.088   2.082  0.2934  0.4564 -0.1316
   13CHTO  H149 5234   4.731   4.055   2.119  1.1643 -1.0943  0.8011
   13CHTO   C88 5235   4.916   3.960   2.080 -0.3655 -0.4630  0.1524
   13CHTO   O58 5236   4.876   3.870   1.961 -0.4053  0.0436  0.4932
   13CHTO  H136 5237   4.885   3.780   1.986 -1.8344 -0.3258 -0.2492
   13CHTO   O51 5238   4.857   4.378   2.332  0.1950  0.2141  0.6152
   13CHTO   C78 5239   5.014   4.424   2.332 -0.3573  0.2213  0.3930
   13CHTO  H150 5240   5.029   4.474   2.430  0.3563  1.0805 -0.1474
   13CHTO   C80 5241   5.049   4.525   2.218  0.5986 -0.2128 -0.3244
   13CHTO  H152 5242   5.030   4.479   2.119  0.6087 -1.9320  0.4622
   13CHTO   O55 5243   4.957   4.642   2.238 -0.1584  0.0325  0.0216
   13CHTO  H134 5244   4.967   4.704   2.168 -2.2464  2.4182  1.7440
   13CHTO   C84 5245   5.194   4.582   2.223  0.9106 -0.1988  0.2268
   13CHTO  H156 5246   5.200   4.626   2.323 -0.1159 -0.5590  0.4567
   13CHTO   N15 5247   5.226   4.690   2.122  0.4255  0.1214  0.0091
   13CHTO  H143 5248   5.169   4.675   2.033 -0.4332  0.4941  0.4798
   13CHTO  H144 5249   5.190   4.779   2.171  0.4212 -1.0575  2.2373
   13CHTO   C87 5250   5.301   4.467   2.212  0.0593 -0.4335  0.1836
   13CHTO  H159 5251   5.312   4.422   2.113  2.4394  0.6563 -0.0668
   13CHTO   O53 5252   5.249   4.347   2.327  0.2355 -0.5359  0.5221
   13CHTO   C82 5253   5.113   4.307   2.316  0.1419  0.1832 -0.1042
   13CHTO  H154 5254   5.094   4.260   2.220 -0.1914  0.7260 -0.3032
   13CHTO   C89 5255   5.090   4.204   2.430 -0.0448 -0.0786 -0.3068
   13CHTO   O59 5256   5.151   4.074   2.410  0.0642  0.1642 -0.4819
   13CHTO  H137 5257   5.094   4.011   2.370 -1.4068  1.3081 -0.2225
   13CHTO   O45 5258   5.452   4.506   2.256 -0.5550  0.5879 -0.3255
   13CHTO   C67 5259   5.535   4.395   2.240 -0.4293  0.4590  0.2552
   13CHTO  H124 5260   5.490   4.307   2.193 -1.7219  0.4298  1.5089
   13CHTO   C65 5261   5.667   4.430   2.162  0.3202  0.3765 -0.0313
   13CHTO  H122 5262   5.630   4.486   2.075  1.0629  0.1459 -0.4984
   13CHTO   O44 5263   5.738   4.312   2.117 -0.0037  0.0509  0.5461
   13CHTO  H102 5264   5.827   4.323   2.090  0.6706 -1.8138  1.8971
   13CHTO   C63 5265   5.752   4.540   2.242 -0.1655  0.4400 -0.7784
   13CHTO  H120 5266   5.687   4.625   2.264  1.1809  1.1639  0.5109
   13CHTO   N11 5267   5.862   4.599   2.166  0.6112  0.0719  0.3283
   13CHTO  H108 5268   5.888   4.692   2.212 -0.3494 -0.1244  1.2801
   13CHTO  H109 5269   5.850   4.600   2.059  0.7281  1.3142  0.3129
   13CHTO   C61 5270   5.779   4.483   2.387  0.8658 -0.5336  0.0089
   13CHTO  H118 5271   5.807   4.575   2.441 -0.4165 -1.2018  1.8519
   13CHTO   O40 5272   5.662   4.438   2.453 -0.3202 -0.1224  0.8086
   13CHTO   C68 5273   5.579   4.339   2.389 -0.6823  0.4245 -0.8392
   13CHTO  H125 5274   5.491   4.338   2.456  0.9468 -3.3098  1.4087
   13CHTO   C72 5275   5.634   4.193   2.391  0.1287 -0.1758  0.6308
   13CHTO   O48 5276   5.544   4.096   2.339 -0.3280  0.2752 -0.2467
   13CHTO  H105 5277   5.557   4.015   2.385 -0.1509  0.0312 -0.7300
   13CHTO   O38 5278   5.891   4.392   2.391  0.9277 -0.2051 -0.1483
   13CHTO   C55 5279   5.989   4.388   2.497 -0.7866 -0.3742  0.3472
   13CHTO  H112 5280   6.028   4.285   2.503  2.4969  0.7378 -0.4311
   13CHTO   C56 5281   5.933   4.439   2.641 -0.3136 -0.3061  0.7183
   13CHTO  H113 5282   5.879   4.534   2.627 -0.9514 -0.9101 -1.0590
   13CHTO   O42 5283   5.842   4.346   2.684 -0.4595  0.3315  0.2482
   13CHTO  H100 5284   5.822   4.378   2.770  0.2486  1.9954 -0.1819
   13CHTO   C57 5285   6.055   4.454   2.741  0.5446 -0.5727  0.1794
   13CHTO  H114 5286   6.079   4.351   2.767 -0.2906 -0.9248 -0.4221
   13CHTO   N10 5287   6.027   4.523   2.868  0.4795  0.0712 -0.0780
   13CHTO  H106 5288   5.924   4.526   2.900  0.6680  1.9313  0.4024
   13CHTO  H107 5289   6.090   4.490   2.949  1.5100  0.1455 -0.8444
   13CHTO   C58 5290   6.176   4.521   2.676 -1.0882 -0.4225  0.4495
   13CHTO  H115 5291   6.154   4.629   2.669 -1.8871 -0.6547 -0.8182
   13CHTO   O37 5292   6.211   4.459   2.555  0.0118 -0.1812  0.9757
   13CHTO   C59 5293   6.114   4.475   2.451  0.1043  0.0020 -0.4150
   13CHTO  H116 5294   6.092   4.581   2.440 -1.7488 -0.0789  2.1966
   13CHTO   C70 5295   6.183   4.423   2.323  0.3052 -0.1601  0.2782
   13CHTO   O46 5296   6.226   4.285   2.330 -0.0031 -0.8753 -0.8704
   13CHTO  H103 5297   6.304   4.283   2.277 -0.1192 -0.1106 -1.0805
   13CHTO   O39 5298   6.307   4.497   2.776 -0.4547 -0.0798  0.0622
   13CHTO   C60 5299   6.396   4.605   2.781 -0.9168  0.2111 -1.1185
   13CHTO  H117 5300   6.402   4.649   2.682  3.8821  0.2402 -0.9541
   13CHTO   C62 5301   6.355   4.709   2.880 -0.2857 -0.4321 -0.1767
   13CHTO  H119 5302   6.264   4.757   2.837 -0.4154 -0.4771  0.0431
   13CHTO   O43 5303   6.331   4.642   3.001  0.1791 -0.3173  0.0323
   13CHTO  H101 5304   6.319   4.710   3.065  1.6676  1.7971 -1.8877
   13CHTO   C66 5305   6.464   4.822   2.889 -0.5678  0.0333 -0.3599
   13CHTO  H123 5306   6.486   4.856   2.788  0.3246 -2.0607 -0.9237
   13CHTO   N12 5307   6.422   4.937   2.971 -0.2166  0.0656 -0.4354
   13CHTO  H110 5308   6.504   5.006   2.977  0.7008 -1.2347  2.9781
   13CHTO  H111 5309   6.390   4.897   3.067 -1.9154 -0.5383 -1.2140
   13CHTO   C69 5310   6.599   4.771   2.945  0.1056 -0.0053  0.4268
   13CHTO  H126 5311   6.590   4.701   3.031  0.3690 -2.0235 -1.1412
   13CHTO   O41 5312   6.644   4.679   2.822  0.0730  0.2398 -0.6291
   13CHTO   C64 5313   6.550   4.561   2.804  0.0199  0.4914 -0.5549
   13CHTO  H121 5314   6.556   4.490   2.888 -0.9704 -0.5434 -1.3297
   13CHTO   C71 5315   6.605   4.484   2.680  0.5175 -0.3137 -0.0815
   13CHTO   O47 5316   6.538   4.359   2.652  0.0829 -0.1560  0.2590
   13CHTO  H104 5317   6.502   4.360   2.565  1.0728 -0.8236 -0.1744
   13CHTO   O34 5318   6.714   4.878   2.993 -0.3782 -0.3224  0.4738
   13CHTO   C49 5319   6.818   4.953   2.932 -0.5504 -1.5439 -0.3031
   13CHTO   H91 5320   6.863   4.887   2.858  2.2271 -0.3675  0.2963
   13CHTO   C47 5321   6.917   4.999   3.036 -0.8223  0.0073  0.3145
   13CHTO   H89 5322   7.003   5.041   2.979  0.2503 -2.6344 -0.0698
   13CHTO   O33 5323   6.965   4.889   3.105  0.2649 -0.6736 -0.1651
   13CHTO   H70 5324   6.981   4.888   3.197 -0.5366 -1.6432 -0.0285
   13CHTO   C45 5325   6.859   5.112   3.142  0.3450  0.6365 -0.3621
   13CHTO   H87 5326   6.835   5.062   3.237  0.0449  2.3193  0.4622
   13CHTO    N8 5327   6.956   5.218   3.176  0.0144  0.2637  0.3492
   13CHTO   H75 5328   6.981   5.275   3.088 -1.5311  0.4672  0.0337
   13CHTO   H76 5329   7.050   5.178   3.211  0.5794  1.8452  0.7155
   13CHTO   C43 5330   6.716   5.167   3.086  0.5832 -0.0121 -0.4792
   13CHTO   H85 5331   6.645   5.088   3.111 -0.8058  2.5996  4.4612
   13CHTO   O29 5332   6.730   5.192   2.944  0.1557  0.1011  0.5761
   13CHTO   C50 5333   6.756   5.075   2.867  0.1901 -0.4440 -0.8673
   13CHTO   H92 5334   6.655   5.049   2.830  0.3541 -1.5238 -0.5890
   13CHTO   C54 5335   6.839   5.119   2.744 -0.3468 -0.7330 -0.4112
   13CHTO   O36 5336   6.779   5.229   2.673 -0.1612  0.0179  0.6525
   13CHTO   H72 5337   6.848   5.269   2.623 -1.4269  1.4062 -0.0172
   13CHTO   O27 5338   6.668   5.281   3.158 -0.0583  0.8038  0.1246
   13CHTO   C37 5339   6.582   5.387   3.201 -0.0595  0.5181 -0.4170
   13CHTO   H79 5340   6.504   5.346   3.267  1.3183 -0.5620  0.5698
   13CHTO   C38 5341   6.664   5.490   3.289 -0.8030 -0.4114  0.3308
   13CHTO   H80 5342   6.759   5.511   3.238 -1.7683  0.0765 -1.3196
   13CHTO   O31 5343   6.687   5.428   3.416  0.8499 -0.0075 -0.0712
   13CHTO   H68 5344   6.608   5.423   3.466 -0.1394  0.9650 -1.5058
   13CHTO   C39 5345   6.580   5.624   3.305 -0.3334 -0.0917 -0.1153
   13CHTO   H81 5346   6.499   5.611   3.377  1.8603  2.3787  2.8949
   13CHTO    N7 5347   6.669   5.728   3.363  0.2301 -0.0010 -0.2218
   13CHTO   H73 5348   6.637   5.752   3.463 -0.7845 -0.0862 -0.5259
   13CHTO   H74 5349   6.774   5.700   3.357  0.7963  1.9798  0.0644
   13CHTO   C40 5350   6.521   5.672   3.168  0.2439  0.7623  0.2838
   13CHTO   H82 5351   6.605   5.691   3.102  0.3287  2.1115  0.7630
   13CHTO   O26 5352   6.430   5.574   3.119 -0.0905  0.1164  0.1561
   13CHTO   C41 5353   6.510   5.455   3.072 -0.3695 -0.4004  0.7779
   13CHTO   H83 5354   6.593   5.487   3.008 -0.0918  1.4867  2.0403
   13CHTO   C52 5355   6.426   5.350   2.999  0.0300 -0.3118  0.5907
   13CHTO   O35 5356   6.380   5.409   2.864  0.1811  0.0939  0.5884
   13CHTO   H71 5357   6.449   5.461   2.827  0.0665  2.5848  3.7077
   13CHTO   O28 5358   6.435   5.791   3.173  0.4710 -0.0738 -0.4292
   13CHTO   C42 5359   6.363   5.846   3.049  0.2959 -0.4335 -0.8540
   13CHTO   H84 5360   6.309   5.763   3.004 -0.2621 -0.6135  0.1515
   13CHTO   C44 5361   6.455   5.905   2.939 -0.0093  0.4921  0.5662
   13CHTO   H86 5362   6.532   5.963   2.989  3.8775 -3.7316 -0.2101
   13CHTO   O32 5363   6.512   5.793   2.871  0.0520 -0.4839 -0.3964
   13CHTO   H69 5364   6.578   5.749   2.921 -0.5838 -1.7119 -0.6322
   13CHTO   C48 5365   6.384   6.001   2.843 -0.3843  0.1658 -0.3354
   13CHTO   H90 5366   6.316   5.941   2.783 -1.6650  0.5322  0.7358
   13CHTO    N9 5367   6.479   6.072   2.746 -0.1006 -0.0271  0.1624
   13CHTO   H77 5368   6.537   6.147   2.797 -0.9656 -0.2962  1.5677
   13CHTO   H78 5369   6.542   6.000   2.697 -1.3390 -0.4100 -0.9163
   13CHTO   C51 5370   6.282   6.097   2.922  0.1890 -0.6454 -0.2287
   13CHTO   H93 5371   6.337   6.153   2.997 -2.9439  0.0595  1.6386
   13CHTO   O30 5372   6.185   6.012   2.984  0.2790 -0.1988 -0.3859
   13CHTO   C46 5373   6.253   5.950   3.099  0.4453  0.3390  0.0042
   13CHTO   H88 5374   6.295   6.026   3.165  0.5415  0.8568 -0.6498
   13CHTO   C53 5375   6.143   5.869   3.177 -0.3663  0.7886 -0.0657
   13CHTO   O72 5376   6.184   5.805   3.296 -0.6245 -0.2125  0.2726
   13CHTO  H199 5377   6.191   5.713   3.276  1.7643 -0.5049  2.1593
   13CHTO   O22 5378   6.217   6.196   2.842  0.0495  0.1023  0.8615
   13CHTO   C31 5379   6.091   6.269   2.872  0.3038  0.6122 -0.0895
   13CHTO   H59 5380   6.082   6.349   2.796 -0.4657  0.4323 -0.1959
   13CHTO   C29 5381   5.962   6.189   2.869 -0.0367  0.1202 -0.6630
   13CHTO   H57 5382   5.964   6.107   2.942  1.8938 -1.8529 -2.8573
   13CHTO   O21 5383   5.968   6.135   2.733 -0.3187  0.5849 -0.6469
   13CHTO   H37 5384   5.879   6.121   2.706  0.0332  0.4191 -1.7450
   13CHTO   C27 5385   5.835   6.270   2.894 -0.0272 -0.0069 -0.0845
   13CHTO   H55 5386   5.823   6.341   2.811  1.8184 -1.2425 -1.4733
   13CHTO    N5 5387   5.715   6.183   2.901  0.2777  0.5079 -0.0651
   13CHTO   H43 5388   5.626   6.244   2.904 -0.2521 -0.1194 -2.3804
   13CHTO   H44 5389   5.720   6.121   2.989  2.8190 -0.5401 -0.9139
   13CHTO   C25 5390   5.857   6.358   3.025 -0.9642 -0.3890 -0.0276
   13CHTO   H53 5391   5.850   6.294   3.114 -0.0739  1.0790  1.1171
   13CHTO   O17 5392   5.989   6.418   3.037 -0.1742  0.5700  0.2938
   13CHTO   C32 5393   6.104   6.338   3.011 -0.4506 -0.5781 -0.2077
   13CHTO   H60 5394   6.111   6.257   3.084  0.5067  0.2475  0.6343
   13CHTO   C36 5395   6.230   6.428   3.028 -0.1616 -0.3661 -0.2318
   13CHTO   O25 5396   6.268   6.478   3.155  0.5862  0.7411 -0.2696
   13CHTO   H40 5397   6.193   6.522   3.192  1.2442  0.4749  1.4068
   13CHTO   O15 5398   5.740   6.469   3.044 -0.2943 -0.2536  0.1400
   13CHTO   C19 5399   5.647   6.575   3.048  0.3756  0.2507  0.4452
   13CHTO   H47 5400   5.651   6.603   3.154 -0.9851 -0.2259  0.6224
   13CHTO   C20 5401   5.678   6.702   2.960 -0.2438 -0.2115  0.3113
   13CHTO   H48 5402   5.692   6.677   2.854  1.1232  0.3114  0.3539
   13CHTO   O19 5403   5.805   6.752   3.008 -0.1033  0.2881 -0.2367
   13CHTO   H35 5404   5.800   6.845   3.018 -2.0114  0.0568  1.2649
   13CHTO   C21 5405   5.566   6.809   2.967  0.1437  0.3553  0.3175
   13CHTO   H49 5406   5.560   6.851   3.067  0.6727  0.4855  0.2947
   13CHTO    N4 5407   5.592   6.914   2.863  0.0433  0.1189  0.6079
   13CHTO   H41 5408   5.594   6.873   2.763  3.2920  1.4327  0.0653
   13CHTO   H42 5409   5.515   6.989   2.877  1.4535  1.6884  0.0770
   13CHTO   C22 5410   5.430   6.737   2.950 -0.2352  0.4429  0.3962
   13CHTO   H50 5411   5.433   6.696   2.849 -0.8721  0.5333  0.3423
   13CHTO   O14 5412   5.417   6.636   3.050 -0.0329  0.0037 -0.0170
   13CHTO   C23 5413   5.501   6.524   3.028 -0.7017 -0.1378 -0.4799
   13CHTO   H51 5414   5.487   6.478   2.929  2.0707 -1.6675 -0.2109
   13CHTO   C34 5415   5.488   6.430   3.148 -0.1620  0.0405  0.4630
   13CHTO   O23 5416   5.368   6.356   3.156  0.4723 -0.0944  0.6889
   13CHTO   H38 5417   5.348   6.300   3.084 -1.7542  1.5068  0.0090
   13CHTO   O16 5418   5.326   6.832   2.965 -0.1869  0.7258 -0.2517
   13CHTO   C24 5419   5.166   6.754   2.956  0.1602 -0.5882 -0.1244
   13CHTO   H52 5420   5.143   6.692   3.043  0.9983  0.5909  0.9400
   13CHTO   C26 5421   5.140   6.672   2.828  0.4756  0.2383 -0.5397
   13CHTO   H54 5422   5.161   6.734   2.739 -0.3402  0.6983 -0.4128
   13CHTO   O20 5423   5.240   6.562   2.821 -0.1713  0.4908  0.0425
   13CHTO   H36 5424   5.327   6.590   2.842 -0.1941  0.2943  0.4130
   13CHTO   C30 5425   4.996   6.615   2.807 -0.1786  0.2168 -0.1022
   13CHTO   H58 5426   4.976   6.537   2.882  2.4857 -2.8251 -2.4259
   13CHTO    N6 5427   4.979   6.545   2.676 -0.0367 -0.4399  0.2154
   13CHTO   H45 5428   4.941   6.444   2.681  0.0454 -0.5309 -0.9577
   13CHTO   H46 5429   5.062   6.547   2.607  0.8077 -2.2301  1.1257
   13CHTO   C33 5430   4.892   6.725   2.831 -0.0626 -1.1517 -0.9181
   13CHTO   H61 5431   4.899   6.799   2.750  2.9646  0.8006  1.0000
   13CHTO   O18 5432   4.927   6.792   2.957  0.5783  0.2445  0.2402
   13CHTO   C28 5433   5.058   6.860   2.953 -0.1230  0.6249 -0.1557
   13CHTO   H56 5434   5.067   6.926   2.866 -1.0787  1.7773  0.6076
   13CHTO   C35 5435   5.063   6.954   3.073 -0.9651  0.5032 -0.2446
   13CHTO   O24 5436   4.963   7.056   3.072  0.1367  0.3712  0.3789
   13CHTO   H39 5437   4.938   7.091   3.156  0.0757  1.6236 -0.1520
   13CHTO    O9 5438   4.755   6.680   2.829 -0.3592  0.6561  0.2462
   13CHTO   C13 5439   4.714   6.565   2.943  0.6728  0.4687 -0.0632
   13CHTO   H26 5440   4.806   6.550   3.002  1.2069  1.3774 -0.6544
   13CHTO   C11 5441   4.663   6.432   2.878 -0.1785 -0.3052 -0.0746
   13CHTO   H24 5442   4.746   6.404   2.811 -1.4868 -1.5241 -1.2008
   13CHTO    O8 5443   4.550   6.473   2.798 -0.1211 -0.4005  0.2761
   13CHTO    H3 5444   4.479   6.496   2.855  1.6932  0.1327  2.4396
   13CHTO    C9 5445   4.627   6.331   2.988 -0.1632 -0.4967 -0.5125
   13CHTO   H22 5446   4.719   6.313   3.044  0.4906  2.3507 -0.5974
   13CHTO    N2 5447   4.586   6.193   2.943  0.0233  0.2898  0.0746
   13CHTO   H10 5448   4.594   6.127   3.027  0.9378  2.1219  1.4649
   13CHTO   H11 5449   4.484   6.200   2.908 -0.0598 -0.0038  0.2596
   13CHTO    C7 5450   4.527   6.396   3.091  0.0649 -0.2223 -0.9880
   13CHTO   H20 5451   4.594   6.382   3.179 -0.4164  0.2125 -0.5507
   13CHTO    O4 5452   4.501   6.533   3.078 -0.0668 -0.2158 -0.3762
   13CHTO   C14 5453   4.605   6.625   3.040  0.3288 -0.0877 -0.2024
   13CHTO   H27 5454   4.658   6.652   3.134 -2.1760  0.9230  0.9580
   13CHTO   C18 5455   4.527   6.753   2.995 -0.2325 -0.2317 -0.1709
   13CHTO   O13 5456   4.615   6.864   2.987 -0.2788  0.3822 -0.0218
   13CHTO    H7 5457   4.672   6.848   2.914 -0.7864 -0.7247 -0.1846
   13CHTO    O2 5458   4.389   6.319   3.104 -0.4468 -0.3029  0.6006
   13CHTO    C1 5459   4.314   6.323   3.229 -0.0099  0.5381  0.6089
   13CHTO   H14 5460   4.341   6.413   3.288  2.1434  1.0887 -1.1615
   13CHTO    C2 5461   4.352   6.195   3.321 -0.2993 -0.0226 -0.7413
   13CHTO   H15 5462   4.333   6.110   3.253  0.8081 -1.8572  1.1782
   13CHTO    O6 5463   4.491   6.199   3.344 -0.3853 -0.4202  0.0776
   13CHTO    H1 5464   4.530   6.284   3.351 -0.0629 -0.4811 -0.8592
   13CHTO    C3 5465   4.261   6.195   3.459  0.3202  0.7032 -0.6229
   13CHTO   H16 5466   4.295   6.278   3.523 -0.6691  0.2152  0.5663
   13CHTO    N1 5467   4.274   6.074   3.535 -0.2389  0.5870  0.0589
   13CHTO    H8 5468   4.193   6.003   3.533 -0.1951  0.5503 -0.6846
   13CHTO    H9 5469   4.370   6.023   3.537 -0.7474 -0.4553 -0.9371
   13CHTO    C4 5470   4.108   6.227   3.437  0.0180  0.4270  0.2958
   13CHTO   H17 5471   4.058   6.134   3.409  0.8277  0.0152  0.1892
   13CHTO    O1 5472   4.096   6.330   3.332  0.0836 -1.0523  0.0717
   13CHTO    C5 5473   4.164   6.327   3.209 -0.3382  0.3975 -0.5900
   13CHTO   H18 5474   4.129   6.236   3.160 -0.5485 -0.6573  1.4838
   13CHTO   C16 5475   4.130   6.448   3.126 -0.3493 -0.4489  0.8156
   13CHTO   O11 5476   3.989   6.456   3.107  0.0224 -0.0128 -0.3493
   13CHTO    H5 5477   3.958   6.544   3.111 -0.3199 -0.1425 -0.1126
   13CHTO    O3 5478   4.058   6.297   3.554  0.3566 -0.0994 -0.0025
   13CHTO    C6 5479   3.917   6.271   3.583 -0.0656  0.2781 -0.6618
   13CHTO   H19 5480   3.862   6.202   3.519  0.7391 -0.9981  0.0096
   13CHTO    C8 5481   3.908   6.213   3.722 -0.5968 -0.4636  0.3394
   13CHTO   H21 5482   3.977   6.267   3.786  0.0043 -1.6937  0.7396
   13CHTO    O7 5483   3.947   6.079   3.702 -0.3013 -0.4750  0.0629
   13CHTO    H2 5484   4.036   6.067   3.676 -0.1052  0.5143  0.2635
   13CHTO   C12 5485   3.753   6.209   3.777 -0.1985  0.0371 -0.0712
   13CHTO   H25 5486   3.701   6.130   3.720 -1.1038  0.4536  0.1758
   13CHTO    N3 5487   3.745   6.161   3.919 -0.3716  0.1729  0.0462
   13CHTO   H12 5488   3.791   6.234   3.983 -0.2657 -0.0306  0.2012
   13CHTO   H13 5489   3.799   6.068   3.929  0.4617  0.6787  0.2418
   13CHTO   C15 5490   3.679   6.343   3.750 -0.6127  0.1758 -0.2103
   13CHTO   H28 5491   3.717   6.416   3.822 -0.4388  1.5806 -1.6920
   13CHTO   O10 5492   3.525   6.356   3.763 -0.2209  0.3965 -0.3632
   13CHTO    H4 5493   3.489   6.270   3.760  2.0629 -0.5366 -2.3677
   13CHTO    O5 5494   3.697   6.384   3.617  0.2183  0.3274 -0.0595
   13CHTO   C10 5495   3.835   6.407   3.584 -0.3560 -0.1388 -0.2721
   13CHTO   H23 5496   3.878   6.477   3.655 -2.3381 -0.2774  1.1098
   13CHTO   C17 5497   3.828   6.482   3.450  0.0806 -0.1714 -0.1064
   13CHTO   O12 5498   3.766   6.413   3.346 -0.6072  0.1663 -0.1064
   13CHTO    H6 5499   3.710   6.471   3.298 -1.4863 -1.2718 -0.8813
   14CHTO  H203 5500   6.531   3.978   0.039 -0.9456 -1.5529 -0.4815
   14CHTO   O82 5501   6.550   3.969  -0.052  0.1774 -0.1353 -0.4036
   14CHTO  C123 5502   6.450   4.027  -0.139  0.0834 -0.9747 -0.3919
   14CHTO  H227 5503   6.485   4.128  -0.165 -0.2670 -0.2157  2.0360
   14CHTO   O77 5504   6.440   3.937  -0.255  0.3842 -0.8502  0.6747
   14CHTO  C118 5505   6.356   3.985  -0.363 -0.2211  0.0791  0.3758
   14CHTO  H222 5506   6.380   4.090  -0.386 -0.3080  0.1063  0.4080
   14CHTO  C125 5507   6.374   3.896  -0.498 -0.1526 -0.2486 -0.0755
   14CHTO   O84 5508   6.347   3.759  -0.471  0.5764 -0.3266  0.1484
   14CHTO  H205 5509   6.257   3.740  -0.455  0.7642 -0.6942  0.8181
   14CHTO  C114 5510   6.213   3.989  -0.314 -0.7015 -0.9525 -0.5376
   14CHTO  H218 5511   6.182   3.895  -0.270  1.2706 -1.4617 -0.2066
   14CHTO  C116 5512   6.197   4.089  -0.196 -0.3490  0.1872  0.2871
   14CHTO  H220 5513   6.212   4.194  -0.228 -2.9861  0.2616 -0.7680
   14CHTO   O79 5514   6.065   4.077  -0.145 -0.7035 -0.2618 -0.0941
   14CHTO  H201 5515   6.026   3.993  -0.162 -0.2172 -0.4114 -0.4868
   14CHTO  C120 5516   6.302   4.047  -0.085 -0.7272 -0.3401 -0.2863
   14CHTO  H224 5517   6.255   3.953  -0.051 -1.6746 -0.8108 -2.7554
   14CHTO   N21 5518   6.307   4.144   0.029 -0.2037  0.1656 -0.0371
   14CHTO  H211 5519   6.317   4.241  -0.016 -0.1750 -0.4693 -1.4323
   14CHTO  H212 5520   6.388   4.122   0.096  1.4126  2.1448 -1.2947
   14CHTO   O75 5521   6.132   4.027  -0.437 -0.7692 -0.0378  0.2038
   14CHTO  C112 5522   5.967   3.950  -0.455 -0.4589  0.4057  0.3630
   14CHTO  H216 5523   5.891   4.016  -0.410  1.3574  1.2913  2.2213
   14CHTO   O73 5524   5.966   3.818  -0.393 -0.0306  0.3116 -0.1172
   14CHTO  C113 5525   5.838   3.749  -0.393  0.0614 -0.1410  0.3011
   14CHTO  H217 5526   5.759   3.813  -0.349 -0.0136  0.5883 -0.8850
   14CHTO  C124 5527   5.852   3.616  -0.316 -0.3184 -0.3161 -0.4089
   14CHTO   O83 5528   5.868   3.636  -0.176  0.4085 -0.4380  0.0769
   14CHTO  H204 5529   5.837   3.558  -0.134  0.0242 -0.6635 -0.6210
   14CHTO  C109 5530   5.815   3.716  -0.546 -0.0538  0.7178  0.1964
   14CHTO  H213 5531   5.896   3.646  -0.571 -0.3293 -0.0019  1.2841
   14CHTO  C110 5532   5.813   3.844  -0.631 -0.9379  0.2074  0.1972
   14CHTO  H214 5533   5.733   3.912  -0.602 -0.9997 -0.5747  1.9487
   14CHTO   O78 5534   5.792   3.803  -0.771 -0.5408 -0.0786  0.2876
   14CHTO  H200 5535   5.704   3.773  -0.782 -1.2295  1.7579  0.7236
   14CHTO  C111 5536   5.944   3.926  -0.614 -0.4537  0.6007 -0.1897
   14CHTO  H215 5537   6.030   3.869  -0.652 -0.1460  0.5336  0.6072
   14CHTO   N19 5538   5.948   4.060  -0.679 -0.7134  0.0700  0.8218
   14CHTO  H207 5539   5.865   4.120  -0.645 -1.7670 -0.3158 -1.0182
   14CHTO  H208 5540   6.047   4.101  -0.664  0.7693 -3.0607  0.0793
   14CHTO   O74 5541   5.686   3.638  -0.559  0.2684  0.2446 -0.5463
   14CHTO  C115 5542   5.690   3.536  -0.675 -0.1667 -0.5245 -0.2276
   14CHTO  H219 5543   5.767   3.563  -0.747  2.0895 -0.0052  2.2755
   14CHTO   O76 5544   5.715   3.385  -0.630 -0.4994  0.5770  0.2497
   14CHTO  C122 5545   5.620   3.326  -0.539 -0.0906  0.3916 -0.1776
   14CHTO  H226 5546   5.678   3.346  -0.449 -1.6509  2.8299  0.3136
   14CHTO  C126 5547   5.618   3.165  -0.548  0.1700 -0.6414  0.1969
   14CHTO   O85 5548   5.519   3.093  -0.469  0.1289 -0.5922  0.5278
   14CHTO  H206 5549   5.534   3.001  -0.481  2.6609  0.2143 -3.7036
   14CHTO  C121 5550   5.483   3.388  -0.545 -0.3803  0.8378  0.5950
   14CHTO  H225 5551   5.400   3.321  -0.515 -1.2748  0.8015 -1.8050
   14CHTO   O81 5552   5.470   3.494  -0.454 -0.5106 -0.1458  0.1232
   14CHTO  H202 5553   5.396   3.545  -0.480 -0.1994  0.2069 -0.0719
   14CHTO  C119 5554   5.447   3.441  -0.690 -0.2172  0.4543 -0.0550
   14CHTO  H223 5555   5.444   3.345  -0.740 -0.0309  0.2431  0.3348
   14CHTO  C117 5556   5.552   3.536  -0.755  0.5946 -0.2057  0.4556
   14CHTO  H221 5557   5.518   3.639  -0.759 -0.8463 -0.7324 -2.8007
   14CHTO   N20 5558   5.565   3.509  -0.899 -0.4235 -0.4763 -0.6902
   14CHTO  H209 5559   5.601   3.408  -0.917  0.7918 -0.1198 -0.2358
   14CHTO  H210 5560   5.629   3.591  -0.928  0.2988 -0.6059  0.5126
   14CHTO   O80 5561   5.287   3.483  -0.700 -0.2623  0.6296 -0.0996
   14CHTO  C103 5562   5.203   3.421  -0.820 -0.3098  0.2371 -0.6882
   14CHTO  H190 5563   5.272   3.397  -0.901  1.2196  1.3776  0.2639
   14CHTO  C101 5564   5.103   3.301  -0.801  0.7403 -0.3628 -0.1056
   14CHTO  H188 5565   5.038   3.326  -0.717 -1.2523 -1.1199 -1.3982
   14CHTO   O68 5566   5.183   3.165  -0.758 -0.0433 -0.1714 -0.0968
   14CHTO  H168 5567   5.122   3.093  -0.764  0.0310 -0.5482  3.0851
   14CHTO   C99 5568   5.014   3.278  -0.931  0.7995 -0.4201 -0.4222
   14CHTO  H186 5569   5.071   3.248  -1.021  0.9290 -1.5654  0.0348
   14CHTO   N17 5570   4.911   3.174  -0.912  0.5102  0.0547 -0.1720
   14CHTO  H174 5571   4.960   3.078  -0.903 -0.0552 -0.0684  1.9925
   14CHTO  H175 5572   4.848   3.176  -1.000 -0.2469  0.7415  0.3710
   14CHTO   C97 5573   4.945   3.409  -0.965  0.7755 -0.1900  0.2226
   14CHTO  H184 5574   4.867   3.435  -0.892 -0.0884 -1.2192 -0.3096
   14CHTO   O64 5575   5.042   3.511  -0.979  0.2317 -0.1497 -0.5452
   14CHTO  C104 5576   5.123   3.544  -0.867 -0.3910  0.0365  0.3392
   14CHTO  H191 5577   5.065   3.580  -0.782 -0.4506  1.5557 -0.3233
   14CHTO  C108 5578   5.218   3.658  -0.911 -0.3058 -0.2555 -0.0895
   14CHTO   O71 5579   5.138   3.776  -0.931 -0.7221  0.0353 -0.0710
   14CHTO  H171 5580   5.109   3.792  -1.019  0.7352  0.5833 -0.4711
   14CHTO   O62 5581   4.888   3.418  -1.096  0.1833 -0.0024  0.2600
   14CHTO   C91 5582   4.742   3.420  -1.106  0.0361  0.0846 -1.3990
   14CHTO  H178 5583   4.708   3.317  -1.095  2.0750 -0.5357 -0.6858
   14CHTO   C92 5584   4.709   3.453  -1.251  0.2604  0.2083  0.2582
   14CHTO  H179 5585   4.766   3.393  -1.323 -0.0453  1.0660 -0.7104
   14CHTO   O66 5586   4.576   3.411  -1.275  0.1316 -0.7136  0.2704
   14CHTO  H166 5587   4.513   3.459  -1.224  1.8534  1.6597  0.2356
   14CHTO   C93 5588   4.715   3.604  -1.288  0.2081  0.1759  0.0488
   14CHTO  H180 5589   4.662   3.615  -1.384  0.4182 -0.9037 -0.1957
   14CHTO   N16 5590   4.852   3.654  -1.308  0.3859 -0.4662  0.1100
   14CHTO  H172 5591   4.911   3.647  -1.217  0.5735  0.3218  0.0457
   14CHTO  H173 5592   4.855   3.748  -1.360  2.5632  0.5128  1.8831
   14CHTO   C94 5593   4.636   3.686  -1.178  0.0251  0.0424 -0.5264
   14CHTO  H181 5594   4.702   3.758  -1.129  1.4249 -0.3017 -1.8700
   14CHTO   O61 5595   4.577   3.609  -1.073 -0.1356 -0.6945 -0.1331
   14CHTO   C95 5596   4.668   3.518  -1.010 -0.2238 -0.0069 -0.0027
   14CHTO  H182 5597   4.747   3.574  -0.960 -1.0446  2.1795 -1.0822
   14CHTO  C106 5598   4.591   3.429  -0.901  0.4584 -0.3805 -0.2271
   14CHTO   O69 5599   4.567   3.503  -0.783 -0.2185 -0.5690 -0.7981
   14CHTO  H169 5600   4.538   3.447  -0.713  2.7640 -0.6914  0.4066
   14CHTO   O63 5601   4.522   3.761  -1.259  0.5850  0.1192 -1.1315
   14CHTO   C96 5602   4.531   3.917  -1.267  0.2023  0.6794  0.2455
   14CHTO  H183 5603   4.439   3.959  -1.308  1.7053  3.0406 -0.8688
   14CHTO   C98 5604   4.647   3.969  -1.357 -0.4534  0.1392 -0.3824
   14CHTO  H185 5605   4.742   3.920  -1.330 -0.2584  0.3976 -0.5931
   14CHTO   O67 5606   4.623   3.923  -1.492  0.3068  0.7217  0.3369
   14CHTO  H167 5607   4.593   3.834  -1.498 -2.0769  1.4715  0.5273
   14CHTO  C102 5608   4.671   4.130  -1.357  0.1472 -0.2545 -0.6240
   14CHTO  H189 5609   4.596   4.177  -1.422  0.5795  2.6705  0.9120
   14CHTO   N18 5610   4.800   4.170  -1.418 -0.2042  0.0190  0.3977
   14CHTO  H176 5611   4.795   4.277  -1.419  0.5452  0.0541  0.6605
   14CHTO  H177 5612   4.807   4.125  -1.516  0.4576 -1.2076  0.9919
   14CHTO  C105 5613   4.667   4.177  -1.209 -0.4575 -0.0968 -0.3214
   14CHTO  H192 5614   4.754   4.141  -1.155 -1.5269  1.5352  2.5990
   14CHTO   O65 5615   4.555   4.134  -1.128 -0.4756 -0.4264  0.0049
   14CHTO  C100 5616   4.563   3.986  -1.124  0.3602  0.3830 -0.0293
   14CHTO  H187 5617   4.665   3.962  -1.089  0.9364 -1.2701 -2.7514
   14CHTO  C107 5618   4.459   3.950  -1.018 -0.0987 -0.4244  0.3184
   14CHTO   O70 5619   4.464   3.817  -0.965  0.5879  0.2877  0.1615
   14CHTO  H170 5620   4.517   3.814  -0.888  1.9028 -0.9651 -0.7524
   14CHTO   O57 5621   4.670   4.332  -1.201  0.1365  0.2911  0.3886
   14CHTO   C85 5622   4.566   4.423  -1.241  0.1728  0.7915  0.2291
   14CHTO  H157 5623   4.487   4.368  -1.295 -1.0726  1.0200  1.7939
   14CHTO   C83 5624   4.628   4.516  -1.345  0.2641 -0.5301  0.7274
   14CHTO  H155 5625   4.653   4.454  -1.431 -0.3620  0.6210 -0.2892
   14CHTO   O56 5626   4.753   4.570  -1.301 -0.4523  0.1162 -0.0718
   14CHTO  H135 5627   4.791   4.615  -1.374  1.6183  0.6579  1.2734
   14CHTO   C81 5628   4.537   4.626  -1.392  0.4712 -0.2155 -0.2878
   14CHTO  H153 5629   4.444   4.584  -1.432 -0.3716  1.2521  0.1043
   14CHTO   N14 5630   4.589   4.702  -1.508 -0.1265 -0.5236  0.1952
   14CHTO  H141 5631   4.518   4.750  -1.572  1.8076 -0.6406 -2.1080
   14CHTO  H142 5632   4.674   4.763  -1.485 -1.0707  0.1236  1.9761
   14CHTO   C79 5633   4.498   4.713  -1.265 -0.1956  0.7167 -0.6611
   14CHTO  H151 5634   4.427   4.787  -1.299  0.1346  2.0470  1.4367
   14CHTO   O52 5635   4.428   4.632  -1.164  0.2302  0.5955 -0.8687
   14CHTO   C86 5636   4.502   4.514  -1.121 -0.1531  0.3297  1.4759
   14CHTO  H158 5637   4.572   4.550  -1.043  1.9634 -1.2666  0.3672
   14CHTO   C90 5638   4.403   4.422  -1.055 -0.0411 -0.4146 -0.4258
   14CHTO   O60 5639   4.345   4.491  -0.942 -0.1076  0.0007  0.0269
   14CHTO  H138 5640   4.288   4.561  -0.967 -0.5668 -1.4088 -3.1561
   14CHTO   O50 5641   4.614   4.776  -1.203  0.4763  0.5426  0.0630
   14CHTO   C73 5642   4.653   4.893  -1.132 -0.6743  0.2691 -1.1658
   14CHTO  H145 5643   4.583   4.911  -1.049 -0.4567 -3.0018 -0.2220
   14CHTO   C74 5644   4.668   5.017  -1.230  0.0689  0.0067 -0.2795
   14CHTO  H146 5645   4.568   5.019  -1.275  0.0110  1.0210 -0.1115
   14CHTO   O54 5646   4.703   5.130  -1.156 -0.1760 -0.2529 -0.0243
   14CHTO  H133 5647   4.724   5.199  -1.216  1.0607 -1.9756 -1.6477
   14CHTO   C75 5648   4.782   4.984  -1.337 -0.1033  0.2707  0.2606
   14CHTO  H147 5649   4.757   4.896  -1.398  0.9666  1.4646 -1.9495
   14CHTO   N13 5650   4.812   5.101  -1.426  0.3581 -0.0417  0.7437
   14CHTO  H139 5651   4.884   5.066  -1.498 -0.6060 -1.6887  0.5476
   14CHTO  H140 5652   4.873   5.175  -1.377 -0.4755  1.2949 -0.2001
   14CHTO   C76 5653   4.918   4.938  -1.258 -0.0322  0.0594  0.5379
   14CHTO  H148 5654   4.954   5.019  -1.195  3.0666 -0.7698 -0.0919
   14CHTO   O49 5655   4.889   4.824  -1.173  0.1810 -0.1479 -0.9931
   14CHTO   C77 5656   4.796   4.858  -1.072 -0.9283  0.3799 -0.1790
   14CHTO  H149 5657   4.825   4.945  -1.013 -0.6257  0.1608 -0.0012
   14CHTO   C88 5658   4.797   4.741  -0.974 -0.3027  0.1952  0.3235
   14CHTO   O58 5659   4.931   4.732  -0.907  0.7359 -0.3511 -0.6372
   14CHTO  H136 5660   4.946   4.803  -0.848 -0.6614 -1.6084  1.3070
   14CHTO   O51 5661   5.016   4.884  -1.357 -0.4025  0.3132 -0.0896
   14CHTO   C78 5662   5.169   4.935  -1.341 -0.1262  0.3036  0.1983
   14CHTO  H150 5663   5.177   5.008  -1.257 -1.3669  0.6163  0.0640
   14CHTO   C80 5664   5.208   5.009  -1.471  0.4979 -0.4173  0.4732
   14CHTO  H152 5665   5.194   4.942  -1.559 -0.5914 -1.4435  1.3989
   14CHTO   O55 5666   5.122   5.124  -1.498 -0.2082 -0.4964  0.0040
   14CHTO  H134 5667   5.033   5.109  -1.524 -0.2043 -0.3918 -0.0714
   14CHTO   C84 5668   5.361   5.056  -1.473  0.1628 -0.4280  0.0995
   14CHTO  H156 5669   5.363   5.153  -1.424  4.2731  1.2976 -3.2560
   14CHTO   N15 5670   5.404   5.099  -1.612 -0.1209 -0.1926  0.4383
   14CHTO  H143 5671   5.511   5.098  -1.614 -0.0907 -0.2137  1.6548
   14CHTO  H144 5672   5.371   5.198  -1.633 -1.2878 -1.0766 -2.0720
   14CHTO   C87 5673   5.451   4.946  -1.418  0.1891 -0.2304  0.2369
   14CHTO  H159 5674   5.462   4.869  -1.494 -0.0738  0.9598 -1.0221
   14CHTO   O53 5675   5.398   4.881  -1.289  0.4945  0.3692  0.2221
   14CHTO   C82 5676   5.268   4.816  -1.317  0.0538  0.1460  0.5566
   14CHTO  H154 5677   5.271   4.748  -1.402  1.6112 -0.5497  1.1449
   14CHTO   C89 5678   5.206   4.732  -1.204  0.0306  0.0234  0.2660
   14CHTO   O59 5679   5.193   4.795  -1.072  0.2082  0.7167 -0.4076
   14CHTO  H137 5680   5.102   4.809  -1.051 -0.6110 -0.4927 -2.9278
   14CHTO   O45 5681   5.588   5.015  -1.379 -0.1339  0.1472 -0.1216
   14CHTO   C67 5682   5.694   4.918  -1.383  0.1433 -0.3654 -0.3459
   14CHTO  H124 5683   5.664   4.827  -1.331  0.1498  0.5850  1.3806
   14CHTO   C65 5684   5.746   4.886  -1.529  0.0281  1.1289  0.2566
   14CHTO  H122 5685   5.659   4.855  -1.587  2.6878 -1.2719 -2.7071
   14CHTO   O44 5686   5.836   4.774  -1.508 -0.1170 -0.4483  0.5924
   14CHTO  H102 5687   5.878   4.741  -1.585  0.1637 -1.3023  1.1021
   14CHTO   C63 5688   5.805   5.014  -1.592  0.0436  0.2828  0.0330
   14CHTO  H120 5689   5.722   5.084  -1.595  0.5245  0.8845  0.7795
   14CHTO   N11 5690   5.833   5.000  -1.739 -0.5381  0.5696 -0.1099
   14CHTO  H108 5691   5.908   4.924  -1.750 -1.5154 -0.4399  0.1528
   14CHTO  H109 5692   5.869   5.096  -1.769  2.0493 -0.0514  0.7678
   14CHTO   C61 5693   5.926   5.062  -1.506  0.4114 -0.0189 -0.2185
   14CHTO  H118 5694   5.957   5.163  -1.538  0.6604  0.1352  0.4792
   14CHTO   O40 5695   5.901   5.070  -1.358 -0.3820  0.0600  0.3615
   14CHTO   C68 5696   5.810   4.974  -1.292  0.1426  0.0066  0.1753
   14CHTO  H125 5697   5.767   5.031  -1.206 -0.8304 -0.4950  0.0294
   14CHTO   C72 5698   5.897   4.860  -1.231  0.4180  0.2056  0.4837
   14CHTO   O48 5699   5.974   4.921  -1.124 -0.0171  0.0740  0.2314
   14CHTO  H105 5700   6.016   5.000  -1.149 -0.3897  0.0924 -0.3372
   14CHTO   O38 5701   6.041   4.977  -1.505  0.2947 -0.0304  0.5439
   14CHTO   C55 5702   6.171   5.011  -1.563  0.6571  0.0748  0.2391
   14CHTO  H112 5703   6.170   5.110  -1.611 -1.1351 -0.2507 -0.4147
   14CHTO   C56 5704   6.219   4.898  -1.664 -0.4010  0.1375 -0.4776
   14CHTO  H113 5705   6.219   4.797  -1.620  2.5041  0.2815 -0.0906
   14CHTO   O42 5706   6.137   4.897  -1.782 -0.1987 -0.1397 -0.6264
   14CHTO  H100 5707   6.052   4.869  -1.754  1.4132 -2.6713  2.1100
   14CHTO   C57 5708   6.366   4.915  -1.724 -0.4001 -0.9594  0.5937
   14CHTO  H114 5709   6.381   4.996  -1.796  0.8197 -2.1204 -0.4723
   14CHTO   N10 5710   6.415   4.799  -1.802  0.3955  0.1162  0.0499
   14CHTO  H106 5711   6.379   4.710  -1.752 -0.0940  0.2191 -0.1159
   14CHTO  H107 5712   6.381   4.803  -1.904 -1.1767  0.3678  0.5673
   14CHTO   C58 5713   6.465   4.953  -1.602  0.5686  0.3879  0.2730
   14CHTO  H115 5714   6.471   4.863  -1.538 -1.1624  0.8148  1.0389
   14CHTO   O37 5715   6.404   5.061  -1.522  0.3773 -0.1906  0.0704
   14CHTO   C59 5716   6.284   5.020  -1.454  0.4560  0.1643  0.3005
   14CHTO  H116 5717   6.300   4.921  -1.410  2.4923 -0.2350 -1.2555
   14CHTO   C70 5718   6.254   5.122  -1.344 -0.1344  0.0922 -0.0263
   14CHTO   O46 5719   6.182   5.067  -1.231 -0.1591  0.4083  0.3530
   14CHTO  H103 5720   6.127   5.136  -1.198 -1.6453 -0.8400  0.5318
   14CHTO   O39 5721   6.612   5.015  -1.646 -0.3324  0.5499  0.0076
   14CHTO   C60 5722   6.711   5.011  -1.540  0.6336 -0.4947 -0.0369
   14CHTO  H117 5723   6.658   5.021  -1.445  0.4099  0.4239 -0.2536
   14CHTO   C62 5724   6.792   4.877  -1.547  0.1857  0.5270 -0.5779
   14CHTO  H119 5725   6.731   4.789  -1.517  0.6653  0.2633 -0.3596
   14CHTO   O43 5726   6.835   4.845  -1.679 -0.2168 -0.7853 -0.3017
   14CHTO  H101 5727   6.875   4.919  -1.721 -0.2741 -1.7123 -2.0566
   14CHTO   C66 5728   6.910   4.879  -1.447  0.1655  0.4469 -0.0455
   14CHTO  H123 5729   6.870   4.884  -1.346  2.0812  0.2924  0.7445
   14CHTO   N12 5730   6.991   4.755  -1.449 -0.4594 -0.2407 -0.3993
   14CHTO  H110 5731   7.010   4.732  -1.553  1.4194 -0.2156 -0.0885
   14CHTO  H111 5732   6.932   4.678  -1.401  0.1570 -0.8542 -0.6147
   14CHTO   C69 5733   6.995   5.008  -1.456  0.2003  0.0683  0.6229
   14CHTO  H126 5734   7.045   5.011  -1.555 -1.3886  1.2173 -0.1859
   14CHTO   O41 5735   6.917   5.125  -1.443  0.0069 -0.0141 -0.4555
   14CHTO   C64 5736   6.809   5.130  -1.541 -0.4494  0.3697 -0.1887
   14CHTO  H121 5737   6.862   5.129  -1.638 -0.6321  1.3845 -0.3006
   14CHTO   C71 5738   6.729   5.263  -1.540  0.4371 -0.1934 -0.4318
   14CHTO   O47 5739   6.812   5.371  -1.567  0.4261 -0.5451 -0.4426
   14CHTO  H104 5740   6.828   5.382  -1.659 -0.1024 -0.6063 -0.5408
   14CHTO   O34 5741   7.107   5.014  -1.339 -0.4220  0.0217  0.3961
   14CHTO   C49 5742   7.240   5.060  -1.343  0.2361  0.5410  0.3262
   14CHTO   H91 5743   7.287   5.001  -1.422 -1.4853  1.5531 -1.4798
   14CHTO   C47 5744   7.299   5.051  -1.205 -0.5058 -0.1457 -0.0375
   14CHTO   H89 5745   7.410   5.058  -1.214 -0.3968 -1.3357  0.2762
   14CHTO   O33 5746   7.266   4.920  -1.146  0.2185 -0.9968  0.6184
   14CHTO   H70 5747   7.343   4.893  -1.099  0.0099 -2.7678 -0.0091
   14CHTO   C45 5748   7.244   5.164  -1.101 -0.1038 -0.6919  0.2489
   14CHTO   H87 5749   7.179   5.122  -1.023 -0.3211 -1.7762 -0.5045
   14CHTO    N8 5750   7.362   5.224  -1.033  0.1915  0.0204  0.0452
   14CHTO   H75 5751   7.411   5.277  -1.113  1.2700 -1.2309 -0.1475
   14CHTO   H76 5752   7.332   5.298  -0.961 -0.4728 -0.8138  0.6361
   14CHTO   C43 5753   7.143   5.257  -1.170  0.2067 -0.1836  0.2520
   14CHTO   H85 5754   7.057   5.194  -1.192  0.5102 -0.4947 -0.0562
   14CHTO   O29 5755   7.207   5.310  -1.288 -0.0340  0.1610  0.4778
   14CHTO   C50 5756   7.247   5.209  -1.386 -0.5884 -0.1245  0.7059
   14CHTO   H92 5757   7.172   5.222  -1.466  0.8417 -1.0531 -0.8217
   14CHTO   C54 5758   7.385   5.246  -1.449  0.4296  0.2579 -0.0660
   14CHTO   O36 5759   7.364   5.362  -1.526 -0.0788 -0.4565 -0.6964
   14CHTO   H72 5760   7.331   5.339  -1.611  0.4397 -0.7736 -0.8132
   14CHTO   O27 5761   7.098   5.364  -1.081  0.4221 -0.0471  0.1181
   14CHTO   C37 5762   6.970   5.382  -1.019  0.5866  0.2486 -0.5505
   14CHTO   H79 5763   6.957   5.491  -1.009 -0.5179  0.0585  0.2174
   14CHTO   C38 5764   6.855   5.341  -1.115 -1.0012 -0.0692  0.4306
   14CHTO   H80 5765   6.871   5.238  -1.149  1.0495  0.2971  0.1994
   14CHTO   O31 5766   6.847   5.435  -1.230  0.4264  0.1596 -0.2453
   14CHTO   H68 5767   6.907   5.432  -1.302 -1.3236 -3.3721 -1.7171
   14CHTO   C39 5768   6.713   5.344  -1.038 -0.9704  0.3156 -0.0969
   14CHTO   H81 5769   6.689   5.449  -1.023  2.2257  0.8164  2.1314
   14CHTO    N7 5770   6.600   5.291  -1.112 -0.1118  0.6769  0.1386
   14CHTO   H73 5771   6.551   5.208  -1.063 -2.1799  1.5858 -0.3653
   14CHTO   H74 5772   6.639   5.246  -1.203 -0.5301  0.3769  0.1042
   14CHTO   C40 5773   6.725   5.280  -0.891  0.0895 -0.1363  0.6305
   14CHTO   H82 5774   6.728   5.171  -0.899  0.1383 -0.1667  1.0554
   14CHTO   O26 5775   6.834   5.327  -0.812  0.0402  0.5429  0.2242
   14CHTO   C41 5776   6.968   5.308  -0.882 -0.3019  0.0052  0.5799
   14CHTO   H83 5777   6.977   5.200  -0.905 -1.1735  0.0999 -0.2767
   14CHTO   C52 5778   7.076   5.357  -0.777 -0.4489  0.0252 -0.3223
   14CHTO   O35 5779   7.109   5.275  -0.695  0.4132 -0.0310  0.8646
   14CHTO   H71 5780   7.202   5.272  -0.685  0.2787 -2.4497  1.7363
   14CHTO   O28 5781   6.620   5.335  -0.806 -0.4189 -0.3050 -0.9697
   14CHTO   C42 5782   6.490   5.272  -0.777  0.0742  0.3467 -0.4931
   14CHTO   H84 5783   6.486   5.276  -0.668  0.0673  1.9347 -0.5267
   14CHTO   C44 5784   6.456   5.124  -0.814 -0.1722  0.0346 -0.1474
   14CHTO   H86 5785   6.468   5.107  -0.921 -0.6457  0.7920 -0.3272
   14CHTO   O32 5786   6.548   5.036  -0.748 -0.3978 -0.2469  0.3291
   14CHTO   H69 5787   6.524   4.946  -0.762 -0.1247 -0.3726  0.6461
   14CHTO   C48 5788   6.309   5.078  -0.787 -0.0449  0.9192 -0.1296
   14CHTO   H90 5789   6.308   5.058  -0.680 -0.8853  0.1272 -0.2762
   14CHTO    N9 5790   6.270   4.946  -0.847 -0.4360 -0.0941  0.1189
   14CHTO   H77 5791   6.207   4.887  -0.782 -1.4233 -0.3353 -1.0421
   14CHTO   H78 5792   6.348   4.880  -0.882 -0.4962 -0.8553  1.3970
   14CHTO   C51 5793   6.215   5.190  -0.828 -0.0026 -0.2619  0.3578
   14CHTO   H93 5794   6.201   5.196  -0.936 -0.6537 -0.0663  0.4487
   14CHTO   O30 5795   6.247   5.317  -0.771  0.0831  0.3747 -0.6713
   14CHTO   C46 5796   6.379   5.367  -0.831  0.0604 -0.4282 -0.1709
   14CHTO   H88 5797   6.376   5.365  -0.939 -1.8075 -2.0206 -0.1075
   14CHTO   C53 5798   6.392   5.507  -0.773 -0.2744 -0.2279 -0.5218
   14CHTO   O72 5799   6.319   5.607  -0.836  0.0784 -0.0017 -0.2795
   14CHTO  H199 5800   6.376   5.676  -0.864  0.0084 -0.2146 -0.9636
   14CHTO   O22 5801   6.091   5.161  -0.771  0.0402  0.6197  0.9224
   14CHTO   C31 5802   5.965   5.126  -0.854  0.0919 -0.2867  0.2241
   14CHTO   H59 5803   6.001   5.074  -0.945  0.1377  0.2200 -0.0523
   14CHTO   C29 5804   5.876   5.028  -0.780  0.2594  0.0978  0.0429
   14CHTO   H57 5805   5.849   5.069  -0.681 -0.1178 -2.3189  0.9643
   14CHTO   O21 5806   5.952   4.909  -0.753  0.5192  0.3843 -0.5864
   14CHTO   H37 5807   5.942   4.841  -0.817  0.3083  1.6917 -1.9894
   14CHTO   C27 5808   5.744   4.990  -0.867  0.1250 -0.0163 -0.3497
   14CHTO   H55 5809   5.775   4.953  -0.966  0.2888  0.4259 -0.4659
   14CHTO    N5 5810   5.650   4.894  -0.807  0.3456 -0.0845  0.0298
   14CHTO   H43 5811   5.596   4.833  -0.879  1.6111 -1.7673  0.4709
   14CHTO   H44 5812   5.705   4.833  -0.737  1.9493  1.3783  0.0874
   14CHTO   C25 5813   5.674   5.124  -0.908 -0.1765 -0.5562 -0.1391
   14CHTO   H53 5814   5.623   5.171  -0.823 -1.8274  1.2071 -2.0696
   14CHTO   O17 5815   5.766   5.212  -0.972  0.1986 -0.4130 -0.2877
   14CHTO   C32 5816   5.885   5.251  -0.899  0.6128 -0.7173  0.2127
   14CHTO   H60 5817   5.845   5.306  -0.815 -1.1357 -0.0604 -1.0198
   14CHTO   C36 5818   5.966   5.349  -0.993  0.1437  0.2636 -0.1595
   14CHTO   O25 5819   5.928   5.479  -0.958 -0.1470 -0.1995  0.1146
   14CHTO   H40 5820   5.972   5.551  -0.999  1.7635 -0.8173  1.0416
   14CHTO   O15 5821   5.561   5.099  -1.003  0.6247  0.0304  0.4566
   14CHTO   C19 5822   5.433   5.161  -1.046 -0.4564  0.0483  0.0300
   14CHTO   H47 5823   5.413   5.096  -1.133 -0.3390  1.3080 -0.9545
   14CHTO   C20 5824   5.320   5.143  -0.937 -0.2342 -0.3001 -0.2560
   14CHTO   H48 5825   5.339   5.199  -0.844 -0.3195  1.7132 -1.4375
   14CHTO   O19 5826   5.328   5.000  -0.907  0.2107 -0.1894 -0.1836
   14CHTO   H35 5827   5.242   4.969  -0.885  0.2839  0.8977  1.7482
   14CHTO   C21 5828   5.182   5.185  -0.997 -0.8780 -0.5685  0.5862
   14CHTO   H49 5829   5.175   5.139  -1.095  2.6153  0.4619 -0.2230
   14CHTO    N4 5830   5.059   5.148  -0.923  0.1189  0.0067  0.2355
   14CHTO   H41 5831   5.045   5.043  -0.944  0.2118  0.2781 -1.2136
   14CHTO   H42 5832   4.968   5.197  -0.954  1.3494  3.1093  1.3269
   14CHTO   C22 5833   5.208   5.334  -1.025 -0.1048 -0.1919  0.0476
   14CHTO   H50 5834   5.235   5.383  -0.931  0.6095 -1.1214  0.3368
   14CHTO   O14 5835   5.313   5.357  -1.123 -0.0330 -0.2354  0.0798
   14CHTO   C23 5836   5.439   5.307  -1.093  0.2630 -0.4112 -0.2885
   14CHTO   H51 5837   5.480   5.373  -1.014  1.1749 -1.8736  0.4896
   14CHTO   C34 5838   5.534   5.304  -1.207  0.0891 -0.0778 -1.0225
   14CHTO   O23 5839   5.569   5.435  -1.249  0.1665 -0.5040 -0.0229
   14CHTO   H38 5840   5.636   5.434  -1.314  1.2291 -2.2672  1.0529
   14CHTO   O16 5841   5.092   5.390  -1.088  0.5790  0.2627  0.2455
   14CHTO   C24 5842   5.062   5.560  -1.088  0.3336 -0.5135  0.1277
   14CHTO   H52 5843   5.033   5.593  -1.188 -0.0986 -2.6718 -0.4844
   14CHTO   C26 5844   5.181   5.642  -1.038  0.2024 -0.3287 -0.4487
   14CHTO   H54 5845   5.216   5.606  -0.939  1.7295  2.1882 -0.0098
   14CHTO   O20 5846   5.285   5.630  -1.136  0.0101  0.1909 -0.3686
   14CHTO   H36 5847   5.354   5.692  -1.120 -0.1220  0.0443  0.8755
   14CHTO   C30 5848   5.146   5.789  -0.998  0.4437 -0.2297  0.3411
   14CHTO   H58 5849   5.099   5.835  -1.087 -1.3834 -0.7386  1.0257
   14CHTO    N6 5850   5.269   5.855  -0.948  0.4141 -0.0742  0.4208
   14CHTO   H45 5851   5.250   5.881  -0.845 -1.2976  0.3621  0.0078
   14CHTO   H46 5852   5.288   5.944  -1.006  2.4341  1.7540  3.7367
   14CHTO   C33 5853   5.023   5.788  -0.903 -0.8665  0.3478  0.0658
   14CHTO   H61 5854   5.036   5.734  -0.809 -1.4337 -0.9794 -0.6015
   14CHTO   O18 5855   4.917   5.720  -0.974  0.1801 -0.2176  0.1484
   14CHTO   C28 5856   4.937   5.579  -0.995  0.0317  0.1064  0.0305
   14CHTO   H56 5857   4.956   5.536  -0.897  2.6569 -0.0582 -0.4985
   14CHTO   C35 5858   4.803   5.519  -1.044  0.4703 -0.1972 -0.6551
   14CHTO   O24 5859   4.743   5.586  -1.160  0.0897  0.0283 -0.0629
   14CHTO   H39 5860   4.793   5.559  -1.235  2.0531 -0.2566  1.3199
   14CHTO    O9 5861   4.984   5.923  -0.872 -0.0604  0.1211  0.3066
   14CHTO   C13 5862   4.921   5.956  -0.743 -0.3535 -0.4846  0.9235
   14CHTO   H26 5863   4.955   5.888  -0.662  1.9840  0.0873  0.4399
   14CHTO   C11 5864   4.768   5.949  -0.768 -0.3834  0.2693  0.3209
   14CHTO   H24 5865   4.739   5.843  -0.773 -1.4210  0.5731 -0.2008
   14CHTO    O8 5866   4.726   6.013  -0.895 -0.2377 -0.0781  0.0755
   14CHTO    H3 5867   4.657   5.967  -0.938 -0.2277 -0.9018  0.9165
   14CHTO    C9 5868   4.685   6.010  -0.649  0.3687  0.2961  0.0422
   14CHTO   H22 5869   4.711   5.950  -0.561  0.6180 -0.9646 -0.8796
   14CHTO    N2 5870   4.542   5.986  -0.663 -0.2745  0.8606  0.0873
   14CHTO   H10 5871   4.501   5.980  -0.563 -1.4402 -1.4251 -0.5079
   14CHTO   H11 5872   4.482   6.055  -0.721 -2.1406  0.3237  1.3136
   14CHTO    C7 5873   4.734   6.157  -0.631 -0.6460  0.3025  0.1469
   14CHTO   H20 5874   4.756   6.149  -0.523  0.3463  0.9220 -0.0052
   14CHTO    O4 5875   4.849   6.192  -0.711 -0.2654 -0.0135  1.0872
   14CHTO   C14 5876   4.960   6.103  -0.690  0.0491  0.0576  0.1179
   14CHTO   H27 5877   4.986   6.084  -0.584  1.3064 -2.6431 -0.6361
   14CHTO   C18 5878   5.091   6.172  -0.753  0.1037 -0.2423 -0.2650
   14CHTO   O13 5879   5.207   6.102  -0.718 -0.0208  0.3230 -0.3798
   14CHTO    H7 5880   5.183   6.055  -0.641 -1.8350  0.0827 -1.0555
   14CHTO    O2 5881   4.614   6.273  -0.666  0.8155 -0.0341 -0.7269
   14CHTO    C1 5882   4.648   6.409  -0.634 -0.1378 -0.6100 -0.0273
   14CHTO   H14 5883   4.563   6.477  -0.657 -1.1708 -1.5322  1.0055
   14CHTO    C2 5884   4.772   6.477  -0.701  0.0153 -0.3479 -0.5438
   14CHTO   H15 5885   4.869   6.429  -0.683  0.4432  0.8191  0.2972
   14CHTO    O6 5886   4.757   6.477  -0.838  0.0324  0.0099 -0.0820
   14CHTO    H1 5887   4.685   6.419  -0.856  0.6866  0.0031 -2.8517
   14CHTO    C3 5888   4.779   6.628  -0.646  0.3005  0.8651 -0.3502
   14CHTO   H16 5889   4.683   6.666  -0.684  0.3157  1.1957 -0.0601
   14CHTO    N1 5890   4.900   6.705  -0.701 -0.2768  0.1834  0.2264
   14CHTO    H8 5891   4.955   6.625  -0.747 -1.7154 -0.7327  0.0750
   14CHTO    H9 5892   4.867   6.772  -0.779 -0.1043  1.2532  1.0513
   14CHTO    C4 5893   4.760   6.640  -0.484 -0.1611  0.2868  0.1460
   14CHTO   H17 5894   4.853   6.618  -0.432 -1.0736  0.3863  1.8814
   14CHTO    O1 5895   4.652   6.557  -0.440  0.1282 -0.2110 -0.0341
   14CHTO    C5 5896   4.653   6.417  -0.481 -0.3231 -1.0034 -0.0306
   14CHTO   H18 5897   4.745   6.370  -0.447 -1.0440 -0.7226  2.3898
   14CHTO   C16 5898   4.536   6.351  -0.408  0.3111 -0.1852 -0.1470
   14CHTO   O11 5899   4.573   6.305  -0.277 -0.4702  0.1752  0.5235
   14CHTO    H5 5900   4.623   6.367  -0.227 -0.3376  0.8452 -0.4321
   14CHTO    O3 5901   4.720   6.777  -0.450  0.2956  0.2759  0.2494
   14CHTO    C6 5902   4.766   6.839  -0.325 -0.7234  0.0484 -0.1008
   14CHTO   H19 5903   4.794   6.766  -0.249 -1.6250 -1.3702 -1.1090
   14CHTO    C8 5904   4.888   6.938  -0.352  0.0353 -0.3311 -0.4776
   14CHTO   H21 5905   4.857   7.003  -0.434 -0.9313 -0.0167  0.1227
   14CHTO    O7 5906   4.993   6.848  -0.397 -0.1702 -0.0918 -0.4780
   14CHTO    H2 5907   5.015   6.783  -0.333 -0.5062 -1.7227 -1.9751
   14CHTO   C12 5908   4.930   7.023  -0.227  0.6863 -0.6285 -0.3474
   14CHTO   H25 5909   4.977   6.962  -0.147  1.3824 -0.2345 -0.4492
   14CHTO    N3 5910   5.042   7.113  -0.260  0.3125 -0.5670  0.1389
   14CHTO   H12 5911   5.054   7.196  -0.192 -3.6572  0.1599  0.1180
   14CHTO   H13 5912   5.136   7.063  -0.277 -0.5220 -2.2043  0.2512
   14CHTO   C15 5913   4.799   7.090  -0.167 -0.4888  0.6839  0.3049
   14CHTO   H28 5914   4.765   7.172  -0.230 -0.9611  1.1415  1.1501
   14CHTO   O10 5915   4.817   7.134  -0.009 -0.5408  0.1403 -0.4186
   14CHTO    H4 5916   4.793   7.222   0.013  1.7286 -0.1028  3.4705
   14CHTO    O5 5917   4.694   6.987  -0.159  0.2883 -0.0204 -0.2109
   14CHTO   C10 5918   4.647   6.911  -0.274  0.4347 -0.0618  0.5310
   14CHTO   H23 5919   4.597   6.978  -0.345  0.6451  0.5522  0.9581
   14CHTO   C17 5920   4.532   6.812  -0.241 -0.1995 -0.2472  0.2782
   14CHTO   O12 5921   4.420   6.881  -0.186  0.3771  0.1056  0.0028
   14CHTO    H6 5922   4.343   6.891  -0.239 -0.6378  0.3457  1.4812
   15CHTO  H203 5923   7.181   3.907   2.117  1.4725 -2.0569 -1.8882
   15CHTO   O82 5924   7.166   3.978   2.057  0.8160 -0.1131  0.4795
   15CHTO  C123 5925   7.048   3.941   1.976  0.5166 -0.6284 -0.3950
   15CHTO  H227 5926   7.027   3.833   1.982 -1.7415 -0.2222 -0.3453
   15CHTO   O77 5927   6.941   4.021   2.042  0.3052 -0.1635  0.0753
   15CHTO  C118 5928   6.803   3.996   2.009  0.5236 -0.2701  0.4619
   15CHTO  H222 5929   6.785   3.890   2.030 -2.4848  0.1254  0.1162
   15CHTO  C125 5930   6.705   4.094   2.086  0.2179  0.2328  0.6037
   15CHTO   O84 5931   6.678   4.025   2.216 -0.0487 -0.4680 -0.1195
   15CHTO  H205 5932   6.604   3.968   2.209  0.7251 -1.4370 -0.5366
   15CHTO  C114 5933   6.788   4.027   1.857 -0.0468  0.1854  0.2825
   15CHTO  H218 5934   6.794   4.134   1.838 -1.7134  0.2526  0.0662
   15CHTO  C116 5935   6.900   3.960   1.766 -0.2945 -0.2826  0.4586
   15CHTO  H220 5936   6.889   3.851   1.750  0.8353 -0.3825  0.3563
   15CHTO   O79 5937   6.886   4.018   1.635  0.4130 -0.0868 -0.0537
   15CHTO  H201 5938   6.798   4.003   1.607  0.3723 -0.0013  0.0267
   15CHTO  C120 5939   7.043   3.988   1.823  0.0597 -0.3237  0.6796
   15CHTO  H224 5940   7.058   4.098   1.822 -0.6582 -0.2279  0.2510
   15CHTO   N21 5941   7.150   3.926   1.748 -0.4079  0.8657 -0.3159
   15CHTO  H211 5942   7.155   3.820   1.770  0.8689  0.8641 -0.5623
   15CHTO  H212 5943   7.143   3.936   1.641  1.1562 -0.1525 -0.5420
   15CHTO   O75 5944   6.650   3.986   1.826  0.2325 -0.3474 -0.0644
   15CHTO  C112 5945   6.610   3.841   1.794  0.0318  0.2526  0.5485
   15CHTO  H216 5946   6.679   3.774   1.847 -0.7306 -2.0947 -1.3496
   15CHTO   O73 5947   6.623   3.828   1.649 -0.3010  0.2383  0.0625
   15CHTO  C113 5948   6.627   3.691   1.603 -0.0993  0.4885 -0.3345
   15CHTO  H217 5949   6.709   3.641   1.658  0.1772 -0.8562 -1.9631
   15CHTO  C124 5950   6.649   3.685   1.455  0.5423  0.5249  0.2950
   15CHTO   O83 5951   6.785   3.698   1.413 -0.4280  0.0526 -0.0929
   15CHTO  H204 5952   6.792   3.792   1.417 -0.4930  0.1314 -1.5726
   15CHTO  C109 5953   6.496   3.617   1.635  0.5140 -0.2744  0.0939
   15CHTO  H213 5954   6.417   3.654   1.568 -0.0171 -1.0355  0.2846
   15CHTO  C110 5955   6.452   3.639   1.789 -0.5474  0.1436  0.0036
   15CHTO  H214 5956   6.517   3.576   1.850  0.3711  0.6933 -0.3823
   15CHTO   O78 5957   6.317   3.588   1.812  0.1944 -0.2541 -0.3286
   15CHTO  H200 5958   6.256   3.648   1.774  1.5224  1.6362  0.4513
   15CHTO  C111 5959   6.463   3.793   1.831 -0.8157 -0.2553  0.2622
   15CHTO  H215 5960   6.385   3.849   1.779 -1.4711  0.6216  2.1380
   15CHTO   N19 5961   6.439   3.811   1.976  0.1812  0.2194 -0.6499
   15CHTO  H207 5962   6.493   3.747   2.043  0.4033 -0.4106 -1.4210
   15CHTO  H208 5963   6.335   3.819   2.006 -0.2802 -0.9432 -1.8509
   15CHTO   O74 5964   6.517   3.476   1.607 -0.1416  0.3664  0.8056
   15CHTO  C115 5965   6.391   3.396   1.519  0.0669 -0.5338 -0.2551
   15CHTO  H219 5966   6.295   3.446   1.532 -0.7676 -1.8464 -1.2103
   15CHTO   O76 5967   6.411   3.398   1.375 -0.0936 -0.4317 -0.0605
   15CHTO  C122 5968   6.531   3.334   1.331 -0.2613 -0.3929 -0.3071
   15CHTO  H226 5969   6.611   3.403   1.361 -2.8541  1.6250  2.3147
   15CHTO  C126 5970   6.534   3.334   1.170  0.2909 -0.6630 -0.5622
   15CHTO   O85 5971   6.668   3.298   1.127  0.1240  0.1402  0.0534
   15CHTO  H206 5972   6.724   3.371   1.142 -1.6440  1.2649  1.4266
   15CHTO  C121 5973   6.558   3.195   1.392 -0.2502  0.0604  0.5987
   15CHTO  H225 5974   6.572   3.127   1.305 -0.0483 -0.3667  0.9614
   15CHTO   O81 5975   6.677   3.184   1.475  0.1068  0.5782  0.2278
   15CHTO  H202 5976   6.657   3.215   1.562  1.1201  0.6868  0.4321
   15CHTO  C119 5977   6.436   3.151   1.471  0.9357 -0.6574 -0.7715
   15CHTO  H223 5978   6.351   3.157   1.403  0.1484 -2.4828  0.0265
   15CHTO  C117 5979   6.391   3.251   1.580 -0.3712  0.3351 -0.0849
   15CHTO  H221 5980   6.458   3.264   1.665 -2.4663 -0.2608  1.6985
   15CHTO   N20 5981   6.262   3.216   1.646  0.7731 -0.1441 -1.2430
   15CHTO  H209 5982   6.276   3.125   1.702 -0.7896 -0.2117 -0.9388
   15CHTO  H210 5983   6.182   3.218   1.573 -2.7008  0.1146  2.3937
   15CHTO   O80 5984   6.444   2.989   1.506  0.1314  0.0097 -0.2324
   15CHTO  C103 5985   6.368   2.884   1.419 -0.5959 -0.5471  0.0275
   15CHTO  H190 5986   6.299   2.829   1.482 -1.4582 -0.2483 -0.6498
   15CHTO  C101 5987   6.280   2.934   1.300 -0.3109 -0.7104 -0.0175
   15CHTO  H188 5988   6.336   2.989   1.225 -1.0302 -0.6713 -0.5279
   15CHTO   O68 5989   6.157   3.028   1.360 -0.1655  0.1592 -0.0289
   15CHTO  H168 5990   6.078   3.020   1.310 -1.8193  1.4385  2.2856
   15CHTO   C99 5991   6.225   2.803   1.228  0.2954 -0.3411  0.3903
   15CHTO  H186 5992   6.158   2.749   1.297  1.2949 -0.9773  0.8757
   15CHTO   N17 5993   6.155   2.836   1.101  0.4544 -0.2734 -0.6061
   15CHTO  H174 5994   6.095   2.926   1.107  0.6405 -0.0683 -1.7688
   15CHTO  H175 5995   6.100   2.746   1.079  1.4406 -1.8092  2.8841
   15CHTO   C97 5996   6.335   2.705   1.189  0.7466 -0.2109  0.0106
   15CHTO  H184 5997   6.394   2.750   1.107 -2.0785  1.2672 -1.2769
   15CHTO   O64 5998   6.413   2.669   1.303 -0.6274  0.0154 -0.1911
   15CHTO  C104 5999   6.479   2.785   1.364  0.9420 -0.4952  0.1124
   15CHTO  H191 6000   6.548   2.836   1.298 -0.6397 -2.1159 -2.8932
   15CHTO  C108 6001   6.558   2.725   1.481 -0.2513  0.1315  0.2889
   15CHTO   O71 6002   6.676   2.650   1.444 -0.1536  0.3131 -0.1231
   15CHTO  H171 6003   6.717   2.631   1.526 -0.6270 -2.1392 -0.4024
   15CHTO   O62 6004   6.273   2.579   1.151  0.1815 -0.6289  0.8125
   15CHTO   C91 6005   6.336   2.507   1.044  0.7567  0.5901  0.4393
   15CHTO  H178 6006   6.431   2.554   1.020  1.0534 -1.2365 -2.1957
   15CHTO   C92 6007   6.252   2.513   0.914  0.8353  0.3816 -0.1595
   15CHTO  H179 6008   6.241   2.619   0.886  1.3549  0.8357  1.2882
   15CHTO   O66 6009   6.328   2.461   0.800 -0.3943  0.1272 -0.2998
   15CHTO  H166 6010   6.340   2.525   0.733  1.2398 -0.1461 -0.2981
   15CHTO   C93 6011   6.115   2.429   0.909  0.3286  0.2573 -0.7623
   15CHTO  H180 6012   6.084   2.414   0.804 -1.6254  0.2838 -0.2214
   15CHTO   N16 6013   6.005   2.504   0.974  0.6588  0.2748 -0.4102
   15CHTO  H172 6014   5.934   2.546   0.905  2.2999  1.9664 -1.0806
   15CHTO  H173 6015   5.969   2.452   1.063  2.0106 -0.7919 -0.4691
   15CHTO   C94 6016   6.146   2.291   0.981 -0.0318  0.1276 -0.4035
   15CHTO  H181 6017   6.092   2.280   1.076  0.5986 -0.4332 -0.1085
   15CHTO   O61 6018   6.289   2.267   1.000 -0.3673  0.0047 -0.1163
   15CHTO   C95 6019   6.360   2.357   1.085 -0.2691  0.5862 -0.3391
   15CHTO  H182 6020   6.321   2.343   1.186 -2.2161 -1.3860 -1.3058
   15CHTO  C106 6021   6.510   2.311   1.085  0.2433  0.1169 -0.4480
   15CHTO   O69 6022   6.548   2.277   0.946 -0.4683 -0.0443 -0.0098
   15CHTO  H169 6023   6.639   2.256   0.956 -0.7537 -0.8623  0.9561
   15CHTO   O63 6024   6.116   2.190   0.882 -0.5511 -0.6298 -0.3867
   15CHTO   C96 6025   6.079   2.048   0.939  0.3683  0.9901  0.2829
   15CHTO  H183 6026   6.088   2.038   1.047 -0.8151 -0.2030  0.2902
   15CHTO   C98 6027   6.171   1.937   0.870  0.7073 -0.9226  0.2561
   15CHTO  H185 6028   6.169   1.957   0.762 -0.2442  2.9605  0.9070
   15CHTO   O67 6029   6.306   1.972   0.914 -0.1054  0.0675 -0.2215
   15CHTO  H167 6030   6.324   1.916   0.987 -1.6002  0.1400  0.2278
   15CHTO  C102 6031   6.134   1.783   0.910  0.1687  0.3906  0.5867
   15CHTO  H189 6032   6.140   1.780   1.020 -0.6312  1.5782  0.6688
   15CHTO   N18 6033   6.221   1.681   0.855 -0.1226 -0.4140  0.1473
   15CHTO  H176 6034   6.322   1.718   0.862 -1.0343  1.9053  1.8811
   15CHTO  H177 6035   6.194   1.660   0.752  0.4741  0.1157 -0.1198
   15CHTO  C105 6036   5.985   1.766   0.886 -0.0859 -0.1608  0.4582
   15CHTO  H192 6037   5.964   1.764   0.779  0.3457 -0.7804  0.3876
   15CHTO   O65 6038   5.894   1.869   0.930  0.3832 -0.0485  0.2252
   15CHTO  C100 6039   5.930   2.011   0.905 -0.2448  0.5425 -0.1066
   15CHTO  H187 6040   5.911   2.036   0.799 -0.8629  0.8618  0.0820
   15CHTO  C107 6041   5.830   2.077   0.996  0.3326  0.5273 -0.0835
   15CHTO   O70 6042   5.702   2.073   0.943 -0.3537 -0.0207  0.4190
   15CHTO  H170 6043   5.668   2.161   0.938  0.2277  0.1999  0.2619
   15CHTO   O57 6044   5.938   1.620   0.961 -0.3079 -0.1392 -0.3619
   15CHTO   C85 6045   5.919   1.600   1.098  0.1701  0.1253  0.2203
   15CHTO  H157 6046   5.940   1.701   1.136  1.4560 -0.5446  1.3193
   15CHTO   C83 6047   6.019   1.491   1.149 -0.2075  0.6166  0.3664
   15CHTO  H155 6048   6.120   1.529   1.135  1.3576 -2.9457  1.2537
   15CHTO   O56 6049   5.996   1.374   1.070  0.0104  0.1612  0.0594
   15CHTO  H135 6050   5.934   1.400   1.005 -0.3316  2.1681  1.1523
   15CHTO   C81 6051   6.002   1.463   1.304 -0.0740  0.0773  0.7685
   15CHTO  H153 6052   6.014   1.557   1.357 -3.8942  1.2903 -0.3273
   15CHTO   N14 6053   6.109   1.376   1.355  0.4543 -0.1014 -0.1735
   15CHTO  H141 6054   6.085   1.281   1.312 -0.2203 -0.1392  0.2706
   15CHTO  H142 6055   6.207   1.405   1.325  0.3003 -0.6679 -1.2461
   15CHTO   C79 6056   5.856   1.413   1.335  0.8780  0.6662 -0.3153
   15CHTO  H151 6057   5.835   1.437   1.439  0.9911  1.5971 -0.4986
   15CHTO   O52 6058   5.762   1.494   1.267  0.3364 -0.1521 -0.6178
   15CHTO   C86 6059   5.776   1.548   1.133  0.4663  0.7221  0.9564
   15CHTO  H158 6060   5.742   1.466   1.067 -0.7666  2.3697 -0.5074
   15CHTO   C90 6061   5.666   1.655   1.111 -0.2552 -0.3144 -0.0625
   15CHTO   O60 6062   5.659   1.683   0.971  0.6335  0.1723 -0.2072
   15CHTO  H138 6063   5.575   1.655   0.940 -0.1739  0.5317  1.6038
   15CHTO   O50 6064   5.835   1.272   1.311 -0.0083 -0.0610  0.7895
   15CHTO   C73 6065   5.726   1.177   1.297 -0.6092  0.0017  0.3280
   15CHTO  H145 6066   5.634   1.231   1.271  0.5359  0.4594 -3.0574
   15CHTO   C74 6067   5.698   1.097   1.424  0.0447  0.0639 -0.3432
   15CHTO  H146 6068   5.663   1.164   1.503  0.1504  0.6000 -0.7515
   15CHTO   O54 6069   5.590   1.004   1.408  0.0612  0.2240 -0.3625
   15CHTO  H133 6070   5.546   1.000   1.491  0.7609 -0.7727 -0.0335
   15CHTO   C75 6071   5.828   1.018   1.468  0.5155 -0.2854 -0.3021
   15CHTO  H147 6072   5.909   1.090   1.481 -0.5525  1.3084 -2.1602
   15CHTO   N13 6073   5.818   0.927   1.590 -0.2977  0.4810 -0.8317
   15CHTO  H139 6074   5.783   0.976   1.679 -0.6829  0.1009 -0.7690
   15CHTO  H140 6075   5.911   0.878   1.612 -0.2422 -0.5802 -3.2527
   15CHTO   C76 6076   5.887   0.939   1.345 -0.0069  0.2078  0.0372
   15CHTO  H148 6077   5.839   0.842   1.342  0.8047 -0.1662 -0.9085
   15CHTO   O49 6078   5.884   1.006   1.209  0.5984 -0.0896 -0.4478
   15CHTO   C77 6079   5.764   1.078   1.182 -0.7352  1.0422  0.1012
   15CHTO  H149 6080   5.681   1.009   1.168  0.4886 -0.5124  0.4595
   15CHTO   C88 6081   5.793   1.146   1.044 -0.1461 -0.3166 -0.1360
   15CHTO   O58 6082   5.682   1.215   1.006  0.4635  0.2230 -0.0675
   15CHTO  H136 6083   5.693   1.306   1.026 -1.3673  0.0172  2.0030
   15CHTO   O51 6084   6.035   0.932   1.370  0.0922  0.1442  0.4350
   15CHTO   C78 6085   6.117   0.815   1.276  0.1124  0.1845  0.5840
   15CHTO  H150 6086   6.072   0.808   1.175  1.1251 -0.6585  0.1759
   15CHTO   C80 6087   6.127   0.674   1.342 -0.4619 -1.2745  0.1036
   15CHTO  H152 6088   6.169   0.684   1.445 -1.9775 -1.3393  0.7385
   15CHTO   O55 6089   5.997   0.618   1.346 -0.3751  0.3441 -0.1350
   15CHTO  H134 6090   5.988   0.564   1.270  1.8225 -1.4992  0.8423
   15CHTO   C84 6091   6.231   0.573   1.278  0.0030 -0.5619  0.1396
   15CHTO  H156 6092   6.188   0.543   1.182  0.8158  0.9024 -0.7076
   15CHTO   N15 6093   6.250   0.449   1.364  0.1728  0.1365 -0.3449
   15CHTO  H143 6094   6.348   0.439   1.406  0.2738  2.1556 -0.0220
   15CHTO  H144 6095   6.219   0.360   1.314 -1.9417 -0.8903  2.6807
   15CHTO   C87 6096   6.366   0.643   1.268  0.3917 -0.0454  0.1448
   15CHTO  H159 6097   6.397   0.666   1.370 -1.1806 -3.0132  1.3597
   15CHTO   O53 6098   6.345   0.776   1.185 -0.0375 -0.0368  0.4721
   15CHTO   C82 6099   6.260   0.874   1.253  0.4050  0.3205  0.2767
   15CHTO  H154 6100   6.302   0.909   1.347  1.6273  1.0237 -0.5249
   15CHTO   C89 6101   6.253   0.994   1.161 -0.5058  0.4315  0.1900
   15CHTO   O59 6102   6.362   1.089   1.177  0.0123 -0.0883 -0.5361
   15CHTO  H137 6103   6.379   1.118   1.265 -4.1830 -0.8125  0.6412
   15CHTO   O45 6104   6.482   0.550   1.187 -0.1034  0.6688  0.5046
   15CHTO   C67 6105   6.611   0.616   1.201  0.1854  0.0944  0.3109
   15CHTO  H124 6106   6.608   0.717   1.160  1.6546 -0.0505 -0.2039
   15CHTO   C65 6107   6.656   0.624   1.358  0.3295 -0.2376 -0.2956
   15CHTO  H122 6108   6.591   0.551   1.405  2.3796 -0.5724  2.1260
   15CHTO   O44 6109   6.622   0.757   1.411 -0.1091 -0.2043 -0.2939
   15CHTO  H102 6110   6.531   0.782   1.404 -0.6012 -1.7004  0.4392
   15CHTO   C63 6111   6.800   0.566   1.387 -0.2763  0.1251 -0.1038
   15CHTO  H120 6112   6.793   0.459   1.367 -1.7855  0.1734  0.0783
   15CHTO   N11 6113   6.851   0.580   1.531  0.1388  0.1678 -0.1440
   15CHTO  H108 6114   6.845   0.687   1.542  3.1198  0.4256 -0.6822
   15CHTO  H109 6115   6.955   0.559   1.541  0.0098 -0.0720  0.7070
   15CHTO   C61 6116   6.897   0.623   1.277 -0.7550  0.2381  0.1155
   15CHTO  H118 6117   6.990   0.567   1.294 -1.2389 -0.9878 -1.1043
   15CHTO   O40 6118   6.854   0.601   1.136 -0.0517  0.3018  0.0677
   15CHTO   C68 6119   6.720   0.543   1.125  0.5656  0.6053  0.2043
   15CHTO  H125 6120   6.724   0.436   1.152  0.0192  0.5053 -0.1113
   15CHTO   C72 6121   6.690   0.548   0.980 -0.2151 -0.0252 -0.4864
   15CHTO   O48 6122   6.784   0.478   0.892 -0.0813  0.3376 -0.4232
   15CHTO  H105 6123   6.754   0.477   0.803  1.6297 -2.1465 -1.0211
   15CHTO   O38 6124   6.907   0.770   1.282  0.0319 -0.1114  0.3034
   15CHTO   C55 6125   7.005   0.837   1.197  0.0388  0.1079  0.6762
   15CHTO  H112 6126   7.016   0.775   1.107 -0.2155  1.3599 -0.2255
   15CHTO   C56 6127   7.145   0.858   1.270 -0.2591  0.5174 -0.0798
   15CHTO  H113 6128   7.128   0.920   1.359  0.5547 -1.6923  1.6695
   15CHTO   O42 6129   7.190   0.732   1.327 -0.0645  0.2060 -0.4662
   15CHTO  H100 6130   7.278   0.706   1.309 -0.2944 -1.5060  0.7676
   15CHTO   C57 6131   7.248   0.942   1.182  0.2144  0.1898  0.1528
   15CHTO  H114 6132   7.279   0.889   1.091 -0.4426  0.0624 -0.0021
   15CHTO   N10 6133   7.374   0.976   1.253 -0.6279 -0.3484  0.0009
   15CHTO  H106 6134   7.353   0.969   1.359 -3.0384  1.9835 -0.2616
   15CHTO  H107 6135   7.452   0.909   1.220  0.2642  0.6494  0.0579
   15CHTO   C58 6136   7.172   1.067   1.136 -0.0390  0.0965 -0.0536
   15CHTO  H115 6137   7.151   1.132   1.223 -3.3937  1.0115 -1.4951
   15CHTO   O37 6138   7.054   1.027   1.063  0.2711  0.1424  0.0258
   15CHTO   C59 6139   6.951   0.974   1.154  0.0856 -0.5270  0.1176
   15CHTO  H116 6140   6.933   1.030   1.245  1.1125 -2.5472  1.5926
   15CHTO   C70 6141   6.824   0.956   1.070  0.2404 -0.2823 -0.0714
   15CHTO   O46 6142   6.753   1.065   1.015 -0.2401  0.1357 -0.3000
   15CHTO  H103 6143   6.675   1.032   0.974  0.6683 -2.0053 -0.3508
   15CHTO   O39 6144   7.273   1.161   1.033 -0.0868  1.0132 -0.1139
   15CHTO   C60 6145   7.211   1.228   0.925 -0.4839  0.2909 -0.2750
   15CHTO  H117 6146   7.164   1.154   0.859  3.0103 -0.1746 -2.3540
   15CHTO   C62 6147   7.102   1.327   0.977 -0.0976 -0.1259 -0.0411
   15CHTO  H119 6148   7.016   1.276   1.026  1.0159 -1.4308  0.6169
   15CHTO   O43 6149   7.158   1.414   1.078  0.2355 -0.1251  0.2546
   15CHTO  H101 6150   7.093   1.467   1.120 -0.6011 -1.2538  0.3760
   15CHTO   C66 6151   7.047   1.404   0.853 -0.4143 -0.4364  0.3595
   15CHTO  H123 6152   7.010   1.329   0.783 -0.6906  0.1609 -0.1377
   15CHTO   N12 6153   6.928   1.491   0.889 -0.0071  0.3933 -0.3353
   15CHTO  H110 6154   6.961   1.568   0.957  1.3437 -1.5207  1.2172
   15CHTO  H111 6155   6.853   1.426   0.931  0.9898 -0.8492 -0.4513
   15CHTO   C69 6156   7.151   1.481   0.773 -0.4164  0.2452 -0.3693
   15CHTO  H126 6157   7.193   1.555   0.844  0.8273 -1.9019  1.2074
   15CHTO   O41 6158   7.252   1.371   0.722  0.3610 -0.2262 -0.1849
   15CHTO   C64 6159   7.317   1.298   0.832  0.0679  0.5075 -0.7442
   15CHTO  H121 6160   7.372   1.364   0.902  0.4393 -0.7425  0.1544
   15CHTO   C71 6161   7.421   1.209   0.761  0.0454 -0.1599  0.0641
   15CHTO   O47 6162   7.504   1.159   0.865 -0.2342  0.5086 -0.0126
   15CHTO  H104 6163   7.480   1.072   0.891  1.3069  0.4283  1.1839
   15CHTO   O34 6164   7.104   1.538   0.663  0.5891 -0.8414 -0.0014
   15CHTO   C49 6165   7.057   1.603   0.547 -0.6130 -0.0360 -0.5853
   15CHTO   H91 6166   7.107   1.545   0.470 -0.0956 -0.9672  0.4299
   15CHTO   C47 6167   7.107   1.751   0.553 -0.5506  0.6539  0.1501
   15CHTO   H89 6168   7.081   1.797   0.455  1.9046  1.8514  0.0166
   15CHTO   O33 6169   7.248   1.752   0.564  0.5936 -0.2458  0.2711
   15CHTO   H70 6170   7.290   1.834   0.545 -0.8171  0.2800 -0.6258
   15CHTO   C45 6171   7.034   1.822   0.674  0.4812 -0.8403 -0.2692
   15CHTO   H87 6172   7.045   1.758   0.763 -2.1282 -0.8351  0.0758
   15CHTO    N8 6173   7.076   1.956   0.705 -0.0488 -0.5779 -0.9173
   15CHTO   H75 6174   6.992   2.015   0.738  0.7962  0.3864 -0.4321
   15CHTO   H76 6175   7.161   1.967   0.771 -0.4228 -0.4125 -0.4585
   15CHTO   C43 6176   6.879   1.825   0.640 -0.1667  0.3423 -0.5174
   15CHTO   H85 6177   6.825   1.863   0.726  1.3354 -0.1929  0.6920
   15CHTO   O29 6178   6.838   1.687   0.627 -0.3075 -0.0525  0.1696
   15CHTO   C50 6179   6.910   1.609   0.533  0.1265  0.0227 -0.8670
   15CHTO   H92 6180   6.877   1.507   0.556 -0.1616  0.2244 -0.3812
   15CHTO   C54 6181   6.864   1.631   0.388 -0.6105  0.2279  0.0592
   15CHTO   O36 6182   6.724   1.630   0.370  0.0078 -0.0265 -0.2173
   15CHTO   H72 6183   6.698   1.630   0.280 -1.2740 -0.1110  0.1456
   15CHTO   O27 6184   6.842   1.914   0.533  0.4426  0.0494 -0.6474
   15CHTO   C37 6185   6.750   1.982   0.446  0.3932 -0.4917 -0.4508
   15CHTO   H79 6186   6.706   1.923   0.364  0.6840  1.2655 -1.9121
   15CHTO   C38 6187   6.630   2.043   0.532  0.5798  0.5225 -0.0347
   15CHTO   H80 6188   6.678   2.097   0.614 -1.7268  1.8220  0.5017
   15CHTO   O31 6189   6.550   1.934   0.586 -0.3228 -0.5219 -0.0459
   15CHTO   H68 6190   6.557   1.865   0.523  1.3117 -0.0922 -0.3700
   15CHTO   C39 6191   6.540   2.140   0.448 -0.0609  0.1771 -0.9852
   15CHTO   H81 6192   6.478   2.082   0.379 -1.6610 -1.5148  1.8110
   15CHTO    N7 6193   6.446   2.215   0.537  0.3977 -0.3541  0.2556
   15CHTO   H73 6194   6.356   2.220   0.477  1.8227  0.2891 -1.8889
   15CHTO   H74 6195   6.432   2.176   0.637 -1.9959  1.8191  0.8305
   15CHTO   C40 6196   6.624   2.246   0.360 -0.0958 -0.4908 -0.4352
   15CHTO   H82 6197   6.654   2.344   0.395 -3.5677  0.5763 -0.2391
   15CHTO   O26 6198   6.730   2.175   0.297  0.0727  0.0178  0.6573
   15CHTO   C41 6199   6.824   2.105   0.382 -0.0806  0.3607  0.6469
   15CHTO   H83 6200   6.857   2.170   0.465 -0.0344  1.5823 -0.3118
   15CHTO   C52 6201   6.949   2.069   0.292 -0.1552  0.1664 -0.3763
   15CHTO   O35 6202   7.060   2.028   0.373  0.0835  0.3471 -0.8020
   15CHTO   H71 6203   7.065   1.935   0.384  2.7341  0.5492  0.1463
   15CHTO   O28 6204   6.543   2.281   0.245 -0.2797 -0.1143  0.8346
   15CHTO   C42 6205   6.557   2.398   0.158 -0.1743  0.4758 -0.4917
   15CHTO   H84 6206   6.511   2.368   0.064 -0.4690  0.1916 -0.2578
   15CHTO   C44 6207   6.698   2.458   0.112 -0.9648 -0.6333 -0.0091
   15CHTO   H86 6208   6.754   2.478   0.203 -0.7044 -1.2114 -0.0403
   15CHTO   O32 6209   6.765   2.352   0.047 -0.1227 -0.0957 -0.2170
   15CHTO   H69 6210   6.783   2.287   0.112 -2.5636  0.0311  0.6382
   15CHTO   C48 6211   6.679   2.589   0.018 -0.0975 -0.2891 -1.0269
   15CHTO   H90 6212   6.630   2.558  -0.074  1.8049  0.3076 -2.2740
   15CHTO    N9 6213   6.814   2.650  -0.023 -0.4435 -0.4258  0.7562
   15CHTO   H77 6214   6.792   2.747  -0.067 -1.0665 -0.7446  0.3529
   15CHTO   H78 6215   6.860   2.599  -0.106 -3.2309 -0.5575 -0.7763
   15CHTO   C51 6216   6.591   2.687   0.093  0.2001  0.1050 -0.0517
   15CHTO   H93 6217   6.645   2.714   0.184  0.8827 -1.3389 -0.0095
   15CHTO   O30 6218   6.462   2.623   0.112 -0.3298 -0.0313  0.0966
   15CHTO   C46 6219   6.464   2.509   0.214  0.6074 -0.2247 -0.5493
   15CHTO   H88 6220   6.498   2.552   0.308 -1.4980  0.9433 -0.2731
   15CHTO   C53 6221   6.325   2.453   0.239 -0.2869  0.3108 -0.0018
   15CHTO   O72 6222   6.228   2.554   0.265 -0.5922  0.5711  0.5902
   15CHTO  H199 6223   6.197   2.550   0.354 -1.3133  0.3057  0.3295
   15CHTO   O22 6224   6.563   2.803   0.009 -1.1332  0.5905 -0.2176
   15CHTO   C31 6225   6.504   2.923   0.065 -0.4769 -0.3337 -0.2092
   15CHTO   H59 6226   6.480   2.985  -0.024 -1.1714 -0.0050  0.2079
   15CHTO   C29 6227   6.369   2.897   0.132 -0.1403  0.1341 -0.8655
   15CHTO   H57 6228   6.383   2.827   0.216  0.2949 -0.0068 -1.0540
   15CHTO   O21 6229   6.278   2.841   0.042  0.2674  0.0652 -0.4662
   15CHTO   H37 6230   6.306   2.760   0.005 -0.3821 -1.9088  3.1966
   15CHTO   C27 6231   6.309   3.030   0.200  0.2172  0.1891 -0.1514
   15CHTO   H55 6232   6.277   3.101   0.122  1.0151  1.0742  0.3270
   15CHTO    N5 6233   6.188   2.998   0.281 -0.0587  0.0297  0.0140
   15CHTO   H43 6234   6.126   3.080   0.314 -1.0922 -0.7480  0.0258
   15CHTO   H44 6235   6.134   2.919   0.231 -0.8466 -0.4420  1.5466
   15CHTO   C25 6236   6.422   3.098   0.280  0.3596  0.3671  0.0804
   15CHTO   H53 6237   6.453   3.035   0.364  0.1970 -0.3982 -0.4350
   15CHTO   O17 6238   6.537   3.126   0.194  0.4246  0.1113 -0.2114
   15CHTO   C32 6239   6.605   3.005   0.153  0.0743  0.7825 -0.0552
   15CHTO   H60 6240   6.637   2.955   0.244  2.5191 -0.7190 -1.6919
   15CHTO   C36 6241   6.727   3.049   0.067  0.2045 -0.3220  0.0287
   15CHTO   O25 6242   6.834   3.116   0.132  0.2195  0.1236  0.2011
   15CHTO   H40 6243   6.808   3.195   0.175 -0.2221  0.2947 -0.3788
   15CHTO   O15 6244   6.372   3.237   0.339  0.0284  0.4957  0.6916
   15CHTO   C19 6245   6.435   3.344   0.394 -0.3050 -0.4518 -0.0859
   15CHTO   H47 6246   6.525   3.363   0.334 -0.9782 -0.7389 -1.1965
   15CHTO   C20 6247   6.352   3.474   0.407 -0.5758  0.0579 -0.0443
   15CHTO   H48 6248   6.258   3.457   0.462 -0.8949  1.7230 -0.0286
   15CHTO   O19 6249   6.308   3.503   0.277  0.9953 -0.3790  0.0046
   15CHTO   H35 6250   6.374   3.502   0.210 -0.7099  2.4202 -1.8099
   15CHTO   C21 6251   6.436   3.594   0.474 -0.2284 -0.7675 -0.5639
   15CHTO   H49 6252   6.516   3.618   0.405 -0.3628 -2.5739 -1.3598
   15CHTO    N4 6253   6.359   3.721   0.488  0.0337 -0.0144 -0.7315
   15CHTO   H41 6254   6.331   3.746   0.386 -1.3370 -2.4221 -0.9907
   15CHTO   H42 6255   6.414   3.801   0.534  0.0276 -1.1380  1.2627
   15CHTO   C22 6256   6.494   3.545   0.611  0.7667 -0.3600 -0.2061
   15CHTO   H50 6257   6.418   3.542   0.689  0.7955 -0.2172 -0.1718
   15CHTO   O14 6258   6.562   3.428   0.588  0.5358 -0.4405 -0.0387
   15CHTO   C23 6259   6.488   3.313   0.538 -0.2032 -0.2713 -0.1191
   15CHTO   H51 6260   6.408   3.285   0.607 -1.6333 -0.7299 -1.9199
   15CHTO   C34 6261   6.590   3.199   0.544  0.4723  0.0533  0.0599
   15CHTO   O23 6262   6.697   3.229   0.452 -0.0774  0.1189  0.5226
   15CHTO   H38 6263   6.745   3.149   0.437  1.8753  1.2467  0.5780
   15CHTO   O16 6264   6.604   3.625   0.649 -0.2328  0.0423  0.2800
   15CHTO   C24 6265   6.640   3.621   0.813  0.4247 -0.0912  0.3726
   15CHTO   H52 6266   6.596   3.536   0.865 -0.5669 -0.3580 -0.8688
   15CHTO   C26 6267   6.598   3.758   0.863  1.1277  0.3966  0.2107
   15CHTO   H54 6268   6.621   3.837   0.789  0.1839 -1.0531 -1.6818
   15CHTO   O20 6269   6.454   3.760   0.877  0.5145 -0.0362  0.1038
   15CHTO   H36 6270   6.431   3.784   0.965 -0.4638 -0.0537 -0.1442
   15CHTO   C30 6271   6.675   3.799   0.993  0.6765 -0.7854 -0.0868
   15CHTO   H58 6272   6.649   3.733   1.077  2.3159 -2.0810 -0.5759
   15CHTO    N6 6273   6.643   3.932   1.046 -0.4973  0.3526  0.0416
   15CHTO   H45 6274   6.676   4.007   0.977 -0.3714 -0.0135 -0.2972
   15CHTO   H46 6275   6.536   3.944   1.053 -0.6028 -0.4593 -0.0928
   15CHTO   C33 6276   6.825   3.787   0.974 -0.4295  0.1246 -1.1210
   15CHTO   H61 6277   6.855   3.849   0.889 -1.0573 -0.1772 -1.5637
   15CHTO   O18 6278   6.837   3.649   0.947 -0.0630  0.6564 -0.0545
   15CHTO   C28 6279   6.791   3.608   0.819  0.5027  0.2758 -0.1780
   15CHTO   H56 6280   6.831   3.671   0.740  1.0863  0.6946  0.4395
   15CHTO   C35 6281   6.836   3.469   0.789  0.1586 -0.3504 -0.0137
   15CHTO   O24 6282   6.979   3.454   0.797  0.4275  0.1080  0.0721
   15CHTO   H39 6283   6.999   3.370   0.759 -0.6468  0.1344 -0.5608
   15CHTO    O9 6284   6.907   3.826   1.090 -0.1372 -0.0695 -0.6600
   15CHTO   C13 6285   7.049   3.897   1.056  0.7822 -0.2494  0.2957
   15CHTO   H26 6286   7.032   3.996   1.010 -1.6291 -0.0892  1.4557
   15CHTO   C11 6287   7.115   3.801   0.957  0.9609  0.4798  0.7456
   15CHTO   H24 6288   7.062   3.800   0.861  1.3051 -0.2987  0.5707
   15CHTO    O8 6289   7.125   3.668   1.008  0.1485  0.0687  0.0573
   15CHTO    H3 6290   7.038   3.633   1.013  0.2286 -0.1747 -0.2496
   15CHTO    C9 6291   7.250   3.872   0.922 -0.2363 -0.3384 -0.1604
   15CHTO   H22 6292   7.230   3.979   0.904  0.7619  0.4641  3.1204
   15CHTO    N2 6293   7.311   3.816   0.803 -0.1947 -0.1107  0.5971
   15CHTO   H10 6294   7.350   3.716   0.817 -1.1004 -0.5213  0.2284
   15CHTO   H11 6295   7.377   3.882   0.749 -0.7127  0.7977  1.0580
   15CHTO    C7 6296   7.350   3.860   1.048  0.9398 -0.1953  0.3781
   15CHTO   H20 6297   7.429   3.937   1.034  0.6254  0.2450  1.0068
   15CHTO    O4 6298   7.283   3.906   1.168  0.2904 -0.0658 -0.3115
   15CHTO   C14 6299   7.134   3.908   1.188 -0.3146 -0.0851  0.5179
   15CHTO   H27 6300   7.110   4.010   1.224 -3.2129  0.1126 -1.8293
   15CHTO   C18 6301   7.107   3.811   1.299  0.7222  0.0101 -0.1160
   15CHTO   O13 6302   7.177   3.834   1.417 -0.4599  0.3098  0.0860
   15CHTO    H7 6303   7.121   3.805   1.488  0.1896  1.0530  0.9139
   15CHTO    O2 6304   7.400   3.722   1.084 -0.0269 -0.0573 -0.0828
   15CHTO    C1 6305   7.469   3.701   1.211  0.2341  0.1512 -0.5325
   15CHTO   H14 6306   7.410   3.750   1.291 -0.4003  0.9073 -1.4558
   15CHTO    C2 6307   7.622   3.749   1.207  0.0949  0.9957  0.4965
   15CHTO   H15 6308   7.666   3.701   1.118 -1.8704  0.8563 -0.4298
   15CHTO    O6 6309   7.628   3.890   1.181 -0.2724 -0.3350  0.0349
   15CHTO    H1 6310   7.616   3.933   1.264 -0.9377 -0.9263  0.2447
   15CHTO    C3 6311   7.703   3.706   1.339  0.4322  0.1036  0.0407
   15CHTO   H16 6312   7.677   3.762   1.430 -1.2655  0.0420 -0.3948
   15CHTO    N1 6313   7.847   3.734   1.319 -0.4162  0.1473 -0.4005
   15CHTO    H8 6314   7.900   3.791   1.395 -0.2840 -0.0973 -0.3094
   15CHTO    H9 6315   7.870   3.781   1.224 -2.6609  0.0928 -0.9864
   15CHTO    C4 6316   7.674   3.558   1.379 -0.7097  0.1061 -0.8428
   15CHTO   H17 6317   7.719   3.494   1.303 -0.8159  0.2175 -0.9989
   15CHTO    O1 6318   7.531   3.521   1.377  0.1607 -0.0526  0.2259
   15CHTO    C5 6319   7.465   3.549   1.252  0.3922 -0.0159 -0.5610
   15CHTO   H18 6320   7.512   3.491   1.172 -0.2902 -2.4545  0.7417
   15CHTO   C16 6321   7.318   3.491   1.266  0.1458 -0.1403 -0.2748
   15CHTO   O11 6322   7.262   3.484   1.131  0.0607  0.1034 -0.2259
   15CHTO    H5 6323   7.310   3.433   1.068 -0.1859 -0.0865 -0.2596
   15CHTO    O3 6324   7.714   3.534   1.516 -0.5771  0.4449 -0.2826
   15CHTO    C6 6325   7.708   3.391   1.563  0.8828  0.4124  0.5136
   15CHTO   H19 6326   7.634   3.340   1.502  0.3324  0.0649  1.4508
   15CHTO    C8 6327   7.849   3.319   1.548  0.1132 -0.3119  0.2907
   15CHTO   H21 6328   7.921   3.383   1.600 -1.0056  0.2831  1.1456
   15CHTO    O7 6329   7.884   3.308   1.410  0.2537  0.2220 -0.3302
   15CHTO    H2 6330   7.978   3.307   1.409  0.2935  0.2215  1.1679
   15CHTO   C12 6331   7.847   3.172   1.615  0.1318 -0.8388  0.0857
   15CHTO   H25 6332   7.780   3.115   1.546  1.2292 -1.8703 -0.1433
   15CHTO    N3 6333   7.974   3.103   1.617 -0.8189 -0.0944  0.2505
   15CHTO   H12 6334   7.972   3.012   1.675 -0.0368 -0.6111 -0.5224
   15CHTO   H13 6335   8.055   3.171   1.640  1.1413 -2.0679 -0.6683
   15CHTO   C15 6336   7.776   3.174   1.756  0.4401  0.1174  0.2456
   15CHTO   H28 6337   7.838   3.214   1.836 -1.4220 -0.6463  2.1019
   15CHTO   O10 6338   7.723   3.034   1.796  0.3557  0.1176  0.3703
   15CHTO    H4 6339   7.793   2.983   1.832  0.9405  0.6835  0.0501
   15CHTO    O5 6340   7.654   3.248   1.755 -0.1205 -0.3236  0.3191
   15CHTO   C10 6341   7.661   3.382   1.711 -0.2349  0.7838  0.2970
   15CHTO   H23 6342   7.723   3.443   1.776  1.0502  0.1863 -0.3289
   15CHTO   C17 6343   7.526   3.440   1.733 -0.1407 -0.3395  0.3318
   15CHTO   O12 6344   7.492   3.460   1.869 -0.1646 -0.3338 -0.4811
   15CHTO    H6 6345   7.454   3.382   1.905  1.6758 -1.5934 -1.1581
   16CHTO  H203 6346   5.290   3.639   0.876 -0.9973  0.3911 -1.1908
   16CHTO   O82 6347   5.351   3.709   0.861 -0.2848  0.0343 -0.0660
   16CHTO  C123 6348   5.444   3.673   0.756  0.9961 -0.2461  0.0274
   16CHTO  H227 6349   5.416   3.722   0.661  0.8328  0.4103  0.4140
   16CHTO   O77 6350   5.569   3.727   0.806  0.2948 -0.2916 -0.4579
   16CHTO  C118 6351   5.679   3.720   0.721  0.0000 -0.2529  0.2617
   16CHTO  H222 6352   5.658   3.756   0.619  3.7026  1.0971 -0.0898
   16CHTO  C125 6353   5.793   3.815   0.779  0.1106 -0.2261  0.6019
   16CHTO   O84 6354   5.848   3.770   0.908  0.3177  0.6972  0.4385
   16CHTO  H205 6355   5.919   3.717   0.878 -2.2420 -1.2596 -2.6481
   16CHTO  C114 6356   5.725   3.573   0.709  0.2726 -0.1401  0.4085
   16CHTO  H218 6357   5.755   3.540   0.809  3.0517 -1.2625 -0.7468
   16CHTO  C116 6358   5.602   3.484   0.660 -0.1427  0.2365  0.3250
   16CHTO  H220 6359   5.592   3.494   0.550 -0.0189  0.6899  0.3528
   16CHTO   O79 6360   5.635   3.345   0.676 -0.1454 -0.2257  0.1379
   16CHTO  H201 6361   5.705   3.321   0.619  0.8045 -0.3047  1.3258
   16CHTO  C120 6362   5.472   3.519   0.741 -0.4033 -0.2767 -0.0345
   16CHTO  H224 6363   5.496   3.491   0.846  0.2724  0.3761 -0.0164
   16CHTO   N21 6364   5.352   3.441   0.699  0.0658 -0.1937  0.0560
   16CHTO  H211 6365   5.292   3.424   0.787 -1.5202  1.4551 -0.6637
   16CHTO  H212 6366   5.295   3.490   0.621  0.7244  0.3301 -0.1082
   16CHTO   O75 6367   5.834   3.577   0.615  0.2942  0.2216  0.1898
   16CHTO  C112 6368   5.959   3.453   0.612  0.0664 -0.7087 -0.4121
   16CHTO  H216 6369   6.015   3.472   0.519  0.0745 -1.7564 -0.6276
   16CHTO   O73 6370   5.898   3.321   0.615 -0.1459  0.3426 -0.3309
   16CHTO  C113 6371   5.981   3.210   0.584  0.1982 -0.1112 -0.6304
   16CHTO  H217 6372   6.029   3.245   0.490 -0.0342  1.6353 -0.1082
   16CHTO  C124 6373   5.901   3.078   0.565  0.2546 -0.0703 -0.2108
   16CHTO   O83 6374   5.795   3.104   0.474 -0.1624 -0.6836 -0.0203
   16CHTO  H204 6375   5.773   3.024   0.429  0.7454 -2.3052  2.3135
   16CHTO  C109 6376   6.094   3.204   0.688 -1.5345  0.1923 -0.1729
   16CHTO  H213 6377   6.053   3.162   0.781  0.3049 -1.7989 -0.2150
   16CHTO  C110 6378   6.164   3.342   0.719  0.2209 -0.3529 -0.3544
   16CHTO  H214 6379   6.225   3.368   0.633 -0.9312 -1.4245 -1.5260
   16CHTO   O78 6380   6.244   3.322   0.835 -0.0742 -0.4915  0.4741
   16CHTO  H200 6381   6.284   3.238   0.826 -1.1666 -0.9291 -0.4620
   16CHTO  C111 6382   6.058   3.453   0.738 -0.7437  0.2510  0.1322
   16CHTO  H215 6383   6.006   3.433   0.833 -2.1879 -1.5633 -1.0040
   16CHTO   N19 6384   6.120   3.586   0.753  0.0238 -0.5205 -0.8349
   16CHTO  H207 6385   6.208   3.583   0.690  0.1398  0.9346 -0.7690
   16CHTO  H208 6386   6.161   3.602   0.852 -2.3883 -2.4794  0.5186
   16CHTO   O74 6387   6.198   3.114   0.645 -0.0262  0.1277  0.2191
   16CHTO  C115 6388   6.240   2.994   0.763  0.5472 -0.3689 -0.2746
   16CHTO  H219 6389   6.194   3.014   0.860  1.8486  0.6020  0.1512
   16CHTO   O76 6390   6.169   2.847   0.722  0.1379 -0.1451 -0.1328
   16CHTO  C122 6391   6.236   2.795   0.608 -0.0022  0.0689  0.0822
   16CHTO  H226 6392   6.228   2.863   0.523 -0.0527  0.9349  0.7751
   16CHTO  C126 6393   6.174   2.658   0.562  0.5627  0.0637 -0.0143
   16CHTO   O85 6394   6.025   2.654   0.558 -0.3765  0.1095 -0.2581
   16CHTO  H206 6395   5.993   2.637   0.644  1.5775  2.0467  0.9201
   16CHTO  C121 6396   6.395   2.775   0.634  0.3629 -0.3151  0.9965
   16CHTO  H225 6397   6.404   2.664   0.636  3.0399 -0.1806 -0.6680
   16CHTO   O81 6398   6.470   2.824   0.523 -0.1385  0.1921 -0.0689
   16CHTO  H202 6399   6.485   2.916   0.517  1.1319  0.0934  1.2389
   16CHTO  C119 6400   6.447   2.843   0.763  0.1852  0.6529 -0.3297
   16CHTO  H223 6401   6.404   2.780   0.841  0.1001  0.2838 -0.6716
   16CHTO  C117 6402   6.392   2.989   0.783 -0.4795  0.2955 -0.0040
   16CHTO  H221 6403   6.433   3.062   0.713  0.8135 -0.9736 -0.6034
   16CHTO   N20 6404   6.437   3.036   0.916 -0.4683 -0.1508  0.5435
   16CHTO  H209 6405   6.376   2.999   0.997 -1.4682 -2.2832 -1.1298
   16CHTO  H210 6406   6.448   3.144   0.923 -1.5834  0.0216 -0.2626
   16CHTO   O80 6407   6.609   2.815   0.785 -0.0039 -0.0649  0.8794
   16CHTO  C103 6408   6.652   2.664   0.825 -0.2137 -0.2477  0.0380
   16CHTO  H190 6409   6.569   2.606   0.864 -0.1253  0.0449  0.6662
   16CHTO  C101 6410   6.728   2.581   0.718  0.6092  0.2768 -1.0190
   16CHTO  H188 6411   6.812   2.631   0.668 -0.2536  0.7748 -2.0005
   16CHTO   O68 6412   6.631   2.558   0.612  0.2913  0.0695 -0.0472
   16CHTO  H168 6413   6.542   2.543   0.638  0.2334  1.2044  0.4176
   16CHTO   C99 6414   6.797   2.440   0.775 -0.6920  0.2456  0.1338
   16CHTO  H186 6415   6.711   2.375   0.804 -1.5259  1.1013 -0.3809
   16CHTO   N17 6416   6.880   2.365   0.675 -0.4521 -0.6725  0.7239
   16CHTO  H174 6417   6.940   2.282   0.710 -0.1477 -0.2488  1.2435
   16CHTO  H175 6418   6.929   2.437   0.611 -2.9148 -1.4339 -2.0732
   16CHTO   C97 6419   6.877   2.467   0.901 -0.3931 -0.2010 -0.4037
   16CHTO  H184 6420   6.977   2.505   0.873 -0.8361  1.2888  0.0029
   16CHTO   O64 6421   6.808   2.554   0.994  0.2523  0.5033  0.2105
   16CHTO  C104 6422   6.761   2.677   0.941  0.5175 -0.0391  0.0450
   16CHTO  H191 6423   6.847   2.732   0.904  0.1287  2.6774  2.9486
   16CHTO  C108 6424   6.694   2.765   1.051  0.9844  0.5392  0.5285
   16CHTO   O71 6425   6.784   2.768   1.165  0.2092  0.2825  0.1433
   16CHTO  H171 6426   6.841   2.843   1.161  0.3188  0.1842 -0.1545
   16CHTO   O62 6427   6.896   2.340   0.973  0.1036 -0.7259  0.2285
   16CHTO   C91 6428   6.973   2.337   1.095  0.2416  0.0583 -0.9237
   16CHTO  H178 6429   7.062   2.401   1.089  1.2120 -0.8709  2.6795
   16CHTO   C92 6430   7.039   2.196   1.125  0.4300 -0.2903 -0.5956
   16CHTO  H179 6431   7.082   2.157   1.032 -1.0521  1.5449 -2.1049
   16CHTO   O66 6432   7.153   2.215   1.212  0.3382  0.5225  0.3245
   16CHTO  H166 6433   7.231   2.245   1.169 -0.3907  0.1428 -1.2921
   16CHTO   C93 6434   6.930   2.093   1.167 -0.1181  0.8202  0.2295
   16CHTO  H180 6435   6.995   2.024   1.223 -2.6029 -1.4157  0.4819
   16CHTO   N16 6436   6.870   2.015   1.056  0.1645 -0.2726  0.2388
   16CHTO  H172 6437   6.833   2.085   0.982 -2.0256 -0.9769  0.6137
   16CHTO  H173 6438   6.781   1.957   1.079 -0.4857  1.0648  1.1652
   16CHTO   C94 6439   6.826   2.148   1.264  0.2209 -0.0051  0.3211
   16CHTO  H181 6440   6.731   2.167   1.214  1.7612  0.1696 -2.6940
   16CHTO   O61 6441   6.872   2.272   1.317 -0.7047 -0.3545 -0.3870
   16CHTO   C95 6442   6.888   2.385   1.223 -0.4401 -0.2753 -0.3100
   16CHTO  H182 6443   6.792   2.424   1.190 -0.5914  1.6999  2.3428
   16CHTO  C106 6444   6.979   2.494   1.289 -0.2798  0.2922 -0.3350
   16CHTO   O69 6445   7.008   2.603   1.204 -0.4906 -0.3503  0.2297
   16CHTO  H169 6446   7.023   2.680   1.255  1.1314  0.6835 -1.7175
   16CHTO   O63 6447   6.820   2.060   1.385  0.3826  0.3775 -0.4039
   16CHTO   C96 6448   6.659   2.034   1.437 -0.0177 -0.6763  0.6853
   16CHTO  H183 6449   6.659   1.985   1.534 -2.3845  0.6290  1.3956
   16CHTO   C98 6450   6.576   1.951   1.333 -0.1069 -1.3946  0.2986
   16CHTO  H185 6451   6.578   2.004   1.237  0.9604 -1.6302  0.1858
   16CHTO   O67 6452   6.642   1.828   1.313 -0.5164 -0.1859 -0.6031
   16CHTO  H167 6453   6.586   1.770   1.265 -0.0096 -0.7157 -0.5695
   16CHTO  C102 6454   6.428   1.923   1.380 -0.4986 -0.8080 -0.0259
   16CHTO  H189 6455   6.438   1.888   1.483  2.4926 -2.3542 -0.7836
   16CHTO   N18 6456   6.346   1.824   1.306 -0.1612  0.2104  0.1655
   16CHTO  H176 6457   6.331   1.845   1.201  2.2283 -1.0740 -0.4735
   16CHTO  H177 6458   6.404   1.734   1.320  1.2652  1.1716  0.5058
   16CHTO  C105 6459   6.358   2.061   1.387  0.0414 -0.1262  0.0668
   16CHTO  H192 6460   6.355   2.101   1.286 -2.0433 -1.4361 -0.4178
   16CHTO   O65 6461   6.437   2.154   1.471 -0.5689 -0.3643 -0.1391
   16CHTO  C100 6462   6.578   2.170   1.447 -0.5110  0.0346 -0.5337
   16CHTO  H187 6463   6.586   2.233   1.357 -1.1723  0.4632 -0.2954
   16CHTO  C107 6464   6.624   2.260   1.562  0.1204  0.0928 -0.2289
   16CHTO   O70 6465   6.547   2.379   1.591  0.0124  0.2093 -0.8412
   16CHTO  H170 6466   6.586   2.452   1.546 -1.3681  0.7695 -1.1805
   16CHTO   O57 6467   6.221   2.050   1.447  0.0720  0.2260  0.4524
   16CHTO   C85 6468   6.126   2.148   1.401 -0.8612 -0.9418 -0.3321
   16CHTO  H157 6469   6.146   2.169   1.294  2.2795  1.8369  0.6925
   16CHTO   C83 6470   6.151   2.286   1.469 -0.4686  0.0566 -0.3075
   16CHTO  H155 6471   6.256   2.312   1.455 -0.0602 -1.1348  0.4731
   16CHTO   O56 6472   6.144   2.268   1.608  0.1275  0.4545 -0.6202
   16CHTO  H135 6473   6.210   2.317   1.653 -0.7224 -0.0006  1.1791
   16CHTO   C81 6474   6.064   2.394   1.401 -0.9053  0.3082 -0.5798
   16CHTO  H153 6475   6.090   2.405   1.296 -0.1846  1.5666 -0.2854
   16CHTO   N14 6476   6.085   2.531   1.459 -0.1246 -0.2668 -0.6839
   16CHTO  H141 6477   6.012   2.605   1.436 -1.1542 -0.7165  1.0639
   16CHTO  H142 6478   6.184   2.569   1.455 -0.1602 -0.1152 -0.0863
   16CHTO   C79 6479   5.912   2.346   1.413 -0.0585  0.1515  0.1824
   16CHTO  H151 6480   5.855   2.412   1.349 -0.2958 -0.4770 -0.2653
   16CHTO   O52 6481   5.896   2.207   1.377  0.1944  0.3139 -0.3549
   16CHTO   C86 6482   5.981   2.107   1.428  0.2665  0.2145  0.7946
   16CHTO  H158 6483   5.959   2.095   1.536  0.5433 -0.8475  0.7453
   16CHTO   C90 6484   5.937   1.970   1.367  0.1126 -0.1485 -0.0757
   16CHTO   O60 6485   5.795   1.951   1.388  0.1612 -0.5278 -0.2080
   16CHTO  H138 6486   5.759   1.938   1.303  1.3802  0.7823 -0.9585
   16CHTO   O50 6487   5.860   2.366   1.545  0.1633 -0.1175  0.3722
   16CHTO   C73 6488   5.759   2.338   1.647 -0.1287  0.5894 -1.2293
   16CHTO  H145 6489   5.768   2.232   1.673  1.1994  0.4191 -2.3274
   16CHTO   C74 6490   5.620   2.376   1.587 -1.0876  0.8323 -0.3064
   16CHTO  H146 6491   5.613   2.306   1.502  0.8448 -2.9606  2.5212
   16CHTO   O54 6492   5.522   2.337   1.681  0.3615 -0.7201 -0.3565
   16CHTO  H133 6493   5.438   2.355   1.643  0.8806 -0.0230 -1.2155
   16CHTO   C75 6494   5.618   2.529   1.543 -0.1898 -0.2964 -0.3933
   16CHTO  H147 6495   5.694   2.541   1.464  1.2282  1.3163  1.1788
   16CHTO   N13 6496   5.494   2.579   1.483  0.2825 -0.4307 -0.0226
   16CHTO  H139 6497   5.483   2.686   1.495  1.5489 -0.0322 -2.0427
   16CHTO  H140 6498   5.409   2.526   1.524  0.4056 -0.3904  0.2822
   16CHTO   C76 6499   5.675   2.622   1.657 -0.3336 -0.1562 -0.2652
   16CHTO  H148 6500   5.590   2.639   1.723  0.8286  1.1579  0.9291
   16CHTO   O49 6501   5.785   2.564   1.720  0.2108 -0.0597 -0.2257
   16CHTO   C77 6502   5.785   2.428   1.763 -0.4054 -0.1891 -0.3567
   16CHTO  H149 6503   5.712   2.408   1.842  1.6599 -1.9801  1.1964
   16CHTO   C88 6504   5.917   2.394   1.832  0.4189  0.1337 -0.0497
   16CHTO   O58 6505   6.032   2.456   1.769 -0.5422  0.3268  0.1815
   16CHTO  H136 6506   6.103   2.470   1.828 -1.7043 -1.1823  1.9842
   16CHTO   O51 6507   5.741   2.747   1.608  0.0979  0.0920  0.5539
   16CHTO   C78 6508   5.750   2.848   1.729 -0.2754 -0.0422  0.1188
   16CHTO  H150 6509   5.742   2.798   1.828  0.3534 -0.8947 -0.2514
   16CHTO   C80 6510   5.651   2.966   1.728 -0.1563  0.0917  0.3421
   16CHTO  H152 6511   5.660   3.024   1.633 -0.2497  0.9723  0.8691
   16CHTO   O55 6512   5.525   2.901   1.730 -0.3124  0.3421  0.2212
   16CHTO  H134 6513   5.519   2.832   1.668 -0.5866 -0.0340  0.6702
   16CHTO   C84 6514   5.681   3.056   1.849  0.4320  0.3864  0.3179
   16CHTO  H156 6515   5.677   2.998   1.941  0.1351 -0.2274 -0.0793
   16CHTO   N15 6516   5.579   3.172   1.852 -0.2540  0.2613 -0.2594
   16CHTO  H143 6517   5.550   3.187   1.954  1.2759 -0.1500  0.2440
   16CHTO  H144 6518   5.495   3.148   1.789  0.6714 -0.8391 -1.0943
   16CHTO   C87 6519   5.827   3.109   1.844  0.4496  0.2679 -0.2087
   16CHTO  H159 6520   5.844   3.170   1.755 -0.5737 -1.8432 -1.9063
   16CHTO   O53 6521   5.913   2.986   1.845  0.0195  0.3098  0.5440
   16CHTO   C82 6522   5.892   2.902   1.726  0.0762 -0.1142  0.2751
   16CHTO  H154 6523   5.914   2.963   1.638 -0.6791  1.3867  1.0919
   16CHTO   C89 6524   6.002   2.796   1.731 -0.3121 -0.3325  0.2894
   16CHTO   O59 6525   6.142   2.836   1.725 -0.0361  0.7171 -0.1055
   16CHTO  H137 6526   6.180   2.757   1.691  0.1916  0.8081 -0.0641
   16CHTO   O45 6527   5.850   3.190   1.983 -0.1031 -0.1119  0.0546
   16CHTO   C67 6528   5.984   3.239   1.995 -0.1936  0.0853 -0.0561
   16CHTO  H124 6529   6.050   3.184   1.927  0.8021  1.2454 -0.0426
   16CHTO   C65 6530   6.006   3.387   1.969 -0.0773 -0.3791  0.4166
   16CHTO  H122 6531   5.906   3.431   1.974 -0.6901 -1.8496  1.6920
   16CHTO   O44 6532   6.072   3.406   1.844 -0.3484 -0.2929 -0.1864
   16CHTO  H102 6533   6.069   3.498   1.826 -1.1937 -0.4852 -1.0830
   16CHTO   C63 6534   6.077   3.462   2.095  0.0544  0.0406  0.3310
   16CHTO  H120 6535   6.009   3.464   2.180  1.0422 -0.9709  1.1691
   16CHTO   N11 6536   6.095   3.605   2.066  0.3386  0.4321  0.0375
   16CHTO  H108 6537   6.131   3.606   1.966  0.0502  2.4199 -0.0605
   16CHTO  H109 6538   6.174   3.648   2.124 -0.1262 -0.3329  1.2711
   16CHTO   C61 6539   6.206   3.385   2.139 -0.1567  0.4119 -0.1328
   16CHTO  H118 6540   6.244   3.426   2.233  0.6019 -0.7215  0.0562
   16CHTO   O40 6541   6.179   3.244   2.163 -0.6523  0.0292  0.4887
   16CHTO   C68 6542   6.042   3.200   2.139  0.1615 -0.9547 -0.0278
   16CHTO  H125 6543   5.973   3.256   2.206 -1.6219 -1.2442 -1.5809
   16CHTO   C72 6544   6.041   3.048   2.183  0.3811  0.6045 -0.7748
   16CHTO   O48 6545   6.105   2.951   2.100  0.4760 -0.7842 -0.1173
   16CHTO  H105 6546   6.065   2.949   2.015 -0.2590  0.5108  0.1861
   16CHTO   O38 6547   6.311   3.376   2.038 -0.0560  0.3885  0.6357
   16CHTO   C55 6548   6.446   3.342   2.092 -0.0576 -0.8762  0.7023
   16CHTO  H112 6549   6.431   3.270   2.174  0.5914 -0.1452  1.4690
   16CHTO   C56 6550   6.521   3.475   2.141 -0.1222 -0.0616 -0.0845
   16CHTO  H113 6551   6.475   3.545   2.069  1.3906 -1.3311 -2.3426
   16CHTO   O42 6552   6.470   3.498   2.273  0.3606 -0.1024 -0.6675
   16CHTO  H100 6553   6.379   3.516   2.260  0.6561  1.5586 -0.4479
   16CHTO   C57 6554   6.680   3.461   2.146 -0.3203 -0.1231 -0.2851
   16CHTO  H114 6555   6.694   3.389   2.226 -1.5290 -0.0808 -0.0252
   16CHTO   N10 6556   6.736   3.598   2.181  0.0943 -0.5040  0.0445
   16CHTO  H106 6557   6.840   3.618   2.156  0.2679 -0.7984  0.5149
   16CHTO  H107 6558   6.730   3.602   2.289 -2.1637  0.6856 -0.1126
   16CHTO   C58 6559   6.727   3.396   2.012 -0.5948  0.4117  0.1635
   16CHTO  H115 6560   6.695   3.458   1.926 -0.7932 -2.5975 -2.0082
   16CHTO   O37 6561   6.671   3.265   2.001  0.1330 -0.6174 -0.2404
   16CHTO   C59 6562   6.531   3.259   1.983  0.1000  0.0569  0.5911
   16CHTO  H116 6563   6.507   3.299   1.884  0.2174 -0.7804  0.2266
   16CHTO   C70 6564   6.492   3.114   1.978  0.1820 -0.3449  0.3712
   16CHTO   O46 6565   6.351   3.088   1.970  0.5807 -0.0293  0.0149
   16CHTO  H103 6566   6.329   2.998   1.963  1.1528 -0.1567 -0.1528
   16CHTO   O39 6567   6.891   3.388   2.018 -0.6416 -0.2480 -0.0343
   16CHTO   C60 6568   6.961   3.350   1.897 -0.2421  0.1913  0.1862
   16CHTO  H117 6569   6.923   3.256   1.859  1.3987 -0.0432 -0.9421
   16CHTO   C62 6570   6.939   3.462   1.785  0.8621 -0.7292  0.2665
   16CHTO  H119 6571   6.830   3.457   1.764  0.1774  1.1829  3.0940
   16CHTO   O43 6572   6.972   3.599   1.817  0.2637 -0.1675 -0.0778
   16CHTO  H101 6573   6.953   3.661   1.749  0.3521 -0.1018 -0.0435
   16CHTO   C66 6574   7.010   3.403   1.651 -0.2031  0.8882 -0.3788
   16CHTO  H123 6575   6.964   3.308   1.625  1.2449  0.2190 -0.5670
   16CHTO   N12 6576   6.982   3.477   1.526 -0.1960 -0.4633  0.0999
   16CHTO  H110 6577   6.884   3.455   1.486  0.3795 -1.8397 -0.5801
   16CHTO  H111 6578   7.061   3.467   1.453  0.3538 -2.0431  0.9012
   16CHTO   C69 6579   7.162   3.383   1.665  0.3297 -0.3652  0.0726
   16CHTO  H126 6580   7.217   3.480   1.668  0.6515 -0.5797  1.3560
   16CHTO   O41 6581   7.186   3.291   1.799  0.2065 -0.4792 -0.0049
   16CHTO   C64 6582   7.111   3.338   1.924 -0.5667 -0.2208 -0.1449
   16CHTO  H121 6583   7.140   3.437   1.965 -0.7461 -0.0272 -0.4873
   16CHTO   C71 6584   7.155   3.234   2.031 -0.3738  0.1656  0.0241
   16CHTO   O47 6585   7.105   3.107   1.993 -0.0407 -0.4600 -0.0926
   16CHTO  H104 6586   7.143   3.090   1.909  0.4706  2.7680 -0.5886
   16CHTO   O34 6587   7.238   3.301   1.530  0.1607 -0.2090  0.0142
   16CHTO   C49 6588   7.300   3.154   1.499  0.1463 -0.4244 -0.1521
   16CHTO   H91 6589   7.395   3.175   1.450 -1.2793  0.7458 -2.5028
   16CHTO   C47 6590   7.205   3.077   1.406  0.2676 -0.1781  0.6243
   16CHTO   H89 6591   7.257   2.983   1.376 -0.5654 -0.4603  0.0400
   16CHTO   O33 6592   7.187   3.159   1.288 -0.2933  0.5854  0.4990
   16CHTO   H70 6593   7.139   3.109   1.226  2.8549 -1.2464 -0.5868
   16CHTO   C45 6594   7.071   3.037   1.477  0.0507  0.1024 -0.0678
   16CHTO   H87 6595   7.024   3.129   1.515  0.0933  0.6003 -1.2128
   16CHTO    N8 6596   6.976   2.968   1.393 -0.5782  0.3192 -0.6637
   16CHTO   H75 6597   7.001   2.867   1.364 -1.1275 -0.3173  1.0245
   16CHTO   H76 6598   6.951   3.024   1.303 -1.7859 -1.6605 -1.5869
   16CHTO   C43 6599   7.102   2.960   1.614 -0.9075 -0.4255 -0.2293
   16CHTO   H85 6600   7.014   2.947   1.678  0.9356  3.1983  3.2312
   16CHTO   O29 6601   7.204   3.028   1.692  0.3714 -0.0246  0.5942
   16CHTO   C50 6602   7.327   3.068   1.625  0.1651 -0.0866  0.2124
   16CHTO   H92 6603   7.368   3.135   1.702 -0.5397 -0.5397  0.9980
   16CHTO   C54 6604   7.438   2.961   1.612  0.2922  0.3080  0.1561
   16CHTO   O36 6605   7.540   3.004   1.528 -0.3038  0.5827 -0.6890
   16CHTO   H72 6606   7.557   2.939   1.463  0.4431  0.8012 -0.7155
   16CHTO   O27 6607   7.144   2.825   1.587  0.3485  0.7775 -0.1383
   16CHTO   C37 6608   7.157   2.707   1.668  0.4672 -0.6497  0.5774
   16CHTO   H79 6609   7.244   2.713   1.735  0.9556  3.4365 -0.2889
   16CHTO   C38 6610   7.029   2.677   1.752  0.4100  0.1805 -0.9714
   16CHTO   H80 6611   6.940   2.688   1.689 -1.1400 -3.1077  0.5023
   16CHTO   O31 6612   7.024   2.773   1.861 -0.6641  0.2077 -0.4995
   16CHTO   H68 6613   7.104   2.766   1.908 -0.7261  2.6567  0.0520
   16CHTO   C39 6614   7.019   2.530   1.808 -0.0895  0.2633  0.1222
   16CHTO   H81 6615   7.080   2.529   1.898 -0.4338 -0.9131  0.3443
   16CHTO    N7 6616   6.879   2.489   1.852  0.4137  0.6374  0.4697
   16CHTO   H73 6617   6.809   2.571   1.845 -0.5737 -0.3296 -1.1290
   16CHTO   H74 6618   6.863   2.435   1.944 -0.9510  1.0021  0.4636
   16CHTO   C40 6619   7.078   2.417   1.707  0.1160 -0.0785 -0.4459
   16CHTO   H82 6620   7.015   2.378   1.627 -0.7619 -1.8413  1.0822
   16CHTO   O26 6621   7.200   2.468   1.661  0.6029 -0.2886 -0.5536
   16CHTO   C41 6622   7.180   2.586   1.573 -0.6355 -0.8142  0.1654
   16CHTO   H83 6623   7.097   2.578   1.501 -0.4775 -2.2414  0.1257
   16CHTO   C52 6624   7.314   2.599   1.496  0.0825  0.5380  0.7679
   16CHTO   O35 6625   7.331   2.484   1.418  0.7269 -0.1180 -0.6208
   16CHTO   H71 6626   7.369   2.514   1.337  0.6303 -1.0831 -1.0279
   16CHTO   O28 6627   7.120   2.307   1.784 -0.2234 -0.4153 -0.6613
   16CHTO   C42 6628   7.112   2.167   1.740  0.0156 -0.0623  0.0766
   16CHTO   H84 6629   7.163   2.112   1.819  0.6899 -0.1507 -0.4057
   16CHTO   C44 6630   7.188   2.124   1.605  0.1672  0.1545 -0.4612
   16CHTO   H86 6631   7.148   2.184   1.523  1.4167  0.2095 -1.0352
   16CHTO   O32 6632   7.323   2.175   1.618  0.1502 -0.4536 -0.1941
   16CHTO   H69 6633   7.357   2.131   1.694 -0.9700 -0.7877  0.1200
   16CHTO   C48 6634   7.190   1.973   1.573 -0.1866  0.2581  0.4135
   16CHTO   H90 6635   7.252   1.923   1.648 -0.8260 -0.9219  0.1719
   16CHTO    N9 6636   7.253   1.952   1.440 -0.6881  0.1254 -0.1547
   16CHTO   H77 6637   7.246   1.848   1.410  1.4749 -0.8239  2.3686
   16CHTO   H78 6638   7.196   2.007   1.367 -0.0249 -0.2750 -0.9977
   16CHTO   C51 6639   7.051   1.899   1.585 -0.1652  0.2308 -0.5720
   16CHTO   H93 6640   6.991   1.908   1.494 -1.9797  1.4734  0.6984
   16CHTO   O30 6641   6.978   1.941   1.703  0.3678  0.4471 -0.4495
   16CHTO   C46 6642   6.968   2.109   1.723  0.1422  0.6100 -0.1218
   16CHTO   H88 6643   6.914   2.155   1.640 -0.7911  0.1332  0.2120
   16CHTO   C53 6644   6.884   2.128   1.853  0.5217 -0.4283  0.3134
   16CHTO   O72 6645   6.746   2.117   1.830  0.2284  0.4830 -0.0064
   16CHTO  H199 6646   6.691   2.076   1.894 -1.1069  1.9709 -0.1827
   16CHTO   O22 6647   7.072   1.761   1.611  0.3344  0.0195  0.0305
   16CHTO   C31 6648   6.965   1.671   1.639  0.1948 -0.4827  0.4810
   16CHTO   H59 6649   6.872   1.728   1.660  1.5729  1.0900  2.4459
   16CHTO   C29 6650   6.933   1.580   1.514 -0.0875  0.1813  0.1646
   16CHTO   H57 6651   7.028   1.532   1.487 -0.1766 -0.1190  0.3863
   16CHTO   O21 6652   6.885   1.661   1.406  0.3411  0.4285  0.0100
   16CHTO   H37 6653   6.950   1.720   1.373 -0.8432  2.1834  0.7647
   16CHTO   C27 6654   6.828   1.467   1.548  0.3360  0.1376  0.1922
   16CHTO   H55 6655   6.733   1.515   1.571  0.6936 -0.4069  3.0635
   16CHTO    N5 6656   6.808   1.358   1.448  0.2883  0.8425  0.3055
   16CHTO   H43 6657   6.874   1.379   1.366  1.1417  0.4612  0.8853
   16CHTO   H44 6658   6.705   1.340   1.420  0.6099  0.5426 -0.6844
   16CHTO   C25 6659   6.873   1.398   1.683  0.4106 -0.1193 -0.5058
   16CHTO   H53 6660   6.963   1.337   1.669  0.6008 -0.2232  1.1338
   16CHTO   O17 6661   6.894   1.499   1.787  0.0004 -0.1836 -0.0704
   16CHTO   C32 6662   6.997   1.593   1.768 -0.0604  0.4143 -0.6495
   16CHTO   H60 6663   7.089   1.536   1.754  0.5297  0.9072  0.9981
   16CHTO   C36 6664   7.006   1.686   1.893 -0.1752  0.1970 -0.0052
   16CHTO   O25 6665   7.135   1.749   1.894  0.3261 -0.5252 -0.0939
   16CHTO   H40 6666   7.149   1.806   1.820  2.1998 -1.1519 -0.2518
   16CHTO   O15 6667   6.751   1.305   1.741 -0.3217 -0.7723  0.6726
   16CHTO   C19 6668   6.633   1.288   1.817 -0.3655  0.4973 -0.1757
   16CHTO   H47 6669   6.628   1.178   1.825 -0.3943  0.3184 -2.3585
   16CHTO   C20 6670   6.648   1.363   1.954  0.3996  0.5844  0.0343
   16CHTO   H48 6671   6.675   1.468   1.938  1.8837 -0.0866 -1.9871
   16CHTO   O19 6672   6.756   1.297   2.025 -0.0998  0.0282 -0.3854
   16CHTO   H35 6673   6.757   1.326   2.114 -0.7632 -0.2955 -0.2665
   16CHTO   C21 6674   6.510   1.358   2.030  0.0088  0.1078 -0.4155
   16CHTO   H49 6675   6.496   1.259   2.072 -0.0481  0.5183  0.5459
   16CHTO    N4 6676   6.513   1.460   2.147 -0.8617  0.1539  0.4710
   16CHTO   H41 6677   6.604   1.462   2.205 -0.1040 -2.8200 -0.5138
   16CHTO   H42 6678   6.494   1.557   2.104 -2.1272  0.7328  2.2675
   16CHTO   C22 6679   6.379   1.375   1.944  0.6551 -0.6951  0.9955
   16CHTO   H50 6680   6.360   1.481   1.926 -0.4148 -0.6560  2.3344
   16CHTO   O14 6681   6.388   1.297   1.821  0.3622  0.1339  0.4408
   16CHTO   C23 6682   6.507   1.332   1.743  0.4143 -0.4878 -1.0397
   16CHTO   H51 6683   6.503   1.442   1.734 -0.5491 -0.0549  3.4765
   16CHTO   C34 6684   6.501   1.271   1.602 -0.0587 -0.5241  0.3353
   16CHTO   O23 6685   6.517   1.129   1.595 -0.1543 -0.6961  0.0724
   16CHTO   H38 6686   6.578   1.105   1.663  1.3386  0.1039 -0.9576
   16CHTO   O16 6687   6.269   1.318   2.015 -0.0482  0.3238  0.1720
   16CHTO   C24 6688   6.127   1.384   1.964 -0.1291 -0.5938  0.2028
   16CHTO   H52 6689   6.145   1.454   1.883  0.0934 -0.9401 -0.0486
   16CHTO   C26 6690   6.067   1.465   2.082  0.7175 -0.0709 -0.3805
   16CHTO   H54 6691   6.070   1.398   2.170 -0.9550 -0.5102 -0.6442
   16CHTO   O20 6692   6.161   1.575   2.098 -0.1994  0.4822  1.0985
   16CHTO   H36 6693   6.145   1.627   2.174 -0.4783  0.2573  1.1947
   16CHTO   C30 6694   5.920   1.514   2.065 -0.1200 -0.8837 -0.1019
   16CHTO   H58 6695   5.912   1.595   1.991 -0.1873 -0.2197  0.6226
   16CHTO    N6 6696   5.871   1.570   2.193  0.0206  0.4896 -0.5768
   16CHTO   H45 6697   5.940   1.647   2.224 -0.0288  0.5789 -0.6879
   16CHTO   H46 6698   5.869   1.494   2.269  1.4514  0.7400 -0.2861
   16CHTO   C33 6699   5.839   1.397   2.007  0.8288  0.1620  0.3613
   16CHTO   H61 6700   5.841   1.324   2.089 -0.7814  1.2179  1.3861
   16CHTO   O18 6701   5.893   1.330   1.889 -0.6122 -0.0114 -0.0368
   16CHTO   C28 6702   6.030   1.278   1.910 -0.4446  0.4369 -0.4758
   16CHTO   H56 6703   6.031   1.192   1.976  0.2544  0.3152 -0.6409
   16CHTO   C35 6704   6.088   1.224   1.776 -0.0101 -0.2759  0.1721
   16CHTO   O24 6705   6.073   1.082   1.772 -0.1240 -0.2199 -0.2894
   16CHTO   H39 6706   5.985   1.068   1.745 -1.0423 -0.5837  2.7842
   16CHTO    O9 6707   5.701   1.435   1.986  0.2076  0.0531  0.0148
   16CHTO   C13 6708   5.584   1.310   2.014  0.0743  0.1250  0.1523
   16CHTO   H26 6709   5.605   1.271   2.116 -0.1909 -0.6554 -0.0949
   16CHTO   C11 6710   5.589   1.193   1.910  0.5903 -0.6322 -0.9621
   16CHTO   H24 6711   5.680   1.134   1.931 -1.5891 -2.9598  2.3652
   16CHTO    O8 6712   5.610   1.251   1.783 -0.1126 -0.3385 -0.1186
   16CHTO    H3 6713   5.541   1.313   1.769 -0.0936 -0.3408 -0.2237
   16CHTO    C9 6714   5.465   1.101   1.915  0.5812 -0.0661 -0.1078
   16CHTO   H22 6715   5.473   1.059   2.016  1.2273 -2.3312 -1.0777
   16CHTO    N2 6716   5.469   0.979   1.827  0.4768 -0.3420 -0.5364
   16CHTO   H10 6717   5.549   0.995   1.757 -0.0871  1.4248 -0.8025
   16CHTO   H11 6718   5.374   0.970   1.776 -1.0685  0.5772  2.0718
   16CHTO    C7 6719   5.338   1.198   1.899  0.0569 -0.2936  0.3772
   16CHTO   H20 6720   5.272   1.165   1.981 -0.2620 -2.5076 -0.7153
   16CHTO    O4 6721   5.356   1.340   1.917 -0.0114 -0.1566  0.0319
   16CHTO   C14 6722   5.442   1.371   2.033  0.3046 -0.2459 -0.2565
   16CHTO   H27 6723   5.393   1.321   2.119 -0.1866 -1.7243 -1.3703
   16CHTO   C18 6724   5.438   1.525   2.062  0.1268  0.0531  0.3679
   16CHTO   O13 6725   5.506   1.570   2.184 -0.0997 -0.1212  0.7304
   16CHTO    H7 6726   5.447   1.552   2.254  0.6287  0.2829  1.4437
   16CHTO    O2 6727   5.260   1.181   1.763  0.7231  0.2734 -0.9419
   16CHTO    C1 6728   5.120   1.175   1.776 -0.3043  0.2391  0.3947
   16CHTO   H14 6729   5.082   1.246   1.852  2.2731  1.9033  0.1948
   16CHTO    C2 6730   5.058   1.035   1.804  0.1095 -0.0106 -0.9119
   16CHTO   H15 6731   5.096   0.967   1.727  0.9669  0.0029 -0.4966
   16CHTO    O6 6732   5.100   0.987   1.932 -0.0557  0.0159 -0.3684
   16CHTO    H1 6733   5.086   1.043   2.006 -0.2435 -0.1878 -0.2476
   16CHTO    C3 6734   4.897   1.047   1.792  0.3943  0.1776 -0.0538
   16CHTO   H16 6735   4.855   1.093   1.882  1.3635  0.9667  0.0060
   16CHTO    N1 6736   4.835   0.916   1.789 -0.0190 -0.2070  0.4405
   16CHTO    H8 6737   4.836   0.882   1.892  1.8319 -0.0445  0.4922
   16CHTO    H9 6738   4.894   0.860   1.718  1.1063  0.5365  0.7889
   16CHTO    C4 6739   4.853   1.134   1.674 -0.5145  0.2566  0.1203
   16CHTO   H17 6740   4.861   1.072   1.584  1.0607 -2.0802  1.7834
   16CHTO    O1 6741   4.925   1.253   1.655  0.0311 -0.0557  0.1205
   16CHTO    C5 6742   5.065   1.229   1.637 -0.2323  0.9982  0.5695
   16CHTO   H18 6743   5.082   1.164   1.551  0.0639  1.0937  0.5576
   16CHTO   C16 6744   5.115   1.365   1.596  0.2887 -0.0258  0.1355
   16CHTO   O11 6745   5.114   1.463   1.710 -0.1128  0.1318  0.4321
   16CHTO    H5 6746   5.177   1.531   1.697  0.3228  0.0984  2.2357
   16CHTO    O3 6747   4.716   1.178   1.688  0.1757  0.0883  0.1672
   16CHTO    C6 6748   4.630   1.163   1.567 -0.0602 -0.0287 -0.4123
   16CHTO   H19 6749   4.695   1.141   1.482  1.1236  1.0533  0.1806
   16CHTO    C8 6750   4.520   1.046   1.580 -0.5919  0.0225 -0.2780
   16CHTO   H21 6751   4.452   1.072   1.662 -2.4541  0.8948 -2.0577
   16CHTO    O7 6752   4.586   0.920   1.600  0.1312 -0.0989  0.1511
   16CHTO    H2 6753   4.596   0.909   1.692 -0.7372  0.1103  0.2763
   16CHTO   C12 6754   4.421   1.044   1.464 -0.6215  0.3992  0.3620
   16CHTO   H25 6755   4.482   0.999   1.383 -1.5387  0.4036 -0.3415
   16CHTO    N3 6756   4.304   0.942   1.483 -0.4530 -0.3053  0.1816
   16CHTO   H12 6757   4.229   0.949   1.406 -1.1639 -1.2017  0.7983
   16CHTO   H13 6758   4.334   0.841   1.503  0.6812 -0.6674 -3.0743
   16CHTO   C15 6759   4.376   1.193   1.414 -0.3153  0.4232 -1.1212
   16CHTO   H28 6760   4.294   1.235   1.473 -0.0868  1.1074 -1.2806
   16CHTO   O10 6761   4.330   1.203   1.259  0.5728  0.6539 -0.5891
   16CHTO    H4 6762   4.391   1.173   1.194  0.0007 -0.3255 -0.6916
   16CHTO    O5 6763   4.486   1.282   1.411 -0.1468  0.3844 -0.4202
   16CHTO   C10 6764   4.562   1.302   1.530  0.0789 -0.1665  0.2188
   16CHTO   H23 6765   4.500   1.338   1.612 -1.6566 -2.9812  0.1998
   16CHTO   C17 6766   4.657   1.419   1.489  1.1984  0.1478  0.4399
   16CHTO   O12 6767   4.744   1.471   1.594 -0.2924  0.8522 -0.2659
   16CHTO    H6 6768   4.775   1.553   1.562 -1.3914  2.0149  1.5522
   17CHTO  H203 6769   5.517   3.707   0.424 -0.7044  1.0866 -0.5341
   17CHTO   O82 6770   5.438   3.710   0.374 -0.6955  0.4892 -0.5945
   17CHTO  C123 6771   5.359   3.819   0.422 -0.1620 -0.0870 -0.1218
   17CHTO  H227 6772   5.299   3.786   0.508  0.0176  0.0426  0.0548
   17CHTO   O77 6773   5.453   3.919   0.476 -0.4179 -0.1657 -0.2239
   17CHTO  C118 6774   5.396   4.038   0.536  0.4211  0.2079 -0.3250
   17CHTO  H222 6775   5.321   4.013   0.613 -0.2808  0.7468 -0.8203
   17CHTO  C125 6776   5.506   4.130   0.596  0.4268 -0.7371  0.0031
   17CHTO   O84 6777   5.579   4.072   0.705  0.5170 -0.0220  0.1232
   17CHTO  H205 6778   5.517   4.027   0.759 -0.5634  0.7747 -0.4248
   17CHTO  C114 6779   5.314   4.113   0.430  0.1960 -0.2520  0.6004
   17CHTO  H218 6780   5.380   4.143   0.348  0.6172  1.5712  1.5890
   17CHTO  C116 6781   5.200   4.018   0.379 -0.5674  0.1497  0.4647
   17CHTO  H220 6782   5.130   3.991   0.462 -2.2605  0.4904 -0.8357
   17CHTO   O79 6783   5.121   4.093   0.283  0.4154  0.7133 -0.4545
   17CHTO  H201 6784   5.043   4.043   0.269  2.3181 -2.5966  0.2961
   17CHTO  C120 6785   5.266   3.891   0.319 -0.2785 -0.5282  0.2658
   17CHTO  H224 6786   5.340   3.921   0.242 -0.1118 -1.0092  0.2375
   17CHTO   N21 6787   5.163   3.798   0.264 -0.0925  0.7285 -0.5110
   17CHTO  H211 6788   5.119   3.834   0.173 -0.6188  1.5346  0.0587
   17CHTO  H212 6789   5.222   3.709   0.248  1.2187  1.2960  1.0035
   17CHTO   O75 6790   5.263   4.228   0.494 -0.2846  0.0951  0.1276
   17CHTO  C112 6791   5.268   4.356   0.399 -0.0600  0.0767  0.7175
   17CHTO  H216 6792   5.240   4.317   0.300 -1.0745  0.2365  0.9358
   17CHTO   O73 6793   5.399   4.412   0.399  0.4269  0.1103 -0.6869
   17CHTO  C113 6794   5.422   4.519   0.303  0.4033 -0.2832  0.6299
   17CHTO  H217 6795   5.389   4.482   0.204 -0.9440  0.0595  0.9426
   17CHTO  C124 6796   5.572   4.542   0.302 -0.0932 -0.1470 -0.1181
   17CHTO   O83 6797   5.619   4.588   0.429  0.1038 -0.7417  0.0743
   17CHTO  H204 6798   5.708   4.614   0.416  0.4009 -1.4597  0.5966
   17CHTO  C109 6799   5.323   4.638   0.336 -1.0584  0.1663  0.4393
   17CHTO  H213 6800   5.361   4.687   0.427 -1.0424 -0.1978  0.6296
   17CHTO  C110 6801   5.174   4.592   0.359 -0.4433 -0.3110 -0.1722
   17CHTO  H214 6802   5.131   4.572   0.261 -0.0219  1.7715 -0.8083
   17CHTO   O78 6803   5.103   4.707   0.410 -0.0123  0.1385  0.2954
   17CHTO  H200 6804   5.037   4.684   0.472 -1.0642 -0.8616 -1.1406
   17CHTO  C111 6805   5.169   4.469   0.451 -0.1225 -0.1618 -0.3811
   17CHTO  H215 6806   5.208   4.497   0.550 -0.7189 -2.1606  0.4517
   17CHTO   N19 6807   5.036   4.417   0.468 -0.4482 -0.0200 -0.6680
   17CHTO  H207 6808   5.001   4.391   0.370  2.3633 -3.3129 -0.8890
   17CHTO  H208 6809   4.971   4.486   0.520  1.6773  0.9470  0.7736
   17CHTO   O74 6810   5.320   4.733   0.222 -0.4110 -0.0997  0.5540
   17CHTO  C115 6811   5.423   4.853   0.225 -0.6638 -0.5649  0.1625
   17CHTO  H219 6812   5.469   4.869   0.322  0.8841  1.1537 -0.8051
   17CHTO   O76 6813   5.557   4.820   0.125  0.0957  0.0624 -0.4397
   17CHTO  C122 6814   5.647   4.929   0.111 -0.5357  0.8012 -0.5057
   17CHTO  H226 6815   5.718   4.904   0.032 -1.9808  0.2849 -1.6683
   17CHTO  C126 6816   5.731   4.945   0.249 -0.5736  0.5007  0.3796
   17CHTO   O85 6817   5.802   4.827   0.267  0.3596  0.5032  0.2320
   17CHTO  H206 6818   5.772   4.780   0.342 -1.4936 -1.5946 -1.7126
   17CHTO  C121 6819   5.584   5.071   0.071 -0.5359 -0.0752  0.3499
   17CHTO  H225 6820   5.655   5.156   0.071  0.2489 -0.7318  0.0296
   17CHTO   O81 6821   5.528   5.056  -0.067  0.3734  0.1054 -0.5196
   17CHTO  H202 6822   5.504   4.968  -0.086  1.6252 -0.4956  0.6101
   17CHTO  C119 6823   5.461   5.102   0.167  0.4834  0.5397  0.0297
   17CHTO  H223 6824   5.503   5.105   0.267  2.2504 -2.4371 -0.5490
   17CHTO  C117 6825   5.353   4.987   0.169  0.3378 -0.4249  0.2806
   17CHTO  H221 6826   5.310   4.961   0.073  0.3834  0.9709 -0.1291
   17CHTO   N20 6827   5.239   5.029   0.260 -0.1612 -0.0504 -0.4042
   17CHTO  H209 6828   5.170   4.948   0.281 -0.5875  0.4494  0.1207
   17CHTO  H210 6829   5.177   5.101   0.210  0.0937  1.7403  1.7850
   17CHTO   O80 6830   5.408   5.259   0.147  0.0137  0.3209  0.4569
   17CHTO  C103 6831   5.441   5.364   0.257  0.1526  0.2967 -0.0355
   17CHTO  H190 6832   5.437   5.313   0.354 -1.5759 -0.5658 -0.5412
   17CHTO  C101 6833   5.586   5.427   0.258 -0.2157 -0.2534  0.2710
   17CHTO  H188 6834   5.606   5.466   0.158 -3.0568  0.1748 -0.1691
   17CHTO   O68 6835   5.678   5.315   0.282 -0.7063  0.3909 -0.1407
   17CHTO  H168 6836   5.763   5.352   0.271 -0.5318  0.5092  1.4541
   17CHTO   C99 6837   5.596   5.538   0.361  0.0267 -0.0813  0.4558
   17CHTO  H186 6838   5.580   5.494   0.461 -0.1908  1.2243  1.0015
   17CHTO   N17 6839   5.732   5.604   0.366 -0.1843  0.0434 -0.2163
   17CHTO  H174 6840   5.799   5.544   0.425 -2.1087 -1.3996  0.5681
   17CHTO  H175 6841   5.770   5.594   0.266  0.9384 -0.6852  0.2700
   17CHTO   C97 6842   5.476   5.633   0.338  0.3452  0.2666  0.3395
   17CHTO  H184 6843   5.492   5.675   0.238 -0.5589 -1.3795 -0.5226
   17CHTO   O64 6844   5.344   5.574   0.349 -0.2308  0.4355 -0.2913
   17CHTO  C104 6845   5.324   5.463   0.257  0.1731  0.0158  0.1096
   17CHTO  H191 6846   5.305   5.496   0.155  1.3250 -0.4716 -0.2762
   17CHTO  C108 6847   5.196   5.396   0.308  0.4348  0.1720 -0.3950
   17CHTO   O71 6848   5.080   5.475   0.299 -0.2504 -0.5384 -0.4773
   17CHTO  H171 6849   5.002   5.424   0.309 -1.7344  2.1427  2.4521
   17CHTO   O62 6850   5.473   5.738   0.439 -0.5635 -0.3674  0.0101
   17CHTO   C91 6851   5.396   5.859   0.401  0.2934 -0.1855  0.5059
   17CHTO  H178 6852   5.320   5.830   0.328 -1.2113 -0.5904  2.2030
   17CHTO   C92 6853   5.480   5.968   0.331  0.2290  0.2557  0.0502
   17CHTO  H179 6854   5.540   5.934   0.245  0.9248  1.9926 -0.1737
   17CHTO   O66 6855   5.399   6.067   0.269 -0.3087  0.5835  0.0192
   17CHTO  H166 6856   5.402   6.054   0.176 -2.8086 -0.0631  0.0062
   17CHTO   C93 6857   5.572   6.057   0.427 -0.1662  0.5618 -0.4082
   17CHTO  H180 6858   5.597   6.149   0.372  0.9640  0.6306  0.2110
   17CHTO   N16 6859   5.708   6.001   0.454 -0.5804  0.1370  0.1805
   17CHTO  H172 6860   5.770   6.073   0.505 -1.7022 -0.0219  1.7799
   17CHTO  H173 6861   5.758   5.970   0.363 -0.4101 -1.9292  0.9587
   17CHTO   C94 6862   5.497   6.094   0.552  0.3834 -0.2347 -0.5305
   17CHTO  H181 6863   5.539   6.047   0.641 -0.0986  3.1213  1.5686
   17CHTO   O61 6864   5.355   6.065   0.540  0.0629  0.0944  0.1136
   17CHTO   C95 6865   5.330   5.925   0.535  0.9798 -0.1935 -0.8380
   17CHTO  H182 6866   5.370   5.880   0.626 -0.3259 -0.4434 -0.3758
   17CHTO  C106 6867   5.185   5.891   0.532  0.0848 -0.5391 -0.1732
   17CHTO   O69 6868   5.135   5.758   0.512  0.6353  0.0463  0.0170
   17CHTO  H169 6869   5.168   5.726   0.430 -1.1421  1.0864 -1.1456
   17CHTO   O63 6870   5.516   6.243   0.579 -0.0528  0.0769  0.0804
   17CHTO   C96 6871   5.495   6.299   0.709  0.3111 -0.7235 -0.1157
   17CHTO  H183 6872   5.478   6.221   0.783  1.2750 -1.1606 -0.3465
   17CHTO   C98 6873   5.371   6.400   0.722  0.6831 -0.2540  0.0771
   17CHTO  H185 6874   5.397   6.484   0.656  2.8911 -0.1546  1.0396
   17CHTO   O67 6875   5.253   6.339   0.665  0.5756 -0.3544 -0.4360
   17CHTO  H167 6876   5.189   6.336   0.734 -0.6999  0.5499 -1.5338
   17CHTO  C102 6877   5.349   6.473   0.865 -0.0592 -0.0538 -0.4638
   17CHTO  H189 6878   5.302   6.398   0.930 -2.3519  0.2927 -1.6516
   17CHTO   N18 6879   5.255   6.590   0.867 -0.4708  0.1669 -0.4579
   17CHTO  H176 6880   5.301   6.683   0.837 -1.3117  0.5365 -0.6381
   17CHTO  H177 6881   5.182   6.561   0.793 -0.5187 -1.4791  0.2217
   17CHTO  C105 6882   5.493   6.520   0.914 -0.1291 -0.0448  0.1228
   17CHTO  H192 6883   5.521   6.611   0.862 -0.1546  0.3417  0.7711
   17CHTO   O65 6884   5.594   6.425   0.900  0.4369 -0.3905  0.3690
   17CHTO  C100 6885   5.614   6.384   0.771 -0.4168  0.2149  0.1031
   17CHTO  H187 6886   5.626   6.471   0.704 -0.5496  0.2575  0.1351
   17CHTO  C107 6887   5.743   6.302   0.756 -0.1824 -0.0788  0.0376
   17CHTO   O70 6888   5.859   6.380   0.770 -0.4168 -0.1352  0.1590
   17CHTO  H170 6889   5.911   6.376   0.692 -1.1845  1.3350 -0.4394
   17CHTO   O57 6890   5.467   6.554   1.081  0.2995 -0.4507  0.4852
   17CHTO   C85 6891   5.539   6.648   1.161  0.5854 -0.1960  1.0631
   17CHTO  H157 6892   5.489   6.745   1.140  1.7296  0.5240  1.5861
   17CHTO   C83 6893   5.685   6.673   1.113  0.6304  0.3713 -0.2323
   17CHTO  H155 6894   5.679   6.724   1.017  0.2380  0.3176 -0.2366
   17CHTO   O56 6895   5.746   6.542   1.080 -0.2277 -0.0024 -0.1173
   17CHTO  H135 6896   5.771   6.499   1.159  1.4855  2.2674  0.6302
   17CHTO   C81 6897   5.759   6.765   1.214 -0.3583  0.2460 -0.4414
   17CHTO  H153 6898   5.700   6.856   1.225 -0.7053 -0.1432  1.0978
   17CHTO   N14 6899   5.892   6.806   1.165 -0.3296  0.6865  0.5430
   17CHTO  H141 6900   5.909   6.905   1.201 -1.0854  0.1922  2.2872
   17CHTO  H142 6901   5.967   6.742   1.205 -0.0479 -0.2796 -1.4547
   17CHTO   C79 6902   5.763   6.694   1.355  0.3005 -0.6898  0.3021
   17CHTO  H151 6903   5.825   6.755   1.420  2.3795 -1.0122 -1.3083
   17CHTO   O52 6904   5.624   6.690   1.408  0.5079  0.3001  0.2824
   17CHTO   C86 6905   5.531   6.612   1.319 -0.2981 -0.1712 -0.6977
   17CHTO  H158 6906   5.561   6.506   1.335 -0.8301 -0.5308 -1.9742
   17CHTO   C90 6907   5.386   6.624   1.379  0.0823 -0.4927 -0.5563
   17CHTO   O60 6908   5.329   6.754   1.358  0.6052  0.6027 -0.2061
   17CHTO  H138 6909   5.245   6.745   1.399  0.0331 -3.0486 -1.9172
   17CHTO   O50 6910   5.818   6.561   1.355  0.1306 -0.2550  0.0252
   17CHTO   C73 6911   5.906   6.482   1.439  0.4244  0.1253 -0.2357
   17CHTO  H145 6912   5.946   6.547   1.519 -0.2898 -0.0044  0.2358
   17CHTO   C74 6913   6.027   6.421   1.356  0.8242  0.2378  0.1531
   17CHTO  H146 6914   6.072   6.510   1.308  2.0830 -0.2846  0.3548
   17CHTO   O54 6915   6.128   6.367   1.444 -0.0470  0.5244  0.6915
   17CHTO  H133 6916   6.161   6.434   1.501 -0.3764  1.2940 -0.0263
   17CHTO   C75 6917   5.966   6.323   1.249  0.4074 -0.5520 -0.1294
   17CHTO  H147 6918   5.904   6.381   1.179  1.4936 -0.1204 -0.7412
   17CHTO   N13 6919   6.067   6.273   1.151  0.4789 -0.1099 -0.6194
   17CHTO  H139 6920   6.070   6.165   1.146 -3.3314 -0.2814 -1.2753
   17CHTO  H140 6921   6.161   6.311   1.187 -1.0181  1.1550  2.0813
   17CHTO   C76 6922   5.877   6.211   1.318  0.3224  0.5297  0.5200
   17CHTO  H148 6923   5.935   6.142   1.379 -0.2227 -0.4135 -0.0242
   17CHTO   O49 6924   5.779   6.274   1.404 -0.2031  0.4880  0.3387
   17CHTO   C77 6925   5.824   6.364   1.504 -0.1848 -0.5735  1.0309
   17CHTO  H149 6926   5.884   6.305   1.573 -1.1694 -0.7630  1.7497
   17CHTO   C88 6927   5.698   6.406   1.580 -0.2624 -0.0121  0.5009
   17CHTO   O58 6928   5.717   6.500   1.692  0.0382 -0.4009 -0.2923
   17CHTO  H136 6929   5.635   6.532   1.722 -0.0174  0.0010 -0.8563
   17CHTO   O51 6930   5.784   6.130   1.217 -0.1534  0.1207 -0.1693
   17CHTO   C78 6931   5.666   6.047   1.278 -0.3880  0.4721  0.4431
   17CHTO  H150 6932   5.659   6.070   1.386  0.1853  0.7820  0.4136
   17CHTO   C80 6933   5.707   5.899   1.260 -0.7888 -0.1498  0.0605
   17CHTO  H152 6934   5.733   5.879   1.154  0.5086 -0.1019  0.3718
   17CHTO   O55 6935   5.833   5.887   1.332  0.4850  0.0528  0.1539
   17CHTO  H134 6936   5.834   5.899   1.425  2.0762 -1.0529  0.3052
   17CHTO   C84 6937   5.603   5.792   1.309  0.2492 -0.3075 -0.1974
   17CHTO  H156 6938   5.594   5.800   1.417  0.7686 -1.1140 -0.0948
   17CHTO   N15 6939   5.641   5.649   1.274 -0.4102  0.1195 -0.4372
   17CHTO  H143 6940   5.677   5.650   1.174  0.3427 -1.0012 -0.1865
   17CHTO  H144 6941   5.555   5.584   1.274  0.3551 -0.9105  0.4408
   17CHTO   C87 6942   5.474   5.835   1.246 -0.2514  1.0191 -0.0015
   17CHTO  H159 6943   5.475   5.811   1.140 -0.3344 -0.9293  0.4240
   17CHTO   O53 6944   5.438   5.988   1.262  0.2880  0.2138  0.4970
   17CHTO   C82 6945   5.535   6.074   1.207  0.0780 -1.0728  0.5450
   17CHTO  H154 6946   5.547   6.065   1.099  0.7350  0.4528  0.4684
   17CHTO   C89 6947   5.492   6.220   1.234  0.2413  0.3435  0.4591
   17CHTO   O59 6948   5.387   6.262   1.142  0.2095  0.1390  0.3518
   17CHTO  H137 6949   5.419   6.278   1.055 -0.1178 -1.1917 -0.0241
   17CHTO   O45 6950   5.327   5.767   1.332 -0.2369  0.1022 -0.0046
   17CHTO   C67 6951   5.213   5.733   1.258 -0.1704 -1.3316 -0.2260
   17CHTO  H124 6952   5.128   5.722   1.326 -1.5653  0.8535 -1.5500
   17CHTO   C65 6953   5.171   5.844   1.151  0.2017 -0.0783 -0.6769
   17CHTO  H122 6954   5.260   5.899   1.121  0.0794  0.0065 -0.8849
   17CHTO   O44 6955   5.083   5.935   1.216  0.2096  0.4170  0.1004
   17CHTO  H102 6956   4.996   5.910   1.190 -0.8521  1.4247  2.5651
   17CHTO   C63 6957   5.119   5.788   1.014  0.0775 -0.7207 -0.1721
   17CHTO  H120 6958   5.204   5.757   0.954  0.4039  0.0108 -0.0926
   17CHTO   N11 6959   5.060   5.889   0.921 -0.1753  0.4049 -0.3311
   17CHTO  H108 6960   5.113   5.981   0.933  2.6687 -1.1260 -0.6019
   17CHTO  H109 6961   5.054   5.840   0.826 -3.5577  1.2386 -0.6278
   17CHTO   C61 6962   5.030   5.658   1.043 -0.1622 -0.3984 -0.3492
   17CHTO  H118 6963   5.009   5.612   0.945 -0.4223  0.2680 -0.6095
   17CHTO   O40 6964   5.101   5.563   1.123 -0.7473 -0.3971  0.5386
   17CHTO   C68 6965   5.227   5.595   1.187 -0.0853  0.1285  0.7389
   17CHTO  H125 6966   5.307   5.584   1.110 -1.3350 -0.2149 -0.5464
   17CHTO   C72 6967   5.252   5.487   1.299  0.2347 -0.4246 -0.1135
   17CHTO   O48 6968   5.152   5.475   1.396 -0.4386  0.0469 -0.1939
   17CHTO  H105 6969   5.170   5.547   1.453 -0.0302 -0.2478  0.0498
   17CHTO   O38 6970   4.897   5.700   1.096 -0.3044 -0.5021  0.3637
   17CHTO   C55 6971   4.823   5.625   1.191 -0.0883 -0.0565 -0.3691
   17CHTO  H112 6972   4.899   5.593   1.264 -1.2186  0.5810  1.1185
   17CHTO   C56 6973   4.744   5.502   1.125  0.3254  0.1597  0.1914
   17CHTO  H113 6974   4.692   5.544   1.038 -1.2846 -0.0357  1.0585
   17CHTO   O42 6975   4.838   5.420   1.061 -0.1423  0.2321  0.0298
   17CHTO  H100 6976   4.897   5.375   1.118  0.1594  1.7949  1.0020
   17CHTO   C57 6977   4.643   5.427   1.223 -0.3395 -0.0275  0.5204
   17CHTO  H114 6978   4.693   5.375   1.304  0.6170  0.6276  0.3551
   17CHTO   N10 6979   4.562   5.322   1.152  0.0055  0.3378 -0.0486
   17CHTO  H106 6980   4.466   5.311   1.202  0.2920 -0.7948  0.2516
   17CHTO  H107 6981   4.616   5.229   1.159 -0.6249  0.0527  1.2122
   17CHTO   C58 6982   4.549   5.535   1.281  0.5039  0.1269 -0.5402
   17CHTO  H115 6983   4.499   5.593   1.201 -0.9617  1.0119  0.9839
   17CHTO   O37 6984   4.634   5.630   1.354  0.7404  0.4516  0.4679
   17CHTO   C59 6985   4.715   5.717   1.264  0.1551  1.2812  0.0686
   17CHTO  H116 6986   4.649   5.764   1.192 -0.3417  0.6660  0.1128
   17CHTO   C70 6987   4.788   5.815   1.354 -0.3623  0.0549  0.4445
   17CHTO   O46 6988   4.862   5.749   1.456 -0.5677 -0.1472 -0.1644
   17CHTO  H103 6989   4.904   5.819   1.502  0.0758 -1.2309  0.9192
   17CHTO   O39 6990   4.440   5.477   1.361 -0.0086 -0.1250 -0.6142
   17CHTO   C60 6991   4.323   5.556   1.409 -0.4513 -0.0879  0.0754
   17CHTO  H117 6992   4.363   5.631   1.477  0.5888  0.2469 -0.8883
   17CHTO   C62 6993   4.235   5.622   1.293  0.0298 -0.1195  0.5685
   17CHTO  H119 6994   4.303   5.677   1.225  0.7379 -0.7996  0.7138
   17CHTO   O43 6995   4.175   5.517   1.209 -0.4921  0.1477  0.7560
   17CHTO  H101 6996   4.189   5.552   1.123 -4.0452 -0.6140 -0.2202
   17CHTO   C66 6997   4.122   5.718   1.358  0.3425  0.0292 -0.0931
   17CHTO  H123 6998   4.172   5.787   1.426 -1.0576  0.4265  0.5538
   17CHTO   N12 6999   4.038   5.795   1.259 -0.5045  0.0308  0.3095
   17CHTO  H110 7000   3.974   5.867   1.308  0.1235  0.9227 -0.1773
   17CHTO  H111 7001   3.990   5.727   1.191 -1.3133 -0.2030  1.1037
   17CHTO   C69 7002   4.037   5.634   1.459 -0.2082 -0.5387 -0.4385
   17CHTO  H126 7003   3.965   5.562   1.414 -1.5645 -0.6232  1.7947
   17CHTO   O41 7004   4.133   5.533   1.559  0.0586  0.4084  0.1721
   17CHTO   C64 7005   4.230   5.459   1.497 -0.7278  0.0002  0.1749
   17CHTO  H121 7006   4.184   5.375   1.441 -2.3597  0.9852  0.0148
   17CHTO   C71 7007   4.311   5.391   1.619 -0.2427 -0.2171 -0.2063
   17CHTO   O47 7008   4.379   5.274   1.584  0.1544  0.4470  0.7443
   17CHTO  H104 7009   4.390   5.217   1.658  0.6494  1.0680  1.1448
   17CHTO   O34 7010   3.956   5.732   1.549  0.2149  0.4465  0.1009
   17CHTO   C49 7011   3.812   5.774   1.536 -0.1796  0.8952 -0.4190
   17CHTO   H91 7012   3.812   5.872   1.488  2.8373  1.2262  0.1657
   17CHTO   C47 7013   3.749   5.779   1.680 -0.3471  0.2750 -0.3336
   17CHTO   H89 7014   3.644   5.815   1.674  0.1246  1.6882 -0.1014
   17CHTO   O33 7015   3.822   5.867   1.762 -0.0667  0.5573  0.9782
   17CHTO   H70 7016   3.821   5.954   1.726  2.0182 -0.3793 -1.4639
   17CHTO   C45 7017   3.755   5.631   1.749 -0.0004  0.3827  0.6053
   17CHTO   H87 7018   3.860   5.609   1.775  0.0701 -0.4737 -0.3658
   17CHTO    N8 7019   3.671   5.631   1.869  0.1631  1.1512 -0.4248
   17CHTO   H75 7020   3.566   5.646   1.850  0.3999  1.3236 -1.6999
   17CHTO   H76 7021   3.708   5.711   1.931 -0.8263  1.1089  0.2185
   17CHTO   C43 7022   3.725   5.519   1.639 -0.6130 -0.3845 -0.3011
   17CHTO   H85 7023   3.822   5.483   1.605 -0.8183 -0.8112 -0.4493
   17CHTO   O29 7024   3.653   5.579   1.531  0.6724 -0.0696 -0.9369
   17CHTO   C50 7025   3.720   5.681   1.454  0.6689  1.0000  0.2756
   17CHTO   H92 7026   3.778   5.633   1.373  0.2855  1.0460 -0.0276
   17CHTO   C54 7027   3.608   5.750   1.379 -0.0322 -0.1451  0.6209
   17CHTO   O36 7028   3.657   5.820   1.262  0.1490  0.7525 -0.4573
   17CHTO   H72 7029   3.587   5.875   1.233 -1.8551 -2.0867 -1.1664
   17CHTO   O27 7030   3.664   5.396   1.677  0.1560  0.4745  0.4284
   17CHTO   C37 7031   3.702   5.259   1.658 -0.0741  0.2148 -0.4715
   17CHTO   H79 7032   3.809   5.244   1.678 -0.4759  0.4697  1.9414
   17CHTO   C38 7033   3.617   5.170   1.758  0.7922 -0.5544 -0.2463
   17CHTO   H80 7034   3.510   5.182   1.739  0.8319  0.2735  0.0517
   17CHTO   O31 7035   3.654   5.220   1.891  0.6243 -0.3473 -0.5549
   17CHTO   H68 7036   3.592   5.195   1.957  0.7316 -0.6176 -0.5573
   17CHTO   C39 7037   3.652   5.014   1.731  0.2079  0.0518 -0.4658
   17CHTO   H81 7038   3.755   4.989   1.753  1.3181  2.2915 -2.8833
   17CHTO    N7 7039   3.586   4.921   1.832  1.1942 -0.0932  0.5559
   17CHTO   H73 7040   3.592   4.818   1.802 -0.7455 -0.3466  0.9725
   17CHTO   H74 7041   3.480   4.941   1.833  1.1666 -0.0421 -1.4229
   17CHTO   C40 7042   3.621   4.973   1.581 -1.1579  0.3114 -0.1162
   17CHTO   H82 7043   3.515   4.971   1.557 -0.6511  2.6614 -2.8945
   17CHTO   O26 7044   3.693   5.067   1.496 -0.2301 -0.0312  0.4253
   17CHTO   C41 7045   3.665   5.213   1.514 -0.0884  0.4096  0.9372
   17CHTO   H83 7046   3.557   5.228   1.496  0.3958 -0.2581 -2.9195
   17CHTO   C52 7047   3.741   5.287   1.399  0.6959 -0.3352  0.5730
   17CHTO   O35 7048   3.878   5.269   1.391 -0.2730  0.0724  0.9101
   17CHTO   H71 7049   3.916   5.355   1.390  0.6174 -0.3086  1.8511
   17CHTO   O28 7050   3.675   4.842   1.561  0.6617  0.4049  0.2883
   17CHTO   C42 7051   3.812   4.797   1.537 -0.1167  0.6836  0.0751
   17CHTO   H84 7052   3.806   4.692   1.564  0.3022  0.7388  0.3699
   17CHTO   C44 7053   3.927   4.867   1.623  0.5725  0.1238 -0.2450
   17CHTO   H86 7054   3.906   4.974   1.626  0.4835  0.0868  0.6396
   17CHTO   O32 7055   3.914   4.829   1.760 -0.1718  0.0701  0.1314
   17CHTO   H69 7056   3.828   4.854   1.788 -0.8204 -1.5456 -0.3199
   17CHTO   C48 7057   4.072   4.833   1.573  0.0658  0.4672 -0.7748
   17CHTO   H90 7058   4.108   4.732   1.596  0.2588  0.6676 -0.1840
   17CHTO    N9 7059   4.177   4.920   1.643 -0.2277  0.9495  0.0974
   17CHTO   H77 7060   4.160   4.900   1.748 -0.3011  1.6158  0.2117
   17CHTO   H78 7061   4.159   5.024   1.621  0.6361  1.4683  1.7536
   17CHTO   C51 7062   4.081   4.848   1.416  0.7991 -0.0180 -0.1172
   17CHTO   H93 7063   4.057   4.949   1.384  1.9821 -0.0821 -1.2024
   17CHTO   O30 7064   3.986   4.756   1.359  0.2332  0.3558  0.1576
   17CHTO   C46 7065   3.852   4.800   1.384  0.2576  0.2988 -0.4154
   17CHTO   H88 7066   3.844   4.903   1.348  1.4484  1.3387  2.1408
   17CHTO   C53 7067   3.757   4.712   1.297  0.2105 -0.1756  1.0497
   17CHTO   O72 7068   3.790   4.737   1.162  0.0593  0.0365 -0.1684
   17CHTO  H199 7069   3.855   4.684   1.118  1.3302  0.7123  0.8707
   17CHTO   O22 7070   4.212   4.817   1.362  0.2136 -0.1617  0.1028
   17CHTO   C31 7071   4.251   4.851   1.220 -0.6417  0.4317  0.3952
   17CHTO   H59 7072   4.357   4.816   1.213 -1.1549 -1.8807  3.4200
   17CHTO   C29 7073   4.177   4.768   1.109  0.2858  0.2274  0.0437
   17CHTO   H57 7074   4.068   4.780   1.104  0.3785  0.9333 -0.3169
   17CHTO   O21 7075   4.194   4.625   1.132  0.8975  0.4263 -0.7304
   17CHTO   H37 7076   4.257   4.592   1.070  1.5272 -1.0018  0.6143
   17CHTO   C27 7077   4.225   4.800   0.962  0.4618  1.3718  0.5872
   17CHTO   H55 7078   4.315   4.739   0.943 -1.2947 -1.0464 -0.2173
   17CHTO    N5 7079   4.127   4.752   0.862  0.6830  0.2597  0.2326
   17CHTO   H43 7080   4.129   4.799   0.765  0.0137  0.0772  0.1276
   17CHTO   H44 7081   4.027   4.772   0.897  0.7065 -1.0035  1.0857
   17CHTO   C25 7082   4.253   4.950   0.943 -0.7282  0.2129  0.6870
   17CHTO   H53 7083   4.152   4.992   0.933 -0.4125  0.3883 -1.9709
   17CHTO   O17 7084   4.324   5.001   1.056  0.0730 -0.5549  0.4746
   17CHTO   C32 7085   4.256   5.001   1.178 -0.2150  0.1238  0.5616
   17CHTO   H60 7086   4.152   5.034   1.172 -0.3438 -0.2007  1.0654
   17CHTO   C36 7087   4.324   5.088   1.289  0.1867  1.1079 -0.4305
   17CHTO   O25 7088   4.444   5.029   1.337  0.5246 -0.0661 -0.2790
   17CHTO   H40 7089   4.432   4.936   1.328 -0.7245  0.0317  0.3392
   17CHTO   O15 7090   4.346   4.965   0.805 -0.1058  0.2856  0.0656
   17CHTO   C19 7091   4.366   5.104   0.761  0.1950 -0.4112  0.5049
   17CHTO   H47 7092   4.391   5.100   0.654  1.5099  2.6857  0.6496
   17CHTO   C20 7093   4.239   5.192   0.761  1.0724  0.0830  0.0046
   17CHTO   H48 7094   4.207   5.214   0.864  0.9663  2.5553 -0.5111
   17CHTO   O19 7095   4.128   5.127   0.692  0.2043 -0.1409  0.2257
   17CHTO   H35 7096   4.061   5.099   0.751  0.2852  1.1571  0.9412
   17CHTO   C21 7097   4.268   5.334   0.699 -0.3885 -0.9044 -1.0273
   17CHTO   H49 7098   4.309   5.322   0.599 -1.1104 -1.2028 -1.2909
   17CHTO    N4 7099   4.142   5.425   0.703 -0.8577 -0.0255 -0.0193
   17CHTO   H41 7100   4.170   5.529   0.704 -2.1925  0.3339  1.2324
   17CHTO   H42 7101   4.087   5.404   0.612 -1.6772 -1.4068  0.7708
   17CHTO   C22 7102   4.383   5.397   0.783  0.6163  0.1808 -0.3474
   17CHTO   H50 7103   4.349   5.402   0.886  2.1986 -0.7424  0.2434
   17CHTO   O14 7104   4.500   5.307   0.777  0.1635  0.5602 -0.5063
   17CHTO   C23 7105   4.477   5.177   0.829  0.6014  0.2612  0.4183
   17CHTO   H51 7106   4.456   5.188   0.937  0.2493 -1.1310  0.5041
   17CHTO   C34 7107   4.615   5.109   0.822  0.1170 -0.2091  0.0552
   17CHTO   O23 7108   4.618   4.992   0.904  0.7013 -0.2677 -0.1463
   17CHTO   H38 7109   4.702   4.950   0.899 -0.0299 -1.7660 -0.4265
   17CHTO   O16 7110   4.421   5.527   0.733 -0.2910 -0.4026 -0.0910
   17CHTO   C24 7111   4.473   5.629   0.853 -0.6015  1.0858  0.6434
   17CHTO   H52 7112   4.509   5.573   0.939 -1.6915  1.3707  1.3017
   17CHTO   C26 7113   4.366   5.723   0.906  0.0881 -0.3399  0.0347
   17CHTO   H54 7114   4.324   5.784   0.824 -1.6566 -1.0075  0.3945
   17CHTO   O20 7115   4.261   5.646   0.961 -0.2567 -0.4581 -0.4958
   17CHTO   H36 7116   4.180   5.694   0.961  0.2493  0.4581  1.8757
   17CHTO   C30 7117   4.419   5.821   1.015  0.1946  0.7341  0.1699
   17CHTO   H58 7118   4.459   5.762   1.099  1.5344  0.4664 -0.6484
   17CHTO    N6 7119   4.318   5.916   1.075 -0.1684  0.6627  0.1898
   17CHTO   H45 7120   4.221   5.899   1.030  1.4515 -0.3174 -3.0777
   17CHTO   H46 7121   4.320   5.911   1.182  1.7345 -1.0573  0.0950
   17CHTO   C33 7122   4.540   5.894   0.964  0.1127  0.8382  0.2990
   17CHTO   H61 7123   4.511   5.958   0.879 -1.4950  0.2620  0.3985
   17CHTO   O18 7124   4.633   5.796   0.917 -0.2633  0.4186 -0.0121
   17CHTO   C28 7125   4.595   5.717   0.808 -0.3013 -0.4681 -0.1860
   17CHTO   H56 7126   4.562   5.783   0.728  1.9662 -1.8320 -2.3131
   17CHTO   C35 7127   4.723   5.633   0.757  0.5649 -0.2617  0.0495
   17CHTO   O24 7128   4.826   5.722   0.719 -0.5491  0.4555 -0.4008
   17CHTO   H39 7129   4.797   5.793   0.665  0.7338  1.2922 -0.0174
   17CHTO    O9 7130   4.600   5.984   1.054  0.1670 -0.1433 -0.1162
   17CHTO   C13 7131   4.712   6.088   0.995 -0.0213  0.6591  0.8262
   17CHTO   H26 7132   4.766   6.029   0.917 -0.6143 -1.3131  1.8713
   17CHTO   C11 7133   4.808   6.123   1.119  0.0117 -0.7132 -0.0414
   17CHTO   H24 7134   4.853   6.027   1.146  0.9580  0.1781  1.6791
   17CHTO    O8 7135   4.731   6.169   1.230  0.1290  0.2284 -0.1383
   17CHTO    H3 7136   4.654   6.217   1.206 -0.2743  0.6788  1.9431
   17CHTO    C9 7137   4.914   6.222   1.063  0.0572 -0.4444 -0.7985
   17CHTO   H22 7138   4.962   6.175   0.976  2.3104  3.1510 -1.6032
   17CHTO    N2 7139   5.023   6.249   1.157  0.2856  0.2544  0.2550
   17CHTO   H10 7140   5.079   6.159   1.175 -1.7415 -1.4921 -1.8460
   17CHTO   H11 7141   4.983   6.281   1.252  1.0709  3.2426 -0.3530
   17CHTO    C7 7142   4.839   6.350   1.014  0.1133 -0.1689 -0.8463
   17CHTO   H20 7143   4.907   6.413   0.952 -0.9481  0.2695 -1.5729
   17CHTO    O4 7144   4.735   6.328   0.919  0.4011  0.0110  0.0715
   17CHTO   C14 7145   4.642   6.217   0.925 -0.4480  0.1303 -0.2755
   17CHTO   H27 7146   4.606   6.177   0.828  1.7092  0.5255 -1.2682
   17CHTO   C18 7147   4.514   6.262   1.003 -0.5672  0.3409 -0.2068
   17CHTO   O13 7148   4.482   6.389   0.969  0.3947 -0.9052  0.3046
   17CHTO    H7 7149   4.423   6.417   1.037  1.7683  1.5323  0.5385
   17CHTO    O2 7150   4.778   6.433   1.148  0.5572  0.1289 -0.2090
   17CHTO    C1 7151   4.756   6.575   1.132 -0.6654 -0.1155 -0.0237
   17CHTO   H14 7152   4.678   6.588   1.054  0.4431 -1.4140 -1.3830
   17CHTO    C2 7153   4.885   6.658   1.098  0.2488  0.5153  0.2325
   17CHTO   H15 7154   4.966   6.608   1.154  0.2259  2.5925  2.1774
   17CHTO    O6 7155   4.909   6.657   0.958 -0.3296 -0.1964  0.2078
   17CHTO    H1 7156   4.988   6.703   0.938 -0.9132  0.9191  0.3786
   17CHTO    C3 7157   4.872   6.819   1.131  0.5889  0.2684 -0.0899
   17CHTO   H16 7158   4.802   6.861   1.057  1.6670  1.2054 -0.5871
   17CHTO    N1 7159   5.001   6.889   1.126 -0.0112 -0.6016 -0.2206
   17CHTO    H8 7160   5.069   6.858   1.204 -0.2283 -1.7436 -0.4739
   17CHTO    H9 7161   4.970   6.991   1.140  0.7713 -0.3831 -0.0916
   17CHTO    C4 7162   4.801   6.834   1.270 -0.3905  0.0237 -0.0457
   17CHTO   H17 7163   4.870   6.798   1.347  1.3548  3.0633 -0.1068
   17CHTO    O1 7164   4.676   6.766   1.264  0.1007  0.2482  0.1629
   17CHTO    C5 7165   4.685   6.624   1.267 -0.2195 -0.1889 -0.2959
   17CHTO   H18 7166   4.745   6.581   1.347 -0.0113 -0.4144 -0.5729
   17CHTO   C16 7167   4.543   6.561   1.279  0.6213 -0.2436 -0.7110
   17CHTO   O11 7168   4.485   6.550   1.407 -0.2387 -0.1090  0.0024
   17CHTO    H5 7169   4.437   6.630   1.416 -0.0652  0.0417 -0.3969
   17CHTO    O3 7170   4.765   6.967   1.304 -0.3984  0.6097  0.4386
   17CHTO    C6 7171   4.728   7.001   1.444  0.8898 -0.6571 -0.4696
   17CHTO   H19 7172   4.684   7.100   1.448  0.6646 -0.7543 -0.5764
   17CHTO    C8 7173   4.608   6.920   1.502 -0.1835  0.4967  0.1019
   17CHTO   H21 7174   4.637   6.815   1.500  0.1273  0.5867 -0.3624
   17CHTO    O7 7175   4.487   6.930   1.428 -0.7348 -0.3564  0.1700
   17CHTO    H2 7176   4.419   6.881   1.470 -0.6636 -0.6844 -0.0972
   17CHTO   C12 7177   4.578   6.943   1.665  0.5315 -0.2851  0.2856
   17CHTO   H25 7178   4.524   7.039   1.670  1.7213  0.5677 -2.3413
   17CHTO    N3 7179   4.479   6.838   1.716  0.4940 -0.3810 -0.0810
   17CHTO   H12 7180   4.386   6.836   1.662 -0.3233  3.2914  1.0565
   17CHTO   H13 7181   4.533   6.744   1.720 -0.7247 -1.1890 -2.0588
   17CHTO   C15 7182   4.709   6.954   1.743  1.2858  0.4380 -0.6590
   17CHTO   H28 7183   4.759   6.858   1.753 -0.5651 -0.3650  1.2811
   17CHTO   O10 7184   4.694   7.014   1.877  0.2167  0.0998 -0.1534
   17CHTO    H4 7185   4.626   6.971   1.925  1.6472  1.7650  3.5103
   17CHTO    O5 7186   4.795   7.048   1.667  0.1661 -0.6737 -0.0456
   17CHTO   C10 7187   4.843   7.012   1.539 -0.4731  0.6204 -0.4481
   17CHTO   H23 7188   4.902   6.920   1.540  0.1277  1.0072  0.2103
   17CHTO   C17 7189   4.941   7.113   1.482  0.5301 -0.7136 -0.3380
   17CHTO   O12 7190   5.039   7.071   1.390  0.7670 -0.1990  0.4850
   17CHTO    H6 7191   5.069   7.153   1.357 -2.1731  0.7375  0.0162
   18CHTO  H203 7192   6.180   6.973   2.254  1.3014 -0.5983 -1.1368
   18CHTO   O82 7193   6.114   6.950   2.192 -0.1809 -0.1387  0.2392
   18CHTO  C123 7194   6.155   6.960   2.057  0.3118 -0.2979  0.1137
   18CHTO  H227 7195   6.253   6.912   2.045  0.5922  0.1144  0.7341
   18CHTO   O77 7196   6.060   6.873   1.984  0.1244 -0.1859  0.5567
   18CHTO  C118 7197   6.088   6.861   1.838 -0.3464  0.2234  0.2294
   18CHTO  H222 7198   6.192   6.832   1.814 -0.8598 -0.4790 -1.1908
   18CHTO  C125 7199   5.984   6.753   1.772  0.5962 -0.0166 -0.0222
   18CHTO   O84 7200   5.853   6.804   1.758 -0.5417  0.5043 -0.1722
   18CHTO  H205 7201   5.847   6.892   1.788 -1.9003  0.3363  0.0825
   18CHTO  C114 7202   6.077   7.003   1.774 -0.1402 -0.3165  0.6200
   18CHTO  H218 7203   5.979   7.044   1.799 -0.0182  0.6090 -0.4352
   18CHTO  C116 7204   6.175   7.100   1.847 -0.0559  0.8015  0.4455
   18CHTO  H220 7205   6.280   7.069   1.831 -0.4282  0.1214 -0.7442
   18CHTO   O79 7206   6.154   7.226   1.779  0.6174  0.2175  0.7036
   18CHTO  H201 7207   6.185   7.225   1.691 -2.2726  0.3777 -0.3628
   18CHTO  C120 7208   6.146   7.108   2.000 -0.5160 -0.6174 -0.2823
   18CHTO  H224 7209   6.040   7.137   2.018 -1.2822 -2.0339 -2.3164
   18CHTO   N21 7210   6.235   7.202   2.079  0.0498  0.0750  0.2949
   18CHTO  H211 7211   6.228   7.166   2.180 -2.2209 -0.5008 -0.0209
   18CHTO  H212 7212   6.203   7.305   2.078 -1.4365 -0.3623  1.0291
   18CHTO   O75 7213   6.090   6.981   1.630  0.2096 -0.1816 -0.5136
   18CHTO  C112 7214   6.242   6.960   1.565 -0.5679  0.3117  0.9589
   18CHTO  H216 7215   6.307   6.895   1.626 -0.4480 -1.6092 -1.1271
   18CHTO   O73 7216   6.292   7.101   1.553 -0.2058  0.3484 -0.1285
   18CHTO  C113 7217   6.419   7.114   1.486  0.4096  0.3532 -0.0585
   18CHTO  H217 7218   6.502   7.068   1.544  1.5984  3.3151  0.6654
   18CHTO  C124 7219   6.435   7.265   1.490  0.2524  0.0683  0.0751
   18CHTO   O83 7220   6.565   7.313   1.459 -0.3101  0.2504  0.6353
   18CHTO  H204 7221   6.563   7.405   1.445 -1.9713 -0.0903 -1.7216
   18CHTO  C109 7222   6.411   7.052   1.338 -0.6264  0.2706 -0.5735
   18CHTO  H213 7223   6.334   7.110   1.285 -1.6666 -0.6705 -0.0975
   18CHTO  C110 7224   6.368   6.909   1.340  0.0301  0.4595  0.6192
   18CHTO  H214 7225   6.444   6.855   1.396 -0.6874 -1.3748 -0.1373
   18CHTO   O78 7226   6.345   6.855   1.209 -0.1627  0.2750 -0.1403
   18CHTO  H200 7227   6.332   6.763   1.215 -2.0232  0.5221 -0.1661
   18CHTO  C111 7228   6.237   6.894   1.422  0.0904  0.4506  0.6254
   18CHTO  H215 7229   6.156   6.946   1.368 -0.6255  0.4481  1.6792
   18CHTO   N19 7230   6.200   6.753   1.443  0.2266 -0.6361 -0.4252
   18CHTO  H207 7231   6.204   6.697   1.351 -1.3088  0.9612 -1.4939
   18CHTO  H208 7232   6.098   6.749   1.477  0.1362  1.8025 -0.3287
   18CHTO   O74 7233   6.542   7.072   1.277 -0.0916 -0.0654  0.6861
   18CHTO  C115 7234   6.544   7.119   1.131 -0.0362  0.0502 -0.3307
   18CHTO  H219 7235   6.515   7.038   1.065  0.8188  0.3627 -1.0913
   18CHTO   O76 7236   6.434   7.241   1.101 -0.3127  0.8297  0.5024
   18CHTO  C122 7237   6.489   7.371   1.093 -0.0280 -0.3786  0.1370
   18CHTO  H226 7238   6.539   7.396   1.186 -0.5477  0.7658  0.1173
   18CHTO  C126 7239   6.377   7.483   1.066  0.0991  0.1322  0.2934
   18CHTO   O85 7240   6.281   7.444   0.964 -0.4877  0.4447 -0.3718
   18CHTO  H206 7241   6.220   7.383   1.000  0.6527 -0.4435  0.0889
   18CHTO  C121 7242   6.596   7.384   0.973 -0.1914 -0.5536 -0.8059
   18CHTO  H225 7243   6.545   7.407   0.877 -0.5928 -0.7323 -0.6345
   18CHTO   O81 7244   6.694   7.485   1.001  0.4463 -0.1219 -0.3149
   18CHTO  H202 7245   6.677   7.562   0.950 -0.1516 -0.0510 -0.0105
   18CHTO  C119 7246   6.671   7.251   0.953 -0.0273  0.0087  0.0833
   18CHTO  H223 7247   6.597   7.187   0.906 -0.7066 -0.8745  2.2814
   18CHTO  C117 7248   6.688   7.171   1.090 -0.1591  0.5400  0.1660
   18CHTO  H221 7249   6.734   7.225   1.172 -2.0319 -0.1213  1.6743
   18CHTO   N20 7250   6.783   7.053   1.073 -0.2298  0.5062  0.1028
   18CHTO  H209 7251   6.882   7.086   1.045 -0.6332  1.0172 -0.7291
   18CHTO  H210 7252   6.786   7.014   1.174 -0.6996  1.8606  0.6496
   18CHTO   O80 7253   6.801   7.262   0.829 -0.2516  0.0121  0.0185
   18CHTO  C103 7254   6.791   7.173   0.681  0.0640  0.1596  0.5310
   18CHTO  H190 7255   6.877   7.200   0.621  0.4803  0.8654  1.4179
   18CHTO  C101 7256   6.769   7.018   0.689 -0.3380 -0.2043  0.0832
   18CHTO  H188 7257   6.703   6.994   0.772 -1.3202  0.3613 -0.5211
   18CHTO   O68 7258   6.912   6.966   0.741 -0.0360  0.7447  0.1249
   18CHTO  H168 7259   6.926   7.006   0.824 -1.2695 -1.3207  1.3665
   18CHTO   C99 7260   6.719   6.949   0.551 -0.2948 -0.1142 -0.0701
   18CHTO  H186 7261   6.794   6.962   0.470  1.2985  1.3062  1.5846
   18CHTO   N17 7262   6.694   6.809   0.567  0.6981  0.1044 -0.1452
   18CHTO  H174 7263   6.634   6.785   0.654 -2.3928 -0.4385 -2.3462
   18CHTO  H175 7264   6.785   6.751   0.572  0.5436  0.0235  2.7653
   18CHTO   C97 7265   6.596   7.031   0.508 -0.2097  0.4851  0.4465
   18CHTO  H184 7266   6.521   7.017   0.587 -1.9969 -1.1831 -1.4974
   18CHTO   O64 7267   6.635   7.167   0.496 -0.4380  0.0744 -0.0222
   18CHTO  C104 7268   6.665   7.238   0.611 -0.1782  0.0603  0.3249
   18CHTO  H191 7269   6.579   7.243   0.678 -0.0056 -0.7813  0.6139
   18CHTO  C108 7270   6.689   7.382   0.567 -0.3715  0.0004 -0.1915
   18CHTO   O71 7271   6.569   7.440   0.519  0.3294  0.3806 -0.2913
   18CHTO  H171 7272   6.582   7.452   0.427 -1.6169 -0.6165 -0.7363
   18CHTO   O62 7273   6.546   6.996   0.381 -0.0736  0.2095  0.4930
   18CHTO   C91 7274   6.412   7.021   0.366  0.0815 -0.2864  0.1376
   18CHTO  H178 7275   6.374   7.060   0.460  2.0407  0.3645  0.6877
   18CHTO   C92 7276   6.347   6.880   0.345  0.3328  0.2535 -0.6721
   18CHTO  H179 7277   6.387   6.835   0.252  2.5940  0.5636  0.1217
   18CHTO   O66 7278   6.397   6.781   0.439 -0.2004  0.5116 -0.0647
   18CHTO  H166 7279   6.467   6.727   0.409 -1.7731 -1.1067 -0.9367
   18CHTO   C93 7280   6.197   6.896   0.353 -0.2509  0.1138  0.3538
   18CHTO  H180 7281   6.181   6.946   0.450  0.3009 -1.3549  1.2147
   18CHTO   N16 7282   6.119   6.774   0.354  0.2185 -0.0729  0.4144
   18CHTO  H172 7283   6.059   6.768   0.444 -0.1253 -0.8131  0.1430
   18CHTO  H173 7284   6.176   6.683   0.358 -0.5867 -0.6684 -1.1781
   18CHTO   C94 7285   6.149   6.988   0.236 -0.4541  0.0470  0.1317
   18CHTO  H181 7286   6.186   6.956   0.138 -0.2933 -0.4980  0.3705
   18CHTO   O61 7287   6.217   7.115   0.250  0.1069  0.1097 -0.0339
   18CHTO   C95 7288   6.362   7.100   0.236  0.2952 -0.2243 -0.2314
   18CHTO  H182 7289   6.385   7.054   0.140  1.4764  1.2675 -0.6957
   18CHTO  C106 7290   6.431   7.244   0.230  0.1208  0.7794 -0.0320
   18CHTO   O69 7291   6.395   7.306   0.103 -0.0153  1.0951 -0.6257
   18CHTO  H169 7292   6.437   7.254   0.037 -1.3533 -0.6619 -0.1419
   18CHTO   O63 7293   5.972   7.010   0.246 -0.3657 -0.0961 -0.0709
   18CHTO   C96 7294   5.887   7.141   0.183 -0.0812 -0.4408 -0.2122
   18CHTO  H183 7295   5.801   7.103   0.128  0.4903 -2.1181  0.0012
   18CHTO   C98 7296   5.968   7.236   0.096 -0.1356  0.3819  0.9705
   18CHTO  H185 7297   6.058   7.270   0.149 -0.3217  0.1569  1.4339
   18CHTO   O67 7298   6.010   7.148  -0.013  0.5104 -0.5187 -0.4039
   18CHTO  H167 7299   6.052   7.070   0.018  0.4736  1.2804  4.7570
   18CHTO  C102 7300   5.884   7.361   0.040 -0.2842 -0.7198  0.4651
   18CHTO  H189 7301   5.815   7.317  -0.033  0.0455 -0.6785  0.1248
   18CHTO   N18 7302   5.958   7.470  -0.029  0.8959  0.1047 -0.1654
   18CHTO  H176 7303   6.025   7.427  -0.102  2.4482 -0.3516  1.4792
   18CHTO  H177 7304   5.885   7.534  -0.076  0.4902 -1.5220 -1.8223
   18CHTO  C105 7305   5.800   7.422   0.157  0.2080  0.0311 -0.9024
   18CHTO  H192 7306   5.823   7.528   0.171  0.5416 -0.2402  0.6720
   18CHTO   O65 7307   5.819   7.371   0.285 -0.3520 -0.4200 -0.4636
   18CHTO  C100 7308   5.840   7.230   0.308  0.1975  0.1565 -0.0483
   18CHTO  H187 7309   5.926   7.229   0.377 -0.3210  0.6940  0.6165
   18CHTO  C107 7310   5.717   7.161   0.374  0.4258  0.4626 -0.2008
   18CHTO   O70 7311   5.686   7.230   0.496 -0.1682  0.5078  0.0483
   18CHTO  H170 7312   5.745   7.198   0.562  0.1397 -0.6166 -0.7623
   18CHTO   O57 7313   5.651   7.418   0.112  0.0624 -0.0822 -0.1542
   18CHTO   C85 7314   5.587   7.494   0.011 -0.0342 -0.2076  0.4581
   18CHTO  H157 7315   5.655   7.512  -0.075 -1.2005  0.2940 -0.3671
   18CHTO   C83 7316   5.554   7.645   0.063 -0.1640  0.2630  0.6417
   18CHTO  H155 7317   5.651   7.696   0.066 -0.3435  0.5827  1.2288
   18CHTO   O56 7318   5.501   7.637   0.198 -0.5789  0.1433  0.0514
   18CHTO  H135 7319   5.447   7.713   0.213 -0.0416  0.1930  1.9325
   18CHTO   C81 7320   5.464   7.714  -0.040 -0.0177 -0.1889 -0.7677
   18CHTO  H153 7321   5.514   7.714  -0.137 -1.1609  1.6058 -1.3861
   18CHTO   N14 7322   5.436   7.856  -0.007 -0.1236  0.4638  0.1712
   18CHTO  H141 7323   5.485   7.884   0.084 -0.0558  1.0917 -0.0589
   18CHTO  H142 7324   5.473   7.913  -0.089 -0.1580 -0.6676 -0.6470
   18CHTO   C79 7325   5.330   7.635  -0.053 -0.1848 -0.2122  0.1467
   18CHTO  H151 7326   5.276   7.680  -0.136 -1.6598 -1.8160  0.2307
   18CHTO   O52 7327   5.365   7.502  -0.111  0.1532 -0.1353 -0.2550
   18CHTO   C86 7328   5.462   7.421  -0.032  0.2628  0.3037  0.6631
   18CHTO  H158 7329   5.397   7.390   0.053  0.2149  1.4529  1.0568
   18CHTO   C90 7330   5.497   7.292  -0.106  0.5245  0.1715 -0.4458
   18CHTO   O60 7331   5.416   7.177  -0.108 -0.1397  0.0810 -0.3668
   18CHTO  H138 7332   5.379   7.167  -0.022 -3.8628  0.3286 -1.8427
   18CHTO   O50 7333   5.252   7.615   0.063 -0.1898  0.0544 -0.0989
   18CHTO   C73 7334   5.108   7.585   0.066 -0.1337 -0.2295 -0.0214
   18CHTO  H145 7335   5.077   7.524  -0.021 -0.2141  0.5287 -0.5285
   18CHTO   C74 7336   5.025   7.722   0.057 -0.2487  0.4496 -0.2615
   18CHTO  H146 7337   5.047   7.774  -0.038 -1.4364  0.8020 -0.3496
   18CHTO   O54 7338   4.887   7.685   0.043  0.1998 -0.1861  0.2238
   18CHTO  H133 7339   4.836   7.748   0.090 -0.5340 -1.4513  1.1671
   18CHTO   C75 7340   5.056   7.809   0.184 -0.2803  0.7142 -0.1237
   18CHTO  H147 7341   5.163   7.834   0.187 -0.2013  0.5999 -1.7245
   18CHTO   N13 7342   4.993   7.944   0.193  0.0129  0.3843 -0.3288
   18CHTO  H139 7343   5.047   8.017   0.134  0.6181  0.1557 -0.0667
   18CHTO  H140 7344   5.007   7.977   0.295 -1.4810 -0.9523  0.3206
   18CHTO   C76 7345   5.031   7.718   0.317  0.0302  0.6007  0.0606
   18CHTO  H148 7346   4.923   7.707   0.319 -0.2010  2.5540 -0.0968
   18CHTO   O49 7347   5.101   7.590   0.317 -0.4565  0.1974 -0.2501
   18CHTO   C77 7348   5.079   7.511   0.202 -0.4344  0.5795  0.0099
   18CHTO  H149 7349   4.974   7.482   0.207 -0.8201  1.9937  0.0594
   18CHTO   C88 7350   5.166   7.384   0.210 -0.1623  0.0505  0.3595
   18CHTO   O58 7351   5.126   7.284   0.113  0.3047 -0.1567  0.3658
   18CHTO  H136 7352   5.202   7.279   0.058  0.6120  2.1204  0.5634
   18CHTO   O51 7353   5.095   7.788   0.440  0.0021  0.0637 -0.0517
   18CHTO   C78 7354   5.063   7.735   0.576  0.3227  0.6038  0.0228
   18CHTO  H150 7355   5.038   7.627   0.567  0.6944  0.5393 -0.2644
   18CHTO   C80 7356   4.933   7.806   0.623 -0.5218 -0.7282  0.4536
   18CHTO  H152 7357   4.947   7.914   0.601  0.8310 -0.9888 -0.0572
   18CHTO   O55 7358   4.829   7.756   0.540 -0.6942 -0.1294  0.4734
   18CHTO  H134 7359   4.747   7.795   0.564 -0.3649 -0.2965  1.8957
   18CHTO   C84 7360   4.904   7.777   0.774 -0.2617  0.3941 -0.0743
   18CHTO  H156 7361   4.879   7.671   0.777 -1.2731  0.6606  2.9685
   18CHTO   N15 7362   4.789   7.851   0.835  0.0449  0.0744  0.2243
   18CHTO  H143 7363   4.792   7.838   0.941 -0.9273  0.2503  0.2789
   18CHTO  H144 7364   4.784   7.956   0.814  0.2028  0.2101  0.8375
   18CHTO   C87 7365   5.029   7.787   0.870 -0.7312  0.6342  0.4302
   18CHTO  H159 7366   5.068   7.888   0.878  2.7401 -0.7192  1.6553
   18CHTO   O53 7367   5.148   7.701   0.800  0.5687  0.0116  0.0138
   18CHTO   C82 7368   5.177   7.758   0.674 -0.1996  0.3424  0.3060
   18CHTO  H154 7369   5.204   7.863   0.682  0.0560  0.3306 -0.3148
   18CHTO   C89 7370   5.297   7.684   0.627  0.0015 -0.0369 -0.0935
   18CHTO   O59 7371   5.357   7.766   0.525  0.0743 -0.2908  0.3579
   18CHTO  H137 7372   5.404   7.717   0.460 -0.6017  0.4593 -0.7092
   18CHTO   O45 7373   5.007   7.723   1.004  0.8095  0.0611  0.2453
   18CHTO   C67 7374   5.114   7.730   1.096 -0.3093  0.3066  0.1206
   18CHTO  H124 7375   5.211   7.713   1.050 -0.5591  0.6118 -0.5244
   18CHTO   C65 7376   5.116   7.863   1.172  0.2128 -0.3473  0.4687
   18CHTO  H122 7377   5.012   7.895   1.179  0.4778  0.6003  0.2285
   18CHTO   O44 7378   5.194   7.946   1.080  0.2172 -0.0211  0.3602
   18CHTO  H102 7379   5.286   7.937   1.100 -0.0425  1.3985  2.2873
   18CHTO   C63 7380   5.168   7.866   1.327  0.2727  0.1753 -0.0695
   18CHTO  H120 7381   5.083   7.839   1.390  0.3595  0.0857  0.0092
   18CHTO   N11 7382   5.209   7.994   1.380 -0.2892 -0.3002  0.4773
   18CHTO  H108 7383   5.295   8.036   1.331 -1.2343  0.7793 -0.2875
   18CHTO  H109 7384   5.124   8.059   1.387 -0.1838 -0.1355  0.2592
   18CHTO   C61 7385   5.278   7.749   1.346  0.4988  0.5922 -0.2313
   18CHTO  H118 7386   5.313   7.747   1.450  1.7004  0.0634 -0.6300
   18CHTO   O40 7387   5.218   7.619   1.310 -0.2933 -0.2316  0.0990
   18CHTO   C68 7388   5.105   7.620   1.213  0.5577  0.1048 -0.5303
   18CHTO  H125 7389   5.007   7.632   1.264  0.3684  0.8760 -1.0668
   18CHTO   C72 7390   5.101   7.484   1.135  0.2120 -0.0786 -0.0466
   18CHTO   O48 7391   5.031   7.376   1.203  0.6689 -0.3012  0.5864
   18CHTO  H105 7392   4.939   7.392   1.214  0.5187 -0.2920 -0.6858
   18CHTO   O38 7393   5.393   7.775   1.257  0.3465  0.1646 -0.0422
   18CHTO   C55 7394   5.516   7.712   1.299  0.1542  0.4190  0.3758
   18CHTO  H112 7395   5.487   7.632   1.369 -3.9070 -0.9459 -2.6844
   18CHTO   C56 7396   5.610   7.822   1.363  0.3695  0.7322 -0.3105
   18CHTO  H113 7397   5.620   7.905   1.292 -0.3114  0.3858 -0.8097
   18CHTO   O42 7398   5.545   7.870   1.487 -0.6334 -0.1306 -0.2592
   18CHTO  H100 7399   5.467   7.917   1.465 -0.0486  1.8615  1.7237
   18CHTO   C57 7400   5.748   7.752   1.389  0.2177  0.0626 -0.2544
   18CHTO  H114 7401   5.727   7.672   1.461 -0.2497  1.4618  1.2045
   18CHTO   N10 7402   5.851   7.847   1.431 -0.4310 -0.8458  0.5505
   18CHTO  H106 7403   5.832   7.947   1.395 -2.4425 -0.2059  3.2673
   18CHTO  H107 7404   5.852   7.850   1.539 -0.4084 -0.5101  0.5425
   18CHTO   C58 7405   5.801   7.680   1.263  0.1760 -0.0393  0.2225
   18CHTO  H115 7406   5.819   7.751   1.180  0.2665  1.8317  1.8181
   18CHTO   O37 7407   5.709   7.589   1.216 -0.1283  0.3369 -0.1811
   18CHTO   C59 7408   5.579   7.648   1.174 -0.5185 -0.5826  0.3715
   18CHTO  H116 7409   5.596   7.724   1.098 -0.8136 -0.6199  0.2694
   18CHTO   C70 7410   5.495   7.535   1.114 -0.5773 -0.2022  0.0318
   18CHTO   O46 7411   5.534   7.508   0.982  0.1246 -0.0451 -0.0388
   18CHTO  H103 7412   5.617   7.465   0.978 -0.5665 -1.2605 -1.1183
   18CHTO   O39 7413   5.949   7.585   1.298  0.2229  0.5066  0.5022
   18CHTO   C60 7414   5.946   7.445   1.334 -0.0717  0.1740  0.4275
   18CHTO  H117 7415   5.866   7.425   1.405 -3.1101  1.5535 -2.4772
   18CHTO   C62 7416   5.911   7.350   1.222  0.2605  0.1649 -0.6599
   18CHTO  H119 7417   5.800   7.342   1.227  0.3231 -1.7235 -1.9694
   18CHTO   O43 7418   5.945   7.391   1.086 -0.2667 -0.1501  0.3029
   18CHTO  H101 7419   5.870   7.436   1.051  0.5327  1.3107  0.4057
   18CHTO   C66 7420   5.964   7.193   1.236  0.2823  0.6851  0.1340
   18CHTO  H123 7421   5.890   7.127   1.191  0.1837  0.5557  0.4815
   18CHTO   N12 7422   6.085   7.142   1.168  0.4327 -0.0482 -0.2557
   18CHTO  H110 7423   6.100   7.038   1.192  2.4653  0.7533  2.0849
   18CHTO  H111 7424   6.172   7.199   1.194 -0.5001  1.5560 -0.5975
   18CHTO   C69 7425   5.955   7.154   1.385 -0.4879 -0.1950  0.2027
   18CHTO  H126 7426   5.985   7.047   1.396  1.7161  0.3603 -0.2248
   18CHTO   O41 7427   6.064   7.252   1.466  0.4924  0.1817 -0.2255
   18CHTO   C64 7428   6.080   7.402   1.402  0.4190  0.7822  0.2185
   18CHTO  H121 7429   6.169   7.401   1.335  1.1583 -0.3945  1.1727
   18CHTO   C71 7430   6.123   7.490   1.524  0.0828 -0.6528  0.7532
   18CHTO   O47 7431   6.027   7.474   1.630  0.1233  0.3996  0.8494
   18CHTO  H104 7432   5.946   7.510   1.600  0.3549 -1.7540 -2.6570
   18CHTO   O34 7433   5.813   7.174   1.428 -0.4247  0.0794  0.3147
   18CHTO   C49 7434   5.741   7.165   1.533 -0.3105  0.3084 -0.1896
   18CHTO   H91 7435   5.777   7.077   1.586  0.5442 -0.0613 -1.3816
   18CHTO   C47 7436   5.590   7.156   1.500  0.0259 -0.1589 -0.3603
   18CHTO   H89 7437   5.544   7.138   1.599 -0.0810  0.4958 -0.2884
   18CHTO   O33 7438   5.562   7.043   1.420  0.0568  0.0050  0.3916
   18CHTO   H70 7439   5.594   7.063   1.334 -1.9973 -2.4448 -1.0048
   18CHTO   C45 7440   5.542   7.304   1.445 -0.3658  0.4405  0.2161
   18CHTO   H87 7441   5.607   7.335   1.362 -0.7015  1.8957  0.4938
   18CHTO    N8 7442   5.399   7.297   1.399 -0.3864 -0.2196 -0.1055
   18CHTO   H75 7443   5.333   7.275   1.481  1.7550 -1.2815  1.3770
   18CHTO   H76 7444   5.370   7.392   1.356  1.4028  0.2724 -0.2862
   18CHTO   C43 7445   5.578   7.417   1.554  0.9259 -0.5942 -0.4241
   18CHTO   H85 7446   5.545   7.512   1.513 -3.3952 -0.8115  2.3208
   18CHTO   O29 7447   5.715   7.407   1.590 -0.4635 -0.0003  0.1459
   18CHTO   C50 7448   5.772   7.283   1.632  0.3672  0.0090  0.1108
   18CHTO   H92 7449   5.882   7.288   1.638  0.4137 -0.6709 -0.1473
   18CHTO   C54 7450   5.739   7.253   1.778 -0.0409 -0.2988 -0.1833
   18CHTO   O36 7451   5.772   7.358   1.871  0.2790  0.2291  0.1021
   18CHTO   H72 7452   5.718   7.348   1.947  0.4114  1.7728  0.4082
   18CHTO   O27 7453   5.495   7.400   1.669 -0.2111  0.0198  0.0602
   18CHTO   C37 7454   5.419   7.474   1.767  0.0950  0.8113  0.3309
   18CHTO   H79 7455   5.457   7.445   1.866  1.3733 -3.0220 -1.1789
   18CHTO   C38 7456   5.433   7.630   1.741 -0.2034 -0.1499  0.4112
   18CHTO   H80 7457   5.394   7.645   1.639 -3.2980  0.1419  1.5818
   18CHTO   O31 7458   5.569   7.669   1.742 -0.0032 -0.3675 -0.2066
   18CHTO   H68 7459   5.579   7.757   1.711 -0.5016 -0.3605 -0.3507
   18CHTO   C39 7460   5.344   7.709   1.839  0.2121 -0.2685  0.2262
   18CHTO   H81 7461   5.382   7.693   1.940  0.2911 -2.4059 -0.1263
   18CHTO    N7 7462   5.345   7.861   1.819  0.5312 -0.2221  0.2989
   18CHTO   H73 7463   5.251   7.902   1.851  0.3280 -0.3010 -0.2031
   18CHTO   H74 7464   5.423   7.902   1.882 -0.3090  1.0830  0.5007
   18CHTO   C40 7465   5.202   7.643   1.839 -0.2840 -0.1432  0.0676
   18CHTO   H82 7466   5.154   7.665   1.744  0.3200 -1.7659 -0.6414
   18CHTO   O26 7467   5.203   7.499   1.863 -0.1234  0.1175  0.1448
   18CHTO   C41 7468   5.278   7.432   1.757  0.2482 -0.1458 -0.2938
   18CHTO   H83 7469   5.230   7.465   1.664  0.1420 -0.6308 -0.4131
   18CHTO   C52 7470   5.253   7.284   1.788 -0.0807 -0.7831 -0.1365
   18CHTO   O35 7471   5.097   7.238   1.774  0.1072  0.2694  0.1694
   18CHTO   H71 7472   5.105   7.153   1.733  2.2151 -0.0081  1.1064
   18CHTO   O28 7473   5.116   7.701   1.944 -0.0445  0.3813  0.4610
   18CHTO   C42 7474   4.968   7.676   1.956  0.2121  0.4376 -0.1845
   18CHTO   H84 7475   4.941   7.720   2.052  1.3085 -0.3214  0.4853
   18CHTO   C44 7476   4.924   7.531   1.959  0.3558  0.3510  0.1155
   18CHTO   H86 7477   4.955   7.481   1.867  2.8488 -1.4873  1.8924
   18CHTO   O32 7478   4.994   7.478   2.072  1.0683 -0.3161 -0.0305
   18CHTO   H69 7479   5.072   7.433   2.046  1.0628  0.3019 -1.1326
   18CHTO   C48 7480   4.764   7.514   1.975  0.0301 -0.1929 -0.4600
   18CHTO   H90 7481   4.729   7.559   2.069 -1.4798 -0.5591 -0.8346
   18CHTO    N9 7482   4.723   7.369   1.990 -0.5286  0.3634 -0.8540
   18CHTO   H77 7483   4.732   7.323   1.893  1.7100  1.2418 -1.1052
   18CHTO   H78 7484   4.779   7.328   2.073 -3.1814 -3.3703 -0.8083
   18CHTO   C51 7485   4.695   7.585   1.855  0.7373  0.3145 -0.6249
   18CHTO   H93 7486   4.731   7.527   1.770  1.6621 -1.0648  0.6806
   18CHTO   O30 7487   4.736   7.727   1.842  0.2798 -0.1850  0.1701
   18CHTO   C46 7488   4.893   7.751   1.844 -0.3866 -0.7887  0.0029
   18CHTO   H88 7489   4.935   7.731   1.746 -0.7315  1.6355 -0.6841
   18CHTO   C53 7490   4.908   7.906   1.870  0.0917 -0.1003  0.1498
   18CHTO   O72 7491   4.877   7.956   2.001  0.0600 -0.5457 -0.1795
   18CHTO  H199 7492   4.852   7.887   2.059 -2.9555 -0.3195 -1.1142
   18CHTO   O22 7493   4.547   7.594   1.863 -0.3439 -0.2096 -0.7185
   18CHTO   C31 7494   4.462   7.598   1.744  0.0685 -0.2638  0.1534
   18CHTO   H59 7495   4.358   7.584   1.782  0.3165  0.0934  0.9850
   18CHTO   C29 7496   4.466   7.732   1.669 -0.2574 -0.5652  0.1881
   18CHTO   H57 7497   4.569   7.743   1.632 -0.4523 -0.4348 -0.3081
   18CHTO   O21 7498   4.448   7.843   1.764 -0.0721  0.3040  0.3661
   18CHTO   H37 7499   4.365   7.844   1.806 -0.0076  1.3097  0.4814
   18CHTO   C27 7500   4.360   7.724   1.549 -0.0402 -0.1653  0.8958
   18CHTO   H55 7501   4.259   7.722   1.590 -0.8418  1.4114 -0.9051
   18CHTO    N5 7502   4.365   7.838   1.459  0.2381 -0.5822 -0.8738
   18CHTO   H43 7503   4.334   7.926   1.514  0.0158 -0.7501 -0.7352
   18CHTO   H44 7504   4.466   7.850   1.421  0.2269 -1.8956 -1.3204
   18CHTO   C25 7505   4.389   7.596   1.460  0.5218  0.0409 -0.6508
   18CHTO   H53 7506   4.492   7.605   1.422  0.4730  2.4984 -0.2837
   18CHTO   O17 7507   4.391   7.471   1.547  0.5051 -0.3533 -0.8728
   18CHTO   C32 7508   4.489   7.481   1.651  0.1718 -0.1253 -0.0974
   18CHTO   H60 7509   4.582   7.501   1.599 -0.2464  0.6641 -0.5557
   18CHTO   C36 7510   4.488   7.342   1.722  0.0304 -0.2430  0.0434
   18CHTO   O25 7511   4.592   7.257   1.678  0.1797  0.7244  0.0469
   18CHTO   H40 7512   4.577   7.231   1.590 -1.2559  0.0717  0.4747
   18CHTO   O15 7513   4.272   7.576   1.351 -0.2657 -0.4315  0.1204
   18CHTO   C19 7514   4.309   7.537   1.214 -0.8531  0.0102  0.4465
   18CHTO   H47 7515   4.225   7.484   1.168  1.5604 -3.3146 -0.2861
   18CHTO   C20 7516   4.351   7.653   1.121 -0.7093  0.2623  0.5988
   18CHTO   H48 7517   4.440   7.704   1.161  0.5409 -1.8543  0.5814
   18CHTO   O19 7518   4.248   7.750   1.126  0.3484  0.2835  0.0335
   18CHTO   H35 7519   4.291   7.826   1.092  0.6572 -0.6013 -1.5952
   18CHTO   C21 7520   4.388   7.604   0.980 -0.8650 -0.1950  0.5143
   18CHTO   H49 7521   4.303   7.549   0.941 -1.6029  0.5806  1.0101
   18CHTO    N4 7522   4.418   7.713   0.884 -0.1231  0.0570  0.4627
   18CHTO   H41 7523   4.521   7.706   0.853 -0.1863  0.4525  0.1600
   18CHTO   H42 7524   4.397   7.809   0.928  0.1753  0.0261  0.6729
   18CHTO   C22 7525   4.501   7.499   0.992 -0.7018 -0.3292  0.7760
   18CHTO   H50 7526   4.599   7.536   1.020 -0.1451 -0.7426 -0.5849
   18CHTO   O14 7527   4.463   7.396   1.082 -0.6173  0.0960 -0.4612
   18CHTO   C23 7528   4.425   7.433   1.215 -0.1329 -0.1070  0.0325
   18CHTO   H51 7529   4.518   7.475   1.255  0.6737 -0.9470 -0.9145
   18CHTO   C34 7530   4.384   7.302   1.280  0.5752  0.1416 -0.1502
   18CHTO   O23 7531   4.494   7.210   1.295  0.0765 -0.3324 -0.1655
   18CHTO   H38 7532   4.470   7.123   1.269 -0.1756 -0.5470  0.7800
   18CHTO   O16 7533   4.523   7.425   0.873  0.5513  0.6937  0.4146
   18CHTO   C24 7534   4.677   7.423   0.799  0.0624  0.4453 -0.6075
   18CHTO   H52 7535   4.734   7.510   0.832 -1.6223  1.4019 -0.1545
   18CHTO   C26 7536   4.675   7.426   0.645  0.5072 -0.4298 -1.0673
   18CHTO   H54 7537   4.613   7.341   0.607  0.7127 -0.7726 -0.6500
   18CHTO   O20 7538   4.609   7.550   0.615  0.3766  0.1157  0.2347
   18CHTO   H36 7539   4.522   7.532   0.587  0.1969  2.2962 -0.7417
   18CHTO   C30 7540   4.817   7.415   0.585  0.0714 -0.2434  0.2404
   18CHTO   H58 7541   4.873   7.506   0.611  0.4934 -0.6369  0.7364
   18CHTO    N6 7542   4.812   7.406   0.435  0.5277  0.1340  0.0405
   18CHTO   H45 7543   4.860   7.320   0.391 -0.2183  1.1325 -2.8678
   18CHTO   H46 7544   4.849   7.495   0.385  0.5766  0.4773  0.6816
   18CHTO   C33 7545   4.893   7.299   0.652  0.0077 -0.1138 -0.2419
   18CHTO   H61 7546   4.853   7.200   0.629 -1.9643  1.0071 -1.8416
   18CHTO   O18 7547   4.881   7.320   0.793  0.2155 -0.2659 -0.5933
   18CHTO   C28 7548   4.752   7.300   0.845  0.1898 -0.4666  0.6911
   18CHTO   H56 7549   4.701   7.212   0.805  2.0970 -0.6263 -1.4849
   18CHTO   C35 7550   4.764   7.285   1.001 -0.1960  0.4937 -0.2123
   18CHTO   O24 7551   4.811   7.158   1.044 -0.1995  0.2836  0.2758
   18CHTO   H39 7552   4.801   7.150   1.137  0.0742  2.2975  0.5017
   18CHTO    O9 7553   5.034   7.294   0.607 -0.3116 -0.1958 -0.1608
   18CHTO   C13 7554   5.106   7.155   0.682 -0.0811 -0.2178  0.7428
   18CHTO   H26 7555   5.036   7.069   0.688  0.3144 -0.5393  0.7317
   18CHTO   C11 7556   5.158   7.205   0.832  0.2689 -0.3914  0.3439
   18CHTO   H24 7557   5.081   7.239   0.903 -0.2417  1.2281 -0.9530
   18CHTO    O8 7558   5.236   7.326   0.808 -0.0755 -0.4169 -0.0964
   18CHTO    H3 7559   5.313   7.322   0.754 -1.6852 -1.0986 -2.4198
   18CHTO    C9 7560   5.237   7.087   0.904  0.3846 -0.2799  1.2551
   18CHTO   H22 7561   5.159   7.018   0.939 -1.0966  0.0349 -1.3113
   18CHTO    N2 7562   5.292   7.136   1.029  0.1868 -0.2717 -0.2254
   18CHTO   H10 7563   5.396   7.105   1.031  1.0337  2.4906  0.1327
   18CHTO   H11 7564   5.225   7.094   1.102 -0.0586 -0.3377 -0.4876
   18CHTO    C7 7565   5.326   7.005   0.803  0.0352  0.2143  0.6991
   18CHTO   H20 7566   5.272   6.909   0.794  0.9648 -0.5816  2.9803
   18CHTO    O4 7567   5.349   7.078   0.684 -0.0403 -0.2256 -0.0719
   18CHTO   C14 7568   5.234   7.101   0.602  0.8285  0.2860 -0.0150
   18CHTO   H27 7569   5.200   7.009   0.552 -1.7738  1.2548 -0.1105
   18CHTO   C18 7570   5.287   7.203   0.494 -0.7047 -0.0499 -0.0484
   18CHTO   O13 7571   5.370   7.157   0.381  0.0072 -0.4007 -0.1927
   18CHTO    H7 7572   5.440   7.103   0.412 -0.8743 -2.5008 -1.7640
   18CHTO    O2 7573   5.473   6.968   0.876 -0.5331  0.1054 -0.1747
   18CHTO    C1 7574   5.588   6.980   0.790 -0.4830 -0.4039 -1.0065
   18CHTO   H14 7575   5.576   7.066   0.721  2.8000  0.5325 -0.4860
   18CHTO    C2 7576   5.598   6.847   0.699  0.3212  0.1486 -0.0092
   18CHTO   H15 7577   5.598   6.772   0.779 -1.3670 -0.5682 -0.6737
   18CHTO    O6 7578   5.498   6.837   0.594 -0.7916 -0.0840  0.1410
   18CHTO    H1 7579   5.492   6.915   0.542 -1.0383  0.1472  0.5101
   18CHTO    C3 7580   5.738   6.830   0.636  0.1518 -0.4759 -0.3931
   18CHTO   H16 7581   5.742   6.911   0.562  0.7119  0.7370  0.9535
   18CHTO    N1 7582   5.761   6.694   0.583  0.1003 -0.0344  0.1680
   18CHTO    H8 7583   5.856   6.677   0.535 -0.7134  0.0177 -1.5014
   18CHTO    H9 7584   5.738   6.620   0.659 -1.1758 -1.1204 -1.2502
   18CHTO    C4 7585   5.855   6.862   0.741 -0.7626  0.4669 -0.1127
   18CHTO   H17 7586   5.842   6.800   0.830 -2.7494 -1.7851 -1.9142
   18CHTO    O1 7587   5.840   6.998   0.785  0.4938  0.0414  0.4691
   18CHTO    C5 7588   5.723   7.015   0.868  0.0379  0.9938 -0.1236
   18CHTO   H18 7589   5.728   6.947   0.953 -0.6333  2.2552  0.9403
   18CHTO   C16 7590   5.728   7.166   0.911  0.0013 -0.8287  0.2275
   18CHTO   O11 7591   5.638   7.184   1.021  0.1816 -0.4676 -0.4986
   18CHTO    H5 7592   5.658   7.261   1.070  0.6312 -1.1579  0.4257
   18CHTO    O3 7593   5.991   6.860   0.693 -0.4367  0.1344 -0.2246
   18CHTO    C6 7594   6.101   6.845   0.790 -0.2074 -0.2473  0.2719
   18CHTO   H19 7595   6.082   6.896   0.884 -0.8477  3.9716 -2.0296
   18CHTO    C8 7596   6.139   6.696   0.825 -0.3605  0.0522 -0.5356
   18CHTO   H21 7597   6.160   6.642   0.733  2.4744  0.3909 -0.1138
   18CHTO    O7 7598   6.025   6.644   0.894  0.2054  0.1620 -0.0806
   18CHTO    H2 7599   6.045   6.567   0.944 -0.2768  1.4922  2.2347
   18CHTO   C12 7600   6.277   6.701   0.903  0.2339 -0.5910 -0.3641
   18CHTO   H25 7601   6.263   6.763   0.994  2.6823  1.0447 -1.0602
   18CHTO    N3 7602   6.322   6.575   0.964 -0.4725  0.6031 -0.5775
   18CHTO   H12 7603   6.377   6.511   0.897  0.4852  0.1991  0.5678
   18CHTO   H13 7604   6.247   6.512   1.011  1.1604 -0.7271  0.2855
   18CHTO   C15 7605   6.386   6.764   0.814  0.5744  0.2922  1.0514
   18CHTO   H28 7606   6.396   6.712   0.718  0.7610 -0.9339  1.7218
   18CHTO   O10 7607   6.523   6.783   0.869 -0.2125 -0.3032 -0.3204
   18CHTO    H4 7608   6.582   6.799   0.799  0.4759 -0.7611  0.1484
   18CHTO    O5 7609   6.345   6.896   0.801 -0.2110  0.2551 -0.0380
   18CHTO   C10 7610   6.229   6.913   0.727  0.4451 -0.0336  0.2099
   18CHTO   H23 7611   6.247   6.875   0.627  0.1202  0.1561  0.0810
   18CHTO   C17 7612   6.214   7.070   0.720 -0.6632  0.4636  0.8485
   18CHTO   O12 7613   6.117   7.118   0.627 -0.4104  0.2348 -0.1335
   18CHTO    H6 7614   6.138   7.200   0.588 -1.0402 -0.0438 -1.0865
   19CHTO  H203 7615   5.062   8.943   2.460  0.9126  0.3439 -0.7408
   19CHTO   O82 7616   5.075   8.870   2.518  0.2158  0.2091 -0.7501
   19CHTO  C123 7617   5.027   8.748   2.465 -0.1200 -0.0200 -0.0991
   19CHTO  H227 7618   4.973   8.773   2.372  1.6216  1.7137 -0.6693
   19CHTO   O77 7619   5.152   8.682   2.424  0.4665  0.4395 -0.5653
   19CHTO  C118 7620   5.132   8.563   2.346 -0.3078 -0.1745 -0.0163
   19CHTO  H222 7621   5.062   8.592   2.267  2.9285  1.9923 -2.1997
   19CHTO  C125 7622   5.268   8.511   2.283 -0.3948 -0.4469 -0.3121
   19CHTO   O84 7623   5.341   8.617   2.215  0.3191 -0.8335 -0.3374
   19CHTO  H205 7624   5.428   8.581   2.209  0.9646  0.5825  0.4185
   19CHTO  C114 7625   5.060   8.459   2.433 -0.4728 -0.8394 -0.2765
   19CHTO  H218 7626   5.132   8.434   2.511 -1.0384  0.4984  0.6982
   19CHTO  C116 7627   4.928   8.517   2.497 -0.3947  0.1549  0.1684
   19CHTO  H220 7628   4.846   8.516   2.422 -1.6022 -0.6339  1.4764
   19CHTO   O79 7629   4.892   8.431   2.603 -0.1311 -0.0630  0.3598
   19CHTO  H201 7630   4.841   8.354   2.585  1.2852 -1.5240  2.3584
   19CHTO  C120 7631   4.946   8.660   2.561 -0.1405 -0.0503 -0.2709
   19CHTO  H224 7632   5.002   8.636   2.654 -1.0835 -2.0745 -0.2073
   19CHTO   N21 7633   4.815   8.713   2.605 -0.3659  0.4609 -0.5985
   19CHTO  H211 7634   4.791   8.692   2.708 -0.0443 -2.5063 -1.0953
   19CHTO  H212 7635   4.806   8.819   2.585 -2.6224  0.4724  0.4239
   19CHTO   O75 7636   5.040   8.355   2.342  0.4394  0.2190 -0.4039
   19CHTO  C112 7637   5.082   8.198   2.411 -0.3156 -0.0893  0.2761
   19CHTO  H216 7638   5.043   8.179   2.512  1.6133 -0.3636  0.9793
   19CHTO   O73 7639   5.227   8.180   2.401  0.0866 -0.0269  0.1786
   19CHTO  C113 7640   5.269   8.057   2.447 -0.3082  0.5733  0.3588
   19CHTO  H217 7641   5.242   8.043   2.554  2.0480 -1.3326  0.7333
   19CHTO  C124 7642   5.421   8.066   2.437  0.0656  0.2814 -0.7007
   19CHTO   O83 7643   5.482   7.954   2.497 -0.1748 -0.1604  0.1492
   19CHTO  H204 7644   5.471   7.968   2.589  0.3683 -0.9068  0.3300
   19CHTO  C109 7645   5.203   7.951   2.363 -0.8176 -0.2882  0.3588
   19CHTO  H213 7646   5.237   7.974   2.261  2.0778  2.1732  1.8131
   19CHTO  C110 7647   5.049   7.956   2.368 -0.3908 -0.2303 -0.0334
   19CHTO  H214 7648   5.009   7.929   2.466 -0.0447 -1.1364 -0.1447
   19CHTO   O78 7649   5.001   7.848   2.286  0.5502  0.2983 -0.0024
   19CHTO  H200 7650   5.015   7.870   2.196 -0.5384  0.5496 -0.1132
   19CHTO  C111 7651   5.007   8.094   2.323 -0.0910  0.0497 -1.3189
   19CHTO  H215 7652   5.042   8.106   2.219  0.7427  0.1415 -1.0302
   19CHTO   N19 7653   4.858   8.110   2.322  0.0805 -0.1351  0.0012
   19CHTO  H207 7654   4.817   8.104   2.223  0.3002  0.6001 -0.1302
   19CHTO  H208 7655   4.804   8.036   2.379  0.1000  1.2882  1.9127
   19CHTO   O74 7656   5.253   7.828   2.411 -0.1608 -0.4203 -0.8131
   19CHTO  C115 7657   5.282   7.731   2.300 -1.1703  0.0196 -0.0755
   19CHTO  H219 7658   5.202   7.732   2.226 -1.2494  0.6936  0.0159
   19CHTO   O76 7659   5.405   7.773   2.222  0.1820  0.2943  0.1380
   19CHTO  C122 7660   5.520   7.689   2.231 -0.0706 -0.4773 -0.3141
   19CHTO  H226 7661   5.561   7.718   2.328  3.3728 -0.2286 -1.8034
   19CHTO  C126 7662   5.624   7.741   2.126 -0.3172  0.1966 -0.6835
   19CHTO   O85 7663   5.658   7.878   2.158  0.3551  0.1336  0.2699
   19CHTO  H206 7664   5.700   7.885   2.242  1.0599 -0.3369 -0.0364
   19CHTO  C121 7665   5.505   7.538   2.229 -0.0457  0.7171 -0.2242
   19CHTO  H225 7666   5.537   7.502   2.129  1.0213  0.9575  0.0178
   19CHTO   O81 7667   5.584   7.485   2.342 -0.8112 -0.6000 -0.1576
   19CHTO  H202 7668   5.639   7.414   2.317 -0.5045  0.0618 -1.4454
   19CHTO  C119 7669   5.358   7.492   2.251 -0.8429 -0.0498  0.3246
   19CHTO  H223 7670   5.306   7.520   2.159 -0.9169 -0.7782  0.1470
   19CHTO  C117 7671   5.291   7.583   2.364 -0.0220  0.3066  0.2599
   19CHTO  H221 7672   5.339   7.584   2.461  2.8553 -2.1751 -1.0353
   19CHTO   N20 7673   5.152   7.540   2.391  0.3041  0.6905 -0.1535
   19CHTO  H209 7674   5.101   7.531   2.296  3.2379 -1.0769 -1.6359
   19CHTO  H210 7675   5.148   7.444   2.440 -1.6889  1.4352  1.2053
   19CHTO   O80 7676   5.345   7.334   2.252  0.6422 -0.0846 -0.5263
   19CHTO  C103 7677   5.415   7.240   2.126 -0.2230 -0.3204 -0.5021
   19CHTO  H190 7678   5.409   7.294   2.031  0.8164  2.9617  1.2255
   19CHTO  C101 7679   5.558   7.175   2.151  0.3160 -0.1788 -0.3707
   19CHTO  H188 7680   5.551   7.117   2.243  1.0822  0.5582  0.1487
   19CHTO   O68 7681   5.667   7.284   2.155  0.1269 -0.5122  0.0549
   19CHTO  H168 7682   5.735   7.257   2.214 -0.6775  0.4747  1.4792
   19CHTO   C99 7683   5.589   7.073   2.035 -0.3359 -0.4158  0.0298
   19CHTO  H186 7684   5.580   7.133   1.943  0.2939 -0.6108 -0.1665
   19CHTO   N17 7685   5.725   6.993   2.040 -0.1854 -0.0103  0.1374
   19CHTO  H174 7686   5.766   6.988   2.139 -0.8295  0.6885  0.4482
   19CHTO  H175 7687   5.795   7.041   1.973  0.5683  0.1426  1.0195
   19CHTO   C97 7688   5.478   6.964   2.025  0.1883  0.0689  0.4846
   19CHTO  H184 7689   5.481   6.900   2.115  2.2130  0.3081  0.6052
   19CHTO   O64 7690   5.353   7.032   2.014  0.1832  0.2429 -0.4219
   19CHTO  C104 7691   5.314   7.120   2.118  0.2968 -0.0492 -0.1371
   19CHTO  H191 7692   5.310   7.071   2.215  3.0405 -0.7200 -0.3301
   19CHTO  C108 7693   5.170   7.165   2.089 -0.1224  0.2163 -0.3437
   19CHTO   O71 7694   5.092   7.044   2.108 -0.4090  0.1241 -0.3610
   19CHTO  H171 7695   5.005   7.066   2.079  0.3496  2.2562 -1.1105
   19CHTO   O62 7696   5.466   6.889   1.898 -0.2274 -0.6943  0.1253
   19CHTO   C91 7697   5.376   6.777   1.874  0.1763 -0.1503  0.0724
   19CHTO  H178 7698   5.276   6.787   1.917 -0.0566  0.8196 -0.6691
   19CHTO   C92 7699   5.438   6.642   1.937 -0.3289  0.2169  0.2018
   19CHTO  H179 7700   5.547   6.634   1.922 -0.0950  0.5640  1.6057
   19CHTO   O66 7701   5.442   6.658   2.077  0.3371  0.3020 -0.3629
   19CHTO  H166 7702   5.501   6.725   2.106  1.5005  0.0807 -2.1107
   19CHTO   C93 7703   5.361   6.506   1.894 -0.7868 -0.4056 -0.3739
   19CHTO  H180 7704   5.269   6.498   1.953 -1.8379  0.0172 -1.9266
   19CHTO   N16 7705   5.436   6.385   1.934  0.3307 -0.1549 -0.3289
   19CHTO  H172 7706   5.405   6.345   2.029 -0.8313 -1.2619 -1.1467
   19CHTO  H173 7707   5.543   6.391   1.924  0.5479 -1.7755  0.7421
   19CHTO   C94 7708   5.319   6.508   1.741 -0.1126  0.7894 -0.0518
   19CHTO  H181 7709   5.400   6.479   1.674 -1.2171 -0.2017 -0.9646
   19CHTO   O61 7710   5.275   6.639   1.699  0.7122  0.7911  0.2037
   19CHTO   C95 7711   5.355   6.754   1.718 -0.3362 -0.3160 -0.6821
   19CHTO  H182 7712   5.452   6.742   1.670 -0.2225 -0.0476 -0.5240
   19CHTO  C106 7713   5.265   6.870   1.651 -0.3612  0.2407 -0.9494
   19CHTO   O69 7714   5.324   7.000   1.659  0.2736  0.2510  0.2561
   19CHTO  H169 7715   5.322   7.031   1.747 -0.6130  1.0537 -0.0392
   19CHTO   O63 7716   5.185   6.409   1.734  0.4685 -0.2369  0.1515
   19CHTO   C96 7717   5.133   6.375   1.598 -0.0271 -0.8796 -0.7056
   19CHTO  H183 7718   5.218   6.357   1.532  0.8174  1.9856 -0.4931
   19CHTO   C98 7719   5.039   6.482   1.530  0.5410 -0.1666  0.2120
   19CHTO  H185 7720   5.093   6.578   1.528  1.0942 -0.4927 -1.1882
   19CHTO   O67 7721   5.016   6.449   1.390  0.1986  0.3020 -0.0277
   19CHTO  H167 7722   4.999   6.523   1.334 -1.0889 -0.8936 -1.2349
   19CHTO  C102 7723   4.901   6.493   1.600  0.0257 -0.7020  0.3915
   19CHTO  H189 7724   4.832   6.530   1.523 -0.8334  1.1664  2.0139
   19CHTO   N18 7725   4.899   6.597   1.709  0.4186  0.1675 -0.1364
   19CHTO  H176 7726   4.917   6.693   1.664  0.4531  0.5187  0.6206
   19CHTO  H177 7727   4.813   6.602   1.774  0.6699  0.8385  0.1518
   19CHTO  C105 7728   4.848   6.356   1.641 -0.5652 -0.4218  0.7504
   19CHTO  H192 7729   4.846   6.349   1.750  1.3018 -0.3612  0.8052
   19CHTO   O65 7730   4.922   6.248   1.581  0.2407  0.3129 -0.0769
   19CHTO  C100 7731   5.063   6.234   1.614 -0.3216 -0.9888  0.1556
   19CHTO  H187 7732   5.071   6.201   1.719  2.4600  1.8819  0.9135
   19CHTO  C107 7733   5.120   6.129   1.519  0.3137  0.2578 -0.0854
   19CHTO   O70 7734   5.064   5.995   1.521  0.2532 -0.6631 -0.5375
   19CHTO  H170 7735   5.076   5.962   1.608 -1.7642 -1.0816 -0.3927
   19CHTO   O57 7736   4.687   6.357   1.590  0.0370 -0.1687 -0.0293
   19CHTO   C85 7737   4.598   6.266   1.661 -0.2060 -0.2209 -0.5566
   19CHTO  H157 7738   4.655   6.231   1.750 -1.0457  0.7918  0.3930
   19CHTO   C83 7739   4.578   6.136   1.579  0.6167 -0.2722  0.0782
   19CHTO  H155 7740   4.675   6.093   1.553  1.9464  3.0111 -0.6869
   19CHTO   O56 7741   4.521   6.169   1.454 -0.3927 -0.2481  0.0677
   19CHTO  H135 7742   4.579   6.221   1.401 -0.6654  0.0412  0.0508
   19CHTO   C81 7743   4.487   6.034   1.653  0.3882 -0.5342  0.4613
   19CHTO  H153 7744   4.537   5.997   1.743 -1.9738 -1.9654  1.2328
   19CHTO   N14 7745   4.477   5.909   1.573  0.2415  0.0526 -0.5550
   19CHTO  H141 7746   4.415   5.916   1.486 -0.4159 -1.8952 -0.2689
   19CHTO  H142 7747   4.448   5.823   1.630 -0.1133 -0.0280 -0.8557
   19CHTO   C79 7748   4.348   6.095   1.698  0.6206  0.0454 -0.2806
   19CHTO  H151 7749   4.305   6.031   1.775  0.3350  0.7279  0.1235
   19CHTO   O52 7750   4.375   6.221   1.771  0.5595 -0.1779  0.1651
   19CHTO   C86 7751   4.458   6.320   1.699  0.7890 -0.0180 -0.4498
   19CHTO  H158 7752   4.393   6.338   1.610 -0.5022 -0.9191  0.3040
   19CHTO   C90 7753   4.466   6.457   1.770 -0.0724  0.1690 -0.3230
   19CHTO   O60 7754   4.348   6.535   1.770  0.1187 -0.0756  0.5076
   19CHTO  H138 7755   4.363   6.615   1.724 -1.3406 -0.6614 -1.0127
   19CHTO   O50 7756   4.252   6.102   1.597 -0.1683  0.7024  0.3743
   19CHTO   C73 7757   4.124   6.111   1.532  0.2980  0.2262  0.6166
   19CHTO  H145 7758   4.079   6.011   1.525 -0.9648  0.9394 -2.3210
   19CHTO   C74 7759   4.127   6.173   1.388 -0.2066  0.2517  0.9700
   19CHTO  H146 7760   4.199   6.108   1.336 -1.8352 -0.9639  0.2020
   19CHTO   O54 7761   4.003   6.152   1.330  0.1162  0.5892 -0.1949
   19CHTO  H133 7762   3.981   6.205   1.255 -0.1980  2.4945  1.1948
   19CHTO   C75 7763   4.176   6.328   1.399 -0.6653  0.4849 -0.3307
   19CHTO  H147 7764   4.275   6.331   1.446  1.1097 -4.4809 -3.3741
   19CHTO   N13 7765   4.198   6.398   1.270 -0.5525  0.8116  0.1135
   19CHTO  H139 7766   4.283   6.357   1.217  0.5041  2.4097  0.5173
   19CHTO  H140 7767   4.119   6.390   1.197 -2.2274  0.7426  1.8830
   19CHTO   C76 7768   4.082   6.408   1.492 -0.1764  0.1245  0.1964
   19CHTO  H148 7769   3.984   6.411   1.443  0.5533 -0.6447 -1.3444
   19CHTO   O49 7770   4.074   6.334   1.622  0.3375  0.1842 -0.3268
   19CHTO   C77 7771   4.026   6.201   1.611  0.5012  0.5183 -0.5363
   19CHTO  H149 7772   3.930   6.207   1.560  0.7373  1.4137 -0.8817
   19CHTO   C88 7773   3.995   6.152   1.747  0.3414 -0.0362  0.4422
   19CHTO   O58 7774   3.904   6.235   1.804 -0.3145 -0.7934 -0.1142
   19CHTO  H136 7775   3.912   6.233   1.898  2.8462  0.9000 -0.2938
   19CHTO   O51 7776   4.160   6.556   1.532 -0.6473  0.5962  0.2421
   19CHTO   C78 7777   4.068   6.662   1.513  0.1266 -0.0737  0.3152
   19CHTO  H150 7778   3.985   6.633   1.444  1.5237 -0.4747 -1.2164
   19CHTO   C80 7779   4.145   6.776   1.442  0.1262 -0.1107  0.4271
   19CHTO  H152 7780   4.233   6.800   1.506 -1.5818  1.2404  2.3295
   19CHTO   O55 7781   4.203   6.728   1.321  0.3890  0.1314  0.0731
   19CHTO  H134 7782   4.290   6.693   1.320 -0.1087 -1.0975 -0.4501
   19CHTO   C84 7783   4.063   6.908   1.420  0.8661  0.0909 -0.2728
   19CHTO  H156 7784   3.988   6.890   1.344  1.6580 -1.0273 -0.8109
   19CHTO   N15 7785   4.147   7.016   1.361  0.4800  0.1980 -0.0416
   19CHTO  H143 7786   4.244   6.995   1.401  0.5693 -0.1977 -0.4607
   19CHTO  H144 7787   4.142   6.991   1.257  2.7957  1.1844 -0.3980
   19CHTO   C87 7788   3.989   6.950   1.555  0.7635 -0.9482 -0.7238
   19CHTO  H159 7789   4.061   6.989   1.627 -0.8298  3.0435 -1.2096
   19CHTO   O53 7790   3.918   6.823   1.608  0.4012 -0.5424  0.2669
   19CHTO   C82 7791   4.006   6.716   1.641 -0.1474  0.1209  0.3255
   19CHTO  H154 7792   4.082   6.767   1.701 -2.1485  0.3810  2.6824
   19CHTO   C89 7793   3.937   6.619   1.732  0.1426  0.1085 -0.4961
   19CHTO   O59 7794   4.027   6.584   1.837  0.5367 -0.4697 -0.3250
   19CHTO  H137 7795   4.062   6.502   1.811  0.9831  0.2067 -1.8766
   19CHTO   O45 7796   3.894   7.062   1.539 -0.5933  0.3836 -0.2290
   19CHTO   C67 7797   3.878   7.154   1.651  0.4956  0.4028 -0.0935
   19CHTO  H124 7798   3.898   7.102   1.744 -2.2067 -0.4249  0.0688
   19CHTO   C65 7799   3.975   7.275   1.622 -0.6043 -0.0682 -0.1688
   19CHTO  H122 7800   3.987   7.292   1.515 -0.8139  0.3905 -0.1212
   19CHTO   O44 7801   4.106   7.230   1.669  0.2931 -0.1522  0.1831
   19CHTO  H102 7802   4.092   7.171   1.740 -2.2603 -0.5056 -0.5794
   19CHTO   C63 7803   3.918   7.415   1.679 -0.0930  0.3495 -0.9011
   19CHTO  H120 7804   3.845   7.456   1.609  0.0701  0.2901 -1.1045
   19CHTO   N11 7805   4.013   7.538   1.688  0.4139 -0.3070 -0.7004
   19CHTO  H108 7806   4.115   7.508   1.682  1.4870  3.3171 -1.9799
   19CHTO  H109 7807   4.001   7.588   1.783 -3.5426 -2.5311  0.0696
   19CHTO   C61 7808   3.837   7.377   1.810  0.0137 -0.2452 -0.2812
   19CHTO  H118 7809   3.801   7.473   1.848 -0.4971 -0.8509  0.8003
   19CHTO   O40 7810   3.718   7.293   1.783 -0.2148 -0.3011 -0.2853
   19CHTO   C68 7811   3.729   7.209   1.664  0.0809 -0.5187 -0.8414
   19CHTO  H125 7812   3.710   7.265   1.570 -1.3906  1.4242  0.5765
   19CHTO   C72 7813   3.625   7.096   1.677  0.2993 -0.5117 -0.4823
   19CHTO   O48 7814   3.667   6.980   1.751  0.3623  0.0062  0.1877
   19CHTO  H105 7815   3.601   6.916   1.737  1.0373 -1.0829  1.8671
   19CHTO   O38 7816   3.913   7.313   1.914 -0.0348  0.5257  0.0776
   19CHTO   C55 7817   3.856   7.230   2.011 -0.2241  0.6024  0.8726
   19CHTO  H112 7818   3.770   7.171   1.975 -1.8937  3.1572  0.5543
   19CHTO   C56 7819   3.813   7.314   2.134 -0.3807 -0.1175 -0.2675
   19CHTO  H113 7820   3.905   7.343   2.186 -0.7040 -1.9924  1.4122
   19CHTO   O42 7821   3.742   7.430   2.089 -0.3129 -0.6322  0.1974
   19CHTO  H100 7822   3.688   7.476   2.149 -1.2278 -0.2303 -0.9079
   19CHTO   C57 7823   3.725   7.220   2.226 -0.3368  0.6608  0.2413
   19CHTO  H114 7824   3.637   7.195   2.168  0.1615  0.3456 -0.3861
   19CHTO   N10 7825   3.676   7.298   2.345 -0.2485  0.0544 -0.0523
   19CHTO  H106 7826   3.633   7.389   2.305  2.0792  0.6344 -1.3677
   19CHTO  H107 7827   3.755   7.325   2.414  1.9315 -1.0533 -2.0549
   19CHTO   C58 7828   3.804   7.089   2.262  0.0421 -0.3599  0.3504
   19CHTO  H115 7829   3.873   7.109   2.347  0.8583  0.6968 -0.5399
   19CHTO   O37 7830   3.881   7.029   2.148  0.7881 -0.8298 -0.2441
   19CHTO   C59 7831   3.956   7.121   2.074  0.4317 -0.6558 -0.7765
   19CHTO  H116 7832   4.032   7.166   2.138 -0.6030  0.2501 -0.1588
   19CHTO   C70 7833   4.040   7.042   1.980 -0.2400  0.1259 -0.2181
   19CHTO   O46 7834   4.146   7.122   1.928 -0.2177  0.2120  0.0535
   19CHTO  H103 7835   4.127   7.206   1.889 -0.5078  1.0953  2.0113
   19CHTO   O39 7836   3.700   6.978   2.306  0.2059 -0.8439  0.3249
   19CHTO   C60 7837   3.636   6.884   2.217 -0.3232  0.5837 -0.5792
   19CHTO  H117 7838   3.636   6.909   2.111 -2.5497 -1.0098 -0.9939
   19CHTO   C62 7839   3.721   6.753   2.208 -0.1464  0.7133  0.3386
   19CHTO  H119 7840   3.829   6.776   2.193 -0.0813  0.5903  0.6249
   19CHTO   O43 7841   3.732   6.699   2.339  0.0022 -0.0519 -0.2394
   19CHTO  H101 7842   3.821   6.682   2.363 -0.1280  0.2979  0.4850
   19CHTO   C66 7843   3.665   6.667   2.088  0.3065  0.2725  0.5082
   19CHTO  H123 7844   3.658   6.730   1.999 -1.7304  1.0448  1.1880
   19CHTO   N12 7845   3.757   6.549   2.062 -0.1365  0.2353  0.2473
   19CHTO  H110 7846   3.712   6.492   1.982  1.0765 -0.4463  0.0386
   19CHTO  H111 7847   3.864   6.565   2.059 -0.2059  0.4618 -1.3001
   19CHTO   C69 7848   3.516   6.630   2.106 -0.3200 -0.3160 -0.8752
   19CHTO  H126 7849   3.512   6.564   2.195 -0.0972  0.4518 -0.2784
   19CHTO   O41 7850   3.425   6.761   2.144 -0.0722 -0.1126 -0.4552
   19CHTO   C64 7851   3.492   6.847   2.255  0.3695 -0.1950 -0.4675
   19CHTO  H121 7852   3.500   6.781   2.344  0.6646 -0.8552 -0.9808
   19CHTO   C71 7853   3.402   6.967   2.308  0.0018 -0.9121  0.1512
   19CHTO   O47 7854   3.288   6.927   2.378 -0.7632  0.5055 -1.1095
   19CHTO  H104 7855   3.232   7.000   2.398 -0.6400 -0.6296  4.0041
   19CHTO   O34 7856   3.462   6.554   1.974 -0.4235  0.4742  0.3215
   19CHTO   C49 7857   3.372   6.586   1.842  0.2352 -0.3838  0.3661
   19CHTO   H91 7858   3.265   6.582   1.860  0.4345 -1.0185  1.4804
   19CHTO   C47 7859   3.413   6.483   1.733  0.1756  0.3365  0.1137
   19CHTO   H89 7860   3.347   6.484   1.644 -0.7750 -0.5022  0.7900
   19CHTO   O33 7861   3.398   6.351   1.785 -0.0367 -0.4412 -0.0332
   19CHTO   H70 7862   3.344   6.292   1.736 -1.4832  2.2560 -1.7663
   19CHTO   C45 7863   3.563   6.501   1.687  0.0532 -0.6960 -0.6067
   19CHTO   H87 7864   3.623   6.500   1.779  0.4694  0.5173 -0.8555
   19CHTO    N8 7865   3.622   6.400   1.594  0.0087 -0.1775  0.1899
   19CHTO   H75 7866   3.574   6.402   1.498 -0.8937  1.1618  0.6412
   19CHTO   H76 7867   3.730   6.404   1.586  0.0851 -1.8279  0.2331
   19CHTO   C43 7868   3.568   6.647   1.622  0.0547 -0.5185 -1.0153
   19CHTO   H85 7869   3.674   6.658   1.599  0.5786  3.4935  2.7654
   19CHTO   O29 7870   3.515   6.749   1.706 -0.0028  0.3611 -0.3376
   19CHTO   C50 7871   3.401   6.734   1.785 -0.2569 -0.0182 -0.4488
   19CHTO   H92 7872   3.415   6.796   1.875 -0.1018  2.4472 -2.1269
   19CHTO   C54 7873   3.269   6.807   1.725  0.2663 -0.0809  0.5146
   19CHTO   O36 7874   3.216   6.732   1.619  0.1014  0.2345 -0.1996
   19CHTO   H72 7875   3.139   6.772   1.583 -1.3197 -3.0697 -1.0566
   19CHTO   O27 7876   3.498   6.661   1.493  0.1017 -0.3919 -0.5216
   19CHTO   C37 7877   3.526   6.732   1.365  0.0572 -0.0618  0.4190
   19CHTO   H79 7878   3.455   6.712   1.284 -2.0234  1.3796  1.8151
   19CHTO   C38 7879   3.518   6.890   1.383 -0.3679  0.1747 -0.7619
   19CHTO   H80 7880   3.588   6.912   1.465  0.1177  1.5484 -1.5357
   19CHTO   O31 7881   3.383   6.918   1.424 -0.5000 -0.5873 -0.2225
   19CHTO   H68 7882   3.361   6.881   1.507  0.0677  0.3265  0.3535
   19CHTO   C39 7883   3.562   6.969   1.255  0.5816  0.3869 -0.1188
   19CHTO   H81 7884   3.489   6.949   1.176  3.3495 -3.2214 -1.9325
   19CHTO    N7 7885   3.561   7.111   1.272  0.4113 -0.0889 -0.3209
   19CHTO   H73 7886   3.665   7.133   1.291  0.5066  0.3944 -1.3691
   19CHTO   H74 7887   3.523   7.156   1.181 -0.8050 -0.8349 -0.1857
   19CHTO   C40 7888   3.698   6.906   1.212 -0.1596 -0.5439 -0.1742
   19CHTO   H82 7889   3.775   6.940   1.281  0.2859 -0.7780 -0.5546
   19CHTO   O26 7890   3.698   6.764   1.193  0.0463  0.3776 -0.0041
   19CHTO   C41 7891   3.674   6.702   1.319 -0.2693 -0.2528  0.6510
   19CHTO   H83 7892   3.745   6.725   1.400  1.5172 -0.1899 -0.9121
   19CHTO   C52 7893   3.702   6.554   1.280  0.3055  0.3215 -0.2085
   19CHTO   O35 7894   3.602   6.482   1.195 -0.7097  0.2547  0.1667
   19CHTO   H71 7895   3.647   6.403   1.173  1.1668  0.7954  1.8431
   19CHTO   O28 7896   3.734   6.961   1.084 -0.6551 -0.5059 -0.3633
   19CHTO   C42 7897   3.876   7.011   1.066 -0.1877  0.4869  0.1864
   19CHTO   H84 7898   3.922   7.007   1.164  0.5847  4.4548  0.0776
   19CHTO   C44 7899   3.892   7.159   1.020  0.1111  0.1243 -0.1822
   19CHTO   H86 7900   3.853   7.162   0.918  1.1110 -2.6032 -0.6851
   19CHTO   O32 7901   3.797   7.240   1.103  0.0131 -0.2404  0.1678
   19CHTO   H69 7902   3.810   7.331   1.084  1.0308 -0.6744 -1.2707
   19CHTO   C48 7903   4.045   7.209   1.010 -0.1636 -0.0979  0.6702
   19CHTO   H90 7904   4.097   7.228   1.104 -0.5345 -0.2118  0.8953
   19CHTO    N9 7905   4.051   7.342   0.938  0.5567  0.4090 -0.3512
   19CHTO   H77 7906   3.973   7.404   0.982  1.7273  1.5935  0.0806
   19CHTO   H78 7907   4.150   7.379   0.960 -0.4610  1.9070  1.9847
   19CHTO   C51 7908   4.132   7.100   0.939 -0.2182 -1.1645 -0.2307
   19CHTO   H93 7909   4.109   7.113   0.833  0.4898  0.4697 -0.1993
   19CHTO   O30 7910   4.095   6.976   0.996  0.0036  0.6843  0.0523
   19CHTO   C46 7911   3.974   6.933   0.970 -0.3782  0.3727  0.2194
   19CHTO   H88 7912   3.943   6.956   0.868  1.4221  1.1327 -0.1748
   19CHTO   C53 7913   3.967   6.780   0.986 -0.1912 -0.3454 -0.6820
   19CHTO   O72 7914   4.063   6.720   0.896  0.5603  0.0809 -0.5310
   19CHTO  H199 7915   4.149   6.752   0.916  1.0192 -0.4158 -1.6923
   19CHTO   O22 7916   4.272   7.122   0.961 -0.2591  0.3159 -0.2977
   19CHTO   C31 7917   4.363   7.029   0.898 -0.2216  0.5624  0.2703
   19CHTO   H59 7918   4.298   6.945   0.867  0.9018 -0.5818  0.9699
   19CHTO   C29 7919   4.424   7.083   0.766 -0.6686  0.0069 -1.1209
   19CHTO   H57 7920   4.470   7.181   0.786 -1.1710 -0.0218  0.2631
   19CHTO   O21 7921   4.310   7.104   0.682 -0.4181  0.8159 -0.2119
   19CHTO   H37 7922   4.331   7.158   0.608  0.9841  2.3295  1.2582
   19CHTO   C27 7923   4.526   6.986   0.693 -0.0858  0.2329  0.2743
   19CHTO   H55 7924   4.473   6.897   0.656 -0.7010  0.3129  0.9509
   19CHTO    N5 7925   4.589   7.048   0.575 -0.1559  0.1422  0.1135
   19CHTO   H43 7926   4.512   7.100   0.521 -0.3777  0.3479  0.6239
   19CHTO   H44 7927   4.664   7.121   0.603  0.1593  0.5830 -1.7865
   19CHTO   C25 7928   4.623   6.931   0.802  0.8439 -0.4986  0.5104
   19CHTO   H53 7929   4.695   7.010   0.830  3.1749 -2.1834 -0.5368
   19CHTO   O17 7930   4.558   6.881   0.924 -0.4978 -0.3368 -0.1298
   19CHTO   C32 7931   4.471   6.973   0.996  0.3667  0.4531  0.0322
   19CHTO   H60 7932   4.519   7.060   1.040  0.8382  0.1693  0.0754
   19CHTO   C36 7933   4.406   6.897   1.111  0.4192 -0.7344 -0.0134
   19CHTO   O25 7934   4.325   6.784   1.076 -0.2425 -0.0099  0.5400
   19CHTO   H40 7935   4.234   6.783   1.095 -0.6020 -0.0998 -1.0929
   19CHTO   O15 7936   4.694   6.825   0.758 -0.1807  0.3112  0.7565
   19CHTO   C19 7937   4.747   6.749   0.649  0.3785  1.0049  0.2157
   19CHTO   H47 7938   4.682   6.781   0.566  0.9957 -0.8373 -1.0187
   19CHTO   C20 7939   4.892   6.781   0.615  0.1965 -0.1439 -0.1223
   19CHTO   H48 7940   4.955   6.782   0.705 -0.0562 -1.6603  0.0835
   19CHTO   O19 7941   4.887   6.911   0.555 -0.6533  0.4732 -0.0694
   19CHTO   H35 7942   4.939   6.975   0.598 -1.6933  0.4281  1.3050
   19CHTO   C21 7943   4.957   6.686   0.506 -0.6736  0.0144 -0.0129
   19CHTO   H49 7944   4.922   6.715   0.407  1.5599 -0.8735 -1.0912
   19CHTO    N4 7945   5.102   6.698   0.507 -0.4605 -0.0723  0.3477
   19CHTO   H41 7946   5.142   6.660   0.414  1.5275  1.0420  0.7119
   19CHTO   H42 7947   5.138   6.636   0.588 -0.8388 -0.5248  0.1716
   19CHTO   C22 7948   4.907   6.541   0.522 -0.3141 -0.5010 -0.6680
   19CHTO   H50 7949   4.968   6.497   0.600 -0.9380  1.4503  0.9484
   19CHTO   O14 7950   4.765   6.536   0.546  0.4853 -0.0805  0.4644
   19CHTO   C23 7951   4.723   6.599   0.665 -0.4410 -0.1773 -0.8132
   19CHTO   H51 7952   4.785   6.560   0.747  0.3471  2.1966 -0.2385
   19CHTO   C34 7953   4.580   6.551   0.687  0.4785  0.3292 -0.1611
   19CHTO   O23 7954   4.577   6.408   0.680  0.1928 -0.3584  0.2522
   19CHTO   H38 7955   4.603   6.368   0.761 -0.0636  0.1159  0.5699
   19CHTO   O16 7956   4.906   6.467   0.401  0.2947 -0.1444 -1.0059
   19CHTO   C24 7957   4.976   6.334   0.392  0.4648 -0.0908 -0.2611
   19CHTO   H52 7958   5.062   6.329   0.459 -0.7918  1.5051  1.5062
   19CHTO   C26 7959   5.015   6.322   0.241  0.0323  0.0451 -0.6817
   19CHTO   H54 7960   4.930   6.363   0.183 -0.3256  1.0135  0.5135
   19CHTO   O20 7961   5.127   6.406   0.212 -0.6618  0.0262 -0.3470
   19CHTO   H36 7962   5.132   6.435   0.123  1.0495 -1.7439 -0.8643
   19CHTO   C30 7963   5.034   6.177   0.200 -0.1835  0.4756  0.3496
   19CHTO   H58 7964   5.127   6.136   0.241  0.8104 -1.2565 -3.3844
   19CHTO    N6 7965   5.044   6.165   0.049  0.0187 -0.0780  0.2910
   19CHTO   H45 7966   5.052   6.060   0.024 -0.8494  0.1697 -1.0269
   19CHTO   H46 7967   4.959   6.207  -0.003 -0.9700  0.2149  2.1010
   19CHTO   C33 7968   4.928   6.081   0.257  0.2290  0.3508  0.5485
   19CHTO   H61 7969   4.830   6.111   0.216  0.5189  0.3921 -0.1206
   19CHTO   O18 7970   4.925   6.099   0.398  0.2450  0.4933 -0.2164
   19CHTO   C28 7971   4.873   6.225   0.438  0.2846 -0.2963 -0.1656
   19CHTO   H56 7972   4.776   6.250   0.395 -0.2355 -0.5807  0.8352
   19CHTO   C35 7973   4.853   6.209   0.595  0.1381  0.3251 -0.1317
   19CHTO   O24 7974   4.964   6.148   0.659  0.3420 -0.2566  0.3545
   19CHTO   H39 7975   4.981   6.059   0.636 -0.0046 -0.7345  1.9471
   19CHTO    O9 7976   4.940   5.940   0.223  0.1615 -0.1192  0.5759
   19CHTO   C13 7977   4.800   5.865   0.200 -0.2089  0.3707 -0.0372
   19CHTO   H26 7978   4.743   5.921   0.123 -1.1002 -1.4679 -0.7515
   19CHTO   C11 7979   4.719   5.844   0.329 -0.1983 -0.2119 -0.8449
   19CHTO   H24 7980   4.698   5.948   0.360  1.7713  0.4305 -1.6339
   19CHTO    O8 7981   4.807   5.784   0.425  0.3388  0.2980 -0.0151
   19CHTO    H3 7982   4.852   5.711   0.387  0.5090  1.1251 -1.4121
   19CHTO    C9 7983   4.593   5.758   0.304 -0.1996 -0.4967  0.3099
   19CHTO   H22 7984   4.539   5.807   0.222 -0.7190  0.2594  1.0948
   19CHTO    N2 7985   4.504   5.765   0.424  0.0632  0.2884  0.0019
   19CHTO   H10 7986   4.411   5.714   0.404 -0.8150  1.1053  1.9405
   19CHTO   H11 7987   4.482   5.867   0.451  1.1246 -0.1109  2.5546
   19CHTO    C7 7988   4.635   5.613   0.253  0.5892  0.0081  0.2936
   19CHTO   H20 7989   4.558   5.590   0.176  0.2871  0.7601  0.3646
   19CHTO    O4 7990   4.763   5.611   0.193 -0.0426 -0.1866 -0.2284
   19CHTO   C14 7991   4.819   5.721   0.126  0.4570 -0.1431 -0.8221
   19CHTO   H27 7992   4.771   5.724   0.026 -1.1200  0.4954 -0.0738
   19CHTO   C18 7993   4.964   5.687   0.102  0.0780  0.4203  0.1789
   19CHTO   O13 7994   4.981   5.600  -0.009  0.0793 -0.1899  0.2022
   19CHTO    H7 7995   5.023   5.635  -0.086 -1.2464  3.0888  0.8734
   19CHTO    O2 7996   4.628   5.509   0.367 -0.1367 -0.7891 -0.4636
   19CHTO    C1 7997   4.635   5.376   0.324  0.9357 -0.0127  0.3412
   19CHTO   H14 7998   4.709   5.368   0.242  0.1653 -2.6642 -0.1525
   19CHTO    C2 7999   4.500   5.314   0.275  0.0915 -0.2945 -0.4350
   19CHTO   H15 8000   4.430   5.332   0.358 -0.3427  1.0617 -1.0809
   19CHTO    O6 8001   4.441   5.371   0.161 -0.1830  0.3225  0.0004
   19CHTO    H1 8002   4.347   5.372   0.156 -0.3037  3.1076  1.6710
   19CHTO    C3 8003   4.520   5.158   0.251  0.2587  1.0138 -0.0829
   19CHTO   H16 8004   4.596   5.142   0.172 -1.4364 -1.4979 -1.2833
   19CHTO    N1 8005   4.395   5.087   0.205 -0.2143 -0.0725 -0.7916
   19CHTO    H8 8006   4.320   5.116   0.277  0.2625  0.9660 -0.7086
   19CHTO    H9 8007   4.407   4.979   0.204 -1.5729 -0.3020  2.4273
   19CHTO    C4 8008   4.579   5.094   0.375 -0.5126  1.1221  0.1079
   19CHTO   H17 8009   4.509   5.104   0.458  0.5475 -0.6662  1.2542
   19CHTO    O1 8010   4.703   5.158   0.411  0.1681  0.0257 -0.0416
   19CHTO    C5 8011   4.688   5.298   0.451  0.6548 -0.4208 -0.1811
   19CHTO   H18 8012   4.617   5.306   0.533  1.4731  1.3010  0.3798
   19CHTO   C16 8013   4.825   5.334   0.496  0.1749  0.0401 -0.1300
   19CHTO   O11 8014   4.870   5.273   0.621  0.3366  0.5049 -0.1943
   19CHTO    H5 8015   4.953   5.309   0.645  0.0980  0.4245  0.8067
   19CHTO    O3 8016   4.615   4.952   0.359  0.4611  0.0898 -0.1354
   19CHTO    C6 8017   4.599   4.868   0.486 -0.3485  0.1747 -0.3156
   19CHTO   H19 8018   4.566   4.927   0.572 -0.7986 -0.1030 -0.2960
   19CHTO    C8 8019   4.487   4.764   0.467 -0.3792  0.7667 -0.7558
   19CHTO   H21 8020   4.506   4.702   0.379 -1.8454 -2.2197  0.9314
   19CHTO    O7 8021   4.366   4.841   0.444 -0.2521 -0.1962  0.2679
   19CHTO    H2 8022   4.286   4.794   0.456 -1.4895  1.1369 -2.3787
   19CHTO   C12 8023   4.473   4.678   0.593 -0.7373  0.6258  0.4781
   19CHTO   H25 8024   4.434   4.745   0.673 -0.2007  0.3259  0.9929
   19CHTO    N3 8025   4.376   4.565   0.571 -1.0013 -0.4281  0.2670
   19CHTO   H12 8026   4.406   4.461   0.572 -0.7428 -0.3433  1.3660
   19CHTO   H13 8027   4.306   4.587   0.491  0.2623  1.9251 -0.2174
   19CHTO   C15 8028   4.613   4.624   0.649 -0.5756  0.5384  0.0215
   19CHTO   H28 8029   4.661   4.543   0.593  0.2282  0.1967  1.1877
   19CHTO   O10 8030   4.605   4.583   0.807 -0.1093 -0.1432 -0.3893
   19CHTO    H4 8031   4.646   4.498   0.814  1.3869  0.3500 -2.5570
   19CHTO    O5 8032   4.712   4.733   0.655 -0.2445  0.2209 -0.0911
   19CHTO   C10 8033   4.733   4.800   0.532 -0.0406 -0.0540  0.1925
   19CHTO   H23 8034   4.762   4.727   0.456  0.5411  0.8555 -0.4703
   19CHTO   C17 8035   4.842   4.904   0.552 -0.7671  0.1361 -0.3273
   19CHTO   O12 8036   4.912   4.942   0.430  0.3940 -0.0755 -0.7510
   19CHTO    H6 8037   4.911   5.034   0.416 -0.2831  0.4585  2.3965
   20CHTO  H203 8038   4.718   0.271   2.421 -0.6451  1.7772 -0.5203
   20CHTO   O82 8039   4.626   0.284   2.415 -0.9500  0.0572  0.0575
   20CHTO  C123 8040   4.588   0.330   2.289  0.9708 -0.8414  0.3109
   20CHTO  H227 8041   4.478   0.340   2.287  1.0100 -0.7250 -1.2499
   20CHTO   O77 8042   4.668   0.458   2.280  0.1636  0.3606 -0.2649
   20CHTO  C118 8043   4.649   0.525   2.151  0.4103 -0.4899  0.0374
   20CHTO  H222 8044   4.541   0.532   2.133  0.4160 -0.3493  0.0592
   20CHTO  C125 8045   4.711   0.666   2.156 -0.0386 -0.1486  0.0111
   20CHTO   O84 8046   4.856   0.664   2.169  0.3922 -0.5548 -0.0452
   20CHTO  H205 8047   4.888   0.744   2.131 -0.2444  0.4010  1.3727
   20CHTO  C114 8048   4.716   0.444   2.040 -0.6568  0.0769 -0.6547
   20CHTO  H218 8049   4.821   0.427   2.060 -0.8175 -0.9885 -0.6569
   20CHTO  C116 8050   4.644   0.308   2.033 -0.7423  0.0616 -0.5644
   20CHTO  H220 8051   4.540   0.320   1.999 -0.6526  0.4666 -0.6991
   20CHTO   O79 8052   4.713   0.228   1.941 -0.2875  0.1513 -0.4446
   20CHTO  H201 8053   4.659   0.162   1.903  1.8493 -1.5997 -0.5748
   20CHTO  C120 8054   4.636   0.231   2.175  0.8890  0.4674  0.6107
   20CHTO  H224 8055   4.735   0.186   2.196  0.1831 -1.5622 -0.3102
   20CHTO   N21 8056   4.554   0.105   2.171  0.8288  0.6372 -0.6186
   20CHTO  H211 8057   4.586   0.030   2.242 -1.0560 -1.8901 -2.3620
   20CHTO  H212 8058   4.560   0.058   2.074 -0.0427 -1.0147  0.1023
   20CHTO   O75 8059   4.708   0.510   1.914 -0.0412  0.2298 -0.5706
   20CHTO  C112 8060   4.841   0.493   1.829 -0.1817  0.1407  0.9268
   20CHTO  H216 8061   4.873   0.389   1.847 -0.6732 -0.3902 -1.1064
   20CHTO   O73 8062   4.940   0.593   1.870 -0.3770  0.3257  0.0855
   20CHTO  C113 8063   5.060   0.574   1.802  0.3474  0.4431  0.5521
   20CHTO  H217 8064   5.096   0.469   1.809  0.5881  0.3048 -2.1357
   20CHTO  C124 8065   5.166   0.659   1.873 -0.5409  0.0471 -0.5760
   20CHTO   O83 8066   5.196   0.596   1.994  0.2533  0.4615  0.4608
   20CHTO  H204 8067   5.231   0.510   1.981  0.1093  0.3454  0.8486
   20CHTO  C109 8068   5.041   0.611   1.649  0.0953 -0.2157  0.2638
   20CHTO  H213 8069   5.005   0.714   1.646 -1.1108 -0.5622  2.5723
   20CHTO  C110 8070   4.929   0.514   1.582 -0.1127  0.2847  0.9641
   20CHTO  H214 8071   4.974   0.416   1.562  1.8015  1.5952 -1.4265
   20CHTO   O78 8072   4.897   0.559   1.450  0.1108  0.1635  0.4506
   20CHTO  H200 8073   4.877   0.651   1.451  2.6263  0.7989 -1.2704
   20CHTO  C111 8074   4.805   0.514   1.673  0.2356  0.1341  0.8789
   20CHTO  H215 8075   4.743   0.602   1.652 -1.4885 -1.4877 -1.0645
   20CHTO   N19 8076   4.719   0.400   1.633  0.3989  0.1803 -0.0265
   20CHTO  H207 8077   4.732   0.366   1.531  1.7475  1.1534 -0.1926
   20CHTO  H208 8078   4.613   0.418   1.645  0.3244 -0.5429  0.4407
   20CHTO   O74 8079   5.172   0.599   1.586 -0.2446 -0.0615  0.2667
   20CHTO  C115 8080   5.225   0.732   1.549 -0.4428 -0.9509  0.6576
   20CHTO  H219 8081   5.206   0.805   1.628  0.4802 -0.9537  0.8881
   20CHTO   O76 8082   5.392   0.731   1.537  0.1294  0.3386 -0.1300
   20CHTO  C122 8083   5.421   0.627   1.445 -0.4555 -0.0514  0.3315
   20CHTO  H226 8084   5.366   0.536   1.467 -1.3837  0.3191 -0.3952
   20CHTO  C126 8085   5.577   0.593   1.450  0.0148 -0.3159  0.1928
   20CHTO   O85 8086   5.619   0.505   1.347 -0.1880  0.3771 -0.3523
   20CHTO  H206 8087   5.611   0.545   1.262  0.9442  1.4261  0.0120
   20CHTO  C121 8088   5.373   0.670   1.296 -0.0770  0.1292  0.2783
   20CHTO  H225 8089   5.461   0.704   1.237 -1.0005  0.2148 -1.0971
   20CHTO   O81 8090   5.300   0.562   1.229 -0.1660  0.0501 -0.1981
   20CHTO  H202 8091   5.356   0.487   1.235  1.8519  1.5546  0.3215
   20CHTO  C119 8092   5.279   0.790   1.300 -0.2066  0.3433  0.3641
   20CHTO  H223 8093   5.340   0.873   1.333 -1.1660  0.9939  0.5107
   20CHTO  C117 8094   5.167   0.777   1.402  0.2843 -0.1742 -0.4872
   20CHTO  H221 8095   5.090   0.706   1.370 -1.3504  1.5132 -0.3903
   20CHTO   N20 8096   5.086   0.904   1.409  0.0181  0.6270 -0.6733
   20CHTO  H209 8097   5.139   0.981   1.463 -0.8362  1.9914 -1.7434
   20CHTO  H210 8098   4.983   0.899   1.441  0.2425  0.1430 -0.0242
   20CHTO   O80 8099   5.234   0.842   1.153 -0.6257 -1.1675  0.3840
   20CHTO  C103 8100   5.344   0.917   1.069  0.3184 -0.5302 -0.0920
   20CHTO  H190 8101   5.433   0.943   1.127  1.4592 -1.3106 -1.4426
   20CHTO  C101 8102   5.399   0.836   0.956 -0.8585 -0.0953  0.8391
   20CHTO  H188 8103   5.325   0.780   0.900  2.1081 -1.9746 -1.3674
   20CHTO   O68 8104   5.503   0.729   1.008 -0.5973  0.1468 -0.0204
   20CHTO  H168 8105   5.573   0.719   0.947 -0.5289  0.4050  0.0154
   20CHTO   C99 8106   5.480   0.931   0.851 -0.1197  0.1463 -0.2251
   20CHTO  H186 8107   5.561   0.972   0.915  1.5385 -0.1729 -2.0739
   20CHTO   N17 8108   5.548   0.856   0.743  0.0101  0.2276  0.4937
   20CHTO  H174 8109   5.631   0.913   0.704  0.6179  0.4977  2.1215
   20CHTO  H175 8110   5.573   0.755   0.770  1.1064  0.5270  0.5931
   20CHTO   C97 8111   5.393   1.055   0.817 -0.0577  0.3124  0.2690
   20CHTO  H184 8112   5.305   1.012   0.768 -0.8309  1.1032  0.9456
   20CHTO   O64 8113   5.362   1.131   0.936 -0.5845  0.4051  0.2285
   20CHTO  C104 8114   5.277   1.057   1.025 -0.5963  0.4232  0.0013
   20CHTO  H191 8115   5.183   1.034   0.973 -0.0385 -0.5995 -0.5653
   20CHTO  C108 8116   5.237   1.145   1.140 -0.2110  0.3998  0.6590
   20CHTO   O71 8117   5.344   1.170   1.225 -0.4916  0.2197  0.4072
   20CHTO  H171 8118   5.349   1.111   1.298  1.2523 -1.9341 -1.3875
   20CHTO   O62 8119   5.462   1.153   0.731 -0.0905  0.2465  0.2428
   20CHTO   C91 8120   5.387   1.216   0.625  0.2341 -0.1715 -0.5626
   20CHTO  H178 8121   5.280   1.207   0.646  0.4012  1.7083  1.3031
   20CHTO   C92 8122   5.413   1.143   0.483 -0.3687 -0.4544 -0.7753
   20CHTO  H179 8123   5.519   1.118   0.473  0.5329  2.8730 -0.2082
   20CHTO   O66 8124   5.342   1.018   0.493 -0.2259  0.1030 -0.1156
   20CHTO  H166 8125   5.333   0.974   0.411  1.5212 -0.0984 -0.2205
   20CHTO   C93 8126   5.357   1.228   0.365  0.2030 -0.5576 -0.7276
   20CHTO  H180 8127   5.247   1.221   0.363  0.0698  1.1584 -0.2503
   20CHTO   N16 8128   5.389   1.171   0.234  0.4645 -0.4837 -0.7038
   20CHTO  H172 8129   5.496   1.173   0.222  0.7111 -0.0262  1.3105
   20CHTO  H173 8130   5.332   1.230   0.163  0.5227 -1.2842 -1.4219
   20CHTO   C94 8131   5.398   1.377   0.366  0.0962  0.0624 -0.9647
   20CHTO  H181 8132   5.505   1.390   0.346  0.3367  1.1208  0.9318
   20CHTO   O61 8133   5.352   1.429   0.496  0.1805 -0.1146 -0.0002
   20CHTO   C95 8134   5.417   1.379   0.614 -0.4009 -0.1238  0.5812
   20CHTO  H182 8135   5.524   1.397   0.606 -0.0280 -2.2433  0.2476
   20CHTO  C106 8136   5.371   1.475   0.730  0.0408 -0.4411  0.0078
   20CHTO   O69 8137   5.416   1.427   0.859 -0.3903  0.0222  0.0604
   20CHTO  H169 8138   5.404   1.501   0.916 -1.6640 -0.4002  0.3680
   20CHTO   O63 8139   5.317   1.454   0.253  0.5999  0.3385  0.3596
   20CHTO   C96 8140   5.356   1.613   0.238  0.7601  0.6437 -0.8873
   20CHTO  H183 8141   5.340   1.624   0.131 -2.3904 -0.2136 -0.5719
   20CHTO   C98 8142   5.501   1.663   0.264 -0.2552  0.0161 -0.0526
   20CHTO  H185 8143   5.526   1.665   0.371  0.6812 -0.7056 -0.2561
   20CHTO   O67 8144   5.589   1.573   0.200 -0.5203  0.2785  0.0807
   20CHTO  H167 8145   5.565   1.560   0.110  1.4820  1.2690 -0.6447
   20CHTO  C102 8146   5.497   1.809   0.196 -0.5135  0.5301 -0.1410
   20CHTO  H189 8147   5.463   1.792   0.093 -2.3089 -0.1517  0.5425
   20CHTO   N18 8148   5.628   1.875   0.186 -0.1725 -0.0125 -0.6287
   20CHTO  H176 8149   5.614   1.982   0.193 -0.1452 -0.1392  1.8348
   20CHTO  H177 8150   5.669   1.855   0.088  0.4299  0.5912 -0.5032
   20CHTO  C105 8151   5.390   1.888   0.270 -0.3433 -0.1806  0.1300
   20CHTO  H192 8152   5.434   1.962   0.336 -1.2885 -1.0917  1.8431
   20CHTO   O65 8153   5.292   1.818   0.356  0.5702 -0.1800 -0.1946
   20CHTO  C100 8154   5.249   1.692   0.319 -0.1268 -0.4449  0.3844
   20CHTO  H187 8155   5.237   1.632   0.411  1.7327 -1.0175  0.2905
   20CHTO  C107 8156   5.129   1.698   0.240 -0.4580 -0.2748 -0.0884
   20CHTO   O70 8157   5.021   1.736   0.327 -0.5531  0.5521  0.5283
   20CHTO  H170 8158   4.939   1.734   0.282 -0.7388 -2.9255  0.8832
   20CHTO   O57 8159   5.295   1.943   0.145  0.0083 -0.2720  0.5756
   20CHTO   C85 8160   5.286   2.087   0.127 -0.3006  0.5125 -0.1334
   20CHTO  H157 8161   5.367   2.125   0.193 -0.1484 -0.0387 -0.0022
   20CHTO   C83 8162   5.152   2.152   0.176 -0.2707 -0.2458 -0.1427
   20CHTO  H155 8163   5.136   2.139   0.283 -0.6979  0.6209 -0.0931
   20CHTO   O56 8164   5.043   2.081   0.111 -0.1707  0.1942  0.4397
   20CHTO  H135 8165   5.053   1.989   0.128  1.2340  0.1590 -0.4969
   20CHTO   C81 8166   5.156   2.302   0.146  0.1281  0.0644  0.7527
   20CHTO  H153 8167   5.237   2.341   0.208  0.8416  0.8475 -0.6546
   20CHTO   N14 8168   5.038   2.382   0.196 -0.4812 -0.2572  0.0622
   20CHTO  H141 8169   5.065   2.436   0.284 -0.0803  2.0410 -1.4233
   20CHTO  H142 8170   4.965   2.309   0.225 -0.4047 -1.0521 -1.6986
   20CHTO   C79 8171   5.185   2.338  -0.002  0.2774 -0.2736  0.1327
   20CHTO  H151 8172   5.194   2.446  -0.008 -1.7177 -0.0760  0.3590
   20CHTO   O52 8173   5.307   2.279  -0.036  0.0799 -0.1993  0.1656
   20CHTO   C86 8174   5.315   2.132  -0.026  0.5268  0.8860 -0.1968
   20CHTO  H158 8175   5.237   2.097  -0.098 -1.4866  0.2765  2.2229
   20CHTO   C90 8176   5.458   2.091  -0.081 -0.0203 -0.0708 -0.1570
   20CHTO   O60 8177   5.489   2.137  -0.214  1.0046 -0.4160  1.1141
   20CHTO  H138 8178   5.464   2.077  -0.282  0.8768 -1.3967  2.0240
   20CHTO   O50 8179   5.072   2.298  -0.082 -0.4842  0.5020 -0.8742
   20CHTO   C73 8180   5.048   2.295  -0.222  0.3295  0.1582  0.5481
   20CHTO  H145 8181   5.139   2.261  -0.273 -0.3785 -0.9203 -0.0032
   20CHTO   C74 8182   5.014   2.438  -0.281  0.3934  0.2991  0.6492
   20CHTO  H146 8183   5.096   2.510  -0.271 -1.0549  2.4912 -2.5103
   20CHTO   O54 8184   5.001   2.443  -0.423  0.3794 -0.2977  0.7955
   20CHTO  H133 8185   4.997   2.532  -0.453 -1.7685 -1.0051 -1.1224
   20CHTO   C75 8186   4.876   2.484  -0.213 -0.1699 -0.0374 -0.2506
   20CHTO  H147 8187   4.897   2.481  -0.105  0.1951 -0.5184 -0.3302
   20CHTO   N13 8188   4.841   2.626  -0.240  0.5264  0.4387 -0.1108
   20CHTO  H139 8189   4.800   2.656  -0.336  0.3626  1.4444  0.2707
   20CHTO  H140 8190   4.804   2.682  -0.156 -1.0153  0.3066 -0.6751
   20CHTO   C76 8191   4.761   2.376  -0.246  1.3613 -0.5105  1.1286
   20CHTO  H148 8192   4.740   2.378  -0.353 -1.1167  0.2721  1.6016
   20CHTO   O49 8193   4.799   2.238  -0.208  0.4340 -0.2405 -0.4436
   20CHTO   C77 8194   4.928   2.195  -0.262 -0.5031  0.2521 -0.1555
   20CHTO  H149 8195   4.912   2.190  -0.370 -1.6337 -0.8616  0.0488
   20CHTO   C88 8196   4.965   2.051  -0.216  0.4563  0.1859 -0.0224
   20CHTO   O58 8197   5.066   1.996  -0.292  0.1120  0.0581  0.2778
   20CHTO  H136 8198   5.055   1.904  -0.307  2.0650  0.2234 -2.3795
   20CHTO   O51 8199   4.619   2.427  -0.164 -0.1129 -0.1310  0.4381
   20CHTO   C78 8200   4.610   2.372   0.003  0.4340  0.1362  0.7707
   20CHTO  H150 8201   4.705   2.326   0.038  0.4648 -0.7023 -0.4048
   20CHTO   C80 8202   4.501   2.263   0.015 -0.0137  0.2005  0.5612
   20CHTO  H152 8203   4.403   2.308  -0.008  0.2967  0.8170  0.4572
   20CHTO   O55 8204   4.538   2.158  -0.078 -0.3425 -0.0438  0.0422
   20CHTO  H134 8205   4.485   2.168  -0.155 -0.7087  1.6409  0.4938
   20CHTO   C84 8206   4.493   2.206   0.159  0.0620  0.2348 -0.4075
   20CHTO  H156 8207   4.590   2.160   0.180  1.3908  3.1926  0.2958
   20CHTO   N15 8208   4.379   2.107   0.181 -0.9476  0.2121 -0.3281
   20CHTO  H143 8209   4.415   2.014   0.220  0.6019  0.8209 -0.2695
   20CHTO  H144 8210   4.322   2.087   0.093 -0.9873  1.1471 -0.5225
   20CHTO   C87 8211   4.491   2.318   0.266 -0.0708 -0.4365 -0.1622
   20CHTO  H159 8212   4.390   2.356   0.277 -0.5172 -1.8286  0.6874
   20CHTO   O53 8213   4.605   2.448   0.226 -0.1324  0.0864 -0.1218
   20CHTO   C82 8214   4.583   2.487   0.092  0.5965 -0.2790 -0.5775
   20CHTO  H154 8215   4.479   2.516   0.076  0.8662  1.5474  0.7370
   20CHTO   C89 8216   4.664   2.619   0.064 -0.2858  0.0482  0.0241
   20CHTO   O59 8217   4.796   2.614   0.116 -0.2839 -0.2929 -0.4243
   20CHTO  H137 8218   4.847   2.553   0.066 -0.0769 -0.0464 -0.5133
   20CHTO   O45 8219   4.528   2.265   0.416 -0.1814 -0.1045  0.2171
   20CHTO   C67 8220   4.668   2.244   0.426  0.1055 -0.0188 -0.6320
   20CHTO  H124 8221   4.713   2.254   0.328 -1.6710 -0.3324 -1.4997
   20CHTO   C65 8222   4.730   2.344   0.524 -0.0221 -0.3526  0.3384
   20CHTO  H122 8223   4.676   2.434   0.494 -0.3253 -0.6974 -0.1642
   20CHTO   O44 8224   4.866   2.357   0.484 -0.4244  0.4787  0.0110
   20CHTO  H102 8225   4.899   2.443   0.499 -0.3617  0.5044 -0.2569
   20CHTO   C63 8226   4.677   2.313   0.664 -0.3119 -0.2827  0.2730
   20CHTO  H120 8227   4.569   2.305   0.656 -0.0861 -1.4320 -2.0427
   20CHTO   N11 8228   4.694   2.422   0.765  0.3289  0.0043  0.6424
   20CHTO  H108 8229   4.601   2.467   0.795  1.1199  0.8598  1.8899
   20CHTO  H109 8230   4.776   2.487   0.744  1.0290 -0.8159  0.8030
   20CHTO   C61 8231   4.724   2.174   0.704 -0.0422  0.1731 -0.4944
   20CHTO  H118 8232   4.665   2.151   0.795 -1.4667  3.2619 -0.5693
   20CHTO   O40 8233   4.686   2.073   0.608 -0.1302  0.2109  0.7645
   20CHTO   C68 8234   4.687   2.097   0.470 -0.1657 -0.8114 -0.0646
   20CHTO  H125 8235   4.594   2.047   0.437  0.3118 -0.2590 -2.4130
   20CHTO   C72 8236   4.803   2.024   0.387  0.2063 -0.2279 -1.2109
   20CHTO   O48 8237   4.931   2.073   0.416  0.6068 -0.3569 -0.3958
   20CHTO  H105 8238   4.992   2.009   0.385 -1.1491 -1.0119 -2.5547
   20CHTO   O38 8239   4.867   2.166   0.731 -0.7698 -0.7314 -1.2066
   20CHTO   C55 8240   4.903   2.073   0.837 -0.2310  0.4472 -0.2026
   20CHTO  H112 8241   4.828   1.992   0.835  1.4639 -1.1957  1.2572
   20CHTO   C56 8242   4.909   2.145   0.975  0.1973  0.0860 -0.4732
   20CHTO  H113 8243   4.959   2.240   0.952 -2.4187  1.0220 -2.5331
   20CHTO   O42 8244   4.774   2.179   1.018  0.3734  0.6733  0.3103
   20CHTO  H100 8245   4.773   2.191   1.111 -0.9196  2.0424  0.1468
   20CHTO   C57 8246   4.969   2.048   1.090 -0.3944  0.7727 -0.4058
   20CHTO  H114 8247   4.885   1.984   1.119 -0.1280  0.1929 -0.9085
   20CHTO   N10 8248   5.009   2.128   1.212  1.0394  0.9859 -0.3559
   20CHTO  H106 8249   5.111   2.163   1.199  1.5181 -0.6938 -1.2435
   20CHTO  H107 8250   5.003   2.086   1.311  0.7279 -1.8724 -1.5271
   20CHTO   C58 8251   5.092   1.966   1.034  0.3309 -0.3836 -0.2665
   20CHTO  H115 8252   5.177   2.037   1.021 -0.0727  0.2517  0.5093
   20CHTO   O37 8253   5.059   1.906   0.909  0.2309 -0.4545  0.3598
   20CHTO   C59 8254   5.035   1.995   0.804  0.0631  0.8743 -0.9084
   20CHTO  H116 8255   5.117   2.068   0.800  0.5410  0.4719  1.0178
   20CHTO   C70 8256   5.035   1.922   0.669 -0.0481 -0.5672 -0.0648
   20CHTO   O46 8257   5.159   1.864   0.650  0.2417  0.2640 -0.2353
   20CHTO  H103 8258   5.142   1.779   0.614 -0.2415  0.3381 -0.1880
   20CHTO   O39 8259   5.132   1.857   1.150  0.0636 -0.4780 -0.3641
   20CHTO   C60 8260   5.045   1.739   1.148 -0.3202 -0.0437  0.2625
   20CHTO  H117 8261   4.948   1.762   1.104  0.0543 -2.5918 -2.0063
   20CHTO   C62 8262   5.107   1.625   1.057  0.0691  0.2931  0.0943
   20CHTO  H119 8263   5.141   1.652   0.955 -1.0228 -0.2919 -0.4327
   20CHTO   O43 8264   5.225   1.569   1.122 -0.1627 -0.2542 -0.3463
   20CHTO  H101 8265   5.204   1.550   1.212  2.4631  0.8693  0.5624
   20CHTO   C66 8266   4.989   1.510   1.036 -0.9895 -0.2512  0.5458
   20CHTO  H123 8267   4.901   1.558   0.994 -1.8992  0.2422  2.9123
   20CHTO   N12 8268   5.018   1.405   0.940 -0.6833  0.1138  0.1457
   20CHTO  H110 8269   5.044   1.452   0.846  0.0215 -2.2135 -0.8633
   20CHTO  H111 8270   5.106   1.354   0.975 -0.2614 -0.1053 -1.1742
   20CHTO   C69 8271   4.944   1.449   1.176 -0.3457 -0.1380  0.5843
   20CHTO  H126 8272   5.038   1.403   1.215  0.3298  0.2770 -0.5377
   20CHTO   O41 8273   4.911   1.561   1.283  0.2259  0.3792  0.4906
   20CHTO   C64 8274   5.021   1.685   1.296  0.4574 -0.0843  0.8097
   20CHTO  H121 8275   5.110   1.631   1.336  1.5103  0.0288 -1.3350
   20CHTO   C71 8276   4.964   1.779   1.400  0.4040 -0.0603  0.5921
   20CHTO   O47 8277   4.956   1.727   1.534  0.7176 -0.2459 -0.4533
   20CHTO  H104 8278   4.979   1.793   1.596 -1.1659 -0.4413  0.4976
   20CHTO   O34 8279   4.843   1.354   1.165  0.3958 -0.4681  0.5426
   20CHTO   C49 8280   4.697   1.313   1.121 -0.5910  0.8315 -0.1264
   20CHTO   H91 8281   4.625   1.362   1.186 -0.7143  1.4360 -0.7126
   20CHTO   C47 8282   4.681   1.162   1.117  0.0455 -0.2261  0.6952
   20CHTO   H89 8283   4.573   1.144   1.098 -0.1955  1.3508  0.5450
   20CHTO   O33 8284   4.707   1.111   1.248 -0.1957  0.1923  0.1852
   20CHTO   H70 8285   4.661   1.030   1.252  1.6869 -0.7968  2.9075
   20CHTO   C45 8286   4.764   1.100   0.992 -0.3873 -0.1992  0.5000
   20CHTO   H87 8287   4.871   1.119   1.005  0.1894 -2.9281  0.0209
   20CHTO    N8 8288   4.733   0.948   0.989 -0.0653 -0.5852 -0.1456
   20CHTO   H75 8289   4.702   0.913   0.892  1.7339  1.0462 -1.3460
   20CHTO   H76 8290   4.822   0.893   1.017  0.6211  1.4764  1.9341
   20CHTO   C43 8291   4.734   1.178   0.858  0.2628  0.0951  1.1524
   20CHTO   H85 8292   4.821   1.155   0.796  0.0353  3.2951 -0.4715
   20CHTO   O29 8293   4.724   1.319   0.869  0.4102  0.4772  0.1478
   20CHTO   C50 8294   4.664   1.383   0.987 -0.0449  0.4412 -0.2065
   20CHTO   H92 8295   4.694   1.489   0.986  1.4530  0.0276 -1.4797
   20CHTO   C54 8296   4.502   1.381   0.964 -0.2170 -0.6951  0.3790
   20CHTO   O36 8297   4.466   1.465   0.851  0.1319 -0.6963 -0.2049
   20CHTO   H72 8298   4.497   1.430   0.770  0.1447  0.2705 -0.6142
   20CHTO   O27 8299   4.613   1.144   0.780  0.0298 -0.1874 -0.1759
   20CHTO   C37 8300   4.599   1.142   0.633 -0.7235 -0.4298 -0.7114
   20CHTO   H79 8301   4.493   1.151   0.604 -0.1528  2.5421 -1.9893
   20CHTO   C38 8302   4.690   1.251   0.569 -0.1363  0.1094 -0.1214
   20CHTO   H80 8303   4.792   1.242   0.609  0.1044 -2.1310 -1.1544
   20CHTO   O31 8304   4.642   1.387   0.598  0.5118  0.2031  0.7930
   20CHTO   H68 8305   4.606   1.403   0.683  0.3921 -1.4466  1.0669
   20CHTO   C39 8306   4.709   1.232   0.408  1.0480  0.3170 -0.2196
   20CHTO   H81 8307   4.614   1.259   0.361 -0.1678 -1.5728  1.1029
   20CHTO    N7 8308   4.814   1.321   0.343 -0.5343  0.1310 -0.1010
   20CHTO   H73 8309   4.913   1.295   0.379 -1.0663  1.7081  2.7324
   20CHTO   H74 8310   4.807   1.341   0.238  1.2788 -1.9091 -0.6403
   20CHTO   C40 8311   4.741   1.083   0.381  0.0601 -0.1734 -0.3639
   20CHTO   H82 8312   4.839   1.057   0.420  0.2977  0.4262 -0.5559
   20CHTO   O26 8313   4.636   1.006   0.447 -0.3764 -0.1053 -0.2690
   20CHTO   C41 8314   4.653   1.007   0.586 -0.3043 -0.3297  0.2308
   20CHTO   H83 8315   4.760   0.996   0.608 -0.3329 -0.6241  0.2306
   20CHTO   C52 8316   4.592   0.882   0.637  0.2920 -0.4096 -0.2052
   20CHTO   O35 8317   4.664   0.756   0.587  0.1766  0.2056 -0.4377
   20CHTO   H71 8318   4.750   0.757   0.625 -0.2587 -0.0864  0.5575
   20CHTO   O28 8319   4.729   1.047   0.246 -0.4148  0.0256  0.1442
   20CHTO   C42 8320   4.830   0.953   0.184  0.7777 -0.4405  0.0418
   20CHTO   H84 8321   4.784   0.921   0.090 -0.7609  0.8342  0.3190
   20CHTO   C44 8322   4.851   0.821   0.269 -0.4450  0.1950 -0.1702
   20CHTO   H86 8323   4.861   0.846   0.375 -2.3695 -0.7127  0.2552
   20CHTO   O32 8324   4.727   0.748   0.255  0.4889 -0.3159 -0.6387
   20CHTO   H69 8325   4.697   0.740   0.167 -0.9275  1.7798 -0.3675
   20CHTO   C48 8326   4.970   0.730   0.223  0.5727  0.2084 -0.1968
   20CHTO   H90 8327   4.938   0.674   0.135  0.7605 -1.5440  0.8294
   20CHTO    N9 8328   4.989   0.622   0.319 -0.0113  0.5191  0.4895
   20CHTO   H77 8329   4.899   0.566   0.343  0.3969 -1.0026 -1.4077
   20CHTO   H78 8330   5.068   0.557   0.284 -1.0755 -0.4649 -0.1357
   20CHTO   C51 8331   5.100   0.818   0.197  0.0432  0.2863  0.0159
   20CHTO   H93 8332   5.134   0.862   0.291 -0.4201 -0.7744  0.7019
   20CHTO   O30 8333   5.073   0.917   0.099 -0.0026 -0.0126  0.3459
   20CHTO   C46 8334   4.967   1.020   0.148  0.1984  0.4280  0.4582
   20CHTO   H88 8335   4.994   1.070   0.240 -0.3782 -0.7879  1.3066
   20CHTO   C53 8336   4.941   1.118   0.033 -0.4247 -0.1509 -0.9843
   20CHTO   O72 8337   5.062   1.192   0.016 -0.0527  0.1727  0.3404
   20CHTO  H199 8338   5.046   1.270   0.064 -3.4521  0.3248 -0.8874
   20CHTO   O22 8339   5.205   0.742   0.138  0.0016  0.1394  1.0017
   20CHTO   C31 8340   5.341   0.787   0.171 -0.5771 -0.0205 -0.2399
   20CHTO   H59 8341   5.335   0.894   0.201  1.6865  0.3000 -0.8115
   20CHTO   C29 8342   5.412   0.710   0.287 -0.4072 -0.5819  0.1922
   20CHTO   H57 8343   5.420   0.605   0.254 -0.3635 -1.0993  1.8201
   20CHTO   O21 8344   5.328   0.724   0.404 -0.2173 -0.1892 -0.1051
   20CHTO   H37 8345   5.249   0.678   0.385 -0.0938  0.2803 -1.8560
   20CHTO   C27 8346   5.562   0.762   0.309 -0.2341 -0.5306 -0.0143
   20CHTO   H55 8347   5.564   0.868   0.337  0.1831 -0.3148 -0.8344
   20CHTO    N5 8348   5.627   0.688   0.419  0.0535 -0.0796 -0.2113
   20CHTO   H43 8349   5.729   0.724   0.420  0.0990 -0.1979  0.9184
   20CHTO   H44 8350   5.575   0.715   0.510 -0.2476 -0.4619 -0.2717
   20CHTO   C25 8351   5.638   0.752   0.176  0.0189 -0.0045  0.3006
   20CHTO   H53 8352   5.633   0.648   0.141  1.8078  0.0842 -0.2466
   20CHTO   O17 8353   5.576   0.824   0.070 -0.1187  0.2067 -0.5890
   20CHTO   C32 8354   5.440   0.790   0.049 -0.7018  0.4571  0.3584
   20CHTO   H60 8355   5.446   0.690   0.005  1.4375 -0.0592  1.7517
   20CHTO   C36 8356   5.386   0.879  -0.064 -0.0166  0.6262 -0.4333
   20CHTO   O25 8357   5.467   0.877  -0.183  0.0293 -0.5291 -0.1052
   20CHTO   H40 8358   5.483   0.790  -0.216  0.7370  0.3606 -2.1785
   20CHTO   O15 8359   5.791   0.808   0.183 -0.3268  0.0280  0.4674
   20CHTO   C19 8360   5.899   0.787   0.087  0.0532  0.1196  0.0469
   20CHTO   H47 8361   5.850   0.736   0.004 -1.7912 -3.9318  3.4517
   20CHTO   C20 8362   5.966   0.914   0.047 -0.6458 -0.3287  0.0751
   20CHTO   H48 8363   6.012   0.968   0.131  0.3724  1.3188 -1.4894
   20CHTO   O19 8364   5.872   1.001  -0.017  0.6286  0.0036 -0.0474
   20CHTO   H35 8365   5.904   1.026  -0.101  0.3456  0.0933 -0.1274
   20CHTO   C21 8366   6.097   0.894  -0.049 -0.1133  0.0862  0.1214
   20CHTO   H49 8367   6.063   0.864  -0.148  0.5305  0.4850 -0.2241
   20CHTO    N4 8368   6.169   1.021  -0.074 -0.1873  0.4403  0.2701
   20CHTO   H41 8369   6.115   1.114  -0.073  1.6846  1.5788  2.8586
   20CHTO   H42 8370   6.242   1.020  -0.154 -0.0761  1.5059  0.3542
   20CHTO   C22 8371   6.188   0.785   0.007 -0.0295 -0.3841 -0.3438
   20CHTO   H50 8372   6.217   0.825   0.105 -1.6661  1.8705 -0.7375
   20CHTO   O14 8373   6.107   0.665   0.026 -0.6361 -0.0001 -0.6790
   20CHTO   C23 8374   6.005   0.682   0.124 -0.7677 -0.0723 -0.4745
   20CHTO   H51 8375   6.050   0.704   0.222  1.0498 -0.0384 -1.2866
   20CHTO   C34 8376   5.931   0.546   0.129 -0.0606  0.4495  0.0808
   20CHTO   O23 8377   6.000   0.439   0.205  0.1636 -0.4146 -0.0983
   20CHTO   H38 8378   6.030   0.477   0.286 -1.2111 -1.7634  1.0830
   20CHTO   O16 8379   6.285   0.732  -0.085 -0.3052  0.2647 -0.3370
   20CHTO   C24 8380   6.402   0.641  -0.011  0.2776  0.0119  0.4626
   20CHTO   H52 8381   6.388   0.635   0.097  1.7962  1.4356  0.7613
   20CHTO   C26 8382   6.540   0.701  -0.044  0.0032  0.1281  0.0685
   20CHTO   H54 8383   6.550   0.711  -0.154 -0.8347 -0.1023 -0.0329
   20CHTO   O20 8384   6.546   0.833   0.020 -0.2313  0.0311  0.1193
   20CHTO   H36 8385   6.536   0.899  -0.046 -0.2879 -2.5036 -2.4738
   20CHTO   C30 8386   6.658   0.613   0.011 -0.6328  0.0257  0.8024
   20CHTO   H58 8387   6.658   0.616   0.121  1.1894  1.9642  0.7806
   20CHTO    N6 8388   6.795   0.662  -0.029  0.3803  0.4703  0.5732
   20CHTO   H45 8389   6.803   0.765   0.004  0.1190 -0.0164  2.1965
   20CHTO   H46 8390   6.875   0.611   0.021  0.4481 -0.5665 -0.5680
   20CHTO   C33 8391   6.643   0.461  -0.019 -0.3651 -0.4033 -0.3896
   20CHTO   H61 8392   6.660   0.440  -0.125 -1.3045 -1.0217 -0.4256
   20CHTO   O18 8393   6.510   0.424   0.011  0.6122 -0.1481  0.3026
   20CHTO   C28 8394   6.410   0.493  -0.061  0.2415 -0.1217 -0.0179
   20CHTO   H56 8395   6.433   0.492  -0.168  3.2830  0.7372  0.6044
   20CHTO   C35 8396   6.277   0.419  -0.050 -0.3151  0.0037  0.2881
   20CHTO   O24 8397   6.269   0.307  -0.141 -0.0151  0.4233 -0.1242
   20CHTO   H39 8398   6.243   0.339  -0.225 -0.4295  0.9576  0.2023
   20CHTO    O9 8399   6.739   0.377   0.050  0.4615 -0.3650 -0.6460
   20CHTO   C13 8400   6.721   0.203   0.069 -0.3368  0.1265  0.0574
   20CHTO   H26 8401   6.818   0.174   0.113 -0.3866  0.4217  0.3624
   20CHTO   C11 8402   6.698   0.141  -0.083 -0.2346 -0.6472 -0.2819
   20CHTO   H24 8403   6.791   0.158  -0.139 -0.7766  0.4360 -0.8611
   20CHTO    O8 8404   6.585   0.199  -0.155  0.1670 -0.5521  0.1746
   20CHTO    H3 8405   6.498   0.168  -0.139  0.6271 -0.7590  2.4135
   20CHTO    C9 8406   6.673  -0.010  -0.065  0.0477 -0.3294  0.2297
   20CHTO   H22 8407   6.764  -0.048  -0.017 -0.5718 -3.1329 -0.7053
   20CHTO    N2 8408   6.664  -0.083  -0.191  0.0969  0.2936  0.2644
   20CHTO   H10 8409   6.628  -0.022  -0.272  2.4987 -0.0551 -1.0902
   20CHTO   H11 8410   6.757  -0.135  -0.210 -0.5781 -0.8832  0.0954
   20CHTO    C7 8411   6.555  -0.040   0.035 -0.3309 -0.2478 -0.3679
   20CHTO   H20 8412   6.598  -0.113   0.107  1.5033 -0.8305 -1.9894
   20CHTO    O4 8413   6.512   0.071   0.107  0.2500  0.1879  0.1776
   20CHTO   C14 8414   6.615   0.143   0.172  0.2974 -0.0058  0.2967
   20CHTO   H27 8415   6.665   0.070   0.239  0.0454 -2.4161 -2.0681
   20CHTO   C18 8416   6.561   0.261   0.258  0.2950  0.3526  0.3297
   20CHTO   O13 8417   6.519   0.210   0.383 -0.0639  0.2942 -0.1156
   20CHTO    H7 8418   6.427   0.197   0.369  0.2481 -0.9132 -1.1212
   20CHTO    O2 8419   6.427  -0.112  -0.014  0.3544 -0.2146  0.1528
   20CHTO    C1 8420   6.364  -0.214   0.072  0.2332  0.0020  0.0445
   20CHTO   H14 8421   6.364  -0.189   0.180  0.3417 -2.5520  0.6623
   20CHTO    C2 8422   6.434  -0.357   0.051  0.5262 -0.2756  0.2363
   20CHTO   H15 8423   6.448  -0.386  -0.054 -1.8124 -0.8865  0.0668
   20CHTO    O6 8424   6.560  -0.354   0.114  0.8733 -0.2418 -0.1302
   20CHTO    H1 8425   6.609  -0.432   0.096  1.7958  0.4083 -0.4668
   20CHTO    C3 8426   6.341  -0.477   0.115  0.3692  0.4125 -0.1337
   20CHTO   H16 8427   6.336  -0.466   0.224  0.1321  1.5506 -0.2525
   20CHTO    N1 8428   6.395  -0.619   0.091 -0.0756  0.9402  0.2765
   20CHTO    H8 8429   6.460  -0.627   0.006 -0.1603 -0.2684  0.3116
   20CHTO    H9 8430   6.307  -0.680   0.083  0.8476 -0.0899 -2.2601
   20CHTO    C4 8431   6.197  -0.458   0.069 -0.2042  0.2058 -0.2134
   20CHTO   H17 8432   6.200  -0.461  -0.040 -0.0872 -1.0906 -0.1883
   20CHTO    O1 8433   6.161  -0.331   0.116 -0.6491 -0.7106  0.4075
   20CHTO    C5 8434   6.219  -0.220   0.040  0.2084 -0.6960 -0.1543
   20CHTO   H18 8435   6.199  -0.241  -0.065 -0.2628  0.3074 -0.2728
   20CHTO   C16 8436   6.147  -0.089   0.083 -0.2177 -0.0875  0.2319
   20CHTO   O11 8437   6.192   0.031   0.017 -0.1702  0.2370 -0.1028
   20CHTO    H5 8438   6.252   0.074   0.076 -0.2875 -0.9405  0.9066
   20CHTO    O3 8439   6.103  -0.550   0.121  0.6238  0.0447  0.0840
   20CHTO    C6 8440   5.990  -0.588   0.041  0.5554 -0.9052  0.0404
   20CHTO   H19 8441   5.961  -0.507  -0.026 -0.4426 -2.0983 -0.9935
   20CHTO    C8 8442   6.022  -0.725  -0.026  0.7530 -0.9779  0.3907
   20CHTO   H21 8443   6.055  -0.791   0.054 -3.0464 -1.6209  1.5399
   20CHTO    O7 8444   6.118  -0.702  -0.127  0.1882  0.3037 -0.0124
   20CHTO    H2 8445   6.200  -0.688  -0.085  0.6780 -0.6535 -0.6258
   20CHTO   C12 8446   5.894  -0.792  -0.093  0.0687  0.1180 -0.6525
   20CHTO   H25 8447   5.873  -0.716  -0.171 -0.7709  2.3112  1.6573
   20CHTO    N3 8448   5.925  -0.927  -0.159 -0.2501 -0.8648 -0.0591
   20CHTO   H12 8449   5.838  -0.964  -0.213 -0.6072  0.0501 -0.1202
   20CHTO   H13 8450   6.004  -0.917  -0.232 -0.5541  1.0359 -0.1513
   20CHTO   C15 8451   5.782  -0.798   0.012  0.1118 -0.4120  0.1929
   20CHTO   H28 8452   5.813  -0.860   0.097  0.3032  0.8420  1.0493
   20CHTO   O10 8453   5.655  -0.837  -0.033 -0.1562 -0.4348  0.1826
   20CHTO    H4 8454   5.664  -0.897  -0.105  1.9844  0.4452 -0.3285
   20CHTO    O5 8455   5.761  -0.666   0.065 -0.0895 -0.1956 -0.1507
   20CHTO   C10 8456   5.868  -0.611   0.141  0.0502  0.3667 -0.1936
   20CHTO   H23 8457   5.894  -0.678   0.222 -0.6381 -1.0789 -1.1452
   20CHTO   C17 8458   5.824  -0.479   0.206 -0.2835 -0.1950 -0.1728
   20CHTO   O12 8459   5.792  -0.375   0.115 -0.1758 -0.2585 -0.1517
   20CHTO    H6 8460   5.753  -0.296   0.146  0.1387  0.3994 -1.4061
   21GLOH   H03 8461   1.293   5.443   1.615 -0.4837  0.9797 -0.2836
   21GLOH    O1 8462   1.272   5.439   1.710  0.7402  0.0371 -0.0298
   21GLOH    C1 8463   1.230   5.308   1.762 -0.8084  0.0115 -0.1340
   21GLOH   H02 8464   1.304   5.233   1.733 -0.0061  0.8644 -0.3179
   21GLOH   H08 8465   1.134   5.269   1.728 -1.0375  0.0456  0.4605
   21GLOH    C2 8466   1.229   5.304   1.918  0.5598  0.0503 -0.9074
   21GLOH   H04 8467   1.209   5.202   1.953  4.1941 -0.0527  1.1152
   21GLOH    O2 8468   1.352   5.350   1.980  0.0987 -0.3712  1.0699
   21GLOH   H05 8469   1.422   5.297   1.940 -1.6411  0.2836 -3.1233
   21GLOH    C3 8470   1.113   5.396   1.965 -0.2930 -0.2539  0.0933
   21GLOH   H06 8471   1.138   5.498   1.935 -3.2934 -0.0256 -1.7404
   21GLOH   H07 8472   1.097   5.404   2.073  0.9019 -0.7879  0.3182
   21GLOH    O3 8473   0.986   5.359   1.911 -0.0581  0.0468  0.5367
   21GLOH   H01 8474   0.969   5.268   1.944  0.3360 -0.0298  0.5330
   22GLOH   H03 8475   0.432   1.543   0.953 -0.4367 -0.0939  0.5504
   22GLOH    O1 8476   0.430   1.445   0.958  0.3782 -0.1817 -0.6856
   22GLOH    C1 8477   0.554   1.405   0.909  0.4633  0.1805 -0.0780
   22GLOH   H02 8478   0.595   1.340   0.985 -1.1601  0.8487  1.4221
   22GLOH   H08 8479   0.619   1.492   0.908 -1.2048  1.4998  1.4847
   22GLOH    C2 8480   0.538   1.340   0.766  0.1911 -0.5038  0.5932
   22GLOH   H04 8481   0.478   1.412   0.708  0.2846 -0.3709  0.6614
   22GLOH    O2 8482   0.668   1.326   0.702  0.1686  0.0586  0.3477
   22GLOH   H05 8483   0.658   1.286   0.614  0.5232  2.1449 -0.6701
   22GLOH    C3 8484   0.461   1.208   0.774  0.0338  0.0889 -0.5246
   22GLOH   H06 8485   0.483   1.167   0.873  0.2805  1.7223  0.1052
   22GLOH   H07 8486   0.499   1.142   0.695 -0.5009  1.0690 -1.6121
   22GLOH    O3 8487   0.324   1.243   0.754 -0.5613 -0.2871  0.0164
   22GLOH   H01 8488   0.294   1.318   0.809 -1.4221 -0.6306  0.0151
   23GLOH   H03 8489   3.187   4.801   0.042  1.4345  0.6833  0.0919
   23GLOH    O1 8490   3.173   4.800  -0.055 -0.2198  0.1142  0.3287
   23GLOH    C1 8491   3.241   4.916  -0.103 -0.5524 -0.2312 -0.1914
   23GLOH   H02 8492   3.251   4.891  -0.208  0.7642 -0.3529 -0.0438
   23GLOH   H08 8493   3.340   4.920  -0.059 -0.6430 -0.7303  0.0725
   23GLOH    C2 8494   3.182   5.056  -0.089 -0.4292  0.0016 -0.8751
   23GLOH   H04 8495   3.102   5.054  -0.164  0.3012 -0.5729 -1.6493
   23GLOH    O2 8496   3.120   5.081   0.042 -0.3755  0.5484  0.1374
   23GLOH   H05 8497   3.097   4.999   0.089 -1.7997  0.6826 -0.2900
   23GLOH    C3 8498   3.277   5.172  -0.119 -0.2092 -0.0289 -1.1145
   23GLOH   H06 8499   3.376   5.162  -0.074 -0.8181  0.2070  0.2888
   23GLOH   H07 8500   3.238   5.272  -0.096  1.3116  0.2486  0.3659
   23GLOH    O3 8501   3.302   5.167  -0.263  0.3407  0.1559  0.1715
   23GLOH   H01 8502   3.375   5.105  -0.279 -0.4402 -0.5689 -0.6562
   24GLOH   H03 8503   9.934   2.626   0.792  0.1985 -0.7970  0.0467
   24GLOH    O1 8504   9.874   2.656   0.720  0.7185  0.3259  0.0762
   24GLOH    C1 8505   9.847   2.540   0.632  0.8081  0.1222  0.0492
   24GLOH   H02 8506   9.827   2.455   0.697  0.2259  2.6728  3.4097
   24GLOH   H08 8507   9.939   2.509   0.583  0.9397  0.2710  0.1950
   24GLOH    C2 8508   9.730   2.571   0.539  0.7504  0.0656  0.2072
   24GLOH   H04 8509   9.638   2.597   0.593 -0.1442  0.5971 -1.5342
   24GLOH    O2 8510   9.758   2.687   0.459  0.1217  0.2175  0.6888
   24GLOH   H05 8511   9.686   2.752   0.456  1.6021  2.0076  2.4117
   24GLOH    C3 8512   9.711   2.430   0.476  0.4889  0.1310 -0.3071
   24GLOH   H06 8513   9.806   2.411   0.426  1.4173  3.8756 -0.0950
   24GLOH   H07 8514   9.636   2.445   0.398 -0.8679 -1.9688  0.5483
   24GLOH    O3 8515   9.675   2.328   0.573 -0.7750 -0.4285  0.4758
   24GLOH   H01 8516   9.611   2.263   0.538 -0.0825 -1.8712  1.8366
   25GLOH   H03 8517   2.075   5.206   2.247 -1.4804  1.4136  0.0776
   25GLOH    O1 8518   2.004   5.156   2.203 -0.3848 -0.0929 -0.0350
   25GLOH    C1 8519   2.011   5.152   2.058  0.3178 -0.7118  0.3354
   25GLOH   H02 8520   2.075   5.068   2.029  2.4592  0.2776  1.9902
   25GLOH   H08 8521   2.068   5.238   2.022  2.2190 -1.5077  1.3800
   25GLOH    C2 8522   1.872   5.140   1.992  0.4280  0.3839  0.1875
   25GLOH   H04 8523   1.834   5.041   2.020 -0.5269  0.7424  0.1695
   25GLOH    O2 8524   1.784   5.246   2.041 -0.3057  0.0856  0.0461
   25GLOH   H05 8525   1.775   5.246   2.138 -0.1834  0.3108  0.0587
   25GLOH    C3 8526   1.885   5.145   1.839 -0.5864  0.4815  0.2356
   25GLOH   H06 8527   1.911   5.245   1.803 -0.9804 -0.3099 -2.2845
   25GLOH   H07 8528   1.786   5.122   1.799 -0.8884  3.7987 -1.0953
   25GLOH    O3 8529   1.994   5.057   1.794  0.0292  0.2596 -0.1351
   25GLOH   H01 8530   2.063   5.106   1.746 -0.3556  1.1475  0.2111
   26GLOH   H03 8531   0.830   3.251   0.264  0.0564 -0.8330  0.4062
   26GLOH    O1 8532   0.739   3.287   0.269  0.5278  0.3922  0.4892
   26GLOH    C1 8533   0.737   3.404   0.185 -0.0468  0.6050 -0.2219
   26GLOH   H02 8534   0.729   3.373   0.081  0.1728 -0.9864  0.2260
   26GLOH   H08 8535   0.830   3.458   0.203  0.2759  0.6371 -1.8960
   26GLOH    C2 8536   0.613   3.498   0.206  0.1302  0.2642 -0.7223
   26GLOH   H04 8537   0.616   3.571   0.124 -0.2461 -0.8747 -1.7727
   26GLOH    O2 8538   0.492   3.427   0.187 -0.0220  0.1401 -0.1237
   26GLOH   H05 8539   0.473   3.375   0.267  0.4217 -0.7759 -0.6033
   26GLOH    C3 8540   0.621   3.579   0.338  0.9506  0.5988  0.8174
   26GLOH   H06 8541   0.623   3.514   0.426  0.7055  0.2581  0.5713
   26GLOH   H07 8542   0.527   3.633   0.348 -0.0290 -0.7884 -0.7125
   26GLOH    O3 8543   0.728   3.679   0.332 -0.1739  1.2144 -0.2995
   26GLOH   H01 8544   0.784   3.665   0.253 -0.8702  0.8031 -0.7224
   27GLOH   H03 8545   2.686   5.014   0.768  0.1394 -0.2215  0.7032
   27GLOH    O1 8546   2.743   4.950   0.721 -0.1683  0.3280 -0.4501
   27GLOH    C1 8547   2.788   4.991   0.590 -0.3569 -1.1059 -0.6497
   27GLOH   H02 8548   2.708   5.013   0.520  0.5386  2.8685 -0.5601
   27GLOH   H08 8549   2.847   4.913   0.542  2.5472  0.6409 -0.0428
   27GLOH    C2 8550   2.871   5.117   0.612  0.3895  0.0613 -0.1438
   27GLOH   H04 8551   2.941   5.080   0.688  1.7032  0.0948 -1.2984
   27GLOH    O2 8552   2.932   5.146   0.479  0.0029 -0.4990 -0.0919
   27GLOH   H05 8553   3.017   5.100   0.471  2.6971  4.2911 -0.9713
   27GLOH    C3 8554   2.791   5.236   0.667 -0.2369 -0.0375  0.8303
   27GLOH   H06 8555   2.736   5.278   0.583  0.6653  1.3731  0.9232
   27GLOH   H07 8556   2.864   5.307   0.706 -0.1796 -0.8120  2.1714
   27GLOH    O3 8557   2.708   5.207   0.777  0.0811  0.0381 -0.5494
   27GLOH   H01 8558   2.625   5.251   0.754  0.7554  1.3515 -0.5096
   28GLOH   H03 8559   9.970   5.065   1.049  1.5746 -0.9448  2.3213
   28GLOH    O1 8560   9.944   4.976   1.018 -0.1183  0.3017  0.0570
   28GLOH    C1 8561  10.025   4.936   0.910 -0.6776  0.4991  0.6282
   28GLOH   H02 8562  10.108   4.882   0.956 -1.8607  0.1317  2.3775
   28GLOH   H08 8563  10.073   5.020   0.859  0.2836 -1.7908 -2.3478
   28GLOH    C2 8564   9.950   4.853   0.807  0.1237  0.3663 -0.4449
   28GLOH   H04 8565   9.897   4.767   0.852  1.7269 -0.6250 -0.4169
   28GLOH    O2 8566   9.849   4.935   0.739 -0.1273 -0.3263  0.2670
   28GLOH   H05 8567   9.771   4.950   0.794 -0.5700 -1.4614 -0.0348
   28GLOH    C3 8568  10.036   4.795   0.699 -0.1021  0.2002  0.0984
   28GLOH   H06 8569  10.066   4.876   0.633  0.8650  0.7983  1.2512
   28GLOH   H07 8570   9.968   4.723   0.654 -1.6827  0.8391  1.4059
   28GLOH    O3 8571  10.154   4.736   0.745  0.5019 -0.6027 -0.6555
   28GLOH   H01 8572  10.129   4.646   0.773 -2.9186  0.3293 -0.5757
   29GLOH   H03 8573   0.959   8.042   1.629 -0.8101 -0.1688 -1.0106
   29GLOH    O1 8574   1.009   8.125   1.617  0.0924 -0.5169  0.1930
   29GLOH    C1 8575   1.013   8.194   1.746  0.0391  0.2616 -0.6155
   29GLOH   H02 8576   0.916   8.221   1.789  0.3679 -0.7955  0.8558
   29GLOH   H08 8577   1.062   8.290   1.735 -0.3998  0.6267  0.5336
   29GLOH    C2 8578   1.091   8.119   1.853 -0.1444  0.5923  0.0436
   29GLOH   H04 8579   1.094   8.190   1.938 -1.6876  2.6008 -1.5274
   29GLOH    O2 8580   1.030   7.998   1.893 -0.2662 -0.1258 -0.5071
   29GLOH   H05 8581   1.056   7.973   1.983  0.3053  0.2619 -0.5615
   29GLOH    C3 8582   1.235   8.091   1.803 -0.2292  0.6416 -0.5792
   29GLOH   H06 8583   1.239   8.020   1.721 -2.0677 -0.7463  0.4944
   29GLOH   H07 8584   1.280   8.038   1.888  0.2767  1.0131 -0.6172
   29GLOH    O3 8585   1.314   8.208   1.770  0.2468 -0.3497 -0.4364
   29GLOH   H01 8586   1.394   8.168   1.732 -0.0698 -0.6045 -0.8441
   30GLOH   H03 8587   3.475   8.276   2.376 -0.9517  0.6631  1.2658
   30GLOH    O1 8588   3.451   8.337   2.304  0.2180 -0.1937  0.1113
   30GLOH    C1 8589   3.315   8.387   2.340 -0.2720 -0.1960  0.0502
   30GLOH   H02 8590   3.232   8.319   2.323  0.5792 -1.5228  1.0971
   30GLOH   H08 8591   3.300   8.478   2.282  3.8632  0.0558 -0.7974
   30GLOH    C2 8592   3.315   8.430   2.488  0.3943  0.2083  0.1597
   30GLOH   H04 8593   3.383   8.514   2.507 -0.1725  0.5732  0.6057
   30GLOH    O2 8594   3.184   8.487   2.514 -0.2408 -0.5218 -0.3065
   30GLOH   H05 8595   3.190   8.544   2.593  1.7045  2.0972 -2.2414
   30GLOH    C3 8596   3.356   8.321   2.581  0.7854  0.6529 -0.1479
   30GLOH   H06 8597   3.267   8.269   2.618  1.5067 -0.1594  0.4483
   30GLOH   H07 8598   3.396   8.363   2.674 -0.9978  1.9229  0.0914
   30GLOH    O3 8599   3.440   8.224   2.519  0.2773 -0.2490  0.1130
   30GLOH   H01 8600   3.402   8.135   2.517 -0.0550 -0.1179  0.7795
   31GLOH   H03 8601   0.945   0.069   1.679 -2.0064 -1.0904  0.2056
   31GLOH    O1 8602   0.888   0.146   1.663  0.0895  0.5299  0.3871
   31GLOH    C1 8603   0.950   0.222   1.559  0.0719 -0.3216 -0.2917
   31GLOH   H02 8604   1.056   0.197   1.549  0.1951 -0.1942  0.6569
   31GLOH   H08 8605   0.947   0.331   1.571  1.1965  0.1268 -3.5141
   31GLOH    C2 8606   0.874   0.203   1.425 -0.2375  0.0246 -0.2149
   31GLOH   H04 8607   0.860   0.095   1.408 -1.4602 -0.1205  1.5456
   31GLOH    O2 8608   0.740   0.255   1.436 -0.4465 -0.0710 -0.4713
   31GLOH   H05 8609   0.703   0.246   1.525 -0.0817 -0.1853 -0.3289
   31GLOH    C3 8610   0.954   0.255   1.310 -0.2697 -0.5089  0.1311
   31GLOH   H06 8611   0.958   0.363   1.325 -0.8724 -0.5698  0.7253
   31GLOH   H07 8612   0.908   0.225   1.216  0.1414  0.1990 -0.3111
   31GLOH    O3 8613   1.088   0.212   1.322  0.6826 -0.2335 -0.3559
   31GLOH   H01 8614   1.139   0.267   1.258  1.1958 -1.1223 -0.7179
   32GLOH   H03 8615   9.521   3.735   1.925  0.5790 -1.4153 -1.9654
   32GLOH    O1 8616   9.430   3.712   1.954  0.6487  0.5171  0.0099
   32GLOH    C1 8617   9.349   3.806   1.887  0.5681 -0.7020 -0.3055
   32GLOH   H02 8618   9.373   3.805   1.781  0.5300 -0.3986 -0.3183
   32GLOH   H08 8619   9.369   3.899   1.940  0.7612  0.1685 -1.8711
   32GLOH    C2 8620   9.202   3.777   1.912  0.3179 -0.4556  0.0781
   32GLOH   H04 8621   9.130   3.834   1.852  0.7620 -0.3194 -0.3253
   32GLOH    O2 8622   9.167   3.644   1.867  0.4268  0.2165  0.4875
   32GLOH   H05 8623   9.142   3.596   1.948 -1.6010  0.0767 -0.1888
   32GLOH    C3 8624   9.158   3.807   2.057 -0.3809 -0.1585  0.7534
   32GLOH   H06 8625   9.069   3.756   2.091  0.3577 -0.1613  2.7634
   32GLOH   H07 8626   9.143   3.914   2.069 -0.5585 -0.0797 -0.1929
   32GLOH    O3 8627   9.270   3.765   2.138 -0.4184 -0.2368 -0.6120
   32GLOH   H01 8628   9.344   3.741   2.079  0.2159 -1.9446  0.8355
   33GLOH   H03 8629   0.561   9.376   1.692  0.9013  2.7306 -1.2276
   33GLOH    O1 8630   0.631   9.342   1.634  0.0794 -0.1416 -0.5879
   33GLOH    C1 8631   0.730   9.456   1.619 -0.6686  0.0543  0.8624
   33GLOH   H02 8632   0.773   9.482   1.715 -3.9646 -0.8843  2.6517
   33GLOH   H08 8633   0.687   9.544   1.571 -0.3688 -1.1452 -1.7004
   33GLOH    C2 8634   0.840   9.389   1.532  0.3510  0.0616  0.0844
   33GLOH   H04 8635   0.791   9.362   1.437  1.8764 -1.7114 -0.2515
   33GLOH    O2 8636   0.957   9.471   1.495 -0.0378  0.2658  0.1000
   33GLOH   H05 8637   0.979   9.536   1.564 -0.1999  0.0723  0.3338
   33GLOH    C3 8638   0.900   9.258   1.587  0.2050 -0.6718 -0.3336
   33GLOH   H06 8639   0.964   9.283   1.672 -0.4339 -0.0564 -0.0275
   33GLOH   H07 8640   0.968   9.208   1.518 -0.4385 -3.7714  1.2022
   33GLOH    O3 8641   0.802   9.158   1.616 -0.8479 -0.2677 -0.7388
   33GLOH   H01 8642   0.724   9.214   1.631 -0.9393 -0.1328 -1.6353
   34GLOH   H03 8643   3.768   1.958   2.003 -0.2802  0.5652  0.6645
   34GLOH    O1 8644   3.763   2.042   1.954  0.2258  0.0170 -0.3647
   34GLOH    C1 8645   3.886   2.112   1.971  0.3274 -0.2080  0.1601
   34GLOH   H02 8646   3.978   2.055   1.956  1.5567  1.7616  0.0113
   34GLOH   H08 8647   3.887   2.143   2.075  0.0280 -1.8252  0.6578
   34GLOH    C2 8648   3.906   2.245   1.896  0.0393 -0.0212 -0.3353
   34GLOH   H04 8649   3.822   2.309   1.927  1.0405  0.2818  1.7922
   34GLOH    O2 8650   4.025   2.312   1.947 -0.4754  0.3515 -0.1075
   34GLOH   H05 8651   4.001   2.403   1.972  0.1693  0.6684 -0.6234
   34GLOH    C3 8652   3.920   2.225   1.745 -0.8862  0.2777  0.4070
   34GLOH   H06 8653   4.016   2.178   1.726  0.9532  4.1915 -0.5673
   34GLOH   H07 8654   3.925   2.321   1.694  0.2150  0.4054  0.7437
   34GLOH    O3 8655   3.813   2.152   1.694 -0.3192 -0.4886 -0.2229
   34GLOH   H01 8656   3.807   2.058   1.720  0.8410 -0.6735 -0.6007
   35GLOH   H03 8657   8.781   3.026   1.092 -0.8304 -1.5592  0.8680
   35GLOH    O1 8658   8.826   2.964   1.031  0.2307  0.0305 -0.0190
   35GLOH    C1 8659   8.807   3.014   0.898  0.1550  0.0532 -0.1257
   35GLOH   H02 8660   8.873   3.100   0.884 -0.8967  1.1520  1.4943
   35GLOH   H08 8661   8.705   3.053   0.891  0.3469  0.8683  1.4471
   35GLOH    C2 8662   8.836   2.907   0.794 -0.1781 -0.3397 -0.9999
   35GLOH   H04 8663   8.758   2.830   0.799  0.4664 -0.8472  2.4776
   35GLOH    O2 8664   8.843   2.962   0.661  0.0449 -0.1213 -0.3382
   35GLOH   H05 8665   8.777   2.910   0.612  0.2491 -2.0699  1.3964
   35GLOH    C3 8666   8.970   2.840   0.816  0.0443 -0.1200 -0.1186
   35GLOH   H06 8667   9.056   2.906   0.802 -0.0899  0.1526  0.3608
   35GLOH   H07 8668   8.975   2.761   0.741  1.6760 -0.1143 -0.0301
   35GLOH    O3 8669   8.981   2.783   0.947 -0.3865 -0.9416 -0.4009
   35GLOH   H01 8670   8.914   2.837   0.994  0.2451  1.1632 -1.9034
   36GLOH   H03 8671   1.585   2.254   0.946  1.9331 -0.8157  0.0678
   36GLOH    O1 8672   1.564   2.197   0.870  0.4474  0.2564 -0.3418
   36GLOH    C1 8673   1.620   2.243   0.749 -0.2902  0.1563  0.5637
   36GLOH   H02 8674   1.620   2.163   0.675  0.4460  0.6010  0.0744
   36GLOH   H08 8675   1.718   2.287   0.768 -0.6088 -0.1771  3.1456
   36GLOH    C2 8676   1.528   2.349   0.682 -0.4365  0.5383  0.3752
   36GLOH   H04 8677   1.484   2.419   0.754 -0.6107  0.7646  0.0515
   36GLOH    O2 8678   1.609   2.434   0.594 -0.1560 -0.2327  0.0338
   36GLOH   H05 8679   1.563   2.519   0.580  1.2511  0.8280  1.6753
   36GLOH    C3 8680   1.401   2.289   0.612 -0.9784  0.0279 -0.3842
   36GLOH   H06 8681   1.342   2.380   0.600  0.3654  0.7548 -1.5946
   36GLOH   H07 8682   1.347   2.224   0.681  0.2695  0.4567  1.0213
   36GLOH    O3 8683   1.432   2.208   0.493  0.3428  0.0393  0.1398
   36GLOH   H01 8684   1.448   2.267   0.417  1.7479 -2.3111 -1.4825
   37GLOH   H03 8685   2.470   4.553   1.960 -0.7414  0.0319  1.0866
   37GLOH    O1 8686   2.381   4.560   1.922 -0.0120  0.0508 -0.6821
   37GLOH    C1 8687   2.325   4.688   1.925 -0.0994 -0.1609  0.2700
   37GLOH   H02 8688   2.338   4.738   2.022 -1.4915  1.9441 -0.5800
   37GLOH   H08 8689   2.218   4.701   1.909  0.3570  2.8723 -0.7209
   37GLOH    C2 8690   2.397   4.782   1.831  1.0643 -0.5328 -0.0951
   37GLOH   H04 8691   2.499   4.792   1.870  0.8695 -0.8925  0.5013
   37GLOH    O2 8692   2.392   4.718   1.703  0.4952  0.3355 -0.1480
   37GLOH   H05 8693   2.298   4.707   1.681  0.5501 -0.9518  0.2333
   37GLOH    C3 8694   2.319   4.915   1.833  0.6566 -0.5078 -1.0194
   37GLOH   H06 8695   2.214   4.888   1.825  0.2759  1.1666 -1.8022
   37GLOH   H07 8696   2.338   4.976   1.745  1.6394  1.0103  0.2120
   37GLOH    O3 8697   2.369   5.002   1.944 -0.1232  0.1304  0.0689
   37GLOH   H01 8698   2.328   4.975   2.028 -0.2038  0.2444  0.0653
   38GLOH   H03 8699   1.439   6.951   2.681  1.0984 -0.5760 -0.2657
   38GLOH    O1 8700   1.444   7.005   2.600 -0.0697  0.4772  0.3387
   38GLOH    C1 8701   1.463   7.136   2.661  0.2998  0.0961 -0.0658
   38GLOH   H02 8702   1.499   7.207   2.586 -0.5450 -0.1839 -0.7498
   38GLOH   H08 8703   1.542   7.148   2.736 -0.2908  0.0675  0.5618
   38GLOH    C2 8704   1.340   7.189   2.733  0.3521 -0.7409  0.0427
   38GLOH   H04 8705   1.316   7.112   2.808  1.0889 -0.7073  0.3159
   38GLOH    O2 8706   1.372   7.309   2.805  0.5843  0.2534 -0.5731
   38GLOH   H05 8707   1.403   7.277   2.892 -3.1451  0.9573  1.1074
   38GLOH    C3 8708   1.227   7.208   2.628  0.7375 -0.3193 -0.7027
   38GLOH   H06 8709   1.246   7.283   2.551 -1.3842  1.3908  0.3831
   38GLOH   H07 8710   1.142   7.246   2.684  3.3001  1.5614  2.0833
   38GLOH    O3 8711   1.180   7.085   2.563  0.2680 -0.3960  0.6006
   38GLOH   H01 8712   1.257   7.050   2.515  0.4472  1.0128 -0.1773
   39GLOH   H03 8713   0.185   5.298   0.421  0.3214 -0.4278 -1.3048
   39GLOH    O1 8714   0.121   5.338   0.359  0.1726  0.2420 -0.7292
   39GLOH    C1 8715   0.149   5.281   0.231 -0.3722 -0.2074  0.0484
   39GLOH   H02 8716   0.213   5.193   0.238 -0.6663 -0.3526  0.9492
   39GLOH   H08 8717   0.201   5.356   0.172 -1.3754 -0.7883 -1.6273
   39GLOH    C2 8718   0.024   5.250   0.140 -0.1979  0.2098 -0.0597
   39GLOH   H04 8719  -0.042   5.336   0.123 -0.3116  0.6234  2.2985
   39GLOH    O2 8720   0.048   5.205  -0.000 -0.8076 -0.5498 -1.3715
   39GLOH   H05 8721  -0.035   5.177  -0.041 -0.5880  0.0592 -2.2560
   39GLOH    C3 8722  -0.056   5.144   0.213  0.0972 -0.1295  0.4603
   39GLOH   H06 8723   0.014   5.060   0.213 -0.2638 -0.4579 -1.6470
   39GLOH   H07 8724  -0.137   5.116   0.145  0.3722 -3.4896  1.4081
   39GLOH    O3 8725  -0.107   5.180   0.339  0.4663  0.1476 -0.4217
   39GLOH   H01 8726  -0.037   5.236   0.378 -0.5123  0.2262  1.2562
   40GLOH   H03 8727   4.493   1.729   2.105  0.1579 -1.5999  0.4233
   40GLOH    O1 8728   4.399   1.743   2.127  0.4251  0.0688  0.5219
   40GLOH    C1 8729   4.324   1.699   2.017 -0.1739  0.8367 -0.4305
   40GLOH   H02 8730   4.245   1.635   2.058  1.5499 -0.8758  0.2967
   40GLOH   H08 8731   4.384   1.635   1.952 -0.3473 -1.1541  1.3183
   40GLOH    C2 8732   4.254   1.806   1.939  1.4917  0.7543 -0.3377
   40GLOH   H04 8733   4.222   1.879   2.016 -1.2285 -0.5015 -0.2036
   40GLOH    O2 8734   4.353   1.872   1.849  0.4440 -0.3938  0.0500
   40GLOH   H05 8735   4.324   1.962   1.829  2.0396  0.1159 -0.0132
   40GLOH    C3 8736   4.132   1.768   1.855  0.2318  0.0409 -0.1462
   40GLOH   H06 8737   4.162   1.694   1.781  0.2225  0.7709 -0.8754
   40GLOH   H07 8738   4.105   1.860   1.805 -0.0603 -0.5232 -1.0321
   40GLOH    O3 8739   4.024   1.702   1.925  0.1233  0.5461 -0.6975
   40GLOH   H01 8740   4.041   1.607   1.916 -1.8940  0.1582 -0.8167
   41GLOH   H03 8741   2.991   8.068   2.071  1.0511  0.4349 -0.2443
   41GLOH    O1 8742   3.016   8.101   2.159  0.1155  0.1382  0.1446
   41GLOH    C1 8743   3.140   8.046   2.188  0.5715 -0.1032  0.5679
   41GLOH   H02 8744   3.155   8.047   2.296  1.1811 -0.4139  0.4905
   41GLOH   H08 8745   3.227   8.103   2.156  0.2165  0.3384  0.3913
   41GLOH    C2 8746   3.145   7.900   2.136  0.1318  0.0599  0.2231
   41GLOH   H04 8747   3.141   7.898   2.026 -0.5392  2.3260  0.1774
   41GLOH    O2 8748   3.268   7.835   2.177  0.7511 -0.2654  0.1483
   41GLOH   H05 8749   3.264   7.741   2.152  1.3339  1.0550 -5.6258
   41GLOH    C3 8750   3.026   7.819   2.190 -0.3720  0.1048  0.4207
   41GLOH   H06 8751   2.933   7.861   2.152 -1.2565 -2.7379 -0.6996
   41GLOH   H07 8752   3.027   7.828   2.299  3.0956 -1.2308  0.5776
   41GLOH    O3 8753   3.041   7.682   2.147  0.3731  0.0943  0.1597
   41GLOH   H01 8754   2.984   7.623   2.201  2.0043 -1.5463  0.1077
   42GLOH   H03 8755   3.837   8.047   0.142  0.1338  0.5420 -0.1392
   42GLOH    O1 8756   3.879   7.979   0.198  0.4132  0.8518  0.0287
   42GLOH    C1 8757   3.975   7.915   0.105 -0.1961  0.3535  0.4511
   42GLOH   H02 8758   4.073   7.911   0.152 -0.5234  0.8331  1.1895
   42GLOH   H08 8759   3.990   7.983   0.022  0.5914  0.9806  1.1100
   42GLOH    C2 8760   3.941   7.770   0.061 -0.2671 -0.0528 -0.2180
   42GLOH   H04 8761   3.841   7.767   0.014 -2.1226 -0.9271  3.6382
   42GLOH    O2 8762   4.043   7.731  -0.031 -0.3992  0.1973  0.3741
   42GLOH   H05 8763   3.993   7.727  -0.114  0.6304  0.7508 -0.2746
   42GLOH    C3 8764   3.933   7.673   0.175 -0.4394 -0.0102  0.6840
   42GLOH   H06 8765   4.029   7.679   0.227 -0.2771  0.7335  0.3105
   42GLOH   H07 8766   3.932   7.572   0.135  2.0928 -0.5937  1.9770
   42GLOH    O3 8767   3.826   7.708   0.260  0.3089 -0.3017  0.1740
   42GLOH   H01 8768   3.799   7.634   0.317  1.1888 -0.1820  0.7600
   43GLOH   H03 8769   2.832   2.819   2.399  0.8884 -0.6128 -0.4980
   43GLOH    O1 8770   2.769   2.778   2.337 -0.4891  0.4645  0.1431
   43GLOH    C1 8771   2.839   2.708   2.233  0.9297  0.2871 -0.3514
   43GLOH   H02 8772   2.873   2.770   2.150  1.5086  0.5715  0.1028
   43GLOH   H08 8773   2.775   2.633   2.185 -0.6783  1.0098  0.6265
   43GLOH    C2 8774   2.967   2.629   2.274  0.1812  0.6200 -0.3813
   43GLOH   H04 8775   3.003   2.581   2.182  4.2340  0.7173  1.0545
   43GLOH    O2 8776   3.073   2.724   2.323  0.4656  0.3369 -0.1498
   43GLOH   H05 8777   3.036   2.762   2.405 -1.2491 -0.7999 -0.3695
   43GLOH    C3 8778   2.933   2.524   2.382 -0.5155  0.3396 -0.5480
   43GLOH   H06 8779   2.858   2.457   2.340 -0.6781  1.0746 -1.4394
   43GLOH   H07 8780   2.887   2.563   2.473  0.3801 -0.8117  0.4188
   43GLOH    O3 8781   3.051   2.452   2.416 -0.2134  0.8957  0.3224
   43GLOH   H01 8782   3.083   2.412   2.333 -0.8593 -0.8221  0.8920
   44GLOH   H03 8783   3.003   4.590   0.189 -0.9315 -0.2659  0.3831
   44GLOH    O1 8784   3.009   4.635   0.275  0.5152  0.2788  0.0067
   44GLOH    C1 8785   2.968   4.541   0.372 -0.3786  0.2504 -0.6427
   44GLOH   H02 8786   2.982   4.440   0.332  3.8872  1.0240 -1.2874
   44GLOH   H08 8787   2.863   4.549   0.400 -0.6548 -0.7495 -1.3548
   44GLOH    C2 8788   3.058   4.542   0.497 -0.1231 -0.1462  1.2251
   44GLOH   H04 8789   3.159   4.509   0.467 -0.5534  0.1142 -0.5979
   44GLOH    O2 8790   3.065   4.674   0.556 -0.5018 -0.4876  0.5160
   44GLOH   H05 8791   2.991   4.682   0.619 -0.7347  0.0013  0.1849
   44GLOH    C3 8792   3.000   4.448   0.601 -0.6594 -0.1060  0.1380
   44GLOH   H06 8793   2.901   4.486   0.624 -0.1665  1.2368  0.0679
   44GLOH   H07 8794   3.063   4.451   0.689  0.1227 -2.8336 -0.2583
   44GLOH    O3 8795   2.990   4.312   0.559  0.1686  0.0361 -0.0486
   44GLOH   H01 8796   2.928   4.298   0.485 -0.9064  0.7160  0.6961
   45GLOH   H03 8797   0.806   4.572   2.523 -3.4860 -0.4569  0.0884
   45GLOH    O1 8798   0.790   4.577   2.427 -0.3976 -0.0513 -0.4716
   45GLOH    C1 8799   0.776   4.447   2.371 -0.1326  0.5508 -0.0435
   45GLOH   H02 8800   0.757   4.463   2.265 -2.2172 -1.3668 -0.0222
   45GLOH   H08 8801   0.686   4.400   2.413 -0.8089 -0.9455 -2.9962
   45GLOH    C2 8802   0.904   4.356   2.386 -0.4396 -0.0342 -0.2203
   45GLOH   H04 8803   0.919   4.342   2.494 -2.9057  2.0839  0.4427
   45GLOH    O2 8804   0.881   4.219   2.340  0.1257  0.2011 -0.1400
   45GLOH   H05 8805   0.816   4.179   2.401 -0.2942 -2.3351 -2.1827
   45GLOH    C3 8806   1.027   4.421   2.328  0.3708 -0.2832  0.3539
   45GLOH   H06 8807   1.014   4.447   2.223 -1.6547  0.4961  0.7702
   45GLOH   H07 8808   1.119   4.363   2.338  1.0791  0.4484 -1.6462
   45GLOH    O3 8809   1.046   4.538   2.407 -0.2064 -0.4934  0.4831
   45GLOH   H01 8810   0.960   4.575   2.433  0.8350  1.4663  1.2307
   46GLOH   H03 8811   3.433   7.533   2.626  0.0981 -0.2370  0.0586
   46GLOH    O1 8812   3.407   7.484   2.547  0.0295 -0.2802  0.1078
   46GLOH    C1 8813   3.316   7.385   2.592 -0.0296  0.1870  0.3950
   46GLOH   H02 8814   3.326   7.302   2.522  0.2041  1.0481 -0.6096
   46GLOH   H08 8815   3.214   7.424   2.594  0.4009  1.3672  0.1917
   46GLOH    C2 8816   3.359   7.328   2.730 -0.0485  0.7035 -0.0746
   46GLOH   H04 8817   3.462   7.296   2.708 -0.1247  0.7946 -0.5725
   46GLOH    O2 8818   3.338   7.417   2.835  0.3158  0.0163  0.5305
   46GLOH   H05 8819   3.380   7.502   2.812  1.8966 -1.2184 -1.2699
   46GLOH    C3 8820   3.278   7.202   2.750 -0.3562 -0.6087  0.0924
   46GLOH   H06 8821   3.171   7.218   2.738 -0.5045 -2.2612 -0.9758
   46GLOH   H07 8822   3.294   7.165   2.851  0.3838 -0.0653  0.1811
   46GLOH    O3 8823   3.305   7.093   2.661 -1.3823  0.1545  0.0591
   46GLOH   H01 8824   3.234   7.084   2.594  0.4722 -0.0088 -1.9355
   47GLOH   H03 8825   1.829   9.241   0.794 -1.2360  2.0459  0.2676
   47GLOH    O1 8826   1.911   9.292   0.806  0.3263 -0.2209 -0.3464
   47GLOH    C1 8827   1.864   9.411   0.871 -0.2725 -0.0713  0.0184
   47GLOH   H02 8828   1.786   9.386   0.943  0.8063  0.7743  1.5277
   47GLOH   H08 8829   1.809   9.472   0.799 -1.6612 -0.3822  0.7968
   47GLOH    C2 8830   1.982   9.494   0.933  0.0443 -0.1191 -0.2024
   47GLOH   H04 8831   2.046   9.537   0.854 -0.9641  1.8080  0.0080
   47GLOH    O2 8832   1.928   9.590   1.019 -0.3897 -0.2300  0.4021
   47GLOH   H05 8833   1.850   9.624   0.973 -0.9896 -1.1861  0.7137
   47GLOH    C3 8834   2.079   9.412   1.015  0.2327 -0.0444  0.1737
   47GLOH   H06 8835   2.025   9.382   1.104  0.7486 -1.8519 -0.1036
   47GLOH   H07 8836   2.155   9.479   1.054  0.4547  1.5442 -2.8345
   47GLOH    O3 8837   2.128   9.291   0.941  0.3651 -0.0190  0.1007
   47GLOH   H01 8838   2.045   9.245   0.916 -0.8005  1.8442  0.4136
   48GLOH   H03 8839   3.876   2.720   0.168  1.0880  1.3083 -0.8473
   48GLOH    O1 8840   3.848   2.794   0.226  0.5912  0.3479  0.1376
   48GLOH    C1 8841   3.761   2.883   0.157  0.5448  0.2311 -0.2132
   48GLOH   H02 8842   3.688   2.813   0.117  1.0001 -0.3871  0.0384
   48GLOH   H08 8843   3.814   2.942   0.082 -0.0653 -0.0840 -0.8965
   48GLOH    C2 8844   3.692   2.987   0.254  0.5168  0.5054  0.2870
   48GLOH   H04 8845   3.762   3.051   0.308 -0.3611  1.4015  0.3899
   48GLOH    O2 8846   3.611   3.061   0.157 -0.4441  0.5075  0.6490
   48GLOH   H05 8847   3.573   3.003   0.089 -2.0136  1.5883  0.5824
   48GLOH    C3 8848   3.593   2.908   0.340  0.6667 -0.3019  0.7208
   48GLOH   H06 8849   3.521   2.856   0.278 -0.3244  0.6707  1.0235
   48GLOH   H07 8850   3.544   2.975   0.411 -1.5376 -2.6789  1.5000
   48GLOH    O3 8851   3.671   2.813   0.414 -0.2440 -0.0458 -0.0942
   48GLOH   H01 8852   3.748   2.789   0.360  0.1991  0.4694  0.2905
   49GLOH   H03 8853   1.950   0.627   0.898  1.7036 -1.8394 -0.2009
   49GLOH    O1 8854   1.914   0.585   0.817  0.4364 -0.1768 -0.5394
   49GLOH    C1 8855   1.802   0.504   0.845  0.8069 -0.5392  0.4833
   49GLOH   H02 8856   1.825   0.439   0.929  1.0136  0.6205  1.3363
   49GLOH   H08 8857   1.779   0.445   0.756  2.8433  0.2995 -0.6090
   49GLOH    C2 8858   1.679   0.593   0.869 -0.1357 -0.4553  0.1366
   49GLOH   H04 8859   1.703   0.687   0.920 -0.5289 -1.1450  1.6290
   49GLOH    O2 8860   1.616   0.632   0.746  0.1754  0.1054  0.1997
   49GLOH   H05 8861   1.666   0.697   0.692 -1.1940  1.7426  0.8506
   49GLOH    C3 8862   1.574   0.512   0.950  0.3815  0.2007  0.5812
   49GLOH   H06 8863   1.536   0.425   0.896  1.3632  0.1604 -0.0697
   49GLOH   H07 8864   1.491   0.577   0.976  0.4598 -0.3681  2.2860
   49GLOH    O3 8865   1.634   0.468   1.071 -0.0007  0.1786 -0.1523
   49GLOH   H01 8866   1.654   0.373   1.065  0.2741  0.3679 -2.4539
   50GLOH   H03 8867   4.297   1.019   0.939  0.6964 -0.9859  0.5866
   50GLOH    O1 8868   4.272   0.977   1.023  0.0237 -0.5801  0.5892
   50GLOH    C1 8869   4.367   0.879   1.076  0.4116 -0.4527  0.5643
   50GLOH   H02 8870   4.344   0.863   1.181 -1.7733  0.7761  0.2969
   50GLOH   H08 8871   4.464   0.929   1.080 -0.1280  0.5012  1.8671
   50GLOH    C2 8872   4.374   0.753   0.989  0.0947 -1.0827 -0.1202
   50GLOH   H04 8873   4.409   0.784   0.890 -1.3414 -1.3196 -0.7144
   50GLOH    O2 8874   4.468   0.657   1.046 -0.4133  0.2753  0.3239
   50GLOH   H05 8875   4.466   0.572   1.000  0.5625  0.4659 -0.1043
   50GLOH    C3 8876   4.237   0.694   0.978  0.8499 -0.3510  0.6245
   50GLOH   H06 8877   4.201   0.659   1.074 -0.1825 -0.8393  0.0721
   50GLOH   H07 8878   4.239   0.607   0.911 -1.2511 -0.6463  0.9206
   50GLOH    O3 8879   4.144   0.797   0.921 -0.3578  0.1737 -0.0869
   50GLOH   H01 8880   4.179   0.884   0.945  3.1013 -1.4398  1.1362
   51GLOH   H03 8881   1.128   7.998   1.496 -1.5547 -0.0671 -0.6687
   51GLOH    O1 8882   1.135   7.911   1.540  0.2745  0.0836 -0.6151
   51GLOH    C1 8883   1.108   7.814   1.433 -0.2246  0.3620 -0.0564
   51GLOH   H02 8884   1.156   7.849   1.341  1.9012  0.0035  0.8947
   51GLOH   H08 8885   1.007   7.794   1.397  0.5928 -0.7195 -1.8488
   51GLOH    C2 8886   1.162   7.673   1.466 -0.3084 -0.7158  0.2926
   51GLOH   H04 8887   1.124   7.602   1.391 -1.0495  1.6667 -1.6367
   51GLOH    O2 8888   1.305   7.675   1.460 -0.2648  0.2602 -0.1279
   51GLOH   H05 8889   1.334   7.588   1.426  0.6444  0.5549 -0.1415
   51GLOH    C3 8890   1.101   7.635   1.602 -0.3531 -0.5328 -0.0759
   51GLOH   H06 8891   1.152   7.542   1.627  0.1649 -0.7435 -1.7932
   51GLOH   H07 8892   0.994   7.619   1.585 -0.3931  0.5160 -0.8735
   51GLOH    O3 8893   1.134   7.731   1.703  0.5585  0.1022  0.2138
   51GLOH   H01 8894   1.154   7.814   1.656 -0.9700  0.5389  0.3130
   52GLOH   H03 8895   2.735   7.038   0.312  0.2639  0.6508 -0.9147
   52GLOH    O1 8896   2.768   7.098   0.382  0.3114 -0.5657  0.1218
   52GLOH    C1 8897   2.802   7.012   0.496  0.1465  0.1767  0.3712
   52GLOH   H02 8898   2.881   6.942   0.469  0.1968 -0.4807  2.1357
   52GLOH   H08 8899   2.713   6.958   0.526 -0.7371  0.4875 -1.6488
   52GLOH    C2 8900   2.848   7.095   0.613  0.1633 -0.0509 -0.5010
   52GLOH   H04 8901   2.768   7.164   0.643 -1.0802 -1.3897 -0.6810
   52GLOH    O2 8902   2.866   6.995   0.710 -0.5919  0.2033 -0.6104
   52GLOH   H05 8903   2.935   7.023   0.773  0.7071 -1.2159 -1.3684
   52GLOH    C3 8904   2.976   7.177   0.581  0.4706 -0.2908  0.0103
   52GLOH   H06 8905   2.966   7.240   0.493  1.5037 -1.1364 -0.7293
   52GLOH   H07 8906   3.057   7.108   0.555 -0.3294 -0.2529 -2.7286
   52GLOH    O3 8907   3.020   7.260   0.686  0.0766  0.0863 -0.0770
   52GLOH   H01 8908   3.002   7.352   0.660 -2.5027 -0.5265 -0.6757
   53GLOH   H03 8909   8.323   3.580   2.349  1.7174  1.1636 -0.7344
   53GLOH    O1 8910   8.286   3.669   2.363 -0.2559  0.2837 -0.2120
   53GLOH    C1 8911   8.371   3.772   2.325 -0.0971 -0.0257 -0.0186
   53GLOH   H02 8912   8.315   3.864   2.310 -0.9921 -0.5353  0.1931
   53GLOH   H08 8913   8.413   3.758   2.225  0.1225 -0.7855  0.1774
   53GLOH    C2 8914   8.476   3.802   2.428 -0.3762  0.0458 -0.3315
   53GLOH   H04 8915   8.533   3.711   2.454  0.5320 -0.0252 -2.4295
   53GLOH    O2 8916   8.583   3.897   2.395 -0.8244  0.2244  0.1202
   53GLOH   H05 8917   8.602   3.902   2.300  0.9352  0.3347  0.4780
   53GLOH    C3 8918   8.406   3.849   2.554  0.5774  0.6620  0.0188
   53GLOH   H06 8919   8.365   3.950   2.540  1.3281  0.9522 -0.1066
   53GLOH   H07 8920   8.484   3.860   2.629 -0.6374 -0.1321  1.4014
   53GLOH    O3 8921   8.306   3.756   2.605 -0.4815  0.2754 -0.1969
   53GLOH   H01 8922   8.296   3.690   2.534  1.0057  1.3727 -1.4853
   54GLOH   H03 8923   2.281   4.712   0.711  0.3129  1.1286 -1.9843
   54GLOH    O1 8924   2.234   4.639   0.665 -0.3651  0.4230 -0.2164
   54GLOH    C1 8925   2.244   4.508   0.717 -0.2503  0.1815 -0.1665
   54GLOH   H02 8926   2.170   4.442   0.672  0.2505 -1.3386  1.1939
   54GLOH   H08 8927   2.224   4.511   0.824  1.1268 -1.2068  0.1414
   54GLOH    C2 8928   2.380   4.436   0.691 -0.3944  0.4004  0.5088
   54GLOH   H04 8929   2.453   4.511   0.724  0.1543 -0.7208  1.8902
   54GLOH    O2 8930   2.396   4.316   0.771  0.5932  0.0023  0.0520
   54GLOH   H05 8931   2.319   4.258   0.770 -0.1711  0.9866  1.4438
   54GLOH    C3 8932   2.406   4.411   0.544  0.6030  0.5352  0.5001
   54GLOH   H06 8933   2.402   4.510   0.499  0.4454  0.1470 -0.3556
   54GLOH   H07 8934   2.325   4.355   0.499  1.8938 -2.0679  1.3282
   54GLOH    O3 8935   2.535   4.363   0.507 -0.2711  0.8713  0.0175
   54GLOH   H01 8936   2.523   4.267   0.491 -1.8085  0.9302  0.7201
   55GLOH   H03 8937   3.830   8.224   2.463  2.3437 -1.9613 -0.8789
   55GLOH    O1 8938   3.787   8.142   2.494 -0.0552 -0.1834  0.7428
   55GLOH    C1 8939   3.756   8.067   2.370  0.6022 -0.5425 -1.3091
   55GLOH   H02 8940   3.656   8.094   2.336 -0.5875 -0.6495  1.9585
   55GLOH   H08 8941   3.754   7.964   2.406 -2.7957 -0.6429 -1.5941
   55GLOH    C2 8942   3.854   8.085   2.256 -0.2766  0.1764 -0.4587
   55GLOH   H04 8943   3.832   8.008   2.180  0.5767 -2.4400  1.8562
   55GLOH    O2 8944   3.843   8.211   2.189 -0.1112  0.2903 -0.1961
   55GLOH   H05 8945   3.851   8.274   2.263 -1.5764 -1.1769  1.2283
   55GLOH    C3 8946   4.004   8.060   2.288  0.2958 -0.4014 -0.5080
   55GLOH   H06 8947   4.041   8.133   2.360  2.0984 -0.8441 -0.9481
   55GLOH   H07 8948   4.061   8.076   2.196  0.1388  2.6101 -0.1253
   55GLOH    O3 8949   4.023   7.933   2.345  0.3015 -0.2447 -0.1874
   55GLOH   H01 8950   4.031   7.867   2.274 -0.5332  1.2328 -1.6899
   56GLOH   H03 8951   1.522   3.752   1.577  2.0828 -1.4711  3.0524
   56GLOH    O1 8952   1.508   3.843   1.609 -0.5821 -0.6525 -0.1124
   56GLOH    C1 8953   1.365   3.858   1.626 -0.3316 -0.0342  0.0088
   56GLOH   H02 8954   1.354   3.942   1.694  3.2000  1.1596 -0.7920
   56GLOH   H08 8955   1.328   3.771   1.679 -0.0691  1.1857  2.2632
   56GLOH    C2 8956   1.288   3.881   1.497 -0.2207 -1.0989  0.8915
   56GLOH   H04 8957   1.329   3.969   1.444 -2.2186 -0.3409  0.5608
   56GLOH    O2 8958   1.310   3.768   1.414 -0.4198 -0.3956  0.3426
   56GLOH   H05 8959   1.379   3.778   1.346 -1.4657  1.6648 -0.4452
   56GLOH    C3 8960   1.140   3.934   1.522  0.1511 -0.6420  0.2571
   56GLOH   H06 8961   1.069   3.853   1.540  0.3347 -0.8981 -0.1685
   56GLOH   H07 8962   1.112   3.978   1.427  2.0111  1.7420  0.7821
   56GLOH    O3 8963   1.140   4.024   1.636 -0.8504 -0.2166  0.4440
   56GLOH   H01 8964   1.145   3.976   1.721 -0.6872  0.7972  1.0191
   57GLOH   H03 8965   1.467   7.478   2.033 -1.0757 -1.2187 -1.5185
   57GLOH    O1 8966   1.479   7.407   2.099  0.5176  0.5180  0.1148
   57GLOH    C1 8967   1.566   7.458   2.200 -0.1779 -0.3754  0.1771
   57GLOH   H02 8968   1.669   7.460   2.165 -0.0785  1.6600  0.5301
   57GLOH   H08 8969   1.568   7.390   2.285  0.5364 -1.7508 -0.9216
   57GLOH    C2 8970   1.527   7.594   2.263  0.7112  0.3838 -0.0434
   57GLOH   H04 8971   1.599   7.613   2.344  0.3129 -2.5154  1.0395
   57GLOH    O2 8972   1.539   7.700   2.160  0.1362 -0.2135 -0.5914
   57GLOH   H05 8973   1.602   7.674   2.091  2.0150 -1.3585  1.4999
   57GLOH    C3 8974   1.389   7.587   2.326  0.4894 -0.2132 -0.1188
   57GLOH   H06 8975   1.314   7.583   2.247 -0.2540 -0.4883  0.5926
   57GLOH   H07 8976   1.366   7.682   2.374 -0.1906 -1.1505  1.4534
   57GLOH    O3 8977   1.380   7.479   2.411  0.7449  0.4639 -0.0912
   57GLOH   H01 8978   1.442   7.497   2.485  1.1894 -1.0105 -0.0781
   58GLOH   H03 8979   0.583   0.177   2.762  0.5963 -0.6342 -0.9517
   58GLOH    O1 8980   0.517   0.224   2.707 -0.0058  0.5342  0.7319
   58GLOH    C1 8981   0.544   0.369   2.724  0.4082 -0.2987 -0.6713
   58GLOH   H02 8982   0.460   0.417   2.674  1.5258  3.2301  0.6795
   58GLOH   H08 8983   0.640   0.404   2.685  1.6313 -0.7899  1.7905
   58GLOH    C2 8984   0.528   0.413   2.871  0.6332 -0.1435  0.0161
   58GLOH   H04 8985   0.572   0.336   2.937 -1.2522  0.3490  1.8836
   58GLOH    O2 8986   0.604   0.534   2.887  0.4610  0.3187 -0.1319
   58GLOH   H05 8987   0.690   0.515   2.846  0.0325 -1.5254 -0.1979
   58GLOH    C3 8988   0.385   0.434   2.919 -0.7030 -0.0143 -0.2448
   58GLOH   H06 8989   0.340   0.512   2.858  1.5521  0.8328 -0.8901
   58GLOH   H07 8990   0.379   0.467   3.023 -0.1047 -0.4031 -0.0825
   58GLOH    O3 8991   0.301   0.315   2.907 -0.1788  0.4728 -0.3677
   58GLOH   H01 8992   0.320   0.252   2.835 -0.1562 -0.2184  0.2372
   59GLOH   H03 8993   4.010   2.594   2.302  4.3874  1.1580  0.2901
   59GLOH    O1 8994   3.993   2.688   2.282 -0.2836  0.4069  0.2014
   59GLOH    C1 8995   4.110   2.750   2.328  0.8052  0.1454 -0.2579
   59GLOH   H02 8996   4.190   2.677   2.323  1.6430  1.1137 -1.3708
   59GLOH   H08 8997   4.103   2.771   2.434  0.2525  1.4449 -0.5314
   59GLOH    C2 8998   4.149   2.884   2.264  0.0916  0.8219  1.0331
   59GLOH   H04 8999   4.074   2.961   2.288  1.1871  1.5972  2.0281
   59GLOH    O2 9000   4.273   2.922   2.319 -1.1923  0.0969  0.0107
   59GLOH   H05 9001   4.302   2.995   2.261 -0.4230 -0.0614  0.2019
   59GLOH    C3 9002   4.132   2.858   2.112 -0.2982 -0.6002 -0.0897
   59GLOH   H06 9003   4.194   2.772   2.086 -1.5291 -1.3409 -0.6301
   59GLOH   H07 9004   4.183   2.943   2.067 -0.6031  1.5123  3.3490
   59GLOH    O3 9005   3.996   2.853   2.076 -0.0985 -0.2301 -0.7387
   59GLOH   H01 9006   3.964   2.784   2.138  3.5397 -0.3559  1.0775
   60GLOH   H03 9007   4.369   2.077   0.766  0.2530 -2.4939  0.3065
   60GLOH    O1 9008   4.420   2.106   0.843 -0.8559 -0.0919  0.1969
   60GLOH    C1 9009   4.366   2.235   0.866  0.7579 -0.2328  0.3887
   60GLOH   H02 9010   4.260   2.218   0.884  0.3892  1.9906  0.4331
   60GLOH   H08 9011   4.368   2.294   0.775 -3.1141  1.2725  1.1756
   60GLOH    C2 9012   4.408   2.309   0.996  0.7699  0.1428 -0.0208
   60GLOH   H04 9013   4.515   2.334   0.988  1.0607 -1.6053 -1.8085
   60GLOH    O2 9014   4.348   2.440   0.978 -0.1841 -0.6401 -0.8779
   60GLOH   H05 9015   4.431   2.491   0.987 -0.2136 -0.5258 -1.2617
   60GLOH    C3 9016   4.384   2.236   1.131  0.0842  0.2003  0.3441
   60GLOH   H06 9017   4.422   2.309   1.203 -1.1672 -2.4329  3.8288
   60GLOH   H07 9018   4.438   2.142   1.142 -0.0509  0.2354  1.4279
   60GLOH    O3 9019   4.247   2.217   1.164 -0.1497  0.1244  0.0615
   60GLOH   H01 9020   4.215   2.306   1.187 -2.3269 -0.1368 -1.7761
   61GLOH   H03 9021   2.093   3.758   1.917 -0.7283 -1.3260 -0.4227
   61GLOH    O1 9022   2.139   3.743   1.832 -0.0595 -0.2893 -0.2489
   61GLOH    C1 9023   2.191   3.866   1.783  0.1176 -0.0158 -0.0192
   61GLOH   H02 9024   2.113   3.941   1.777  0.7255  0.6379  0.2664
   61GLOH   H08 9025   2.238   3.841   1.688 -3.4923 -0.6801 -1.7455
   61GLOH    C2 9026   2.297   3.939   1.866 -0.0763 -1.0218  0.0029
   61GLOH   H04 9027   2.240   3.991   1.944  1.1277  1.8541 -0.9569
   61GLOH    O2 9028   2.402   3.856   1.914  0.1364 -0.1798 -0.0681
   61GLOH   H05 9029   2.371   3.807   1.992  0.2417  1.1358  0.8228
   61GLOH    C3 9030   2.353   4.061   1.783 -0.3001  0.6461 -0.3101
   61GLOH   H06 9031   2.379   4.022   1.684 -2.0475 -1.1313 -0.1019
   61GLOH   H07 9032   2.437   4.111   1.831  1.7723 -0.7077 -2.3958
   61GLOH    O3 9033   2.252   4.160   1.760 -0.0271  0.5984 -0.2113
   61GLOH   H01 9034   2.290   4.249   1.749 -1.0242  0.7793 -2.3175
   62GLOH   H03 9035   1.467   3.262   0.166  1.7711  1.9420 -3.8184
   62GLOH    O1 9036   1.388   3.319   0.164 -0.1809 -0.4863 -0.3209
   62GLOH    C1 9037   1.348   3.364   0.300 -0.5258  0.3032 -0.0250
   62GLOH   H02 9038   1.308   3.463   0.276 -0.1833  0.4051 -0.1788
   62GLOH   H08 9039   1.438   3.371   0.361 -0.5559 -0.1597  0.0691
   62GLOH    C2 9040   1.246   3.267   0.370 -0.4042 -0.4116 -0.2374
   62GLOH   H04 9041   1.276   3.162   0.357 -0.7018 -0.5707  0.3282
   62GLOH    O2 9042   1.209   3.309   0.506  0.4057 -0.0974  0.1931
   62GLOH   H05 9043   1.126   3.260   0.521 -0.7388  1.5481 -0.6396
   62GLOH    C3 9044   1.119   3.283   0.276  0.7022 -0.5485  0.3116
   62GLOH   H06 9045   1.136   3.238   0.178  0.2622  0.4009 -0.2107
   62GLOH   H07 9046   1.096   3.390   0.271  0.9360 -0.4819  0.7195
   62GLOH    O3 9047   0.999   3.213   0.323 -0.2714  1.0274  0.3174
   62GLOH   H01 9048   0.965   3.243   0.409  1.5605  1.6710  0.8435
   63GLOH   H03 9049   1.366   5.992   2.373 -2.5819  1.0570 -1.2308
   63GLOH    O1 9050   1.373   5.909   2.323  0.5400  0.2271  0.4390
   63GLOH    C1 9051   1.497   5.850   2.293 -0.6413 -0.3504  0.6317
   63GLOH   H02 9052   1.572   5.901   2.352 -0.5199  0.5460 -0.2903
   63GLOH   H08 9053   1.522   5.862   2.187 -0.0525 -1.9249  0.5778
   63GLOH    C2 9054   1.497   5.698   2.310  0.0501  0.1567 -1.0187
   63GLOH   H04 9055   1.425   5.654   2.238 -0.2710 -1.7342  0.4206
   63GLOH    O2 9056   1.625   5.645   2.273  0.2376 -0.1446 -0.0150
   63GLOH   H05 9057   1.613   5.601   2.187  0.3980 -0.6706  0.2269
   63GLOH    C3 9058   1.460   5.660   2.452 -0.4513  0.0062  0.6749
   63GLOH   H06 9059   1.530   5.722   2.507 -0.8435 -0.2129  1.4314
   63GLOH   H07 9060   1.481   5.554   2.470 -0.4604  0.2275  2.0343
   63GLOH    O3 9061   1.334   5.700   2.493 -0.4234 -0.2755 -0.0713
   63GLOH   H01 9062   1.314   5.779   2.440 -0.8281 -1.4116 -1.6568
   64GLOH   H03 9063   0.106   3.439   0.859 -1.1835  0.8154 -1.4968
   64GLOH    O1 9064   0.075   3.527   0.884 -0.0924  0.8552 -0.2353
   64GLOH    C1 9065   0.196   3.597   0.904  0.8858  0.1031  0.1887
   64GLOH   H02 9066   0.201   3.675   0.828 -2.3565  1.5425  1.3650
   64GLOH   H08 9067   0.286   3.539   0.882  0.9330  0.0418  0.5327
   64GLOH    C2 9068   0.209   3.655   1.042  0.1598  0.2505  0.0245
   64GLOH   H04 9069   0.201   3.572   1.114 -1.2978  0.6562  0.3582
   64GLOH    O2 9070   0.333   3.721   1.050  0.5012 -0.2546 -1.1582
   64GLOH   H05 9071   0.377   3.684   1.129 -0.8494 -0.4322 -0.4800
   64GLOH    C3 9072   0.091   3.763   1.060  0.1596 -1.1188  0.2807
   64GLOH   H06 9073   0.106   3.828   1.146 -0.7318 -0.7879  0.1855
   64GLOH   H07 9074  -0.001   3.711   1.087  0.4045 -2.2269 -0.9219
   64GLOH    O3 9075   0.089   3.848   0.939 -0.2054  0.0665  0.0423
   64GLOH   H01 9076   0.006   3.841   0.889 -0.5473  0.1818  0.5976
   65GLOH   H03 9077   3.985   8.687   0.553 -1.2208  1.9973 -1.3920
   65GLOH    O1 9078   3.981   8.745   0.631 -0.2696 -0.2322  0.3754
   65GLOH    C1 9079   4.056   8.673   0.730  0.5141  0.5019 -1.0357
   65GLOH   H02 9080   4.162   8.688   0.709  0.8924 -0.2380  0.2829
   65GLOH   H08 9081   4.033   8.567   0.717 -0.7319  0.8830 -1.9651
   65GLOH    C2 9082   4.023   8.717   0.872 -0.4102 -0.3283  0.2564
   65GLOH   H04 9083   3.918   8.687   0.880  0.1045 -2.3264 -0.3185
   65GLOH    O2 9084   4.098   8.642   0.965  0.4102  0.0824 -0.1491
   65GLOH   H05 9085   4.083   8.667   1.058  1.5940  1.1094 -0.2167
   65GLOH    C3 9086   4.023   8.867   0.881 -1.0273 -0.4336 -1.1728
   65GLOH   H06 9087   4.129   8.885   0.865 -0.2116 -3.1672  0.6423
   65GLOH   H07 9088   3.998   8.890   0.984 -0.7204 -3.4272 -0.3701
   65GLOH    O3 9089   3.938   8.931   0.789 -0.0195  0.0840  0.2235
   65GLOH   H01 9090   3.961   8.883   0.707  0.5631  1.8343 -0.6598
   66GLOH   H03 9091   4.470   2.248   2.056  1.6342 -0.0648  0.6328
   66GLOH    O1 9092   4.419   2.207   2.128 -0.0430  0.4278 -0.2347
   66GLOH    C1 9093   4.476   2.088   2.161  0.2443  0.3058  0.6081
   66GLOH   H02 9094   4.582   2.076   2.137  0.0788 -0.3886  0.2116
   66GLOH   H08 9095   4.421   2.005   2.117 -0.4024  1.4668 -0.8006
   66GLOH    C2 9096   4.469   2.052   2.313 -0.3930  0.0118 -0.0978
   66GLOH   H04 9097   4.364   2.048   2.345  0.6941 -1.2164  3.6184
   66GLOH    O2 9098   4.538   1.923   2.335  0.1038  0.0975 -0.4069
   66GLOH   H05 9099   4.477   1.849   2.319  1.5555 -1.0038 -0.9967
   66GLOH    C3 9100   4.532   2.168   2.398  0.3230 -0.5314  0.3697
   66GLOH   H06 9101   4.638   2.179   2.378 -0.0836  0.8063 -1.1776
   66GLOH   H07 9102   4.524   2.150   2.506  0.9517 -1.7738  0.2130
   66GLOH    O3 9103   4.476   2.299   2.367  0.6855 -0.0129 -0.3956
   66GLOH   H01 9104   4.465   2.309   2.271  0.2227 -0.7202 -0.4141
   67GLOH   H03 9105   2.244   6.960   2.353  1.7571 -2.3404  0.7366
   67GLOH    O1 9106   2.218   6.911   2.273 -0.3959  0.0383 -0.0660
   67GLOH    C1 9107   2.079   6.866   2.269  0.6004 -0.2951  0.8709
   67GLOH   H02 9108   2.034   6.846   2.366 -0.3348 -2.1341  0.0769
   67GLOH   H08 9109   2.070   6.781   2.202  1.5009  0.1436  0.1814
   67GLOH    C2 9110   1.989   6.973   2.217 -0.3963 -0.3834 -0.4399
   67GLOH   H04 9111   2.029   7.023   2.128 -2.0526  0.5712 -0.6644
   67GLOH    O2 9112   1.854   6.929   2.205  0.6713 -0.5738 -0.0735
   67GLOH   H05 9113   1.815   6.931   2.116 -1.1617 -2.5905  0.6378
   67GLOH    C3 9114   1.968   7.083   2.323 -0.1183  0.4327  0.2550
   67GLOH   H06 9115   1.930   7.026   2.408 -0.7425 -0.3865 -0.5611
   67GLOH   H07 9116   1.882   7.147   2.306 -0.3437 -0.0897 -0.6645
   67GLOH    O3 9117   2.089   7.158   2.353 -0.6344  0.2556  0.0851
   67GLOH   H01 9118   2.075   7.201   2.439  0.1896 -0.6057  0.6566
   68GLOH   H03 9119   9.275   2.280   0.282 -1.0922  0.2055  2.4653
   68GLOH    O1 9120   9.205   2.226   0.241 -0.4122  0.3446  1.1015
   68GLOH    C1 9121   9.129   2.158   0.339  0.6096  0.2308 -0.2197
   68GLOH   H02 9122   9.189   2.087   0.396  1.1235  0.2217 -0.7722
   68GLOH   H08 9123   9.055   2.096   0.288  1.7873 -1.6971  0.3673
   68GLOH    C2 9124   9.046   2.246   0.440  0.6367  0.4744 -0.1045
   68GLOH   H04 9125   9.109   2.326   0.481  2.1756 -0.5787 -0.4004
   68GLOH    O2 9126   8.941   2.309   0.370  0.0167  0.2225 -0.0345
   68GLOH   H05 9127   8.888   2.256   0.309 -2.0860  1.4463  0.6687
   68GLOH    C3 9128   8.981   2.165   0.557 -0.1971  1.3104  0.1157
   68GLOH   H06 9129   8.914   2.085   0.524 -0.1593  0.9508  0.8925
   68GLOH   H07 9130   8.921   2.226   0.624 -0.0520  0.3917  1.0929
   68GLOH    O3 9131   9.084   2.102   0.627 -0.1122  0.3602  0.5385
   68GLOH   H01 9132   9.074   2.138   0.717  1.2962 -1.1935  1.3485
   69GLOH   H03 9133   4.314   3.684   2.701  0.5940  1.6769 -0.1166
   69GLOH    O1 9134   4.252   3.737   2.647 -0.2953  0.5873 -0.1841
   69GLOH    C1 9135   4.241   3.866   2.721 -0.2140 -0.1272 -0.3133
   69GLOH   H02 9136   4.313   3.936   2.680 -1.2369  0.2896 -1.4203
   69GLOH   H08 9137   4.268   3.866   2.827 -2.2453 -2.0051  0.2633
   69GLOH    C2 9138   4.092   3.920   2.732 -0.2390 -0.4016  0.1539
   69GLOH   H04 9139   4.019   3.846   2.765 -0.3339 -0.1078  0.6071
   69GLOH    O2 9140   4.084   4.048   2.802 -0.2448 -0.0770  0.2625
   69GLOH   H05 9141   4.099   4.029   2.896 -0.2474  0.3793  0.3566
   69GLOH    C3 9142   4.044   3.961   2.589 -0.2998  0.0577  0.0711
   69GLOH   H06 9143   4.100   4.047   2.552  0.5734  0.8518  3.1054
   69GLOH   H07 9144   3.943   3.994   2.615 -0.4196 -1.4556  1.5886
   69GLOH    O3 9145   4.040   3.843   2.503  0.7867  0.3082  0.4174
   69GLOH   H01 9146   4.118   3.791   2.528 -0.0077 -2.6432 -2.7676
   70GLOH   H03 9147   3.115   4.395   1.110  0.3517 -0.8688 -0.1679
   70GLOH    O1 9148   3.165   4.409   1.193  0.4455 -0.3015 -0.3205
   70GLOH    C1 9149   3.176   4.534   1.253  0.4709  0.2153  0.1644
   70GLOH   H02 9150   3.079   4.582   1.262  0.1825 -0.3899  0.2705
   70GLOH   H08 9151   3.242   4.596   1.192 -0.5257  0.1555 -0.9770
   70GLOH    C2 9152   3.227   4.515   1.402  0.3395  0.5398 -0.0099
   70GLOH   H04 9153   3.308   4.441   1.401  0.1302  0.2890  1.2270
   70GLOH    O2 9154   3.270   4.640   1.462  0.4283 -0.3087  0.0480
   70GLOH   H05 9155   3.348   4.610   1.511  0.9244  2.3605  0.9706
   70GLOH    C3 9156   3.106   4.454   1.478 -0.1400 -0.5737  0.0892
   70GLOH   H06 9157   3.015   4.506   1.450  0.2617  0.3521  0.4481
   70GLOH   H07 9158   3.124   4.485   1.581 -0.8252  2.9903 -0.7691
   70GLOH    O3 9159   3.103   4.309   1.463  0.0160  0.2773  0.4837
   70GLOH   H01 9160   3.074   4.284   1.374  2.4685  0.9484 -0.5237
   71GLOH   H03 9161   8.800   3.847   2.665  0.7227  0.1753  0.7213
   71GLOH    O1 9162   8.750   3.763   2.666  0.2492  0.4550  0.7780
   71GLOH    C1 9163   8.765   3.713   2.802 -0.2195  0.5435  0.5883
   71GLOH   H02 9164   8.867   3.724   2.839 -0.3366  0.0423  1.0691
   71GLOH   H08 9165   8.747   3.606   2.789 -1.6247  1.0466 -1.8279
   71GLOH    C2 9166   8.671   3.769   2.906  0.9125  0.8048 -0.1308
   71GLOH   H04 9167   8.572   3.734   2.873  0.6814 -1.5222  2.8613
   71GLOH    O2 9168   8.696   3.697   3.025 -0.1191 -0.3677 -0.0761
   71GLOH   H05 9169   8.768   3.748   3.068  0.4608  1.1416 -2.7477
   71GLOH    C3 9170   8.672   3.922   2.919 -0.8529 -0.0592 -1.1826
   71GLOH   H06 9171   8.767   3.953   2.964 -0.7805 -2.0949  0.1383
   71GLOH   H07 9172   8.596   3.953   2.989 -0.6939 -0.0546 -1.0104
   71GLOH    O3 9173   8.657   4.000   2.798  0.5918  0.1595 -0.3158
   71GLOH   H01 9174   8.561   3.996   2.780  0.4913 -0.9926  0.4440
   72GLOH   H03 9175   8.720   2.161   0.180  1.1959  0.1745  2.4302
   72GLOH    O1 9176   8.789   2.215   0.138  0.1188 -0.0178  0.3775
   72GLOH    C1 9177   8.826   2.158   0.010 -0.7994  0.1818  0.4599
   72GLOH   H02 9178   8.767   2.196  -0.073 -0.4567  1.8685  0.9663
   72GLOH   H08 9179   8.814   2.051   0.026  1.1658 -0.1297  0.0210
   72GLOH    C2 9180   8.973   2.181  -0.036 -0.1811  0.0144  0.2816
   72GLOH   H04 9181   9.039   2.130   0.035  1.8357 -0.6005 -1.9516
   72GLOH    O2 9182   9.004   2.139  -0.167 -0.5608 -0.2261 -0.1363
   72GLOH   H05 9183   9.001   2.043  -0.180 -0.5881 -0.1336 -0.8010
   72GLOH    C3 9184   8.999   2.335  -0.023  0.2960 -0.7636  0.7580
   72GLOH   H06 9185   8.919   2.385  -0.077  0.1296 -1.2243  0.5711
   72GLOH   H07 9186   9.087   2.372  -0.075  0.8588 -3.1149 -0.0287
   72GLOH    O3 9187   9.000   2.386   0.111  0.2921  0.1351 -0.3109
   72GLOH   H01 9188   9.046   2.315   0.158 -1.4131 -0.4810  0.4716
   73GLOH   H03 9189   1.376   1.592   1.065 -1.7092 -0.3419 -0.8729
   73GLOH    O1 9190   1.408   1.549   0.984  0.1668 -0.7905  0.0774
   73GLOH    C1 9191   1.407   1.408   1.004  0.1811  0.5640 -1.0023
   73GLOH   H02 9192   1.421   1.383   1.109 -2.0099  1.5505 -0.4472
   73GLOH   H08 9193   1.478   1.355   0.941  0.9712  2.2359 -1.5553
   73GLOH    C2 9194   1.280   1.340   0.952 -0.1645  0.3980  0.1525
   73GLOH   H04 9195   1.300   1.232   0.953  0.7945  0.5603  2.2867
   73GLOH    O2 9196   1.182   1.371   1.048 -0.3738 -0.2622  0.3440
   73GLOH   H05 9197   1.171   1.304   1.118 -1.4206 -1.2301 -0.7162
   73GLOH    C3 9198   1.247   1.377   0.807  0.5756  0.1865 -0.0133
   73GLOH   H06 9199   1.336   1.340   0.756  1.2812 -0.8911  1.9233
   73GLOH   H07 9200   1.246   1.486   0.808  0.4988  0.1810  1.5568
   73GLOH    O3 9201   1.122   1.315   0.768  0.0047 -0.3103  0.1178
   73GLOH   H01 9202   1.048   1.370   0.800  3.1450  3.2919  1.5638
   74GLOH   H03 9203   2.255   4.260   2.125  0.0847 -2.2546 -1.3181
   74GLOH    O1 9204   2.161   4.236   2.118 -0.6128 -0.0519  0.1209
   74GLOH    C1 9205   2.102   4.327   2.020 -0.0231 -0.0514 -0.1082
   74GLOH   H02 9206   2.163   4.343   1.931  0.4030  1.1777  0.3973
   74GLOH   H08 9207   2.075   4.420   2.070 -1.1617 -0.1824 -0.4651
   74GLOH    C2 9208   1.966   4.269   1.969  0.1290  0.0167 -0.6125
   74GLOH   H04 9209   1.901   4.343   1.920 -1.0654 -0.6822 -0.1022
   74GLOH    O2 9210   2.005   4.170   1.875  0.0809 -0.5522  0.2153
   74GLOH   H05 9211   2.099   4.179   1.854  0.4237  2.2700  2.5400
   74GLOH    C3 9212   1.885   4.208   2.085  1.2112 -0.1712 -0.2164
   74GLOH   H06 9213   1.785   4.185   2.047  0.0582  1.0890  1.9348
   74GLOH   H07 9214   1.868   4.285   2.161  0.8052 -2.1861  1.7780
   74GLOH    O3 9215   1.951   4.095   2.159  0.4888  0.2444 -0.1931
   74GLOH   H01 9216   2.045   4.122   2.158  0.5849  0.1412  2.4465
   75GLOH   H03 9217   2.071   0.056   0.451  0.0432  1.5219  2.8233
   75GLOH    O1 9218   2.030   0.135   0.411 -0.2034  0.1120  0.1696
   75GLOH    C1 9219   2.124   0.181   0.312  0.6880  0.7682 -0.1676
   75GLOH   H02 9220   2.174   0.092   0.274 -0.2419  0.9754 -1.9089
   75GLOH   H08 9221   2.209   0.225   0.365  0.4404 -0.8047  1.5827
   75GLOH    C2 9222   2.069   0.275   0.201  0.2323  0.0470 -0.0485
   75GLOH   H04 9223   2.021   0.353   0.261 -1.0369 -1.9241  1.5782
   75GLOH    O2 9224   2.185   0.324   0.135  0.3590 -0.6050 -0.2154
   75GLOH   H05 9225   2.156   0.376   0.058  1.1926 -1.3952 -1.0637
   75GLOH    C3 9226   1.966   0.201   0.109  0.5588  0.1695 -0.3106
   75GLOH   H06 9227   2.024   0.131   0.048 -0.5607  0.6485 -1.9675
   75GLOH   H07 9228   1.911   0.271   0.045 -1.3127 -1.3164 -0.3711
   75GLOH    O3 9229   1.868   0.134   0.193 -0.4717  0.2410  0.3294
   75GLOH   H01 9230   1.914   0.138   0.278 -0.9717 -0.6854  0.6559
   76GLOH   H03 9231   1.812   2.445   2.175  0.2420  0.9729  1.6211
   76GLOH    O1 9232   1.744   2.515   2.166 -0.1427  0.3632 -0.3132
   76GLOH    C1 9233   1.624   2.455   2.114  0.4337  0.6829 -0.1139
   76GLOH   H02 9234   1.557   2.426   2.195 -0.7031  0.8162 -0.9947
   76GLOH   H08 9235   1.648   2.372   2.047  2.1357 -0.0655  1.3683
   76GLOH    C2 9236   1.536   2.546   2.028  0.4027 -0.3805 -0.2845
   76GLOH   H04 9237   1.526   2.647   2.069 -1.8335  0.0039 -1.6302
   76GLOH    O2 9238   1.605   2.569   1.907 -0.5575 -0.1339  0.1699
   76GLOH   H05 9239   1.573   2.648   1.861  0.5627  0.6155  0.6517
   76GLOH    C3 9240   1.398   2.483   2.003 -0.7807 -0.6120  0.2307
   76GLOH   H06 9241   1.349   2.548   1.931  2.4623  1.4411 -0.2530
   76GLOH   H07 9242   1.346   2.490   2.098  0.7291 -1.8136  1.1720
   76GLOH    O3 9243   1.398   2.345   1.960  0.0057  0.7423 -0.4101
   76GLOH   H01 9244   1.448   2.341   1.877  1.1004 -0.7280  0.2824
   77GLOH   H03 9245   8.831   1.100   0.163 -1.8608  2.6351 -0.1714
   77GLOH    O1 9246   8.845   1.110   0.259  0.3459  0.1209 -0.1613
   77GLOH    C1 9247   8.953   1.201   0.291 -0.2029  0.4327  0.2431
   77GLOH   H02 9248   8.959   1.292   0.232  0.3743 -0.8199 -1.6861
   77GLOH   H08 9249   9.053   1.158   0.284 -0.3493  0.1561 -0.1542
   77GLOH    C2 9250   8.942   1.252   0.435 -0.4439  0.7054  0.1822
   77GLOH   H04 9251   8.907   1.166   0.495 -1.5596  0.2005 -1.1451
   77GLOH    O2 9252   9.072   1.295   0.477 -0.2806 -0.2130 -0.4183
   77GLOH   H05 9253   9.142   1.246   0.429 -0.2602 -1.0261  0.4264
   77GLOH    C3 9254   8.837   1.358   0.443  0.6169 -0.3570 -0.0356
   77GLOH   H06 9255   8.857   1.436   0.370 -0.4645  0.0358  0.0831
   77GLOH   H07 9256   8.826   1.384   0.548  0.5709 -2.9564  0.6357
   77GLOH    O3 9257   8.714   1.305   0.405 -0.1599 -0.0936 -0.2884
   77GLOH   H01 9258   8.716   1.271   0.313 -2.2483 -1.9300  0.2949
   78GLOH   H03 9259   2.182   6.221   2.079  0.0074  0.4276  0.6251
   78GLOH    O1 9260   2.114   6.161   2.045  0.1587  0.2429  0.6525
   78GLOH    C1 9261   2.078   6.065   2.152  0.1303 -0.6801 -0.1347
   78GLOH   H02 9262   2.169   6.010   2.175  0.3835 -0.0592  0.3625
   78GLOH   H08 9263   2.007   5.992   2.113 -1.3126 -0.0353  1.1901
   78GLOH    C2 9264   2.015   6.132   2.276 -0.5124 -0.3513  0.9291
   78GLOH   H04 9265   2.099   6.183   2.326 -0.0770 -1.7170  1.6236
   78GLOH    O2 9266   1.907   6.229   2.247 -0.1170 -0.7007 -0.3890
   78GLOH   H05 9267   1.949   6.316   2.245  2.3282 -1.8302  0.7302
   78GLOH    C3 9268   1.969   6.021   2.375 -0.7111  0.0302  0.0889
   78GLOH   H06 9269   2.029   5.933   2.356  0.5430  0.7856  0.4615
   78GLOH   H07 9270   1.869   5.992   2.341 -0.8355  2.0450 -1.3857
   78GLOH    O3 9271   1.965   6.047   2.515  1.0530 -0.3748  0.4470
   78GLOH   H01 9272   2.047   6.089   2.545 -0.2460  0.0375  3.6398
   79GLOH   H03 9273   3.225   0.497   1.742  2.9936  1.1743  1.8376
   79GLOH    O1 9274   3.272   0.513   1.659  0.2345 -0.1352 -0.0363
   79GLOH    C1 9275   3.398   0.434   1.649 -0.2933 -0.0847  0.2713
   79GLOH   H02 9276   3.409   0.374   1.739 -1.6053 -1.1282 -0.2418
   79GLOH   H08 9277   3.489   0.492   1.633  0.9727 -1.8323  1.0066
   79GLOH    C2 9278   3.392   0.330   1.538 -0.0721  0.3042 -0.2689
   79GLOH   H04 9279   3.351   0.388   1.454  0.8310  0.4173 -0.6463
   79GLOH    O2 9280   3.518   0.273   1.492 -0.0199  0.7269  0.2159
   79GLOH   H05 9281   3.571   0.351   1.468 -1.7034  2.5140  2.1191
   79GLOH    C3 9282   3.284   0.225   1.572  0.2296 -0.0605 -0.1124
   79GLOH   H06 9283   3.260   0.161   1.487  2.0500 -0.3836 -0.3920
   79GLOH   H07 9284   3.195   0.285   1.594 -1.1414 -1.2449 -2.2295
   79GLOH    O3 9285   3.320   0.150   1.687 -0.7118 -0.0258  0.1029
   79GLOH   H01 9286   3.388   0.086   1.660 -2.7880 -2.3156  0.2014
   80GLOH   H03 9287   0.404   5.851   0.473  0.5769  1.4400  0.6552
   80GLOH    O1 9288   0.489   5.842   0.520  0.7091  0.0135  0.1807
   80GLOH    C1 9289   0.578   5.744   0.468  0.2801  0.3261  0.2601
   80GLOH   H02 9290   0.586   5.651   0.524  0.0735 -0.1486 -0.4998
   80GLOH   H08 9291   0.682   5.776   0.459  0.2199  0.1965 -0.9336
   80GLOH    C2 9292   0.548   5.700   0.323  0.2905 -0.2287 -1.0414
   80GLOH   H04 9293   0.562   5.793   0.267  3.4160 -1.4916 -2.5159
   80GLOH    O2 9294   0.652   5.606   0.283  0.3552 -0.4854  0.3125
   80GLOH   H05 9295   0.640   5.576   0.192 -1.2552  2.7358 -0.6120
   80GLOH    C3 9296   0.405   5.636   0.325 -0.0988  0.5306  0.0299
   80GLOH   H06 9297   0.403   5.565   0.408 -1.6080 -0.4725 -0.8404
   80GLOH   H07 9298   0.398   5.577   0.233  0.5676  0.7879 -0.1862
   80GLOH    O3 9299   0.300   5.736   0.335 -0.4161 -0.2644 -0.0695
   80GLOH   H01 9300   0.220   5.681   0.343 -1.5754  1.0597 -2.0505
   81GLOH   H03 9301   0.717   1.968   2.460 -2.0327  3.5401  1.7558
   81GLOH    O1 9302   0.688   1.930   2.545 -0.7206  0.2951  0.8688
   81GLOH    C1 9303   0.607   1.816   2.525 -0.0284 -0.0388 -0.3932
   81GLOH   H02 9304   0.522   1.841   2.462 -0.3823  0.3683  0.2419
   81GLOH   H08 9305   0.564   1.800   2.623  3.0208  1.7414  1.3102
   81GLOH    C2 9306   0.689   1.705   2.452  0.5370  0.6240  0.1379
   81GLOH   H04 9307   0.735   1.759   2.368 -1.6236 -0.8219 -2.0615
   81GLOH    O2 9308   0.792   1.655   2.537  0.3529 -0.4137  0.2575
   81GLOH   H05 9309   0.854   1.728   2.552  0.1903 -0.5022  1.3738
   81GLOH    C3 9310   0.593   1.592   2.403  0.1066  0.1961 -0.5246
   81GLOH   H06 9311   0.546   1.548   2.491  0.9806 -2.2463 -1.2396
   81GLOH   H07 9312   0.650   1.513   2.354 -0.2281 -1.7719  2.1467
   81GLOH    O3 9313   0.494   1.641   2.311 -0.3821  0.1486 -0.6295
   81GLOH   H01 9314   0.485   1.572   2.243  0.2815  1.3645 -1.9795
   82GLOH   H03 9315   9.261   2.595   0.467 -1.0133  1.4932  0.4344
   82GLOH    O1 9316   9.250   2.643   0.382 -0.4039  0.1148 -0.4469
   82GLOH    C1 9317   9.375   2.695   0.354  0.2984 -0.3406  0.2899
   82GLOH   H02 9318   9.382   2.745   0.258 -0.5842 -1.1546 -0.2079
   82GLOH   H08 9319   9.450   2.616   0.362 -1.2328 -1.8705 -0.2068
   82GLOH    C2 9320   9.411   2.808   0.454  0.7411 -0.1035  0.6305
   82GLOH   H04 9321   9.374   2.777   0.552 -2.0663 -2.6004 -1.1282
   82GLOH    O2 9322   9.548   2.831   0.451 -0.2962  0.0988  0.4658
   82GLOH   H05 9323   9.573   2.910   0.502 -0.1960  0.0997  0.4169
   82GLOH    C3 9324   9.328   2.928   0.413  0.2530 -0.0649  0.2000
   82GLOH   H06 9325   9.309   2.933   0.306  0.7372  1.2481  0.1641
   82GLOH   H07 9326   9.382   3.016   0.449  1.6743 -1.4631  1.5608
   82GLOH    O3 9327   9.195   2.946   0.473  0.2145 -0.2396 -0.4163
   82GLOH   H01 9328   9.127   2.883   0.442  0.7345 -0.5006 -1.0363
   83GLOH   H03 9329   9.408   1.306   0.656  2.2625  0.6138  0.9558
   83GLOH    O1 9330   9.397   1.255   0.738 -1.0490  0.3732  0.4398
   83GLOH    C1 9331   9.279   1.178   0.732  0.4613  1.2934 -0.2730
   83GLOH   H02 9332   9.313   1.081   0.695 -0.0475  1.7562 -2.0293
   83GLOH   H08 9333   9.218   1.226   0.656 -0.6052  1.0862  0.4452
   83GLOH    C2 9334   9.199   1.169   0.867 -0.2661  0.2138 -0.4345
   83GLOH   H04 9335   9.261   1.138   0.952  1.6187  0.7126 -1.5878
   83GLOH    O2 9336   9.145   1.303   0.896 -0.1442 -0.4571 -0.0341
   83GLOH   H05 9337   9.214   1.359   0.934 -0.9210 -0.5104  1.4832
   83GLOH    C3 9338   9.069   1.091   0.851  0.6913  0.2421 -0.7201
   83GLOH   H06 9339   9.000   1.143   0.785  1.3770 -0.3673 -1.9391
   83GLOH   H07 9340   9.021   1.069   0.946  1.7380  0.7985 -0.0527
   83GLOH    O3 9341   9.096   0.961   0.789 -0.2491 -0.0784 -0.4502
   83GLOH   H01 9342   9.018   0.906   0.808  0.7023 -1.3113 -0.0643
   84GLOH   H03 9343   9.140   3.643   1.203  0.5839 -0.5741  0.3327
   84GLOH    O1 9344   9.137   3.718   1.265  0.2299 -0.3017 -0.0109
   84GLOH    C1 9345   9.089   3.682   1.397  0.6142 -0.3678 -0.0728
   84GLOH   H02 9346   9.165   3.628   1.454 -0.1883 -1.7127 -0.2522
   84GLOH   H08 9347   9.008   3.609   1.396  0.1823  0.0428  1.7890
   84GLOH    C2 9348   9.036   3.803   1.474  0.0283  0.0891 -0.3253
   84GLOH   H04 9349   8.953   3.846   1.415 -0.4065 -0.3355 -0.0332
   84GLOH    O2 9350   8.961   3.754   1.593  0.2858 -0.1439 -0.3879
   84GLOH   H05 9351   8.918   3.831   1.633 -0.9231 -0.4163 -1.1215
   84GLOH    C3 9352   9.146   3.908   1.513  0.3404  1.1788 -0.3567
   84GLOH   H06 9353   9.103   3.976   1.586 -2.1009 -1.7989  1.1198
   84GLOH   H07 9354   9.171   3.967   1.425 -1.8239 -1.0847 -2.5882
   84GLOH    O3 9355   9.268   3.860   1.570  0.4863  0.3364  0.1974
   84GLOH   H01 9356   9.341   3.920   1.547  0.2995  1.1549  1.6903
   85GLOH   H03 9357   1.545   2.555   1.350 -3.7842 -3.0045  3.0169
   85GLOH    O1 9358   1.523   2.505   1.269  0.2552  0.6382 -0.5964
   85GLOH    C1 9359   1.408   2.561   1.202  0.4763  0.1577 -0.3273
   85GLOH   H02 9360   1.401   2.511   1.105  1.6563  0.4214 -0.5575
   85GLOH   H08 9361   1.422   2.664   1.171 -3.9544  2.1156  3.5010
   85GLOH    C2 9362   1.276   2.559   1.284  0.0062  0.8536 -0.2763
   85GLOH   H04 9363   1.286   2.602   1.385  0.2840  1.4392 -0.5499
   85GLOH    O2 9364   1.174   2.635   1.216  0.5493 -0.0694  0.7427
   85GLOH   H05 9365   1.221   2.711   1.178  1.0278 -0.3366  0.7894
   85GLOH    C3 9366   1.225   2.413   1.287  0.1264  0.1866 -0.4280
   85GLOH   H06 9367   1.210   2.377   1.186 -0.4128  0.0009 -0.2881
   85GLOH   H07 9368   1.125   2.412   1.331 -0.3224  0.2819 -1.4354
   85GLOH    O3 9369   1.290   2.302   1.343 -0.4953 -0.3128 -0.3647
   85GLOH   H01 9370   1.297   2.248   1.262 -0.5908 -1.5032  0.4157
   86GLOH   H03 9371   1.228   0.688   0.890  2.8543 -1.4499 -0.1269
   86GLOH    O1 9372   1.198   0.600   0.920  0.3631 -0.5240  0.2543
   86GLOH    C1 9373   1.057   0.612   0.897  0.1638 -0.2284  0.4797
   86GLOH   H02 9374   1.017   0.515   0.870 -1.0825  0.6607 -0.9361
   86GLOH   H08 9375   1.041   0.673   0.808 -0.3156 -1.2732 -0.1589
   86GLOH    C2 9376   0.977   0.662   1.018 -0.1416 -0.2063  0.4016
   86GLOH   H04 9377   1.034   0.751   1.047  1.2307 -0.7140 -0.6570
   86GLOH    O2 9378   0.843   0.702   0.983  0.9965 -0.9373  0.3334
   86GLOH   H05 9379   0.821   0.764   1.055  0.2927  1.1848 -1.6306
   86GLOH    C3 9380   0.981   0.550   1.122  0.2578  0.1777  0.1931
   86GLOH   H06 9381   1.083   0.536   1.155  0.0415 -1.6026  0.1801
   86GLOH   H07 9382   0.946   0.458   1.074  0.5484  0.4869 -0.6159
   86GLOH    O3 9383   0.895   0.585   1.233  0.1078 -0.0192 -0.0851
   86GLOH   H01 9384   0.866   0.677   1.217  0.0877 -0.3013 -1.7988
   87GLOH   H03 9385   9.382   0.348   1.815 -1.1124  1.7825  0.2788
   87GLOH    O1 9386   9.390   0.375   1.908 -0.2523  0.5194  0.5874
   87GLOH    C1 9387   9.290   0.481   1.914  0.0189  0.3186  0.2073
   87GLOH   H02 9388   9.323   0.577   1.875 -0.3278  0.5267  0.4173
   87GLOH   H08 9389   9.257   0.499   2.016 -0.9636 -2.0958  0.3494
   87GLOH    C2 9390   9.152   0.448   1.843  0.5021  1.0266 -0.7712
   87GLOH   H04 9391   9.103   0.357   1.881 -0.3651  1.3306 -1.1395
   87GLOH    O2 9392   9.060   0.560   1.840 -0.2802  0.2053  0.4935
   87GLOH   H05 9393   9.087   0.641   1.794 -2.2625  0.2022 -0.7034
   87GLOH    C3 9394   9.191   0.425   1.695  0.1007 -0.3536 -0.2343
   87GLOH   H06 9395   9.239   0.515   1.658 -1.2920 -0.3231 -2.0662
   87GLOH   H07 9396   9.094   0.418   1.645  0.5015  0.3064 -1.1097
   87GLOH    O3 9397   9.286   0.321   1.676 -0.0815 -0.0160 -0.0866
   87GLOH   H01 9398   9.325   0.332   1.587 -0.5962  0.7477 -0.2342
   88GLOH   H03 9399   4.313   3.130   1.749 -0.4248  0.1009 -0.1439
   88GLOH    O1 9400   4.386   3.118   1.813 -0.0469  0.3622 -0.5201
   88GLOH    C1 9401   4.335   3.171   1.938  0.3390  0.1239 -0.2579
   88GLOH   H02 9402   4.233   3.135   1.954  0.9685 -1.4383  0.4223
   88GLOH   H08 9403   4.333   3.279   1.951  3.2002 -0.0911  2.3738
   88GLOH    C2 9404   4.418   3.118   2.058 -0.2915 -0.1051 -0.4054
   88GLOH   H04 9405   4.514   3.169   2.076 -0.0111 -0.5499 -0.6168
   88GLOH    O2 9406   4.343   3.142   2.178  0.0286 -0.1038  0.7350
   88GLOH   H05 9407   4.321   3.236   2.175  0.2983 -0.0283  1.0723
   88GLOH    C3 9408   4.466   2.975   2.035  0.9387  0.0603  0.2137
   88GLOH   H06 9409   4.382   2.912   2.005  0.9830 -0.0350  0.2877
   88GLOH   H07 9410   4.494   2.944   2.136  1.2777  2.2111  0.8080
   88GLOH    O3 9411   4.573   2.970   1.940 -0.0444 -0.5223  0.3415
   88GLOH   H01 9412   4.536   3.032   1.875  2.8496 -1.2421 -2.0647
   89GLOH   H03 9413   1.307   4.069   1.022  0.4959 -0.8135  0.8550
   89GLOH    O1 9414   1.250   4.114   1.087  0.1832  0.3964 -0.2190
   89GLOH    C1 9415   1.303   4.103   1.227  0.6229  0.0192  0.0991
   89GLOH   H02 9416   1.289   3.996   1.245  2.1587 -0.0308  1.0404
   89GLOH   H08 9417   1.254   4.158   1.307 -1.3968 -0.0790 -1.0183
   89GLOH    C2 9418   1.455   4.129   1.222  0.4802 -0.1978 -0.0433
   89GLOH   H04 9419   1.476   4.226   1.174 -0.2987  0.3704  0.7607
   89GLOH    O2 9420   1.504   4.139   1.357  0.6656 -0.1995 -0.0035
   89GLOH   H05 9421   1.478   4.224   1.396  1.4078 -1.1170  2.6086
   89GLOH    C3 9422   1.525   4.014   1.149  0.0161  0.1347  0.0358
   89GLOH   H06 9423   1.502   3.920   1.200  1.4679  1.1090  2.5601
   89GLOH   H07 9424   1.632   4.036   1.148  0.1300 -0.3760  1.1004
   89GLOH    O3 9425   1.474   3.997   1.013 -0.5223 -0.3869  0.6522
   89GLOH   H01 9426   1.500   4.071   0.955 -2.4092 -0.1525  0.0764
   90GLOH   H03 9427   3.013   4.831   2.381 -0.6562 -0.3173 -0.3857
   90GLOH    O1 9428   3.047   4.868   2.297  0.4260 -0.7803 -0.1647
   90GLOH    C1 9429   3.115   4.995   2.325 -0.4867  0.0054 -0.9857
   90GLOH   H02 9430   3.136   5.041   2.229  2.4711 -0.3534 -0.5504
   90GLOH   H08 9431   3.207   4.979   2.380 -0.5189 -1.2511 -1.2819
   90GLOH    C2 9432   3.016   5.091   2.390  0.3821 -0.2623 -0.4518
   90GLOH   H04 9433   2.977   5.041   2.480  0.7145 -1.6225 -1.0364
   90GLOH    O2 9434   3.087   5.214   2.419 -0.1488 -0.2926 -0.0657
   90GLOH   H05 9435   3.170   5.196   2.467  0.5904  0.3211 -1.1033
   90GLOH    C3 9436   2.895   5.123   2.298  0.2217 -0.0162 -0.0131
   90GLOH   H06 9437   2.852   5.036   2.250  0.8595 -0.1662 -0.3208
   90GLOH   H07 9438   2.939   5.188   2.222  1.1255  0.2254  0.7075
   90GLOH    O3 9439   2.790   5.189   2.370  0.2572 -0.1219 -0.1361
   90GLOH   H01 9440   2.813   5.283   2.385  1.2029 -0.1244 -1.4252
   91GLOH   H03 9441   3.625   0.081   0.793  0.6013 -0.7895 -1.9643
   91GLOH    O1 9442   3.538   0.056   0.757 -0.5681  0.8036 -0.3751
   91GLOH    C1 9443   3.549   0.049   0.611 -0.2970 -0.0574  0.0118
   91GLOH   H02 9444   3.585   0.147   0.578 -2.3915  0.4751 -0.7262
   91GLOH   H08 9445   3.451   0.026   0.569 -0.3578 -0.3935  0.3369
   91GLOH    C2 9446   3.658  -0.053   0.551  1.0028 -0.0762  0.6524
   91GLOH   H04 9447   3.645  -0.150   0.602  1.6890 -0.0857  0.8068
   91GLOH    O2 9448   3.657  -0.069   0.407  0.7261 -0.0051 -0.1373
   91GLOH   H05 9449   3.751  -0.059   0.387  0.5949  0.2356 -0.6423
   91GLOH    C3 9450   3.797  -0.004   0.595  0.0868 -0.4873 -0.4708
   91GLOH   H06 9451   3.809   0.093   0.546  1.6492 -0.2790  0.2748
   91GLOH   H07 9452   3.885  -0.066   0.579 -1.1781 -2.6624  0.8265
   91GLOH    O3 9453   3.787   0.006   0.736  0.1467 -0.4060 -0.1651
   91GLOH   H01 9454   3.768  -0.075   0.785  0.4873 -0.3002  0.1427
   92GLOH   H03 9455   3.514   4.522   0.684 -0.9437  0.3405  0.9756
   92GLOH    O1 9456   3.558   4.605   0.711  0.0686  0.1084  0.0798
   92GLOH    C1 9457   3.487   4.634   0.833 -0.3562  0.9859 -0.3978
   92GLOH   H02 9458   3.556   4.684   0.900 -0.1736  0.2250 -0.0098
   92GLOH   H08 9459   3.464   4.537   0.876  1.0330  1.3836  1.3218
   92GLOH    C2 9460   3.368   4.726   0.815  0.4751 -0.1771  0.5871
   92GLOH   H04 9461   3.357   4.762   0.918 -1.9122 -1.2795  0.7433
   92GLOH    O2 9462   3.395   4.845   0.735  0.1734 -0.3751  0.1122
   92GLOH   H05 9463   3.460   4.845   0.663 -0.0899  0.2843 -0.1315
   92GLOH    C3 9464   3.245   4.651   0.771  0.4252 -0.2928 -0.2325
   92GLOH   H06 9465   3.264   4.594   0.681  0.6625  0.0565 -0.4048
   92GLOH   H07 9466   3.173   4.729   0.745  0.9660  0.3072  0.0412
   92GLOH    O3 9467   3.183   4.569   0.873  0.3390  0.2174 -0.7076
   92GLOH   H01 9468   3.111   4.620   0.914 -0.6088 -1.2047 -0.5796
   93GLOH   H03 9469   2.997   7.109   2.545 -0.2574 -0.0222 -1.4505
   93GLOH    O1 9470   3.091   7.107   2.523 -0.0040 -0.2310 -0.3945
   93GLOH    C1 9471   3.111   7.186   2.401 -0.0689  0.1385  0.9138
   93GLOH   H02 9472   3.209   7.170   2.357 -0.6117  0.6546 -0.4955
   93GLOH   H08 9473   3.101   7.291   2.429  1.8766  0.6809 -0.3616
   93GLOH    C2 9474   3.003   7.156   2.293  0.3727 -0.3297 -0.2082
   93GLOH   H04 9475   2.905   7.168   2.341  1.7815  1.9517  2.2651
   93GLOH    O2 9476   3.016   7.261   2.190 -0.1653  0.0932 -0.5389
   93GLOH   H05 9477   2.944   7.251   2.125 -0.6737  2.4179 -0.3764
   93GLOH    C3 9478   3.021   7.016   2.232 -0.2944  0.0208 -0.2013
   93GLOH   H06 9479   3.033   6.946   2.315 -1.6056  1.3701  1.1759
   93GLOH   H07 9480   3.112   7.008   2.173  0.5620 -3.0581  1.4561
   93GLOH    O3 9481   2.910   6.988   2.144 -0.2633 -0.0478  0.0649
   93GLOH   H01 9482   2.890   7.065   2.088 -0.0857 -0.5557 -0.7060
   94GLOH   H03 9483   2.771   9.118   0.111  0.4338  0.5661 -0.1021
   94GLOH    O1 9484   2.792   9.143   0.203 -0.1509  0.4322  0.0695
   94GLOH    C1 9485   2.756   9.050   0.305  0.7378 -0.2600 -0.1323
   94GLOH   H02 9486   2.796   9.087   0.400  0.6474  0.4076 -0.3457
   94GLOH   H08 9487   2.785   8.947   0.286 -3.1851 -1.4470 -0.1392
   94GLOH    C2 9488   2.608   9.043   0.319 -0.5335 -0.7440 -0.4978
   94GLOH   H04 9489   2.575   9.147   0.335  1.0399 -0.3477  0.2289
   94GLOH    O2 9490   2.545   8.988   0.198  0.5330  0.2823  0.3898
   94GLOH   H05 9491   2.528   9.062   0.138 -0.2318 -2.7726 -3.3737
   94GLOH    C3 9492   2.562   8.959   0.438  0.0851 -0.0567 -0.5184
   94GLOH   H06 9493   2.595   8.859   0.413  0.9318  0.1812 -0.3893
   94GLOH   H07 9494   2.453   8.961   0.447  0.1695 -1.6139  1.2786
   94GLOH    O3 9495   2.608   9.009   0.563 -0.1633  1.0763 -0.4910
   94GLOH   H01 9496   2.553   8.953   0.621  0.0988  0.2337 -1.0548
   95GLOH   H03 9497   9.941   3.368   1.328 -1.2194  0.1735 -1.0249
   95GLOH    O1 9498  10.016   3.426   1.306  0.2513 -0.7782  1.2242
   95GLOH    C1 9499  10.137   3.367   1.321  0.3305 -0.5978  0.2604
   95GLOH   H02 9500  10.134   3.328   1.422 -1.5232 -1.9963 -0.3121
   95GLOH   H08 9501  10.217   3.439   1.299  0.7516 -1.0438  0.3112
   95GLOH    C2 9502  10.164   3.246   1.228  0.1527 -0.5245  0.3713
   95GLOH   H04 9503  10.160   3.286   1.125  0.5888 -2.0333 -0.2491
   95GLOH    O2 9504  10.297   3.216   1.261 -0.1322  0.2519 -0.0901
   95GLOH   H05 9505  10.300   3.212   1.358 -0.4027  3.0384  0.0700
   95GLOH    C3 9506  10.072   3.128   1.252 -0.0751 -0.6360 -0.5332
   95GLOH   H06 9507  10.088   3.047   1.181 -3.1420 -1.1233 -0.7020
   95GLOH   H07 9508   9.972   3.169   1.243  0.1148 -0.0048  0.1871
   95GLOH    O3 9509  10.081   3.074   1.383  0.4376  0.3033  0.2395
   95GLOH   H01 9510  10.039   3.126   1.454 -0.6817 -0.2795  0.0095
   96GLOH   H03 9511   2.308   8.945   1.442  0.8539 -2.1685 -0.0676
   96GLOH    O1 9512   2.222   8.913   1.475  0.1567  0.0438  0.3790
   96GLOH    C1 9513   2.148   8.844   1.374 -1.1582 -0.3178 -0.4027
   96GLOH   H02 9514   2.217   8.786   1.312 -1.3948 -0.3068 -0.6802
   96GLOH   H08 9515   2.100   8.910   1.302 -1.3717  0.5197  0.5085
   96GLOH    C2 9516   2.049   8.741   1.431  0.5769 -0.3526 -0.0529
   96GLOH   H04 9517   1.972   8.799   1.484  1.4069  0.5506  0.1854
   96GLOH    O2 9518   1.980   8.663   1.334  0.3092  0.0054  0.3141
   96GLOH   H05 9519   2.052   8.623   1.282 -2.7076 -0.9076 -3.4407
   96GLOH    C3 9520   2.112   8.648   1.532  0.8493 -0.0381  0.8922
   96GLOH   H06 9521   2.042   8.565   1.548  2.0248 -1.4004 -0.7291
   96GLOH   H07 9522   2.129   8.692   1.629  1.7866  0.0080  0.7131
   96GLOH    O3 9523   2.230   8.593   1.493 -0.6180 -0.0554 -0.2342
   96GLOH   H01 9524   2.221   8.499   1.469  0.6152 -0.3386  0.3794
   97GLOH   H03 9525   4.366   3.666   0.085  0.2100  0.5424  0.5397
   97GLOH    O1 9526   4.426   3.642   0.012  0.1225  0.1128  0.6085
   97GLOH    C1 9527   4.554   3.615   0.080  1.1130  0.0783  0.0827
   97GLOH   H02 9528   4.540   3.540   0.157  1.6665 -0.4234 -0.3012
   97GLOH   H08 9529   4.590   3.706   0.130 -0.0261  1.0753 -0.8819
   97GLOH    C2 9530   4.657   3.556  -0.017  0.7482 -0.1636  0.3092
   97GLOH   H04 9531   4.680   3.619  -0.104  2.3077  0.2261  0.9871
   97GLOH    O2 9532   4.768   3.530   0.074  0.2484  0.5898  0.1120
   97GLOH   H05 9533   4.846   3.502   0.023  0.1423 -0.6189  0.5843
   97GLOH    C3 9534   4.600   3.417  -0.055  0.1163  0.0163  1.5112
   97GLOH   H06 9535   4.518   3.433  -0.125  0.0882 -0.1070  1.5154
   97GLOH   H07 9536   4.562   3.364   0.032 -0.9690 -1.9262 -0.1057
   97GLOH    O3 9537   4.694   3.326  -0.112 -0.3616  0.0335  0.1102
   97GLOH   H01 9538   4.694   3.349  -0.207 -0.0811 -0.9723 -0.1476
   98GLOH   H03 9539   1.405   8.437   2.130  0.0210  0.8212 -0.3952
   98GLOH    O1 9540   1.444   8.470   2.213  0.0111 -0.0794 -0.0315
   98GLOH    C1 9541   1.467   8.614   2.205 -1.0528 -0.4118  0.4516
   98GLOH   H02 9542   1.531   8.645   2.288 -0.4276  0.5678 -0.3858
   98GLOH   H08 9543   1.373   8.668   2.195 -0.8366 -0.5362 -2.8588
   98GLOH    C2 9544   1.547   8.655   2.080  0.3736  0.6630 -0.3060
   98GLOH   H04 9545   1.643   8.604   2.066  0.3889  0.9339 -1.2102
   98GLOH    O2 9546   1.463   8.623   1.964 -0.1107 -0.3621 -0.0173
   98GLOH   H05 9547   1.368   8.640   1.978  0.0853  0.6875  0.1020
   98GLOH    C3 9548   1.582   8.802   2.090 -0.4115 -0.2866  0.6553
   98GLOH   H06 9549   1.493   8.864   2.082 -0.7972 -1.1330 -2.3332
   98GLOH   H07 9550   1.655   8.824   2.012 -1.1263 -0.5814 -0.1098
   98GLOH    O3 9551   1.640   8.829   2.213 -0.4036  1.3214  0.5043
   98GLOH   H01 9552   1.588   8.904   2.248  1.0987  1.1729  3.2810
   99GLOH   H03 9553   7.734   1.736   0.357 -0.0589 -1.3681  0.7701
   99GLOH    O1 9554   7.649   1.689   0.367 -1.0146  0.2669  0.3443
   99GLOH    C1 9555   7.576   1.768   0.460  0.0836 -0.2015  0.0178
   99GLOH   H02 9556   7.468   1.766   0.443 -0.4739  3.0206  2.5834
   99GLOH   H08 9557   7.591   1.875   0.441 -1.2722  0.0266  0.1626
   99GLOH    C2 9558   7.599   1.716   0.605  0.8880 -0.3631  0.4487
   99GLOH   H04 9559   7.707   1.708   0.621  0.7598 -2.7401  0.3238
   99GLOH    O2 9560   7.544   1.801   0.711 -0.3524  0.2679 -0.3780
   99GLOH   H05 9561   7.601   1.879   0.716  1.1075 -0.9139  1.6553
   99GLOH    C3 9562   7.534   1.576   0.614  0.0836  0.1489 -0.1669
   99GLOH   H06 9563   7.430   1.585   0.582 -0.3325 -0.1193  1.0973
   99GLOH   H07 9564   7.534   1.538   0.716  0.0187 -1.2384 -0.6643
   99GLOH    O3 9565   7.604   1.484   0.531  0.5675 -0.1673 -0.1401
   99GLOH   H01 9566   7.574   1.511   0.442 -1.9600  0.6886  0.9208
  100GLOH   H03 9567   1.558   8.681   1.340 -3.0955 -0.2422  0.7391
  100GLOH    O1 9568   1.595   8.733   1.414 -0.6385 -0.3630 -0.3603
  100GLOH    C1 9569   1.607   8.644   1.525  0.0810 -0.1340  0.3595
  100GLOH   H02 9570   1.700   8.648   1.581 -0.6591  0.5424  1.5725
  100GLOH   H08 9571   1.612   8.542   1.487  0.4933  0.1256 -0.2852
  100GLOH    C2 9572   1.492   8.669   1.630  0.0078  0.0179  0.0895
  100GLOH   H04 9573   1.395   8.697   1.585 -0.3333  0.5659  1.1462
  100GLOH    O2 9574   1.487   8.545   1.708  0.3509  0.0242  0.2793
  100GLOH   H05 9575   1.472   8.571   1.800  0.5187 -0.7719  0.5338
  100GLOH    C3 9576   1.536   8.796   1.712 -0.5196  0.0579  0.1101
  100GLOH   H06 9577   1.633   8.778   1.759 -0.2894  0.5949 -0.1523
  100GLOH   H07 9578   1.464   8.817   1.791 -0.3391  2.5285 -0.3189
  100GLOH    O3 9579   1.549   8.908   1.624  0.2659  0.0263 -0.0372
  100GLOH   H01 9580   1.559   8.869   1.536 -2.2535 -2.8011  0.8229
  101GLOH   H03 9581   1.774   5.666   0.099 -0.0847  0.5563  1.5576
  101GLOH    O1 9582   1.869   5.657   0.120  0.0496 -0.4445  0.5424
  101GLOH    C1 9583   1.924   5.765   0.196  0.3918  0.2743  0.4561
  101GLOH   H02 9584   1.846   5.805   0.260  0.9028  0.7247  0.7971
  101GLOH   H08 9585   1.953   5.845   0.128  1.2534 -0.1712  0.2934
  101GLOH    C2 9586   2.043   5.721   0.277  0.1596 -0.2151  0.3932
  101GLOH   H04 9587   2.077   5.803   0.341  2.0349 -1.0365  0.4890
  101GLOH    O2 9588   2.011   5.609   0.358 -0.4145  0.1682 -0.4798
  101GLOH   H05 9589   1.942   5.556   0.314 -0.3708 -0.3438  0.0578
  101GLOH    C3 9590   2.157   5.695   0.183  0.9005  0.4352  0.0839
  101GLOH   H06 9591   2.126   5.637   0.096 -2.3721  2.1464  0.0148
  101GLOH   H07 9592   2.229   5.644   0.246  0.1598  1.5815  1.9059
  101GLOH    O3 9593   2.217   5.823   0.144  0.7214  0.4316 -0.2960
  101GLOH   H01 9594   2.268   5.816   0.061 -0.8684  1.1528 -1.3511
  102GLOH   H03 9595   3.813   9.380   2.636  0.0123  0.6038  0.1565
  102GLOH    O1 9596   3.883   9.414   2.695  0.3393 -0.3925  0.3503
  102GLOH    C1 9597   3.901   9.318   2.804 -0.0710  0.0278 -0.5337
  102GLOH   H02 9598   4.003   9.307   2.840 -0.5365  1.6366  1.3423
  102GLOH   H08 9599   3.878   9.215   2.774 -1.8754  0.0515  0.7093
  102GLOH    C2 9600   3.818   9.366   2.922 -0.5281 -0.0762 -0.3197
  102GLOH   H04 9601   3.711   9.362   2.901 -0.6943 -0.3872  0.5548
  102GLOH    O2 9602   3.824   9.276   3.031  0.0982 -0.7683  0.2245
  102GLOH   H05 9603   3.800   9.185   3.008  2.4227 -1.6316  1.1127
  102GLOH    C3 9604   3.871   9.507   2.959  0.2612  0.4715 -0.0824
  102GLOH   H06 9605   3.979   9.514   2.965  0.1308  0.1103  4.5104
  102GLOH   H07 9606   3.839   9.541   3.057 -1.5782  1.3676 -0.9482
  102GLOH    O3 9607   3.819   9.599   2.858  0.4222 -0.0591  0.0483
  102GLOH   H01 9608   3.837   9.548   2.777 -0.7052 -1.7959  0.8694
  103GLOH   H03 9609   2.687   1.982   0.686 -0.2525 -1.6022  0.8813
  103GLOH    O1 9610   2.644   2.007   0.769 -0.3745  1.1933  0.0555
  103GLOH    C1 9611   2.705   1.925   0.874  0.5535 -0.8745  0.2623
  103GLOH   H02 9612   2.811   1.901   0.867  0.8798  0.6891 -0.2767
  103GLOH   H08 9613   2.654   1.830   0.891 -1.9293  0.7378  2.2504
  103GLOH    C2 9614   2.686   2.000   1.011 -0.2253 -0.1465  0.5106
  103GLOH   H04 9615   2.585   1.973   1.047 -0.1236  0.2136  1.0675
  103GLOH    O2 9616   2.778   1.940   1.111 -0.9400  0.1976  0.1760
  103GLOH   H05 9617   2.786   2.006   1.181  1.8700 -0.1839  0.2875
  103GLOH    C3 9618   2.708   2.151   0.997  0.0670  0.0247  0.0284
  103GLOH   H06 9619   2.805   2.160   0.948  0.8089 -0.2449  1.4207
  103GLOH   H07 9620   2.713   2.201   1.093 -0.6307  1.5745 -0.7297
  103GLOH    O3 9621   2.608   2.212   0.926  0.6341  0.8923  0.3015
  103GLOH   H01 9622   2.582   2.155   0.852 -2.2391  0.3522  1.6616
  104GLOH   H03 9623   2.457   0.317   1.882  0.3721 -4.2216 -0.7243
  104GLOH    O1 9624   2.374   0.317   1.933  0.4845 -0.4511 -0.3621
  104GLOH    C1 9625   2.288   0.205   1.898 -0.2390  0.0105 -0.1171
  104GLOH   H02 9626   2.286   0.140   1.986  2.1892  2.3649  1.7418
  104GLOH   H08 9627   2.340   0.146   1.823  0.7506  0.3186  0.3142
  104GLOH    C2 9628   2.143   0.239   1.857  0.6633  0.2697 -0.4936
  104GLOH   H04 9629   2.098   0.140   1.842 -1.0273  0.9921 -0.3605
  104GLOH    O2 9630   2.060   0.316   1.946 -0.0918  0.4402  0.3435
  104GLOH   H05 9631   2.085   0.410   1.944 -0.0277  0.4169 -0.5572
  104GLOH    C3 9632   2.149   0.303   1.724  0.7757  0.2836  0.6496
  104GLOH   H06 9633   2.223   0.380   1.745 -0.7180  2.1749 -0.9165
  104GLOH   H07 9634   2.057   0.348   1.688  1.3066  0.5415 -0.4105
  104GLOH    O3 9635   2.196   0.222   1.615  0.0982  0.9547  0.0977
  104GLOH   H01 9636   2.175   0.273   1.535  0.0309  1.3372  0.3588
  105GLOH   H03 9637   3.615   7.673   1.552  1.6026 -0.5398  1.1361
  105GLOH    O1 9638   3.626   7.760   1.593 -0.2009  0.6717 -0.8524
  105GLOH    C1 9639   3.508   7.778   1.671  0.5571 -0.0129  0.2294
  105GLOH   H02 9640   3.515   7.698   1.745 -0.3798 -1.0931 -0.8233
  105GLOH   H08 9641   3.416   7.770   1.612  0.2756 -0.0498  0.6757
  105GLOH    C2 9642   3.511   7.905   1.763  0.4447  0.0286  0.3989
  105GLOH   H04 9643   3.488   7.983   1.688 -2.5940 -1.1744 -0.0182
  105GLOH    O2 9644   3.418   7.916   1.866  0.2097  0.3688 -1.0177
  105GLOH   H05 9645   3.454   7.885   1.951 -2.8454 -0.6600 -0.0199
  105GLOH    C3 9646   3.651   7.924   1.816  0.2076  0.1281  0.2868
  105GLOH   H06 9647   3.672   7.836   1.875  1.5853  0.5204  0.4109
  105GLOH   H07 9648   3.647   8.010   1.883 -0.4517  0.9249 -0.7579
  105GLOH    O3 9649   3.740   7.946   1.709 -0.1236 -0.3025 -0.1035
  105GLOH   H01 9650   3.736   7.863   1.658  1.3115 -1.9553  2.3776
  106GLOH   H03 9651   1.783   4.920   0.943 -1.4158  0.7579 -0.3624
  106GLOH    O1 9652   1.826   4.996   0.901  0.4190 -0.2096 -0.2601
  106GLOH    C1 9653   1.730   5.056   0.813  0.3161  0.7554  0.2869
  106GLOH   H02 9654   1.635   5.004   0.829  1.5647 -1.8621 -0.4709
  106GLOH   H08 9655   1.767   5.030   0.714 -1.5153  0.4141 -0.3432
  106GLOH    C2 9656   1.720   5.206   0.845 -0.2194 -0.1706  0.7965
  106GLOH   H04 9657   1.637   5.254   0.791 -2.1010 -0.8624  2.9947
  106GLOH    O2 9658   1.691   5.228   0.986  0.1528 -0.0619 -0.0526
  106GLOH   H05 9659   1.671   5.322   0.999 -2.4950 -0.4959 -0.7065
  106GLOH    C3 9660   1.854   5.261   0.805 -0.1994 -0.4387 -0.1007
  106GLOH   H06 9661   1.889   5.200   0.722  2.7846  1.8964 -0.6920
  106GLOH   H07 9662   1.930   5.256   0.883 -0.9949  0.3363  0.7369
  106GLOH    O3 9663   1.848   5.396   0.755  0.1149 -0.3600 -0.6253
  106GLOH   H01 9664   1.860   5.460   0.827 -0.3024  0.3387 -1.1670
  107GLOH   H03 9665   8.373   1.694   2.105  1.4634 -1.9288  0.3191
  107GLOH    O1 9666   8.296   1.677   2.163  0.5415  0.1737 -0.2447
  107GLOH    C1 9667   8.175   1.652   2.089 -0.4851 -0.2659  0.1040
  107GLOH   H02 9668   8.169   1.552   2.046 -0.2329 -0.5299  0.6717
  107GLOH   H08 9669   8.173   1.730   2.013 -0.9772 -0.9757 -0.6146
  107GLOH    C2 9670   8.058   1.665   2.190  0.0829  0.1951  0.2631
  107GLOH   H04 9671   8.062   1.766   2.232  0.3877  0.1297  0.3918
  107GLOH    O2 9672   7.927   1.644   2.127 -0.0563 -0.2578  0.0643
  107GLOH   H05 9673   7.910   1.721   2.070 -3.2374 -1.6336 -0.9603
  107GLOH    C3 9674   8.079   1.563   2.302  0.4114  0.1421 -0.0695
  107GLOH   H06 9675   8.077   1.467   2.250  1.9017  0.3613 -0.5427
  107GLOH   H07 9676   7.993   1.577   2.368  1.4780 -3.1040  2.1211
  107GLOH    O3 9677   8.197   1.580   2.377  0.5584  0.7362 -0.0879
  107GLOH   H01 9678   8.274   1.600   2.320 -0.9797  0.6517 -2.2154
  108GLOH   H03 9679   2.211   9.278   0.499  1.6908  0.8501  1.0306
  108GLOH    O1 9680   2.232   9.265   0.405 -0.3044  0.4212  0.6209
  108GLOH    C1 9681   2.357   9.339   0.387  0.4862 -1.0461 -0.2948
  108GLOH   H02 9682   2.397   9.322   0.287  1.8573  1.0597 -0.1332
  108GLOH   H08 9683   2.425   9.308   0.467 -1.0977  1.2866  2.0444
  108GLOH    C2 9684   2.333   9.496   0.383  0.1663  0.3704  0.7722
  108GLOH   H04 9685   2.432   9.541   0.396 -0.1488  1.2168  0.2930
  108GLOH    O2 9686   2.271   9.543   0.267  0.9262 -0.1699  0.1507
  108GLOH   H05 9687   2.320   9.586   0.195 -0.8814  2.9315  0.6886
  108GLOH    C3 9688   2.243   9.551   0.493 -0.2035  0.0627 -0.0535
  108GLOH   H06 9689   2.140   9.529   0.467  0.3624 -0.5368 -1.8220
  108GLOH   H07 9690   2.244   9.660   0.488  0.1820  0.0955  0.7000
  108GLOH    O3 9691   2.271   9.504   0.629 -0.3685 -0.1266 -0.4600
  108GLOH   H01 9692   2.237   9.413   0.640 -0.1334 -0.2529 -0.7998
  109GLOH   H03 9693   4.137   3.153   1.592  0.1468  2.7092  2.3266
  109GLOH    O1 9694   4.234   3.157   1.583  0.0603  0.2938 -0.3539
  109GLOH    C1 9695   4.271   3.224   1.460  0.2477 -1.0052 -0.6094
  109GLOH   H02 9696   4.365   3.277   1.472 -1.1130  1.9232 -2.3863
  109GLOH   H08 9697   4.189   3.286   1.423 -2.2282 -2.1071  2.7479
  109GLOH    C2 9698   4.301   3.108   1.360  0.4986 -0.0531 -0.9747
  109GLOH   H04 9699   4.354   3.031   1.418  1.8397  1.6338  0.0861
  109GLOH    O2 9700   4.179   3.058   1.311 -0.1319 -0.3293 -0.1840
  109GLOH   H05 9701   4.135   2.995   1.370 -2.8587  0.8811 -0.8586
  109GLOH    C3 9702   4.390   3.151   1.243  0.3526 -0.3072  0.6205
  109GLOH   H06 9703   4.338   3.231   1.190 -0.6761 -1.3026  0.1016
  109GLOH   H07 9704   4.397   3.080   1.161 -0.7970  2.5066 -2.0282
  109GLOH    O3 9705   4.521   3.196   1.279 -0.4494  0.0497  0.7156
  109GLOH   H01 9706   4.528   3.270   1.217  0.4713 -1.1981 -0.6986
  110GLOH   H03 9707   7.560   2.258   1.225  0.2855 -0.3750  1.0176
  110GLOH    O1 9708   7.607   2.320   1.283  0.1724  0.2032  0.5011
  110GLOH    C1 9709   7.607   2.273   1.416  0.6334  0.2929 -0.5228
  110GLOH   H02 9710   7.552   2.179   1.431  0.1031  1.1191  3.1640
  110GLOH   H08 9711   7.547   2.340   1.477 -0.9175 -1.4073 -0.1204
  110GLOH    C2 9712   7.746   2.250   1.475  0.0604  0.3013  0.1153
  110GLOH   H04 9713   7.809   2.340   1.466 -0.5806  0.7308 -0.2179
  110GLOH    O2 9714   7.753   2.210   1.613 -0.2651 -0.0894 -0.0038
  110GLOH   H05 9715   7.701   2.132   1.637 -0.9554 -0.6109 -2.9787
  110GLOH    C3 9716   7.815   2.136   1.394  0.7439  0.4251 -0.2555
  110GLOH   H06 9717   7.743   2.054   1.388  0.1113  1.0655 -1.7168
  110GLOH   H07 9718   7.900   2.097   1.450  0.0642 -0.6991  0.0183
  110GLOH    O3 9719   7.840   2.181   1.258 -0.1416 -0.7705  0.2145
  110GLOH   H01 9720   7.755   2.211   1.222  0.3012  0.3398  0.0782
  111GLOH   H03 9721   0.309   1.673   1.885 -0.5355  0.6274 -4.9252
  111GLOH    O1 9722   0.213   1.655   1.879 -0.7756 -0.5948  0.3311
  111GLOH    C1 9723   0.175   1.596   2.005  0.3081  0.3632  0.2543
  111GLOH   H02 9724   0.205   1.670   2.079  1.6583  1.1062 -1.0280
  111GLOH   H08 9725   0.242   1.514   2.030  2.3311  1.6328 -0.9111
  111GLOH    C2 9726   0.033   1.537   2.014 -0.3385  0.5880 -0.2853
  111GLOH   H04 9727   0.025   1.439   1.965 -1.8349  0.7946 -0.4794
  111GLOH    O2 9728  -0.000   1.505   2.150  0.6392 -0.0493  0.4484
  111GLOH   H05 9729  -0.082   1.554   2.167 -0.4226 -2.0640  1.3939
  111GLOH    C3 9730  -0.062   1.637   1.952 -0.4429 -0.1122  0.2293
  111GLOH   H06 9731  -0.157   1.592   1.924  0.2707 -1.5063  0.0121
  111GLOH   H07 9732  -0.021   1.658   1.854  0.6545  0.5734  0.8225
  111GLOH    O3 9733  -0.082   1.761   2.024 -0.5406 -0.2076  0.0281
  111GLOH   H01 9734  -0.147   1.738   2.093 -0.5126  4.4356  1.8240
  112GLOH   H03 9735   8.734   2.414   1.269  0.1846 -0.8192 -1.7250
  112GLOH    O1 9736   8.796   2.479   1.232  0.3411 -0.1503 -0.2950
  112GLOH    C1 9737   8.716   2.572   1.160 -0.4172  0.5549 -0.5470
  112GLOH   H02 9738   8.678   2.519   1.072  0.8328 -2.4110  0.6530
  112GLOH   H08 9739   8.766   2.664   1.130  1.5816 -0.3290 -0.0167
  112GLOH    C2 9740   8.591   2.619   1.242 -0.0339 -0.2702 -0.5322
  112GLOH   H04 9741   8.613   2.647   1.346 -0.5841 -1.5772 -0.0600
  112GLOH    O2 9742   8.535   2.732   1.175 -0.0659 -0.4547  0.0682
  112GLOH   H05 9743   8.578   2.812   1.209 -1.1393 -0.2184  0.8625
  112GLOH    C3 9744   8.491   2.501   1.242  0.4517  0.0218 -0.4338
  112GLOH   H06 9745   8.478   2.484   1.135  0.2527 -1.4243 -0.1955
  112GLOH   H07 9746   8.395   2.528   1.288  0.9583 -1.0472  1.2910
  112GLOH    O3 9747   8.545   2.383   1.306  0.6790 -0.3871 -0.2044
  112GLOH   H01 9748   8.475   2.323   1.338  0.2441  0.1759 -0.0727
  113GLOH   H03 9749   0.577   3.995   2.313 -0.8491  0.0273 -0.6339
  113GLOH    O1 9750   0.622   3.978   2.228  0.0477 -0.8891  0.0095
  113GLOH    C1 9751   0.621   3.836   2.200 -0.2975  0.0850  0.1155
  113GLOH   H02 9752   0.643   3.818   2.095 -3.4801  3.2253 -1.2010
  113GLOH   H08 9753   0.518   3.801   2.206  0.6024 -2.3822  2.0993
  113GLOH    C2 9754   0.714   3.754   2.293 -0.0823  0.5841 -0.7587
  113GLOH   H04 9755   0.680   3.752   2.398 -1.0527 -0.8126 -1.0781
  113GLOH    O2 9756   0.717   3.616   2.245 -0.2185 -1.1090 -0.2119
  113GLOH   H05 9757   0.745   3.556   2.317  0.1626 -0.5418  0.1159
  113GLOH    C3 9758   0.858   3.812   2.301 -0.2745 -0.9552  0.5682
  113GLOH   H06 9759   0.910   3.814   2.206 -2.3318  0.6508 -0.5794
  113GLOH   H07 9760   0.910   3.737   2.361  0.1486 -1.2808 -0.1993
  113GLOH    O3 9761   0.852   3.944   2.362  0.7463 -0.2050  0.4520
  113GLOH   H01 9762   0.790   3.997   2.308  1.4148  1.0078  0.8497
  114GLOH   H03 9763   8.447   3.006   0.680  1.8511  0.8768  0.5874
  114GLOH    O1 9764   8.480   2.930   0.629 -0.3651  0.3464 -0.0910
  114GLOH    C1 9765   8.474   2.828   0.732 -0.1653  0.0224 -0.4957
  114GLOH   H02 9766   8.382   2.836   0.789  0.4243 -0.4854  0.5440
  114GLOH   H08 9767   8.546   2.847   0.811 -0.1372 -0.0484 -0.5043
  114GLOH    C2 9768   8.495   2.681   0.675  0.0326 -0.2176 -0.0668
  114GLOH   H04 9769   8.582   2.669   0.610  0.7052  3.2620  0.1088
  114GLOH    O2 9770   8.511   2.605   0.795 -0.2619  0.3439 -0.0194
  114GLOH   H05 9771   8.573   2.531   0.799 -0.9166 -0.2524 -0.8970
  114GLOH    C3 9772   8.382   2.643   0.580 -0.9167 -0.3777 -0.5291
  114GLOH   H06 9773   8.385   2.712   0.496 -0.5962 -0.5712 -0.6800
  114GLOH   H07 9774   8.282   2.649   0.623 -0.5414 -0.1956  0.3277
  114GLOH    O3 9775   8.398   2.518   0.516  0.8659  0.5760  0.0333
  114GLOH   H01 9776   8.386   2.527   0.419 -1.6387  1.9659  0.4293
  115GLOH   H03 9777   9.420   1.234   1.670  0.3600  0.2996  0.3809
  115GLOH    O1 9778   9.431   1.329   1.647  0.0369  0.2513  0.0223
  115GLOH    C1 9779   9.306   1.371   1.590 -0.2415  0.6424 -0.1317
  115GLOH   H02 9780   9.299   1.479   1.580 -1.5717  0.4804 -1.0153
  115GLOH   H08 9781   9.229   1.334   1.658 -2.3398  0.1437 -2.6891
  115GLOH    C2 9782   9.288   1.310   1.451  0.0068  0.4027  0.3440
  115GLOH   H04 9783   9.376   1.341   1.392 -1.5854  2.9149 -0.8328
  115GLOH    O2 9784   9.271   1.166   1.454  0.0686 -0.3070 -0.0491
  115GLOH   H05 9785   9.355   1.118   1.459  0.7916  1.0212  0.7288
  115GLOH    C3 9786   9.169   1.360   1.361 -0.4445 -0.4164 -0.2902
  115GLOH   H06 9787   9.193   1.331   1.258  0.4167  1.9432 -0.7927
  115GLOH   H07 9788   9.168   1.469   1.366 -1.4414 -0.3769 -1.1540
  115GLOH    O3 9789   9.047   1.315   1.427  0.1243 -1.2671  0.3515
  115GLOH   H01 9790   9.048   1.219   1.444  0.9943 -1.3595 -0.1932
  116GLOH   H03 9791   2.114   6.221   1.364 -2.1059 -1.0466  1.0743
  116GLOH    O1 9792   2.051   6.289   1.335  0.2254  0.3255 -1.0506
  116GLOH    C1 9793   2.015   6.267   1.191  0.3123  0.7304 -0.3330
  116GLOH   H02 9794   1.976   6.359   1.147  1.2690  1.1656 -0.2848
  116GLOH   H08 9795   1.950   6.180   1.181  1.4275 -0.1854  0.3016
  116GLOH    C2 9796   2.138   6.225   1.106  0.3734  0.3561 -0.2274
  116GLOH   H04 9797   2.174   6.130   1.147 -0.7494 -0.6782 -1.6130
  116GLOH    O2 9798   2.102   6.209   0.972  0.4561  0.1565  0.1560
  116GLOH   H05 9799   2.006   6.195   0.968  0.8571 -3.4233  0.5709
  116GLOH    C3 9800   2.244   6.334   1.104  0.8736  0.2794  0.4929
  116GLOH   H06 9801   2.262   6.372   1.205 -0.2713 -2.3529  1.7252
  116GLOH   H07 9802   2.218   6.413   1.033  1.2868 -1.1662 -1.2845
  116GLOH    O3 9803   2.373   6.296   1.059 -0.0866 -0.3543  0.4093
  116GLOH   H01 9804   2.351   6.242   0.981 -1.7611  0.3321  0.3832
  117GLOH   H03 9805   0.802   5.520   0.644 -0.1448 -0.8459 -0.1599
  117GLOH    O1 9806   0.814   5.535   0.740  0.2064  0.4659 -0.4019
  117GLOH    C1 9807   0.901   5.646   0.780 -0.3386 -0.4070  0.1395
  117GLOH   H02 9808   0.844   5.739   0.770 -0.9462 -0.8898 -0.9988
  117GLOH   H08 9809   0.985   5.658   0.712 -0.5172 -2.2660 -0.4250
  117GLOH    C2 9810   0.946   5.641   0.929 -0.5555  0.3799  0.4158
  117GLOH   H04 9811   1.011   5.555   0.948 -0.1228  0.5692 -0.1890
  117GLOH    O2 9812   1.023   5.753   0.960 -0.1952  0.4588  0.0419
  117GLOH   H05 9813   0.966   5.832   0.966 -0.5255  0.0937  1.8696
  117GLOH    C3 9814   0.821   5.631   1.013 -0.6032 -0.2519 -0.2174
  117GLOH   H06 9815   0.845   5.627   1.120 -2.1905  1.3418  0.2111
  117GLOH   H07 9816   0.779   5.535   0.983  0.3591 -0.6312 -0.3889
  117GLOH    O3 9817   0.734   5.744   0.995  0.2259  0.5438  0.0467
  117GLOH   H01 9818   0.650   5.723   1.039  0.0391  0.2612 -0.4367
  118GLOH   H03 9819   4.579   3.461   1.166 -1.4157 -0.7158  0.3562
  118GLOH    O1 9820   4.539   3.544   1.197 -0.3229  0.2237 -0.6710
  118GLOH    C1 9821   4.443   3.581   1.105 -0.1304 -0.0978  0.6129
  118GLOH   H02 9822   4.366   3.643   1.151 -2.3101 -1.0197 -1.6378
  118GLOH   H08 9823   4.392   3.490   1.073 -3.5644  2.0847 -0.4513
  118GLOH    C2 9824   4.504   3.649   0.981 -0.2954 -0.0718 -0.1216
  118GLOH   H04 9825   4.574   3.585   0.925 -1.4301 -1.4982  0.0854
  118GLOH    O2 9826   4.396   3.690   0.896 -0.3792  0.1182  1.1841
  118GLOH   H05 9827   4.315   3.722   0.938 -1.0959  0.9224 -0.7765
  118GLOH    C3 9828   4.597   3.768   1.024  0.0231  0.2135 -0.4276
  118GLOH   H06 9829   4.543   3.834   1.091 -3.0794 -0.5538 -2.0998
  118GLOH   H07 9830   4.627   3.823   0.935 -0.7388 -0.1575 -0.9152
  118GLOH    O3 9831   4.716   3.720   1.091  0.3377 -0.0393 -0.3423
  118GLOH   H01 9832   4.671   3.667   1.160 -1.2404  1.6998  0.0129
  119GLOH   H03 9833   2.301   7.754   2.423  2.8355  2.8804 -2.7960
  119GLOH    O1 9834   2.363   7.743   2.498  0.3717 -0.0917 -1.0930
  119GLOH    C1 9835   2.464   7.841   2.465  0.5577  0.6096  0.6329
  119GLOH   H02 9836   2.405   7.930   2.444 -0.3424  0.6029  3.0332
  119GLOH   H08 9837   2.507   7.812   2.368  0.4849  0.9295  0.5068
  119GLOH    C2 9838   2.562   7.866   2.575  0.3018  0.2054 -0.0451
  119GLOH   H04 9839   2.595   7.777   2.631  2.5542  0.5874 -0.7212
  119GLOH    O2 9840   2.678   7.918   2.517  0.1342  0.3165 -0.2035
  119GLOH   H05 9841   2.658   7.996   2.462  1.9018  0.5532 -0.5438
  119GLOH    C3 9842   2.508   7.960   2.683 -0.4797  0.1964 -0.8031
  119GLOH   H06 9843   2.590   7.997   2.745 -0.8994  0.9422 -0.6873
  119GLOH   H07 9844   2.440   7.902   2.745 -2.0269  2.5241 -0.2539
  119GLOH    O3 9845   2.440   8.075   2.636  0.4514  0.5960 -0.2830
  119GLOH   H01 9846   2.505   8.147   2.627  0.5275  0.6289  0.5000
  120GLOH   H03 9847   3.844   1.394   2.101  0.0973  0.0907  2.3726
  120GLOH    O1 9848   3.752   1.374   2.076  0.7694 -0.4099  0.2272
  120GLOH    C1 9849   3.689   1.316   2.190  1.4164 -0.1846  0.1651
  120GLOH   H02 9850   3.718   1.367   2.282  0.3397 -0.2925  0.5703
  120GLOH   H08 9851   3.721   1.212   2.195 -1.4090 -1.2042 -1.4940
  120GLOH    C2 9852   3.537   1.300   2.167  0.1619 -0.4385 -0.4761
  120GLOH   H04 9853   3.488   1.263   2.258  0.2013  0.2095 -0.1887
  120GLOH    O2 9854   3.465   1.419   2.130 -0.7341 -0.2244  0.2283
  120GLOH   H05 9855   3.372   1.405   2.156 -0.7459  2.8927  2.0803
  120GLOH    C3 9856   3.503   1.190   2.068 -0.6222  0.6982  0.0324
  120GLOH   H06 9857   3.549   1.220   1.974 -0.0392  2.2334  0.7923
  120GLOH   H07 9858   3.395   1.188   2.052 -0.6388 -0.1664  0.2155
  120GLOH    O3 9859   3.553   1.059   2.113  0.5236 -0.4385 -0.2167
  120GLOH   H01 9860   3.524   0.992   2.049 -0.0765 -1.2967  0.9256
  121ACOH    H4 9861   3.936   8.295   2.782  0.3284  0.3481  0.1191
  121ACOH    O2 9862   4.009   8.235   2.761  0.3700  0.4717 -0.0889
  121ACOH    C2 9863   4.105   8.257   2.848 -0.1878 -0.3105 -0.3436
  121ACOH    O1 9864   4.109   8.334   2.940  0.4288 -0.4472  0.2626
  121ACOH    C1 9865   4.212   8.161   2.832 -0.0507  0.5360  0.0175
  121ACOH    H1 9866   4.188   8.084   2.759 -3.2366  1.0327  0.4744
  121ACOH    H2 9867   4.236   8.118   2.929  0.4708  1.5045  0.3315
  121ACOH    H3 9868   4.297   8.220   2.797  0.0737  1.4949  1.8668
  122ACOH    H4 9869   1.980   4.666   0.170 -0.2548  0.9065 -2.0215
  122ACOH    O2 9870   2.011   4.742   0.221 -0.3843 -0.1161 -0.3830
  122ACOH    C2 9871   2.132   4.694   0.265  0.6416  0.2531 -0.0576
  122ACOH    O1 9872   2.150   4.575   0.287  0.0599  0.5498  0.1844
  122ACOH    C1 9873   2.224   4.800   0.314  0.7480 -0.2701  0.3392
  122ACOH    H1 9874   2.247   4.870   0.232 -1.5009 -0.1239 -0.1958
  122ACOH    H2 9875   2.315   4.770   0.364  0.4968  2.3904  2.5470
  122ACOH    H3 9876   2.163   4.857   0.384 -0.5639 -0.2293 -0.8034
  123ACOH    H4 9877   4.455   0.678   1.221  0.1778  0.6804 -0.4707
  123ACOH    O2 9878   4.468   0.663   1.316 -0.2781  0.1642 -0.4891
  123ACOH    C2 9879   4.365   0.607   1.381 -0.1162 -0.1155  0.0004
  123ACOH    O1 9880   4.261   0.568   1.327  0.1947 -0.0329  0.0519
  123ACOH    C1 9881   4.409   0.551   1.513 -0.8987 -0.1686  0.8770
  123ACOH    H1 9882   4.331   0.573   1.585 -0.5177 -1.8096  1.8054
  123ACOH    H2 9883   4.497   0.604   1.548  0.7854 -2.0926 -0.2705
  123ACOH    H3 9884   4.427   0.443   1.508  1.5410  0.2694 -0.7706
  124ACOH    H4 9885   7.678   2.233   0.496  0.0649 -0.1669  0.5193
  124ACOH    O2 9886   7.581   2.230   0.493  0.1049 -0.6061 -0.7294
  124ACOH    C2 9887   7.543   2.188   0.610 -0.8291  0.6923 -0.1764
  124ACOH    O1 9888   7.604   2.110   0.680 -0.2074  0.3015 -0.1603
  124ACOH    C1 9889   7.401   2.202   0.642  0.1619 -0.4114  0.5297
  124ACOH    H1 9890   7.387   2.214   0.750 -0.0792  1.3077  0.3192
  124ACOH    H2 9891   7.352   2.112   0.606  0.0876 -0.3641  0.5144
  124ACOH    H3 9892   7.367   2.293   0.594 -0.2634  0.1131  1.7935
  125ACOH    H4 9893   7.318   6.216   1.052  1.2895 -2.2138  0.5533
  125ACOH    O2 9894   7.252   6.164   1.100 -0.4831 -0.5182  0.0011
  125ACOH    C2 9895   7.307   6.124   1.217  0.2418  0.1271  0.0906
  125ACOH    O1 9896   7.419   6.151   1.252 -0.0055 -0.1045  0.3492
  125ACOH    C1 9897   7.204   6.068   1.306 -0.0052 -0.3934 -0.0902
  125ACOH    H1 9898   7.177   6.149   1.373 -0.0049 -1.5027  1.2630
  125ACOH    H2 9899   7.243   5.983   1.362 -1.3286  0.8062  2.7217
  125ACOH    H3 9900   7.118   6.039   1.247  0.8437  0.9579 -2.0604
  126ACOH    H4 9901   3.433   4.671   0.369  0.2581 -0.5800  0.5845
  126ACOH    O2 9902   3.508   4.633   0.320 -0.1811  0.4488 -0.9353
  126ACOH    C2 9903   3.461   4.607   0.203  0.3037  0.1388  0.2571
  126ACOH    O1 9904   3.358   4.647   0.156  0.4318  0.1748 -0.0821
  126ACOH    C1 9905   3.566   4.541   0.125 -0.2846  1.0919  0.0424
  126ACOH    H1 9906   3.535   4.440   0.100 -1.4963  1.3402  0.5374
  126ACOH    H2 9907   3.657   4.531   0.184 -0.2777 -1.9212 -0.4241
  126ACOH    H3 9908   3.585   4.595   0.031 -0.7288  1.6819  0.2910
  127ACOH    H4 9909   0.497   9.848   1.373  1.1007  0.9543 -1.1565
  127ACOH    O2 9910   0.580   9.875   1.417  0.7217  0.3134 -0.0341
  127ACOH    C2 9911   0.539   9.894   1.542  0.2742 -0.0665 -0.1088
  127ACOH    O1 9912   0.436   9.939   1.589  0.2991 -0.3994 -0.0700
  127ACOH    C1 9913   0.660   9.867   1.627 -0.6062  0.1825 -0.3213
  127ACOH    H1 9914   0.637   9.878   1.733 -0.5253  0.2947 -0.3149
  127ACOH    H2 9915   0.740   9.935   1.597  0.0992 -2.5451 -5.1061
  127ACOH    H3 9916   0.693   9.764   1.613 -2.4618 -0.7607  1.8240
  128ACOH    H4 9917   3.046   7.657   1.996  2.0380 -0.0495 -0.1375
  128ACOH    O2 9918   3.038   7.633   1.902  0.0787  0.1005 -0.0281
  128ACOH    C2 9919   3.167   7.613   1.855 -0.0899  0.0002 -0.3277
  128ACOH    O1 9920   3.266   7.626   1.930 -0.1741  0.7028 -0.0319
  128ACOH    C1 9921   3.170   7.585   1.714 -0.1038 -0.3966 -0.4466
  128ACOH    H1 9922   3.071   7.564   1.674 -1.2671  2.8458  0.5425
  128ACOH    H2 9923   3.242   7.503   1.705 -1.3483 -1.3187 -2.3113
  128ACOH    H3 9924   3.202   7.676   1.663  0.2310  0.6483  1.5405
  129ACOH    H4 9925   0.864   0.521   1.890 -0.6312  0.5614  0.1650
  129ACOH    O2 9926   0.897   0.567   1.811  0.5394 -0.6851 -0.0998
  129ACOH    C2 9927   1.023   0.598   1.839 -0.0670  0.0908  0.4340
  129ACOH    O1 9928   1.087   0.581   1.938  0.5879 -0.0154  0.0331
  129ACOH    C1 9929   1.073   0.681   1.729 -0.2968 -0.1011 -0.1938
  129ACOH    H1 9930   1.124   0.772   1.762 -1.8194 -0.0630  2.2340
  129ACOH    H2 9931   0.995   0.708   1.658 -1.2966 -2.7323 -0.1369
  129ACOH    H3 9932   1.145   0.624   1.670  1.3763  0.1342  1.5725
  130ACOH    H4 9933   0.363   9.667   1.269  2.6105 -0.8310  1.9144
  130ACOH    O2 9934   0.351   9.572   1.258  0.1052 -0.3921  0.4033
  130ACOH    C2 9935   0.335   9.504   1.378  0.2877  0.3125 -0.0193
  130ACOH    O1 9936   0.374   9.536   1.487  0.1286 -0.2973  0.0061
  130ACOH    C1 9937   0.289   9.366   1.361  0.2484  0.3123  0.2599
  130ACOH    H1 9938   0.181   9.376   1.366  0.4522  3.0249 -0.1223
  130ACOH    H2 9939   0.335   9.295   1.430 -0.0222 -0.9441 -0.8295
  130ACOH    H3 9940   0.322   9.342   1.260 -1.2563 -0.2615 -0.1070
  131ACOH    H4 9941   5.076   8.652   1.782  0.4177 -0.6354  0.4586
  131ACOH    O2 9942   5.169   8.674   1.801  0.1863  0.5833  0.2452
  131ACOH    C2 9943   5.171   8.729   1.924  1.2181  0.1519  0.0183
  131ACOH    O1 9944   5.072   8.753   1.988 -0.2137  0.1338 -0.2193
  131ACOH    C1 9945   5.309   8.765   1.960 -0.4056  0.7779 -0.5942
  131ACOH    H1 9946   5.346   8.843   1.893  1.0123  0.7102  0.0848
  131ACOH    H2 9947   5.374   8.678   1.948 -0.5601  0.6948 -0.8300
  131ACOH    H3 9948   5.316   8.802   2.062  0.4018 -0.7814 -0.0752
  132ACOH    H4 9949   3.115   9.890   0.538  3.5520  0.0840  2.6378
  132ACOH    O2 9950   3.139   9.808   0.491 -0.1264  0.4150 -0.0675
  132ACOH    C2 9951   3.239   9.738   0.557 -0.6379 -0.6706 -0.2545
  132ACOH    O1 9952   3.277   9.778   0.667  0.1067 -0.0321  0.1654
  132ACOH    C1 9953   3.272   9.599   0.508  0.2139 -0.5488  0.5694
  132ACOH    H1 9954   3.229   9.585   0.409  1.2842 -1.2302  0.1837
  132ACOH    H2 9955   3.242   9.527   0.584 -0.6121 -1.0670 -0.2394
  132ACOH    H3 9956   3.380   9.592   0.493  0.0844 -1.0047 -0.1591
  133ACOH    H4 9957   8.258   3.399   2.243  0.2750 -1.5269  0.3545
  133ACOH    O2 9958   8.202   3.382   2.165 -0.0511 -0.2969  0.3204
  133ACOH    C2 9959   8.260   3.287   2.086  1.1797  0.5803 -0.3013
  133ACOH    O1 9960   8.356   3.216   2.109 -0.8036  0.4810  1.0183
  133ACOH    C1 9961   8.160   3.244   1.976  0.0777 -0.5594  0.3565
  133ACOH    H1 9962   8.199   3.298   1.890 -1.2280 -1.5506 -0.8881
  133ACOH    H2 9963   8.056   3.276   1.980 -0.2361 -1.7830  2.3415
  133ACOH    H3 9964   8.156   3.137   1.955 -2.8676 -0.5280  0.5795
  134ACOH    H4 9965   8.493   1.799   1.141 -1.1041 -0.1062 -2.3110
  134ACOH    O2 9966   8.542   1.722   1.106 -0.7120 -0.5125 -0.9189
  134ACOH    C2 9967   8.670   1.749   1.086 -0.5642  0.3029  0.4646
  134ACOH    O1 9968   8.724   1.832   1.153 -0.5848 -0.4313  0.4899
  134ACOH    C1 9969   8.739   1.643   1.007  0.2802  0.0598 -0.2398
  134ACOH    H1 9970   8.728   1.550   1.063 -1.2492  0.8506  0.7951
  134ACOH    H2 9971   8.845   1.668   1.010  0.5351 -1.1622  1.2395
  134ACOH    H3 9972   8.703   1.627   0.905 -1.7460 -0.9283  0.6061
  135ACOH    H4 9973   4.247   0.633   2.014  1.5526  0.0137  0.2275
  135ACOH    O2 9974   4.321   0.661   1.958  0.8856  0.1110 -0.6123
  135ACOH    C2 9975   4.347   0.787   2.007 -0.2281 -0.9222  0.4829
  135ACOH    O1 9976   4.305   0.836   2.111  0.3137  0.4410  0.0001
  135ACOH    C1 9977   4.469   0.843   1.937 -0.1921  0.1977 -0.0566
  135ACOH    H1 9978   4.457   0.949   1.917 -1.4079  0.5716  2.4684
  135ACOH    H2 9979   4.477   0.798   1.838  2.8737 -1.9828  1.1133
  135ACOH    H3 9980   4.562   0.835   1.993  0.4704 -2.1316 -1.4429
  136ACOH    H4 9981   8.515   1.203   2.518  1.7771 -0.8260 -2.5187
  136ACOH    O2 9982   8.467   1.119   2.507 -0.1034 -0.1401 -0.0126
  136ACOH    C2 9983   8.503   1.026   2.600 -0.9863  0.1336 -0.5305
  136ACOH    O1 9984   8.583   1.044   2.693  0.0694 -0.2406 -0.7072
  136ACOH    C1 9985   8.430   0.898   2.575  0.5569 -0.4366  1.1084
  136ACOH    H1 9986   8.497   0.817   2.543 -0.8062 -0.4700 -1.9166
  136ACOH    H2 9987   8.363   0.897   2.489  0.9098  2.0654  0.7856
  136ACOH    H3 9988   8.376   0.879   2.667  1.8262  1.6916  2.3172
  137ACOH    H4 9989   4.158   9.915   2.481 -0.2770 -0.5949 -0.0504
  137ACOH    O2 9990   4.141   9.853   2.554 -0.6536 -0.2309  0.1727
  137ACOH    C2 9991   4.028   9.888   2.616 -0.6860  0.5105 -0.2015
  137ACOH    O1 9992   3.947   9.967   2.576 -0.4442 -0.2822 -0.1153
  137ACOH    C1 9993   4.020   9.820   2.747 -0.3671 -0.5043 -0.0204
  137ACOH    H1 9994   4.040   9.714   2.731  0.4467 -0.2522 -0.6958
  137ACOH    H2 9995   3.924   9.827   2.799  1.1514  0.8564  2.7209
  137ACOH    H3 9996   4.103   9.853   2.810  2.1979 -1.0723 -3.0147
  138ACOH    H4 9997   4.973   2.675   1.626 -0.7680 -1.3985  1.2678
  138ACOH    O2 9998   5.016   2.735   1.690  0.0780  0.3774 -0.9289
  138ACOH    C2 9999   5.121   2.786   1.620  0.3770  0.6148 -0.7342
  138ACOH    O110000   5.166   2.739   1.518 -0.1000 -0.1837 -0.4611
  138ACOH    C110001   5.206   2.864   1.707 -0.5245  0.4287 -0.0386
  138ACOH    H110002   5.152   2.919   1.784  4.0847  3.4924  1.1896
  138ACOH    H210003   5.249   2.949   1.654  1.4574 -0.5009  0.0542
  138ACOH    H310004   5.279   2.804   1.760  0.7591  0.3146 -1.8667
  139ACOH    H410005   2.726   2.361   1.496 -0.1157 -1.6724  1.2039
  139ACOH    O210006   2.699   2.413   1.573  0.2640 -0.3410  0.4559
  139ACOH    C210007   2.819   2.486   1.604 -0.9808  1.2066 -0.1501
  139ACOH    O110008   2.913   2.491   1.528 -0.1797 -0.1117 -0.5516
  139ACOH    C110009   2.799   2.577   1.715  0.5758 -1.1387  0.0197
  139ACOH    H110010   2.744   2.664   1.679  0.8735 -1.9127 -2.4319
  139ACOH    H210011   2.899   2.605   1.750 -0.2465  0.5342  1.0851
  139ACOH    H310012   2.748   2.522   1.793 -0.2985  0.4477  0.5746
  140ACOH    H410013   8.143   1.453   2.464 -0.7825  2.0233  1.7324
  140ACOH    O210014   8.134   1.382   2.530  0.4555 -0.4793 -0.6849
  140ACOH    C210015   8.168   1.268   2.473 -0.0111 -0.3186  0.0725
  140ACOH    O110016   8.195   1.255   2.356 -0.5074  0.0335  0.7297
  140ACOH    C110017   8.152   1.167   2.574 -0.7730  0.1049  0.4146
  140ACOH    H110018   8.214   1.192   2.659  0.3152 -0.4129 -0.2128
  140ACOH    H210019   8.194   1.073   2.538  0.7113  0.3702  1.4300
  140ACOH    H310020   8.045   1.176   2.595 -1.5167 -3.0217 -1.7409
  141ACOH    H410021   0.188   2.188   2.798  0.8387  0.4330 -1.7852
  141ACOH    O210022   0.167   2.101   2.759  0.4567 -0.1738 -0.2738
  141ACOH    C210023   0.279   2.065   2.694 -0.3867 -0.0362 -0.4498
  141ACOH    O110024   0.374   2.143   2.678  0.6712  0.3280 -0.4032
  141ACOH    C110025   0.262   1.930   2.631  0.2693 -0.1210 -0.0870
  141ACOH    H110026   0.357   1.896   2.589  0.4109  1.0880 -0.7493
  141ACOH    H210027   0.189   1.945   2.552 -1.0877 -3.0245  0.5467
  141ACOH    H310028   0.225   1.864   2.710  2.0027 -2.1900 -0.9435
  142ACOH    H410029   4.874   7.692   1.488  1.7611 -1.2457 -1.0759
  142ACOH    O210030   4.865   7.595   1.485 -0.3100 -1.1049  0.0440
  142ACOH    C210031   4.793   7.562   1.377  0.2582  0.6256 -0.1125
  142ACOH    O110032   4.752   7.640   1.297  0.6051  0.1248  0.0400
  142ACOH    C110033   4.761   7.416   1.379  0.1486  0.1650 -0.3471
  142ACOH    H110034   4.849   7.363   1.416  0.3607 -0.2363 -1.4232
  142ACOH    H210035   4.737   7.394   1.275 -0.8631  1.0597 -0.3023
  142ACOH    H310036   4.674   7.398   1.443 -0.8597  0.5185 -1.6055
  143ACOH    H410037   4.693   3.200   2.798 -0.3649  1.5105  0.1593
  143ACOH    O210038   4.681   3.153   2.882 -0.4446 -0.0386 -0.7143
  143ACOH    C210039   4.599   3.048   2.870 -0.8148  0.1013  0.0421
  143ACOH    O110040   4.559   3.012   2.763 -0.1726 -0.6555 -0.1247
  143ACOH    C110041   4.576   2.969   2.996  0.2012 -0.9272  0.7646
  143ACOH    H110042   4.470   2.942   3.001 -0.4584  0.6658 -2.8990
  143ACOH    H210043   4.600   3.023   3.087  1.5207 -2.0955  1.1167
  143ACOH    H310044   4.634   2.878   2.989 -1.1390 -1.6985 -0.8163
  144ACOH    H410045   4.161   9.828   0.804  2.3179  0.3721  0.9941
  144ACOH    O210046   4.212   9.865   0.729  0.2455  0.6418 -0.3474
  144ACOH    C210047   4.195   9.999   0.740  0.5741  0.8997 -0.1960
  144ACOH    O110048   4.138  10.059   0.827  0.4860  0.0385  0.1516
  144ACOH    C110049   4.293  10.074   0.659 -0.3507 -0.9270 -0.0805
  144ACOH    H110050   4.256  10.133   0.575 -0.7644 -2.1819 -0.7959
  144ACOH    H210051   4.358   9.997   0.617  0.8242 -1.4893  2.6860
  144ACOH    H310052   4.360  10.136   0.719  0.8519 -2.8900  0.6450
  145ACOH    H410053   3.145   7.271   2.124  0.7277 -0.9000  2.4157
  145ACOH    O210054   3.241   7.266   2.107  0.1913 -0.0667 -1.3481
  145ACOH    C210055   3.250   7.222   1.984 -0.4426  0.3851  0.2876
  145ACOH    O110056   3.171   7.226   1.892 -0.4273  0.1222 -0.3168
  145ACOH    C110057   3.391   7.168   1.972 -0.7308 -0.2918  0.2643
  145ACOH    H110058   3.444   7.156   2.066 -0.1693 -1.3225 -0.1712
  145ACOH    H210059   3.448   7.241   1.913 -1.7929  2.7765  2.9139
  145ACOH    H310060   3.381   7.071   1.924  2.1055  0.3804 -1.8141
  146ACOH    H410061   4.520   2.036   0.942 -0.5021 -0.2592 -0.2823
  146ACOH    O210062   4.594   1.992   0.986 -1.0641 -0.2351  0.6923
  146ACOH    C210063   4.553   1.865   0.987 -0.4421 -0.0812  1.0684
  146ACOH    O110064   4.438   1.825   0.976 -0.5390  0.3182 -0.2792
  146ACOH    C110065   4.665   1.783   1.021 -0.4674 -0.0312 -0.6326
  146ACOH    H110066   4.756   1.812   0.970 -0.7506  1.6754 -0.2026
  146ACOH    H210067   4.652   1.678   0.994 -2.3727  0.7975 -3.1700
  146ACOH    H310068   4.688   1.796   1.127  1.3535  1.9465 -1.2406
  147ACOH    H410069   7.941   2.480   2.657 -0.0469  1.7228  2.0176
  147ACOH    O210070   7.894   2.404   2.695  0.1454  0.4001 -0.3116
  147ACOH    C210071   7.805   2.360   2.601 -0.6544 -0.9869 -0.8727
  147ACOH    O110072   7.806   2.407   2.486  0.4062 -0.0671 -0.3673
  147ACOH    C110073   7.738   2.237   2.641 -0.1171  0.0954  0.0233
  147ACOH    H110074   7.708   2.177   2.555  2.8331 -1.9686  0.3607
  147ACOH    H210075   7.654   2.260   2.706 -1.9487 -1.5831 -1.6581
  147ACOH    H310076   7.795   2.171   2.706 -0.3361  1.4347  1.6081
  148ACOH    H410077   0.215   9.668   0.005 -0.4847 -0.1327 -0.4919
  148ACOH    O210078   0.125   9.632   0.006 -0.6845  0.3581 -0.6665
  148ACOH    C210079   0.143   9.496   0.002  0.1216 -0.1582 -0.7323
  148ACOH    O110080   0.247   9.439  -0.016 -0.0756 -0.0774  0.1087
  148ACOH    C110081   0.011   9.426   0.005 -0.5324  0.1625 -0.7406
  148ACOH    H110082   0.008   9.352   0.084  1.1890 -0.3849 -1.1710
  148ACOH    H210083  -0.015   9.377  -0.090  0.2319 -1.3198 -0.2018
  148ACOH    H310084  -0.065   9.502   0.022 -0.1736  0.3151  0.2029
  149ACOH    H410085   3.666   0.554   1.843 -0.1219  0.4492 -1.3647
  149ACOH    O210086   3.661   0.465   1.805 -0.3231 -0.1422  0.0062
  149ACOH    C210087   3.788   0.447   1.761 -0.1223 -0.1663  0.1914
  149ACOH    O110088   3.869   0.530   1.735 -0.0332  0.1636 -0.7080
  149ACOH    C110089   3.814   0.305   1.729 -0.0207 -0.4551  0.2129
  149ACOH    H110090   3.810   0.292   1.621 -1.2320  0.0304  0.1964
  149ACOH    H210091   3.744   0.236   1.775  0.4664 -1.3247 -0.3384
  149ACOH    H310092   3.913   0.277   1.765 -0.4627 -0.1679  1.7031
  150ACOH    H410093   1.640   9.829   1.906  1.0981 -2.1788  0.7339
  150ACOH    O210094   1.722   9.838   1.855  0.4883 -0.1112  0.0965
  150ACOH    C210095   1.824   9.886   1.927 -0.2973 -0.5319 -0.2804
  150ACOH    O110096   1.804   9.956   2.024  0.0058  0.3014  0.0181
  150ACOH    C110097   1.952   9.855   1.873  0.0648  0.2000  0.6359
  150ACOH    H110098   1.993   9.932   1.807  2.1114 -2.3377 -1.1700
  150ACOH    H210099   1.945   9.761   1.818 -2.6425  0.4616  0.4578
  150ACOH    H310100   2.023   9.850   1.955  1.6757 -1.9138 -0.8456
  151ACOH    H410101   3.970   9.079   0.795 -1.6331  0.1505 -0.0393
  151ACOH    O210102   3.985   9.171   0.768  0.1790 -0.0698  0.1494
  151ACOH    C210103   3.896   9.246   0.829 -0.1258  0.0709  0.6172
  151ACOH    O110104   3.838   9.218   0.932  0.5378 -0.5352 -0.5167
  151ACOH    C110105   3.899   9.386   0.776 -0.0726  0.0056 -0.0273
  151ACOH    H110106   3.980   9.391   0.703  2.6449 -0.6383  2.8523
  151ACOH    H210107   3.914   9.447   0.865 -5.2954 -0.1999  1.1612
  151ACOH    H310108   3.804   9.415   0.732  1.1141  0.4543 -2.3863
  152ACOH    H410109   4.167   0.082   1.707 -1.2084 -1.3322  0.7944
  152ACOH    O210110   4.178   0.129   1.791 -0.2903  0.2329 -0.1867
  152ACOH    C210111   4.206   0.253   1.742 -0.0843  0.5812 -0.0509
  152ACOH    O110112   4.210   0.297   1.629 -0.1831 -0.0960 -0.4693
  152ACOH    C110113   4.242   0.350   1.848 -0.5376  0.7493  0.1009
  152ACOH    H110114   4.288   0.439   1.807  3.0063 -2.1653 -2.5818
  152ACOH    H210115   4.304   0.305   1.927 -2.4160 -1.5395  0.3205
  152ACOH    H310116   4.147   0.371   1.896 -0.7669 -1.2111  0.5787
  153ACOH    H410117   3.131   7.225   0.247 -3.1325  0.0903  0.0696
  153ACOH    O210118   3.123   7.132   0.220 -0.6052 -0.0200 -0.4259
  153ACOH    C210119   3.187   7.060   0.312 -0.4265  0.3974  0.2711
  153ACOH    O110120   3.275   7.102   0.383  0.4881  0.1333 -1.0827
  153ACOH    C110121   3.143   6.922   0.316  0.0612 -0.1896  0.4511
  153ACOH    H110122   3.147   6.873   0.219  0.5829  1.4587 -0.3630
  153ACOH    H210123   3.041   6.924   0.354  0.2337  0.2388  0.8917
  153ACOH    H310124   3.211   6.862   0.378 -1.3504  1.2751  3.5125
  154ACOH    H410125   3.069   4.767   2.623  1.1331 -1.8063 -1.3142
  154ACOH    O210126   3.005   4.771   2.550  0.2145 -0.4532 -0.4562
  154ACOH    C210127   2.887   4.812   2.605 -1.2427 -0.0146  0.6972
  154ACOH    O110128   2.879   4.886   2.702  0.8458  0.1637 -0.3741
  154ACOH    C110129   2.771   4.797   2.520  0.1974  1.0952 -0.3375
  154ACOH    H110130   2.797   4.734   2.434  2.3202  1.8137 -0.2486
  154ACOH    H210131   2.737   4.893   2.483 -3.2470  0.9365  2.2332
  154ACOH    H310132   2.689   4.756   2.579  2.2802 -2.0930  0.5148
  155ACOH    H410133   3.416   4.941   1.106  0.3322 -0.1995  2.6551
  155ACOH    O210134   3.512   4.929   1.098  0.1043 -0.4741 -0.4924
  155ACOH    C210135   3.557   5.033   1.025  0.2485 -0.1595 -0.6215
  155ACOH    O110136   3.490   5.121   0.970 -0.1410 -0.5599  0.3755
  155ACOH    C110137   3.704   5.021   1.017  0.5896  0.1396 -0.4152
  155ACOH    H110138   3.752   5.055   1.109  3.0513 -0.3491 -1.4684
  155ACOH    H210139   3.726   5.088   0.934 -2.7055  1.2178 -0.5060
  155ACOH    H310140   3.747   4.930   0.977  0.6193 -0.0869  0.1267
  156ACOH    H410141   4.125   7.595   2.804 -2.8579 -1.1455 -2.0631
  156ACOH    O210142   4.161   7.505   2.801  0.6046  0.0995 -0.5613
  156ACOH    C210143   4.102   7.439   2.697 -0.0427 -0.7406  0.5352
  156ACOH    O110144   4.032   7.497   2.613  0.4388 -0.5484 -0.1956
  156ACOH    C110145   4.101   7.296   2.710 -0.0786  0.7454 -0.2208
  156ACOH    H110146   4.064   7.252   2.617  1.3165 -0.1031 -0.3970
  156ACOH    H210147   4.035   7.271   2.793 -0.6079 -0.3121 -0.9528
  156ACOH    H310148   4.198   7.250   2.730 -0.9144 -0.5703  0.8695
  157ACOH    H410149   7.836   2.602   2.399 -0.7788 -0.0881  0.8240
  157ACOH    O210150   7.850   2.698   2.396  0.0960 -0.2260  0.3334
  157ACOH    C210151   7.961   2.715   2.470 -0.7178  0.3099  0.4532
  157ACOH    O110152   8.000   2.627   2.550 -0.2663  0.2466  0.5650
  157ACOH    C110153   8.024   2.847   2.454  0.3194  0.1473  0.3514
  157ACOH    H110154   8.056   2.887   2.550 -0.6381  0.8413  0.3939
  157ACOH    H210155   7.950   2.919   2.418 -1.6037 -1.3473  1.2088
  157ACOH    H310156   8.106   2.827   2.385 -0.3768 -0.8422 -0.2014
  158ACOH    H410157   9.669   0.528   1.705 -0.6269 -1.3074  0.1972
  158ACOH    O210158   9.578   0.555   1.682 -0.3556 -0.7843 -0.2925
  158ACOH    C210159   9.562   0.689   1.724 -0.1310  0.0839 -0.1588
  158ACOH    O110160   9.456   0.749   1.719  0.2546 -0.0251 -0.2628
  158ACOH    C110161   9.693   0.760   1.747  1.3571 -0.1836 -0.4892
  158ACOH    H110162   9.695   0.859   1.700 -0.3014 -0.0522 -0.2872
  158ACOH    H210163   9.770   0.706   1.692 -0.8651 -3.1256 -0.7596
  158ACOH    H310164   9.718   0.769   1.853 -0.7385  0.6524 -0.0394
  159ACOH    H410165   0.950   7.401   1.358 -1.8590 -0.8692 -1.1018
  159ACOH    O210166   0.891   7.424   1.432  0.1760  1.2821 -0.0688
  159ACOH    C210167   0.839   7.539   1.382 -0.0704 -0.2127  0.1884
  159ACOH    O110168   0.840   7.585   1.270 -0.4165  0.2183  0.0295
  159ACOH    C110169   0.757   7.600   1.484  0.4076 -0.1742 -0.2711
  159ACOH    H110170   0.765   7.540   1.575 -0.4067  0.2958  0.1123
  159ACOH    H210171   0.653   7.587   1.454 -0.1390  1.6147  0.7256
  159ACOH    H310172   0.777   7.705   1.505 -2.1811  0.4394 -0.6913
  160ACOH    H410173   3.195   4.731   0.489  0.2080 -0.1729 -0.4058
  160ACOH    O210174   3.275   4.772   0.452  0.3444  0.1638  0.2674
  160ACOH    C210175   3.253   4.901   0.415 -0.0338 -0.5458 -0.6842
  160ACOH    O110176   3.151   4.965   0.448 -0.4209  0.0775  0.2374
  160ACOH    C110177   3.364   4.962   0.338  0.4351 -0.8956  0.0754
  160ACOH    H110178   3.453   4.899   0.332 -0.3457 -2.1359  1.2061
  160ACOH    H210179   3.387   5.058   0.385 -0.2289 -0.6050 -0.1914
  160ACOH    H310180   3.323   4.976   0.238  2.4974  0.5561 -0.5989
  161ACOH    H410181   3.620   4.439   1.449  1.1444  0.0385 -1.4957
  161ACOH    O210182   3.677   4.472   1.521  0.0266  0.1056 -0.6333
  161ACOH    C210183   3.595   4.516   1.612  0.2290  0.6554  0.3142
  161ACOH    O110184   3.482   4.558   1.598 -0.0722  0.2634  0.2094
  161ACOH    C110185   3.667   4.530   1.736 -1.2762  0.4283  0.3321
  161ACOH    H110186   3.758   4.470   1.739 -1.9869 -0.6247  1.6521
  161ACOH    H210187   3.600   4.489   1.813 -0.8776  0.8834  0.9260
  161ACOH    H310188   3.697   4.634   1.750  2.9489 -0.9707  2.7971
  162ACOH    H410189   8.150   2.627   0.960 -0.2848  1.0826 -0.4085
  162ACOH    O210190   8.054   2.640   0.966 -0.2996  0.6587  0.4341
  162ACOH    C210191   8.012   2.566   1.065 -0.1113  0.1073  0.0492
  162ACOH    O110192   8.071   2.471   1.107 -0.5686  0.2979  0.0206
  162ACOH    C110193   7.873   2.608   1.097  0.0225 -0.8901  0.5177
  162ACOH    H110194   7.850   2.575   1.198  1.7635  0.0757  1.2584
  162ACOH    H210195   7.810   2.552   1.028  0.5264  1.3067 -1.8287
  162ACOH    H310196   7.856   2.714   1.076  0.9881 -0.8123  0.1060
  163ACOH    H410197   4.601   0.437   0.829 -1.4976 -0.7528 -2.5263
  163ACOH    O210198   4.686   0.447   0.783 -0.0244  0.4305  0.2993
  163ACOH    C210199   4.666   0.441   0.651 -0.2223  0.2469 -0.4763
  163ACOH    O110200   4.566   0.395   0.600  0.0157 -0.0735  0.8238
  163ACOH    C110201   4.802   0.435   0.591 -0.3501  0.2786 -0.6288
  163ACOH    H110202   4.871   0.505   0.637  0.0756  0.0679 -0.9397
  163ACOH    H210203   4.790   0.453   0.484 -1.5348 -0.3722 -0.6168
  163ACOH    H310204   4.845   0.336   0.609  1.5318  1.4543  1.7349
  164ACOH    H410205   4.280   1.620   0.648  0.4430  4.7368 -0.8420
  164ACOH    O210206   4.342   1.597   0.577  0.0695  0.2696  0.0969
  164ACOH    C210207   4.433   1.692   0.568 -0.1249 -0.5700  0.6694
  164ACOH    O110208   4.465   1.775   0.651  0.1890 -0.1882 -0.6074
  164ACOH    C110209   4.507   1.695   0.440  1.1949  0.2622 -0.8493
  164ACOH    H110210   4.472   1.775   0.375  1.1982 -0.2391 -1.4657
  164ACOH    H210211   4.492   1.598   0.392 -1.6797  0.5401 -0.5790
  164ACOH    H310212   4.612   1.702   0.470  0.6219  4.5179  0.4838
  165ACOH    H410213   8.438   1.890   1.352  0.0796 -2.9263 -1.2149
  165ACOH    O210214   8.458   1.917   1.261  0.1350  0.6488 -0.2180
  165ACOH    C210215   8.475   2.049   1.268 -0.5040  0.1716  0.3498
  165ACOH    O110216   8.461   2.122   1.363  0.3754 -0.3132  0.4958
  165ACOH    C110217   8.513   2.098   1.133  0.3481 -0.5995 -0.3999
  165ACOH    H110218   8.620   2.081   1.120  1.0941  1.4914  2.6372
  165ACOH    H210219   8.495   2.205   1.129  1.9119 -0.2582  1.0697
  165ACOH    H310220   8.454   2.045   1.058 -1.9072  0.0592  0.8658
  166ACOH    H410221   4.171   8.235   0.482  0.0415  0.9924  0.5875
  166ACOH    O210222   4.234   8.235   0.557  0.6707 -0.1644  0.0774
  166ACOH    C210223   4.284   8.361   0.560 -0.1007  0.7093 -0.9601
  166ACOH    O110224   4.258   8.452   0.486  0.6945  0.0920  0.0363
  166ACOH    C110225   4.381   8.386   0.667  0.5225 -1.1608  0.4725
  166ACOH    H110226   4.342   8.341   0.758  1.0315  1.3726  2.0170
  166ACOH    H210227   4.387   8.494   0.682 -0.1708 -1.0879  0.2703
  166ACOH    H310228   4.473   8.340   0.633  2.4638  2.7438  0.2040
  167ACOH    H410229   4.477   1.717   1.553 -1.1447 -0.6572  0.3354
  167ACOH    O210230   4.467   1.728   1.457  0.2931 -0.2171  0.2246
  167ACOH    C210231   4.359   1.654   1.421 -0.0830  0.0927  0.3198
  167ACOH    O110232   4.276   1.594   1.492 -0.5345  0.0901  0.1044
  167ACOH    C110233   4.352   1.658   1.271 -0.4557 -0.2969 -0.4421
  167ACOH    H110234   4.289   1.577   1.236 -0.7151  0.3481 -1.4923
  167ACOH    H210235   4.453   1.650   1.231 -0.3835 -1.2304 -0.0726
  167ACOH    H310236   4.302   1.752   1.244  1.4380  0.7919 -0.2106
  168ACOH    H410237   7.674   1.373   1.803  0.4285 -0.3335  1.6169
  168ACOH    O210238   7.612   1.436   1.844 -0.1912 -0.1678  0.4441
  168ACOH    C210239   7.656   1.560   1.824 -0.1336  0.2647 -0.3115
  168ACOH    O110240   7.721   1.601   1.734 -0.3771 -0.2005  0.1203
  168ACOH    C110241   7.606   1.653   1.928  0.0273  0.0828  0.0762
  168ACOH    H110242   7.635   1.601   2.019  0.3465  2.6910  1.5283
  168ACOH    H210243   7.497   1.661   1.920  0.1219  1.7581  0.2727
  168ACOH    H310244   7.658   1.749   1.922  1.3343 -0.6751 -0.8882
  169ACOH    H410245   2.709   6.522   2.739 -0.6642  2.6482  0.3031
  169ACOH    O210246   2.797   6.543   2.774 -0.0548 -0.0011  0.4819
  169ACOH    C210247   2.783   6.570   2.904  0.1595 -0.2454  0.2999
  169ACOH    O110248   2.676   6.583   2.969  0.1270 -0.2527 -0.4714
  169ACOH    C110249   2.909   6.626   2.953 -0.3122 -0.0872  0.1979
  169ACOH    H110250   2.997   6.586   2.902 -1.6973 -1.3166 -1.2519
  169ACOH    H210251   2.930   6.599   3.057  0.6531 -1.1845 -0.2655
  169ACOH    H310252   2.912   6.734   2.941  1.2287 -0.2417 -1.0927
  170ACOH    H410253   3.489   9.333   1.558 -0.0934 -1.5306 -1.4765
  170ACOH    O210254   3.392   9.333   1.558 -0.1090  0.5442 -0.1288
  170ACOH    C210255   3.339   9.261   1.665 -0.1818  0.3407  0.0859
  170ACOH    O110256   3.408   9.199   1.744 -0.1979 -0.2273  0.1726
  170ACOH    C110257   3.189   9.263   1.657 -0.0974  0.0908  0.1680
  170ACOH    H110258   3.162   9.216   1.562  1.0730  0.9314 -0.5871
  170ACOH    H210259   3.147   9.363   1.650  0.1643  0.0764 -2.2535
  170ACOH    H310260   3.130   9.207   1.730  0.2313  1.6225  1.6247
  171ACOH    H410261   2.686   5.579   1.808  0.9395  0.8819  0.0947
  171ACOH    O210262   2.675   5.546   1.899 -0.1505  0.0277 -0.3319
  171ACOH    C210263   2.704   5.417   1.904  0.1613 -0.0915  0.2597
  171ACOH    O110264   2.756   5.362   1.814 -0.1784  0.0491 -0.0878
  171ACOH    C110265   2.702   5.364   2.045  0.1950  0.2589 -0.0443
  171ACOH    H110266   2.644   5.431   2.108  2.2505  0.9975  1.1099
  171ACOH    H210267   2.805   5.368   2.080  0.2563  0.0087 -0.1958
  171ACOH    H310268   2.670   5.261   2.055 -1.9568  0.9975  1.0156
  172ACOH    H410269   7.577   2.468   1.251  0.0512 -0.3480 -3.7432
  172ACOH    O210270   7.537   2.556   1.240  0.3177  0.2495 -0.2370
  172ACOH    C210271   7.471   2.550   1.122  0.3789  0.5166  0.3106
  172ACOH    O110272   7.476   2.461   1.038 -0.2932  0.2094 -0.3189
  172ACOH    C110273   7.401   2.674   1.084 -0.5899  0.1276 -0.1177
  172ACOH    H110274   7.463   2.721   1.008  0.9323  1.6667  2.0244
  172ACOH    H210275   7.389   2.722   1.181 -0.6662 -0.3942  0.1322
  172ACOH    H310276   7.309   2.643   1.035  0.9088  0.3498 -3.1950
  173ACOH    H410277   4.056   8.922   2.711 -0.9832 -0.1074  1.0431
  173ACOH    O210278   4.063   9.017   2.695  0.3016 -0.2981  0.4515
  173ACOH    C210279   4.088   9.042   2.564 -0.1364  0.2706  0.2255
  173ACOH    O110280   4.158   8.971   2.496  0.2981 -0.6351 -0.0066
  173ACOH    C110281   4.073   9.185   2.531  0.3503  0.2471  0.1131
  173ACOH    H110282   4.095   9.209   2.427 -0.5561  0.0653 -0.1235
  173ACOH    H210283   4.150   9.240   2.586  1.6619  1.2729 -2.6470
  173ACOH    H310284   3.970   9.213   2.550  0.8426  1.6506  0.8008
  174ACOH    H410285   8.257   3.870   2.714 -0.4504 -0.5551  0.1902
  174ACOH    O210286   8.194   3.914   2.774  0.2833  0.4246  0.2544
  174ACOH    C210287   8.259   4.023   2.815  0.3157  0.0961  0.4091
  174ACOH    O110288   8.374   4.046   2.793  0.0805  0.1567 -0.3742
  174ACOH    C110289   8.162   4.118   2.877 -0.3723 -0.5328  0.0506
  174ACOH    H110290   8.204   4.164   2.967  2.3465  0.0509 -1.4599
  174ACOH    H210291   8.077   4.062   2.917 -0.4203 -0.9164 -0.5835
  174ACOH    H310292   8.126   4.190   2.804  0.9526  1.4712  1.3168
  175ACOH    H410293   3.508   1.336   1.074  0.9476 -1.3210  0.1425
  175ACOH    O210294   3.443   1.301   1.010  0.0098  0.5257  0.0322
  175ACOH    C210295   3.504   1.315   0.892  0.6703 -0.1899 -0.1825
  175ACOH    O110296   3.449   1.263   0.796  0.3980 -0.3454  0.2295
  175ACOH    C110297   3.640   1.375   0.887 -1.0857 -0.2411  0.4536
  175ACOH    H110298   3.632   1.483   0.885  2.0813  0.0478 -0.7858
  175ACOH    H210299   3.695   1.339   0.799  0.9854  4.6477 -0.4056
  175ACOH    H310300   3.692   1.343   0.977  0.6667 -0.0245 -0.4566
  176ACOH    H410301   4.531   1.637   2.575  0.3891  1.7875 -2.5135
  176ACOH    O210302   4.602   1.683   2.623 -0.0615  0.3157 -0.3516
  176ACOH    C210303   4.548   1.735   2.739 -0.0724 -0.4736  0.0981
  176ACOH    O110304   4.430   1.762   2.760 -0.0877  0.0427  0.5023
  176ACOH    C110305   4.658   1.769   2.825 -0.4559  0.3883 -0.2616
  176ACOH    H110306   4.755   1.756   2.776 -1.6914 -0.2189 -2.6243
  176ACOH    H210307   4.648   1.692   2.902  1.1402 -2.0182 -2.3946
  176ACOH    H310308   4.655   1.867   2.873 -1.2672  1.7427 -3.0126
  177ACOH    H410309   4.857   3.708   1.004  0.7078 -1.0881  0.1715
  177ACOH    O210310   4.923   3.710   0.932 -0.1989  0.6375 -0.6403
  177ACOH    C210311   4.916   3.594   0.861 -1.2253 -0.3318 -0.0915
  177ACOH    O110312   4.841   3.503   0.880  0.4109  0.7171  0.6628
  177ACOH    C110313   5.013   3.592   0.751  0.0740 -0.1890 -0.1007
  177ACOH    H110314   5.048   3.693   0.729  3.4726 -1.3522 -0.4170
  177ACOH    H210315   4.968   3.551   0.660  2.8073 -0.1309 -1.5281
  177ACOH    H310316   5.100   3.545   0.797 -0.1050  0.1285  0.5700
  178ACOH    H410317   3.974   9.751   2.237  1.7950  0.8586 -2.2847
  178ACOH    O210318   4.039   9.690   2.274 -0.2710  0.0540  0.2200
  178ACOH    C210319   3.992   9.640   2.387  0.4954  0.0585 -0.8306
  178ACOH    O110320   3.882   9.661   2.435  0.4436  0.5958  0.3795
  178ACOH    C110321   4.092   9.552   2.440  0.5015 -0.0076  0.9379
  178ACOH    H110322   4.107   9.478   2.362  1.2238  2.1767 -1.0554
  178ACOH    H210323   4.061   9.512   2.537  1.0747  1.8647  1.9171
  178ACOH    H310324   4.184   9.609   2.453  0.8740 -0.6824  1.3182
  179ACOH    H410325   9.426   1.179   2.728  1.8451 -0.1669 -0.0461
  179ACOH    O210326   9.417   1.273   2.751  0.1792 -0.3544  0.1414
  179ACOH    C210327   9.490   1.272   2.867  0.3512 -0.3312  0.0164
  179ACOH    O110328   9.485   1.185   2.953 -0.2978  0.3519 -0.5638
  179ACOH    C110329   9.511   1.414   2.913  0.0112  0.7016  0.7765
  179ACOH    H110330   9.613   1.436   2.946  1.0202 -1.7866 -0.5623
  179ACOH    H210331   9.446   1.423   3.000  1.1481 -0.7319  1.8000
  179ACOH    H310332   9.489   1.481   2.830  0.3963 -0.9540 -0.7015
  180ACOH    H410333   3.900   7.959   1.714  0.1607 -0.1299 -1.5380
  180ACOH    O210334   3.997   7.956   1.717  0.1287  0.1224  0.3076
  180ACOH    C210335   4.043   7.982   1.840  0.4973  0.4370 -0.7555
  180ACOH    O110336   4.001   7.933   1.941  0.1538  0.0710 -0.1631
  180ACOH    C110337   4.176   8.041   1.828  0.1937  0.5138  0.5864
  180ACOH    H110338   4.174   8.143   1.868  0.3697  0.9605 -0.5114
  180ACOH    H210339   4.216   8.047   1.727 -1.2925  2.2665  0.0821
  180ACOH    H310340   4.243   7.983   1.891  0.3618  1.7736  1.6062
  181ACOH    H410341   7.739   1.952   2.102 -0.3616  0.5596  0.7442
  181ACOH    O210342   7.705   1.896   2.174  0.1653 -0.4764  0.1938
  181ACOH    C210343   7.776   1.930   2.282  0.1711 -0.4670 -0.3776
  181ACOH    O110344   7.840   2.036   2.296  0.1007  0.1346  0.5082
  181ACOH    C110345   7.738   1.855   2.402 -0.3690 -0.0301 -0.2792
  181ACOH    H110346   7.718   1.918   2.488 -4.5072  0.6725 -1.6462
  181ACOH    H210347   7.806   1.772   2.420  0.4090  0.5875 -0.3329
  181ACOH    H310348   7.642   1.811   2.374  0.5776 -1.6288 -1.1472
  182ACOH    H410349   4.299   9.694   1.237 -0.6299 -0.3005  0.9818
  182ACOH    O210350   4.376   9.735   1.280 -0.2139  0.1956 -0.1902
  182ACOH    C210351   4.367   9.685   1.405  0.4913 -1.0240 -0.3482
  182ACOH    O110352   4.263   9.672   1.466 -0.2299  0.1837  0.8529
  182ACOH    C110353   4.504   9.665   1.457  0.2441  0.7020 -0.3766
  182ACOH    H110354   4.544   9.766   1.461 -1.5241  1.4232 -0.6333
  182ACOH    H210355   4.568   9.621   1.380  0.7579  0.1996  0.3292
  182ACOH    H310356   4.505   9.608   1.550  1.0187 -0.9787 -1.3697
  183ACOH    H410357   4.218   8.153   1.193 -1.3511 -2.5902 -0.7425
  183ACOH    O210358   4.304   8.110   1.212  0.1382  0.4382 -0.3228
  183ACOH    C210359   4.371   8.133   1.098  0.0167  1.0518 -0.1103
  183ACOH    O110360   4.334   8.197   1.003 -0.3334  0.7906  0.6693
  183ACOH    C110361   4.497   8.052   1.097 -0.0296  0.0772 -0.0318
  183ACOH    H110362   4.571   8.084   1.170  0.0970  0.4788 -0.3393
  183ACOH    H210363   4.535   8.049   0.995  2.4309  2.4758  0.7541
  183ACOH    H310364   4.469   7.953   1.133  2.1823 -0.1724  1.1065
  184ACOH    H410365   3.807   4.656   2.068  0.0188 -0.3883  0.8037
  184ACOH    O210366   3.880   4.665   2.005 -0.3967 -0.3217  0.3276
  184ACOH    C210367   3.919   4.537   1.982 -0.1940 -0.4282  0.8982
  184ACOH    O110368   3.851   4.436   1.991  0.9733  0.6615  0.1801
  184ACOH    C110369   4.037   4.541   1.892  0.2820  0.4623 -0.1539
  184ACOH    H110370   4.042   4.630   1.828 -0.5302 -0.7902 -2.0070
  184ACOH    H210371   4.031   4.460   1.820  3.0578  0.3916 -0.3703
  184ACOH    H310372   4.122   4.536   1.960  0.6986  0.1294 -0.7033
  185ACOH    H410373   4.351   2.156   1.449 -2.3832  0.9774 -2.9874
  185ACOH    O210374   4.397   2.096   1.388  0.0710 -0.1969 -0.0947
  185ACOH    C210375   4.522   2.079   1.439 -0.2603  0.0667 -0.8729
  185ACOH    O110376   4.561   2.141   1.536 -0.0516 -0.3539 -0.6441
  185ACOH    C110377   4.605   1.979   1.380 -0.6060  0.4299 -0.1817
  185ACOH    H110378   4.703   2.012   1.345 -0.8802 -0.5799 -1.9784
  185ACOH    H210379   4.551   1.917   1.308  0.6386 -1.0389  0.1084
  185ACOH    H310380   4.620   1.906   1.460  1.5726  1.6005  0.5404
  186ACOH    H410381   2.813   5.932   0.512  2.7446  0.8637  0.7909
  186ACOH    O210382   2.851   5.843   0.521  0.7135 -0.0837  0.1696
  186ACOH    C210383   2.906   5.827   0.399 -0.3060  0.6780 -0.1920
  186ACOH    O110384   2.908   5.895   0.306 -0.5404 -0.3064  0.0244
  186ACOH    C110385   2.993   5.701   0.402  0.7041 -0.8775 -0.3643
  186ACOH    H110386   2.987   5.654   0.500  0.6107  0.1191  0.1141
  186ACOH    H210387   3.096   5.730   0.384  1.2520 -1.9854  0.9309
  186ACOH    H310388   2.961   5.634   0.322  1.1157 -1.6056  0.0742
  187ACOH    H410389   3.027   5.195   0.072 -1.5915  0.0994 -1.9151
  187ACOH    O210390   2.986   5.274   0.111  0.0960 -0.0713  0.2883
  187ACOH    C210391   2.935   5.348   0.007 -0.4086 -0.0072 -0.7128
  187ACOH    O110392   2.944   5.337  -0.110  0.1706 -0.6433 -0.4997
  187ACOH    C110393   2.860   5.468   0.060  0.6558  0.4248 -0.3401
  187ACOH    H110394   2.848   5.545  -0.016 -0.4413 -2.3400 -3.0321
  187ACOH    H210395   2.902   5.515   0.149  0.1270  1.2289 -0.5029
  187ACOH    H310396   2.761   5.436   0.094  1.0794  0.9303  1.4353
  188ACOH    H410397   4.980   2.800   1.306  0.8378  0.5993 -0.7616
  188ACOH    O210398   4.986   2.705   1.283 -0.0375  0.2637  0.3744
  188ACOH    C210399   5.023   2.701   1.157 -0.1529  0.0383 -0.7447
  188ACOH    O110400   5.054   2.791   1.077  0.4662  0.3190  0.1053
  188ACOH    C110401   5.043   2.559   1.125  0.0398 -0.2654  0.4006
  188ACOH    H110402   5.127   2.516   1.179  0.3915 -1.0537 -0.7742
  188ACOH    H210403   5.060   2.544   1.018  0.9527  0.7790  0.3904
  188ACOH    H310404   4.954   2.500   1.148 -0.4428  0.4166  0.2854
  189ACOH    H410405   0.167   1.665   1.724  0.4691  1.6258 -0.5464
  189ACOH    O210406   0.152   1.658   1.628 -0.0322 -0.3594 -0.3542
  189ACOH    C210407   0.121   1.524   1.604 -0.6575  0.3718 -0.6426
  189ACOH    O110408   0.141   1.428   1.680 -0.3138 -0.4653  0.0326
  189ACOH    C110409   0.071   1.509   1.465  0.1690 -0.2949  0.0644
  189ACOH    H110410   0.068   1.405   1.434 -1.3693 -0.4237  0.6113
  189ACOH    H210411   0.140   1.556   1.394 -3.2844  4.1563 -0.5832
  189ACOH    H310412  -0.037   1.525   1.463 -0.1886 -2.5268  0.7030
  190ACOH    H410413   4.341   4.298   1.245  1.1068  0.0578  0.8493
  190ACOH    O210414   4.353   4.375   1.187 -0.4003 -0.3241  0.0028
  190ACOH    C210415   4.348   4.320   1.061 -0.3662 -0.4881 -0.2536
  190ACOH    O110416   4.305   4.209   1.024  0.4300 -0.5509 -0.4693
  190ACOH    C110417   4.379   4.429   0.965  0.7498 -0.0982  0.3888
  190ACOH    H110418   4.286   4.481   0.944  1.2679  0.0163 -1.6976
  190ACOH    H210419   4.410   4.385   0.870 -1.6014 -0.5856 -0.1895
  190ACOH    H310420   4.455   4.501   0.996  0.7358 -0.8376  2.2084
  191ACOH    H410421   4.086   3.330   1.890 -0.2059  1.3139  0.6160
  191ACOH    O210422   4.141   3.369   1.821 -0.1670  0.1635 -0.0096
  191ACOH    C210423   4.144   3.503   1.826  0.9578  0.4800  0.1860
  191ACOH    O110424   4.056   3.570   1.874 -0.5864 -0.1824 -0.5786
  191ACOH    C110425   4.267   3.549   1.756  0.9274 -0.9591  0.5133
  191ACOH    H110426   4.307   3.481   1.681  0.2054 -0.6110 -0.1955
  191ACOH    H210427   4.349   3.574   1.823 -1.6301 -1.6500  4.0866
  191ACOH    H310428   4.240   3.640   1.701  0.5430  0.1845  2.5297
  192ACOH    H410429   3.686   4.686   0.701 -0.7960  0.1328 -2.5160
  192ACOH    O210430   3.768   4.739   0.697 -0.4737 -0.1225 -0.1543
  192ACOH    C210431   3.726   4.843   0.625 -0.7841  0.1784 -0.2877
  192ACOH    O110432   3.624   4.864   0.567 -1.0189  0.8407  0.4908
  192ACOH    C110433   3.846   4.924   0.595  0.0960 -0.1489 -1.1718
  192ACOH    H110434   3.923   4.854   0.561 -1.7203 -1.7661 -2.0228
  192ACOH    H210435   3.874   4.978   0.686 -2.6259  1.6940 -1.3808
  192ACOH    H310436   3.823   4.997   0.517  0.5043 -0.6240 -1.7432
  193ACOH    H410437   2.549   0.935   1.175  2.2230 -0.9561 -0.1553
  193ACOH    O210438   2.548   0.977   1.087  0.5117  0.2439  0.4132
  193ACOH    C210439   2.573   1.108   1.103 -0.4571 -0.1667  0.3946
  193ACOH    O110440   2.608   1.163   1.207  0.4296 -0.6705  1.3377
  193ACOH    C110441   2.554   1.181   0.974  0.4759 -0.4429 -0.2183
  193ACOH    H110442   2.540   1.103   0.900 -0.0388  0.2294 -0.8353
  193ACOH    H210443   2.631   1.251   0.941  0.3766 -0.0216  0.4399
  193ACOH    H310444   2.462   1.239   0.981  0.7851  0.3649 -2.3952
  194ACOH    H410445   3.859   4.506   1.514 -0.3644 -0.4603  0.8237
  194ACOH    O210446   3.953   4.505   1.539 -0.2447 -0.4595  0.3681
  194ACOH    C210447   4.018   4.431   1.447  1.4556  0.2137 -0.3924
  194ACOH    O110448   3.963   4.383   1.349 -0.7549  0.3095  0.0101
  194ACOH    C110449   4.167   4.435   1.464 -0.3990 -0.5574  1.4483
  194ACOH    H110450   4.208   4.502   1.539  0.8582 -1.3442  1.4830
  194ACOH    H210451   4.202   4.448   1.362 -1.5282  1.3312  1.2801
  194ACOH    H310452   4.185   4.333   1.499  0.4761 -0.8434  0.1792
  195ACOH    H410453   2.606   4.501   0.478 -0.8891  0.4517  0.8982
  195ACOH    O210454   2.629   4.594   0.465  0.1654  0.0761 -0.0205
  195ACOH    C210455   2.601   4.612   0.338  0.1204 -0.0729 -1.1012
  195ACOH    O110456   2.532   4.550   0.263 -0.3175  0.0826 -0.4439
  195ACOH    C110457   2.664   4.740   0.296  0.6034  0.2805 -0.8729
  195ACOH    H110458   2.745   4.713   0.229 -0.5829 -2.5124 -1.2373
  195ACOH    H210459   2.696   4.803   0.379  1.2499  0.2337 -1.0857
  195ACOH    H310460   2.585   4.794   0.244  0.7807  1.4688  0.0506
  196ACOH    H410461   4.346   2.516   2.146 -1.8037  1.2271  0.1855
  196ACOH    O210462   4.403   2.525   2.225  0.2393 -0.6338 -1.0276
  196ACOH    C210463   4.512   2.596   2.200 -0.3945 -0.0879 -0.5329
  196ACOH    O110464   4.520   2.671   2.106 -0.7586  0.3833  0.0628
  196ACOH    C110465   4.616   2.587   2.305 -0.7406 -0.1021 -0.7405
  196ACOH    H110466   4.589   2.621   2.405 -1.0603 -2.6158  0.0778
  196ACOH    H210467   4.707   2.638   2.274 -0.0602  0.3891  1.9373
  196ACOH    H310468   4.637   2.481   2.318 -0.5306 -0.0458 -0.6235
  197ACOH    H410469   8.291   3.336   1.561  0.1774 -0.5272  0.0562
  197ACOH    O210470   8.247   3.331   1.474  0.1485 -0.5413  0.0710
  197ACOH    C210471   8.207   3.451   1.430 -0.0998 -0.3531  0.1384
  197ACOH    O110472   8.195   3.556   1.488  0.4232 -0.5102  0.0671
  197ACOH    C110473   8.185   3.444   1.284  0.4008  0.0027 -0.5974
  197ACOH    H110474   8.186   3.547   1.247  0.0279  0.5824  0.9532
  197ACOH    H210475   8.085   3.403   1.272 -0.0784  0.3411  1.9534
  197ACOH    H310476   8.259   3.385   1.230 -0.1047 -0.1636 -1.1084
  198ACOH    H410477   2.867   7.031   1.530 -1.4077 -3.9135 -0.9393
  198ACOH    O210478   2.837   7.012   1.621 -0.1459 -0.3781  0.2981
  198ACOH    C210479   2.780   6.891   1.622 -0.2357  0.1758  0.4585
  198ACOH    O110480   2.736   6.837   1.520  0.3653 -0.5545 -0.2889
  198ACOH    C110481   2.750   6.836   1.758 -0.2077 -0.7641  0.3443
  198ACOH    H110482   2.755   6.908   1.840  2.8628 -0.2625 -0.2034
  198ACOH    H210483   2.814   6.749   1.775  1.9351  0.7397  0.1937
  198ACOH    H310484   2.650   6.794   1.761  0.6719 -2.8268  2.6985
  199ACOH    H410485   2.859   1.306   1.731 -0.0883  0.1515  0.7214
  199ACOH    O210486   2.836   1.399   1.744 -0.2398  0.2601 -0.3116
  199ACOH    C210487   2.949   1.473   1.762  0.7145  0.2130 -0.0974
  199ACOH    O110488   3.070   1.450   1.741 -0.6295 -0.2842  0.3407
  199ACOH    C110489   2.910   1.615   1.794 -0.6699 -0.0546  0.0002
  199ACOH    H110490   2.841   1.661   1.723 -1.8290 -0.2760  0.9780
  199ACOH    H210491   3.001   1.676   1.795  0.7754 -2.1395  1.1030
  199ACOH    H310492   2.856   1.610   1.888 -1.9755 -0.2061 -0.7578
  200ACOH    H410493   4.845   2.312   2.053  1.3716  1.5454  2.6946
  200ACOH    O210494   4.834   2.236   2.112 -0.2504 -0.1970  0.2299
  200ACOH    C210495   4.856   2.127   2.044 -0.3675  0.1591 -0.6150
  200ACOH    O110496   4.852   2.112   1.923  0.4425  0.0328  0.3763
  200ACOH    C110497   4.874   2.011   2.128 -0.3142 -0.5157  0.1855
  200ACOH    H110498   4.878   1.917   2.074  2.2220  0.1135 -0.7856
  200ACOH    H210499   4.799   2.006   2.207 -0.3480  0.6854  0.2398
  200ACOH    H310500   4.972   2.030   2.172 -0.4331 -0.7149  0.5422
  201ACOH    H410501   3.679   3.892   2.580 -1.0602 -1.2081 -0.6696
  201ACOH    O210502   3.705   3.810   2.626  0.0658 -0.2684  0.4112
  201ACOH    C210503   3.732   3.725   2.534  0.3334  0.4607  0.2032
  201ACOH    O110504   3.678   3.716   2.424 -0.0666 -0.2130  0.1614
  201ACOH    C110505   3.817   3.618   2.594  0.0312 -0.1924 -0.2130
  201ACOH    H110506   3.765   3.522   2.603  0.1417 -0.3687 -1.2988
  201ACOH    H210507   3.846   3.650   2.693  1.2361 -1.9424  0.0229
  201ACOH    H310508   3.917   3.596   2.557  0.3527 -1.5188  1.4091
  202ACOH    H410509   4.590   3.185   1.454 -1.6262  0.7800  1.8578
  202ACOH    O210510   4.659   3.147   1.512  0.1861  0.5999 -0.3657
  202ACOH    C210511   4.658   3.016   1.511  0.8572  0.8408  0.3090
  202ACOH    O110512   4.601   2.948   1.431  0.2578  0.2437  0.3292
  202ACOH    C110513   4.730   2.959   1.623  0.0125 -0.1561 -0.2605
  202ACOH    H110514   4.806   3.026   1.663 -0.2547 -0.6399  1.0767
  202ACOH    H210515   4.785   2.873   1.585  1.3221  1.6143 -2.5334
  202ACOH    H310516   4.659   2.925   1.697 -0.4657  0.2759 -0.5146
  203ACOH    H410517   7.453   1.796   0.839 -0.9422  0.7835 -0.5121
  203ACOH    O210518   7.404   1.742   0.903  0.2027 -0.0293 -0.3062
  203ACOH    C210519   7.348   1.832   0.983 -0.1124  0.6920 -0.4486
  203ACOH    O110520   7.381   1.952   0.999  0.2708  0.1462 -0.2076
  203ACOH    C110521   7.264   1.752   1.076 -0.3826 -0.0201 -0.2918
  203ACOH    H110522   7.177   1.817   1.081  0.9819  2.0741 -2.4236
  203ACOH    H210523   7.315   1.743   1.172 -0.5004 -3.2514 -0.4932
  203ACOH    H310524   7.233   1.654   1.041  1.1217  0.4272 -3.0044
  204ACOH    H410525   3.685   7.449   1.235  2.0030  3.6125 -3.6573
  204ACOH    O210526   3.772   7.446   1.278  0.2742 -0.3595 -0.0889
  204ACOH    C210527   3.845   7.543   1.215  0.1501 -0.7283 -0.1480
  204ACOH    O110528   3.816   7.589   1.105 -0.3199  0.3878 -0.1158
  204ACOH    C110529   3.966   7.581   1.288 -0.2990  0.2538 -0.3156
  204ACOH    H110530   4.030   7.640   1.222 -0.4720  0.2572 -0.4815
  204ACOH    H210531   4.002   7.483   1.321 -0.7276  0.9205  2.1844
  204ACOH    H310532   3.938   7.636   1.377 -4.0427  2.8398 -2.9620
  205ACOH    H410533   2.295   4.180   1.316 -0.8781 -0.1862 -0.7315
  205ACOH    O210534   2.209   4.175   1.360 -0.4021 -0.8215  0.1447
  205ACOH    C210535   2.210   4.067   1.444 -0.4468 -0.9435  0.2735
  205ACOH    O110536   2.304   3.995   1.470 -0.5087  0.4375  0.5424
  205ACOH    C110537   2.073   4.049   1.503  0.1977 -0.5011  0.1168
  205ACOH    H110538   2.011   4.130   1.464  3.3466  1.7203 -0.5726
  205ACOH    H210539   2.077   4.048   1.612  0.8883  0.5788  0.1190
  205ACOH    H310540   2.042   3.952   1.466  1.1185 -0.1217 -1.7516
  206ACOH    H410541   8.261   3.692   0.735  0.9600  1.1690  0.6460
  206ACOH    O210542   8.181   3.707   0.788  0.6448  0.8683  0.2510
  206ACOH    C210543   8.139   3.832   0.759  0.3383 -0.0300  0.1872
  206ACOH    O110544   8.196   3.908   0.682 -0.1121  0.0532 -0.8027
  206ACOH    C110545   8.015   3.874   0.833 -0.1258  0.8179  0.7107
  206ACOH    H110546   7.944   3.919   0.764 -0.9602 -1.3734  0.0876
  206ACOH    H210547   8.039   3.922   0.927  1.4309  0.1409  0.6789
  206ACOH    H310548   7.972   3.782   0.872 -1.2016  0.5707 -0.9851
  207ACOH    H410549   1.802   4.059   0.901  1.7887  2.2469 -0.8623
  207ACOH    O210550   1.804   4.086   0.995  0.4748  0.0999 -0.1820
  207ACOH    C210551   1.891   3.998   1.056  0.2869 -0.5614 -0.5342
  207ACOH    O110552   1.925   3.890   1.016  0.1487  0.2481 -0.2368
  207ACOH    C110553   1.928   4.058   1.189  0.0986 -0.4202  0.2871
  207ACOH    H110554   1.980   3.984   1.249 -0.6832 -0.9429  0.3303
  207ACOH    H210555   1.838   4.082   1.246 -0.3123  1.8664 -1.2592
  207ACOH    H310556   1.987   4.149   1.176 -0.4888 -0.1902 -0.8187
  208ACOH    H410557   3.124   1.474   1.100 -0.6067 -0.7890  0.0652
  208ACOH    O210558   3.088   1.475   1.010  0.0964  0.2753 -0.2116
  208ACOH    C210559   3.160   1.558   0.939 -0.2006 -0.8116  0.2421
  208ACOH    O110560   3.275   1.583   0.964 -0.2834 -0.0212  0.2147
  208ACOH    C110561   3.074   1.640   0.856  0.0789  0.6219 -0.5195
  208ACOH    H110562   3.060   1.587   0.761  1.1102 -0.6638  0.0393
  208ACOH    H210563   3.115   1.739   0.835  0.8830  1.0322  2.7352
  208ACOH    H310564   2.971   1.647   0.892 -1.0867 -1.0041 -3.3628
  209ACOH    H410565   1.094   1.506   2.716  2.9262 -1.2744 -3.8545
  209ACOH    O210566   1.026   1.446   2.682 -0.2440 -0.1037  0.0232
  209ACOH    C210567   1.088   1.326   2.686 -0.3610  0.2839 -1.2273
  209ACOH    O110568   1.204   1.311   2.717 -0.0696 -0.3186  0.2751
  209ACOH    C110569   0.994   1.215   2.653  0.1095 -0.0055  0.0382
  209ACOH    H110570   0.899   1.219   2.706  0.1368 -2.2369  0.3191
  209ACOH    H210571   1.041   1.120   2.678  0.6152 -0.0007 -0.8787
  209ACOH    H310572   0.971   1.218   2.546  0.4198 -1.2867 -0.0702
  210ACOH    H410573   7.879   1.496   2.115  0.6695  0.3600 -1.8271
  210ACOH    O210574   7.844   1.412   2.081 -0.3008  0.0642 -0.1194
  210ACOH    C210575   7.801   1.347   2.188  0.2916 -0.2187 -0.6483
  210ACOH    O110576   7.818   1.376   2.307 -0.1435 -0.5323  0.7239
  210ACOH    C110577   7.758   1.216   2.145 -0.2631 -0.2949 -0.7346
  210ACOH    H110578   7.739   1.158   2.235  1.7655  0.3468  0.1445
  210ACOH    H210579   7.841   1.171   2.092  1.4476  0.8652  0.8956
  210ACOH    H310580   7.674   1.233   2.077 -0.2329  1.0595 -0.4546
  211ACOH    H410581   1.727   5.710   2.375 -0.0763 -0.5235  0.6056
  211ACOH    O210582   1.777   5.739   2.453  0.1427 -0.0061  0.2760
  211ACOH    C210583   1.847   5.634   2.499  0.2414 -0.1319 -0.3684
  211ACOH    O110584   1.841   5.517   2.463  0.1982 -0.1036 -0.1677
  211ACOH    C110585   1.920   5.683   2.620 -0.2535  0.8947  0.0068
  211ACOH    H110586   1.949   5.600   2.684 -0.3516  0.2986 -0.7194
  211ACOH    H210587   1.862   5.757   2.676  0.0597  0.6966  0.6002
  211ACOH    H310588   2.012   5.727   2.581  0.6770 -2.0533 -1.2334
  212ACOH    H410589   1.120   7.662   1.850 -0.6459  0.7114 -0.1026
  212ACOH    O210590   1.126   7.596   1.921  0.3064  0.6984 -0.1957
  212ACOH    C210591   0.995   7.549   1.928 -0.1789  0.1208  0.3512
  212ACOH    O110592   0.906   7.570   1.847  0.5141  0.3113 -0.1312
  212ACOH    C110593   0.992   7.434   2.026 -0.0352 -0.1368 -0.6061
  212ACOH    H110594   1.027   7.341   1.980 -0.4012 -1.6497  2.0604
  212ACOH    H210595   0.892   7.426   2.069  1.3218 -1.3587  2.5249
  212ACOH    H310596   1.060   7.452   2.109  0.9748 -2.8544 -0.8043
  213ACOH    H410597   4.019   4.204   2.817  0.8060  0.8060  1.1048
  213ACOH    O210598   3.980   4.290   2.840  0.2887  0.8432  0.1089
  213ACOH    C210599   4.023   4.332   2.965 -0.3624  0.1923  0.7496
  213ACOH    O110600   4.077   4.273   3.054  0.3348  0.3706  0.0583
  213ACOH    C110601   3.986   4.479   2.971 -0.6088  0.3610  0.1527
  213ACOH    H110602   3.947   4.512   2.875 -0.7066  0.4808  0.2352
  213ACOH    H210603   4.072   4.536   3.006 -0.5430  1.5259 -1.8409
  213ACOH    H310604   3.905   4.491   3.042 -1.1311  0.1052 -0.3987
  214ACOH    H410605   7.915   1.465   0.335  2.1565 -1.2123 -0.7265
  214ACOH    O210606   7.855   1.427   0.269  0.1253  0.0932  0.3236
  214ACOH    C210607   7.882   1.297   0.267  1.0323  0.1278 -0.3153
  214ACOH    O110608   7.966   1.234   0.333  0.3061  0.3246 -0.0010
  214ACOH    C110609   7.805   1.236   0.155 -0.0064 -0.2638 -0.4132
  214ACOH    H110610   7.848   1.146   0.111  0.2309 -0.4375  0.1675
  214ACOH    H210611   7.779   1.302   0.072 -0.5220  0.0247 -0.0282
  214ACOH    H310612   7.707   1.219   0.201  0.1746 -1.1708 -0.3627
  215ACOH    H410613   4.725   7.839   1.301  1.0817  0.7066  1.6108
  215ACOH    O210614   4.746   7.934   1.292 -0.0519  0.8618  0.5073
  215ACOH    C210615   4.793   7.974   1.412  0.5362 -0.2986 -0.2166
  215ACOH    O110616   4.825   7.900   1.500 -0.7965  0.2829 -0.4180
  215ACOH    C110617   4.818   8.119   1.412 -0.4843 -0.5521 -0.7466
  215ACOH    H110618   4.728   8.173   1.444  1.0678  0.5429  1.9314
  215ACOH    H210619   4.842   8.152   1.311  1.0208 -0.5262 -0.3914
  215ACOH    H310620   4.895   8.151   1.482  0.1329  0.4077 -1.8416
  216ACOH    H410621   8.516   3.865   2.067  3.6694 -0.6994  0.3371
  216ACOH    O210622   8.525   3.950   2.112  0.2582 -0.0326 -0.1251
  216ACOH    C210623   8.531   4.039   2.004 -0.0575 -0.1300 -0.4900
  216ACOH    O110624   8.549   4.021   1.884  0.0988 -0.6892  0.0727
  216ACOH    C110625   8.526   4.170   2.066  0.1640 -0.1939  0.0089
  216ACOH    H110626   8.531   4.168   2.175 -2.3931 -0.1382  0.1498
  216ACOH    H210627   8.429   4.205   2.032  0.0826 -1.2412 -0.8530
  216ACOH    H310628   8.605   4.236   2.028 -0.1769  0.4334  0.3726
  217ACOH    H410629   1.561   2.912   2.240 -0.6930 -0.2492  0.2189
  217ACOH    O210630   1.519   2.999   2.229  0.6553  0.3171 -0.5091
  217ACOH    C210631   1.447   2.994   2.115  0.0533  0.1440 -0.6265
  217ACOH    O110632   1.425   2.894   2.051  0.5424  0.3462 -0.0690
  217ACOH    C110633   1.376   3.122   2.088  0.2699 -0.7063 -0.0344
  217ACOH    H110634   1.287   3.103   2.028  0.9015 -1.2462 -0.8170
  217ACOH    H210635   1.424   3.208   2.042 -0.6455 -1.1048 -1.7608
  217ACOH    H310636   1.335   3.159   2.182 -0.4932  2.2993 -1.4903
  218ACOH    H410637   4.707   2.859   1.992  0.2820 -0.2936  0.9333
  218ACOH    O210638   4.778   2.803   2.029  0.5423 -0.7125 -0.1726
  218ACOH    C210639   4.804   2.871   2.142  0.1045 -0.4974 -0.5510
  218ACOH    O110640   4.745   2.971   2.182 -0.2138  0.3253  0.3688
  218ACOH    C110641   4.925   2.818   2.200  0.1647  0.1931  0.6965
  218ACOH    H110642   4.986   2.897   2.244 -0.2281  0.0184  1.5724
  218ACOH    H210643   4.974   2.758   2.124 -2.9018  1.2729 -2.2658
  218ACOH    H310644   4.898   2.759   2.288  1.2422  0.3909  1.1811
  219ACOH    H410645   4.402   1.439   0.214 -0.4254 -0.2945 -0.2059
  219ACOH    O210646   4.474   1.416   0.153 -0.5443  0.3822 -0.6137
  219ACOH    C210647   4.474   1.281   0.134 -0.4390  0.5449  0.1756
  219ACOH    O110648   4.414   1.191   0.200  0.4299 -0.3494  0.3258
  219ACOH    C110649   4.580   1.246   0.041 -0.9641  0.5026  0.3949
  219ACOH    H110650   4.554   1.292  -0.054  1.2834 -0.0739 -0.5186
  219ACOH    H210651   4.587   1.139   0.024  0.1915  0.3599  1.6513
  219ACOH    H310652   4.674   1.292   0.072  0.1797  0.2461 -2.5985
  220ACOH    H410653   9.972   2.605   0.138  0.8817 -4.1981 -0.0046
  220ACOH    O210654   9.879   2.579   0.150 -0.3446 -0.3731 -0.4826
  220ACOH    C210655   9.789   2.670   0.100 -0.4161 -0.4727  0.6685
  220ACOH    O110656   9.810   2.772   0.033  0.6118  0.2634  0.1878
  220ACOH    C110657   9.653   2.623   0.119  0.2972 -0.1039  1.0193
  220ACOH    H110658   9.633   2.581   0.218 -0.5862  1.4132  1.4905
  220ACOH    H210659   9.637   2.539   0.052  2.2616 -1.5934  2.3625
  220ACOH    H310660   9.579   2.699   0.095  0.3550 -0.0833  0.9041
  221ACOH    H410661   2.755   6.110   1.779 -1.3370  1.1801  0.8476
  221ACOH    O210662   2.795   6.076   1.861 -0.5999  0.1861  0.0839
  221ACOH    C210663   2.736   5.960   1.881  0.3822 -0.0473  0.2304
  221ACOH    O110664   2.655   5.905   1.805  0.5328 -1.7753 -0.0330
  221ACOH    C110665   2.776   5.910   2.009 -0.5535  0.0341  0.1458
  221ACOH    H110666   2.884   5.902   2.001 -0.6129 -0.7141  0.1184
  221ACOH    H210667   2.741   5.809   2.029  1.8428 -1.0709 -1.0838
  221ACOH    H310668   2.748   5.967   2.098 -0.8587 -1.1166  0.7858
  222ACOH    H410669   1.563   6.052   2.671 -1.0963 -1.9739  0.7245
  222ACOH    O210670   1.491   6.087   2.726 -0.0016 -0.1243  1.0057
  222ACOH    C210671   1.388   6.119   2.641  1.0824 -0.7079  0.4007
  222ACOH    O110672   1.364   6.091   2.525 -0.2368 -0.3007 -0.3359
  222ACOH    C110673   1.291   6.191   2.723 -0.0455  0.5655 -0.1177
  222ACOH    H110674   1.243   6.123   2.794 -0.8857 -0.0386 -1.2430
  222ACOH    H210675   1.208   6.236   2.669 -0.8122  0.0368  0.5981
  222ACOH    H310676   1.338   6.270   2.781  1.4564 -0.6017  0.2807
  223ACOH    H410677   3.947   4.435   1.178  0.9928  0.9507 -0.0994
  223ACOH    O210678   3.948   4.456   1.084  0.6012  0.1634 -0.2849
  223ACOH    C210679   3.828   4.412   1.034  0.4112  0.8515  0.3705
  223ACOH    O110680   3.765   4.316   1.076  0.1725  1.0425  0.2894
  223ACOH    C110681   3.785   4.490   0.918 -0.7216 -0.1207  0.1160
  223ACOH    H110682   3.715   4.435   0.856 -1.8952  2.0150 -0.5245
  223ACOH    H210683   3.875   4.503   0.858 -0.0350  1.3496  1.4247
  223ACOH    H310684   3.746   4.588   0.945 -0.7529  0.2039 -1.0464
  224ACOH    H410685   5.235   2.705   1.341  1.3117 -0.4958  1.2527
  224ACOH    O210686   5.299   2.690   1.270 -0.1048 -0.3939 -0.0656
  224ACOH    C210687   5.327   2.812   1.228 -1.0397 -0.9001 -0.5466
  224ACOH    O110688   5.300   2.918   1.281 -0.6241 -0.2159  0.0846
  224ACOH    C110689   5.425   2.803   1.113  0.1580  0.6560 -0.1197
  224ACOH    H110690   5.514   2.854   1.150  0.4294 -1.0082  1.5733
  224ACOH    H210691   5.388   2.843   1.019  1.5298  0.4081 -0.7856
  224ACOH    H310692   5.447   2.698   1.093 -2.9849 -0.6297  2.7643
  225ACOH    H410693   2.114   4.674   0.585 -1.3429 -0.6959  2.2370
  225ACOH    O210694   2.040   4.724   0.548 -0.1498 -0.7067 -0.2787
  225ACOH    C210695   1.935   4.655   0.597 -0.2094 -0.1477 -0.1066
  225ACOH    O110696   1.936   4.595   0.703 -0.4081 -0.1137  0.1572
  225ACOH    C110697   1.809   4.679   0.520  0.7605  0.4114  0.3685
  225ACOH    H110698   1.811   4.759   0.446  0.1355  0.9509  0.9344
  225ACOH    H210699   1.728   4.695   0.590 -0.3990 -0.9801 -0.6254
  225ACOH    H310700   1.775   4.590   0.467 -0.4040  1.0194  0.0942
  226ACOH    H410701   4.031   8.281   1.592 -0.1103  0.9828 -0.1478
  226ACOH    O210702   4.122   8.304   1.569  0.1650  0.7403  0.6632
  226ACOH    C210703   4.108   8.371   1.455  0.2360  0.2891 -0.5182
  226ACOH    O110704   4.009   8.422   1.410  0.4188 -0.1886  0.4490
  226ACOH    C110705   4.242   8.390   1.394  0.7442 -0.0102 -0.6629
  226ACOH    H110706   4.233   8.432   1.293  0.3069  0.2289 -0.5242
  226ACOH    H210707   4.311   8.305   1.401 -0.9902 -1.7851 -3.6801
  226ACOH    H310708   4.288   8.473   1.447 -0.7822 -0.8316  2.0282
  227ACOH    H410709   4.220   0.309   2.332  0.2488  0.2840 -0.3108
  227ACOH    O210710   4.188   0.247   2.264 -0.1431  0.1336  0.0033
  227ACOH    C210711   4.223   0.127   2.308 -0.0790 -0.0984  0.5097
  227ACOH    O110712   4.238   0.096   2.424  0.5051  0.0089  0.1107
  227ACOH    C110713   4.209   0.018   2.205 -0.2266  0.2894 -0.2813
  227ACOH    H110714   4.219   0.063   2.106  3.7733  0.1858  0.0005
  227ACOH    H210715   4.111  -0.028   2.217 -0.8387  0.6596 -3.2729
  227ACOH    H310716   4.288  -0.057   2.202  0.2316  0.6529  2.0823
  228ACOH    H410717   3.449   7.067   0.786 -1.3241 -0.0087  0.8560
  228ACOH    O210718   3.483   6.986   0.830  0.4194  0.0500 -0.3451
  228ACOH    C210719   3.387   6.948   0.915  0.7009 -0.2992  0.1027
  228ACOH    O110720   3.296   7.010   0.964 -0.2744 -0.3388  0.2712
  228ACOH    C110721   3.413   6.811   0.956 -0.2300 -0.1480  0.4994
  228ACOH    H110722   3.385   6.750   0.870  1.3650  0.8178 -0.7363
  228ACOH    H210723   3.351   6.789   1.043  1.4546 -1.3257  1.4215
  228ACOH    H310724   3.517   6.799   0.985  0.2347  0.6199 -0.8209
  229SOL     OW10725   2.833   2.405   0.801 -0.5643 -0.2565  0.3782
  229SOL    HW110726   2.926   2.371   0.795 -0.7148 -0.5014 -0.5973
  229SOL    HW210727   2.774   2.355   0.737 -1.0349  0.9768 -0.1700
  230SOL     OW10728   1.531   5.044   1.788 -0.5761  0.0097 -0.3474
  230SOL    HW110729   1.572   5.134   1.806 -0.0902 -0.1822 -0.4910
  230SOL    HW210730   1.572   5.005   1.706 -0.9219 -0.2654 -0.3887
  231SOL     OW10731   2.329   0.374   2.633 -0.0698  0.5117  0.7032
  231SOL    HW110732   2.230   0.387   2.645 -0.5750 -0.6574 -1.9523
  231SOL    HW210733   2.347   0.278   2.613  1.8003  0.4308  2.5704
  232SOL     OW10734   0.625   4.829   1.057  0.0279  0.2369  0.4652
  232SOL    HW110735   0.588   4.905   1.003  1.9058  1.7047  1.1880
  232SOL    HW210736   0.639   4.859   1.152 -0.2911 -1.3710  1.0413
  233SOL     OW10737   1.449   0.519   2.646 -0.0398  0.3120 -0.1270
  233SOL    HW110738   1.477   0.604   2.602  1.4959 -0.3939 -0.5591
  233SOL    HW210739   1.402   0.461   2.580 -2.3454  1.3932  0.5331
  234SOL     OW10740   0.597   6.116   2.380 -0.1601  0.0915  0.4879
  234SOL    HW110741   0.573   6.069   2.294 -1.9350 -0.6232  1.3540
  234SOL    HW210742   0.641   6.203   2.358  1.3624 -1.0301 -1.1485
  235SOL     OW10743   0.697   1.365   1.940  0.5808 -0.1607  0.6301
  235SOL    HW110744   0.765   1.298   1.969 -0.0056 -0.4465  1.3724
  235SOL    HW210745   0.641   1.327   1.867  1.8985  0.4660 -0.7307
  236SOL     OW10746   0.867   3.430   2.392 -0.3183  0.8917 -0.3104
  236SOL    HW110747   0.840   3.337   2.417  0.9345  0.8216  0.8618
  236SOL    HW210748   0.884   3.483   2.475 -0.8068  2.1240 -0.9697
  237SOL     OW10749   0.892   5.130   1.996  0.0650  0.0941  0.1772
  237SOL    HW110750   0.961   5.070   2.036 -1.2358 -0.3267  1.8907
  237SOL    HW210751   0.849   5.084   1.918 -0.6907 -1.1068  1.2760
  238SOL     OW10752   3.946   2.571   0.069  0.2757  0.0623 -0.5219
  238SOL    HW110753   3.863   2.515   0.065  0.8783 -0.8522 -0.4472
  238SOL    HW210754   4.004   2.550  -0.010  0.8855 -0.0239 -0.0560
  239SOL     OW10755   1.623   9.417   2.159 -0.4418  0.5185  0.2390
  239SOL    HW110756   1.680   9.363   2.222  0.0403 -3.5589 -3.4550
  239SOL    HW210757   1.681   9.479   2.107  0.0000 -0.3311 -0.2925
  240SOL     OW10758   2.453   0.952   2.564 -0.1767  0.2938  0.1353
  240SOL    HW110759   2.384   1.013   2.525  0.8473  1.1419 -0.3626
  240SOL    HW210760   2.464   0.872   2.505  2.6011  2.3833 -2.2971
  241SOL     OW10761   9.248   4.155   2.003  0.1253 -0.3772 -0.3951
  241SOL    HW110762   9.260   4.215   1.924 -0.6348  0.8614  0.4072
  241SOL    HW210763   9.161   4.107   1.996 -0.5783  0.7671  0.3446
  242SOL     OW10764   8.951   3.792   0.912  0.5355  0.7772 -0.1064
  242SOL    HW110765   8.874   3.784   0.848 -0.9170  2.2081  1.3968
  242SOL    HW210766   9.036   3.769   0.865 -0.3142  2.9862 -2.8789
  243SOL     OW10767   9.943   3.910   2.429 -0.2343 -0.6571  0.1301
  243SOL    HW110768   9.885   3.830   2.414 -1.4490  0.4385 -1.2500
  243SOL    HW210769   9.903   3.989   2.382  1.1676  0.6638  1.1082
  244SOL     OW10770   0.336   0.065   0.366 -0.2654  0.1603 -0.4769
  244SOL    HW110771   0.334   0.162   0.339 -0.0202  0.0848 -0.7630
  244SOL    HW210772   0.409   0.018   0.317 -0.0565 -0.0619  0.0398
  245SOL     OW10773   3.695   0.015   1.118  0.0424  0.4082 -0.8530
  245SOL    HW110774   3.728  -0.079   1.111  1.5273  0.6097  2.2970
  245SOL    HW210775   3.601   0.015   1.151 -0.2277  0.0078 -1.6265
  246SOL     OW10776   1.257   9.578   1.744 -0.2483 -0.5703  0.1258
  246SOL    HW110777   1.288   9.547   1.654 -0.9686  0.0540 -0.3409
  246SOL    HW210778   1.312   9.534   1.815  0.5143 -0.8493 -0.6286
  247SOL     OW10779   1.500   2.690   0.239  0.3701 -0.1063  0.1311
  247SOL    HW110780   1.422   2.648   0.193  0.5457  0.4327 -0.6609
  247SOL    HW210781   1.487   2.684   0.338  0.3345 -1.9287  0.0442
  248SOL     OW10782   3.384   2.395   1.449 -0.6534 -0.4358  0.0035
  248SOL    HW110783   3.313   2.418   1.383 -0.5374  1.4769  0.5013
  248SOL    HW210784   3.451   2.334   1.406 -0.3327  1.1269 -1.8311
  249SOL     OW10785   2.014   9.870   2.712  0.2845  0.7703  0.6337
  249SOL    HW110786   2.107   9.855   2.746  0.3365 -0.5404 -0.0288
  249SOL    HW210787   2.018   9.906   2.619  0.1343  2.9272  1.4489
  250SOL     OW10788   0.193   9.910   1.875  0.4888  0.6605  0.3147
  250SOL    HW110789   0.218   9.845   1.803 -0.4516 -0.5380  1.0618
  250SOL    HW210790   0.244   9.995   1.861  1.7814 -0.2416 -0.6341
  251SOL     OW10791   9.044   4.507   2.273  0.4661  0.5539 -0.0855
  251SOL    HW110792   9.096   4.591   2.291 -0.9284  1.4473 -0.1537
  251SOL    HW210793   8.983   4.522   2.195  0.5154 -0.6713 -0.3666
  252SOL     OW10794   1.217   0.408   2.498 -0.3596  0.1675 -0.1947
  252SOL    HW110795   1.184   0.396   2.404 -1.1424 -1.1317  0.2325
  252SOL    HW210796   1.261   0.323   2.529  0.4855  0.8106  0.3851
  253SOL     OW10797   0.078   4.083   1.008 -0.5336 -0.4596 -0.0979
  253SOL    HW110798   0.008   4.063   1.077 -0.3548 -0.8719 -0.0363
  253SOL    HW210799   0.114   3.998   0.971 -0.2938 -0.2429 -0.3633
  254SOL     OW10800   2.631   8.638   0.579  0.0862 -0.1190 -0.2116
  254SOL    HW110801   2.533   8.655   0.564  0.2954 -0.2605 -1.8013
  254SOL    HW210802   2.658   8.677   0.667 -0.8527  2.2051 -0.9128
  255SOL     OW10803   2.759   7.759   0.134 -0.3251  0.4206  0.0009
  255SOL    HW110804   2.800   7.787   0.047  0.1521 -0.6409 -0.1242
  255SOL    HW210805   2.669   7.719   0.117  0.6993 -1.8581 -0.2682
  256SOL     OW10806   8.369   2.241   2.591  0.6865  0.0968 -0.5553
  256SOL    HW110807   8.288   2.183   2.579  0.7822  0.1648 -1.5576
  256SOL    HW210808   8.436   2.193   2.648  0.1298 -0.1478 -0.1010
  257SOL     OW10809   1.971   9.452   0.280 -0.0895  0.1109 -0.4270
  257SOL    HW110810   1.931   9.422   0.193  0.7979 -1.4246 -0.3188
  257SOL    HW210811   2.070   9.462   0.270 -0.0457  0.4236  0.2818
  258SOL     OW10812   1.054   3.892   1.154 -0.0577 -0.1710  0.0391
  258SOL    HW110813   0.975   3.902   1.215 -0.6142 -1.3592 -0.4688
  258SOL    HW210814   1.063   3.974   1.097 -1.7141 -0.5435 -0.8047
  259SOL     OW10815   9.923   0.697   1.101  0.1354 -0.1104  0.1346
  259SOL    HW110816   9.896   0.695   1.005  0.0500 -0.3286  0.1637
  259SOL    HW210817   9.961   0.787   1.123 -0.9480  0.3413  0.1938
  260SOL     OW10818   4.389   3.212   2.552 -0.0493 -0.0940  0.4290
  260SOL    HW110819   4.457   3.186   2.483 -1.6664 -0.8192 -0.9277
  260SOL    HW210820   4.407   3.163   2.637  1.3948  0.0779  0.2386
  261SOL     OW10821   9.509   1.631   1.152 -0.6577  0.5206  0.3187
  261SOL    HW110822   9.548   1.711   1.196  1.9522 -1.0728  1.0082
  261SOL    HW210823   9.547   1.621   1.060  0.4011 -0.8863  0.8904
  262SOL     OW10824   1.281   3.853   2.298  0.2169 -0.4765 -0.2551
  262SOL    HW110825   1.286   3.764   2.252  1.8739 -0.4743 -0.1153
  262SOL    HW210826   1.200   3.857   2.356 -2.2158 -0.3323 -3.4917
  263SOL     OW10827   8.815   4.492   1.567 -0.7103 -0.5722 -0.0836
  263SOL    HW110828   8.872   4.500   1.486  0.6129  0.6701  0.9364
  263SOL    HW210829   8.726   4.454   1.542 -0.5431  0.3663 -2.1888
  264SOL     OW10830   1.812   2.543   0.716  0.6315  0.3291  0.3722
  264SOL    HW110831   1.767   2.491   0.643  1.4482  0.7335 -0.4297
  264SOL    HW210832   1.911   2.541   0.702  0.8703 -0.5711  2.1468
  265SOL     OW10833   1.580   3.792   2.357  0.5776  0.2877 -0.0121
  265SOL    HW110834   1.545   3.730   2.428  0.2447  0.2138 -0.2424
  265SOL    HW210835   1.509   3.809   2.289  1.6263 -1.5470 -1.6168
  266SOL     OW10836   3.702   1.396   0.496 -0.3648  0.8492  0.1244
  266SOL    HW110837   3.691   1.419   0.399 -0.0150 -0.0071 -0.1231
  266SOL    HW210838   3.687   1.297   0.509  0.2076  0.8543  0.8514
  267SOL     OW10839   1.379   4.519   1.790 -0.0939  0.3407 -0.3417
  267SOL    HW110840   1.432   4.436   1.769 -2.5891 -1.3450 -0.2510
  267SOL    HW210841   1.376   4.532   1.889  0.5112  0.6715 -0.3688
  268SOL     OW10842   2.193   3.226   1.632  0.0314 -0.0983 -0.1022
  268SOL    HW110843   2.239   3.137   1.633 -2.7824 -1.7200 -3.0922
  268SOL    HW210844   2.261   3.299   1.623  2.2485 -2.1186 -0.1327
  269SOL     OW10845   2.976   3.456   0.611 -0.6573 -0.5327 -0.2422
  269SOL    HW110846   3.071   3.473   0.636 -0.4979 -0.3529 -0.9693
  269SOL    HW210847   2.970   3.371   0.559 -1.0362 -1.0933  0.6925
  270SOL     OW10848   3.883   0.011   1.942 -0.3224 -0.2564 -0.3035
  270SOL    HW110849   3.967   0.066   1.951  0.0843 -0.7910 -0.7991
  270SOL    HW210850   3.859   0.004   1.845 -2.2435  1.8438 -0.0072
  271SOL     OW10851   9.141   3.220   2.199  0.2247  0.5124  0.5229
  271SOL    HW110852   9.134   3.191   2.295 -0.6702  0.1175  0.3367
  271SOL    HW210853   9.222   3.178   2.158 -1.0588 -1.7761  0.2581
  272SOL     OW10854   2.340   4.574   1.231 -0.0662 -0.2394 -0.0642
  272SOL    HW110855   2.404   4.600   1.158 -0.8421 -0.8386 -0.9701
  272SOL    HW210856   2.342   4.643   1.303  0.4809  0.5244 -0.7965
  273SOL     OW10857   2.456   2.947   2.604  0.0997 -0.2464  0.2589
  273SOL    HW110858   2.459   2.853   2.640  0.2804  0.5375  2.3315
  273SOL    HW210859   2.442   3.011   2.679  0.0571  1.4091 -1.1399
  274SOL     OW10860   0.593   1.828   0.742 -0.1058 -0.0427  0.0331
  274SOL    HW110861   0.567   1.921   0.715 -0.2813  0.1413  0.8237
  274SOL    HW210862   0.684   1.807   0.705 -0.7439 -0.1639 -1.5230
  275SOL     OW10863   3.228   1.220   1.205  0.1472 -0.0030 -0.0729
  275SOL    HW110864   3.276   1.258   1.126  0.9529  0.6333  0.7092
  275SOL    HW210865   3.255   1.125   1.217  0.1032 -0.0716 -0.5013
  276SOL     OW10866   4.135   3.453   1.132  0.5919 -0.2311  0.3733
  276SOL    HW110867   4.062   3.442   1.199 -1.0906  0.3087 -1.3231
  276SOL    HW210868   4.115   3.398   1.051  3.0407 -1.5663  0.6300
  277SOL     OW10869   1.929   6.590   1.988  0.3077 -0.0699  0.1129
  277SOL    HW110870   1.858   6.565   2.054  0.4054 -2.3491 -0.5865
  277SOL    HW210871   1.925   6.527   1.911  2.2569  0.6037 -0.5518
  278SOL     OW10872   0.546   9.142   0.291  0.2749 -0.2198 -0.2555
  278SOL    HW110873   0.529   9.239   0.276  0.9322  0.2960  2.0617
  278SOL    HW210874   0.613   9.131   0.365 -0.3672 -2.4340  0.0415
  279SOL     OW10875   3.193   0.494   1.911  0.0636  0.9280  0.8994
  279SOL    HW110876   3.126   0.520   1.981 -1.7871 -1.7606  0.1945
  279SOL    HW210877   3.272   0.451   1.954 -0.4033  0.6381  1.4717
  280SOL     OW10878   1.423   4.026   2.494 -0.1698  0.7337 -0.0162
  280SOL    HW110879   1.472   4.079   2.425  2.8445 -0.3426  1.2192
  280SOL    HW210880   1.356   3.967   2.449  1.5341  0.2570 -1.9984
  281SOL     OW10881   1.611   2.935   2.743  0.7819  0.0952  0.2358
  281SOL    HW110882   1.683   3.005   2.736 -0.5227  1.3718 -0.7542
  281SOL    HW210883   1.522   2.977   2.724 -0.3230 -1.3162  2.1488
  282SOL     OW10884   2.070   2.939   2.540 -0.1070 -0.1279 -0.3822
  282SOL    HW110885   2.059   2.880   2.620  1.7480 -1.0473 -0.7906
  282SOL    HW210886   2.156   2.988   2.546 -0.7567  1.1095 -0.9888
  283SOL     OW10887   2.213   3.839   1.215 -1.0595  0.2132  0.2623
  283SOL    HW110888   2.242   3.893   1.293 -1.1840 -2.4276  2.2270
  283SOL    HW210889   2.136   3.780   1.242  1.1085 -3.2978 -0.7887
  284SOL     OW10890   3.151   0.280   1.254  0.2252  0.1468  0.4471
  284SOL    HW110891   3.093   0.317   1.327 -1.0433 -2.5348  0.8612
  284SOL    HW210892   3.095   0.262   1.173  1.3002  1.4221 -0.6079
  285SOL     OW10893   1.989   8.413   0.261  0.0019 -0.2429 -0.4317
  285SOL    HW110894   2.068   8.358   0.286 -0.2743 -0.6450 -0.4411
  285SOL    HW210895   2.008   8.463   0.177 -0.4436 -1.7920 -1.4578
  286SOL     OW10896   3.934   0.297   2.642  0.1828  0.2127 -0.2438
  286SOL    HW110897   4.009   0.231   2.637  0.1146  0.1188 -0.0709
  286SOL    HW210898   3.875   0.273   2.720 -0.0077  0.3035 -0.3618
  287SOL     OW10899   9.715   2.543   1.764  0.5204 -0.3433 -0.9132
  287SOL    HW110900   9.770   2.486   1.703  0.9754 -1.8415  0.8558
  287SOL    HW210901   9.774   2.608   1.811  0.4458 -0.3860 -0.7586
  288SOL     OW10902   2.403   5.696   1.839 -0.4080  0.1000  0.3890
  288SOL    HW110903   2.457   5.693   1.755  0.4660 -0.9379  0.9758
  288SOL    HW210904   2.309   5.668   1.819  0.3032 -2.2277  0.1140
  289SOL     OW10905   0.783   3.616   1.993 -0.0516 -0.1897 -0.5338
  289SOL    HW110906   0.746   3.638   2.083 -1.0550  0.7194 -1.1581
  289SOL    HW210907   0.821   3.523   1.994 -0.6038 -0.4096  0.6473
  290SOL     OW10908   2.866   8.433   1.980 -0.1757  0.4076 -0.0541
  290SOL    HW110909   2.916   8.495   2.041 -0.5817  1.6719 -0.9723
  290SOL    HW210910   2.899   8.445   1.887 -1.6032  0.6437 -0.5393
  291SOL     OW10911   3.706   3.031   1.308 -0.9031  0.2320 -0.6478
  291SOL    HW110912   3.668   3.108   1.360 -1.6803 -0.5680 -0.0017
  291SOL    HW210913   3.699   2.948   1.362  1.7041  0.0208 -0.5743
  292SOL     OW10914   1.632   3.217   0.164  0.4288 -0.6071 -0.9237
  292SOL    HW110915   1.673   3.306   0.186  0.1491 -0.9042  0.8779
  292SOL    HW210916   1.677   3.179   0.084  1.0997  0.7971 -1.2376
  293SOL     OW10917   3.357   3.886   2.367  0.0059 -0.2720 -0.1175
  293SOL    HW110918   3.417   3.818   2.409  0.4030 -0.5712 -1.1515
  293SOL    HW210919   3.272   3.891   2.418 -0.2606 -1.9762 -0.3487
  294SOL     OW10920   1.110   3.359   1.621  0.4629  0.2867  0.5571
  294SOL    HW110921   1.207   3.366   1.643  0.5105  1.7042 -0.0661
  294SOL    HW210922   1.056   3.399   1.696  0.4856  1.9143 -0.2650
  295SOL     OW10923   0.288   1.284   1.908 -0.3539 -0.2353 -0.3184
  295SOL    HW110924   0.246   1.361   1.860 -1.5104 -0.0215  1.0016
  295SOL    HW210925   0.305   1.209   1.843 -0.5127  0.6039 -1.3399
  296SOL     OW10926   8.681   3.029   2.776 -0.2433  0.4718 -0.0051
  296SOL    HW110927   8.675   2.939   2.733 -1.2732  1.0689 -1.1329
  296SOL    HW210928   8.690   3.017   2.875  0.4478 -0.8816 -0.2109
  297SOL     OW10929   4.435   2.819   0.911  0.4422 -0.6308  0.3050
  297SOL    HW110930   4.392   2.801   0.999  1.4947 -0.4267  0.8582
  297SOL    HW210931   4.479   2.908   0.912 -0.0712 -0.3573 -0.6358
  298SOL     OW10932   0.225   2.305   1.435  0.6832 -0.4934  0.5117
  298SOL    HW110933   0.170   2.374   1.388  0.3134 -0.9697  0.2328
  298SOL    HW210934   0.297   2.349   1.489  1.6663  0.0124 -1.2084
  299SOL     OW10935   0.808   1.576   2.052 -0.0827 -0.1836  0.3643
  299SOL    HW110936   0.746   1.643   2.091 -0.5272 -0.2199 -0.2721
  299SOL    HW210937   0.755   1.501   2.012  0.3475  0.1019 -0.7508
  300SOL     OW10938   0.776   8.705   0.431 -0.0861  0.0053  0.2049
  300SOL    HW110939   0.762   8.804   0.431  1.7362  0.3144  2.0905
  300SOL    HW210940   0.819   8.678   0.518 -0.8231 -2.4819 -0.1602
  301SOL     OW10941   0.338   1.652   0.044 -0.1653  0.2485 -0.1442
  301SOL    HW110942   0.261   1.589   0.033  1.0159 -1.0662 -1.0086
  301SOL    HW210943   0.423   1.600   0.053  0.6383  1.6807  0.7931
  302SOL     OW10944   8.550   2.660   2.073 -0.1430  0.1353  0.0141
  302SOL    HW110945   8.479   2.612   2.124 -0.9838 -0.5406 -1.7398
  302SOL    HW210946   8.519   2.752   2.051 -0.4472 -0.1161 -0.6392
  303SOL     OW10947   9.312   1.201   2.447  0.2216  0.2590  0.5713
  303SOL    HW110948   9.371   1.140   2.501  0.3350 -0.5235 -0.4128
  303SOL    HW210949   9.344   1.202   2.352 -1.2708 -0.0753  0.0554
  304SOL     OW10950   1.519   8.101   1.655 -0.2256 -0.9637  0.0435
  304SOL    HW110951   1.581   8.160   1.602  0.3924 -0.7864  0.9459
  304SOL    HW210952   1.508   8.014   1.608 -1.4955  0.0221 -1.5388
  305SOL     OW10953   2.700   9.978   1.221  0.0801  0.3439 -0.8684
  305SOL    HW110954   2.725   9.960   1.316 -0.3276  0.3845 -0.7501
  305SOL    HW210955   2.721   9.898   1.165  2.2816  1.0889 -1.1409
  306SOL     OW10956   1.176   1.002   1.092  0.1242  0.2608 -0.8542
  306SOL    HW110957   1.155   1.073   1.160 -0.1271  0.2162 -0.8857
  306SOL    HW210958   1.114   1.012   1.014 -1.0108 -1.0042 -0.1473
  307SOL     OW10959   8.298   2.585   1.910 -0.0154 -0.1779 -0.4437
  307SOL    HW110960   8.322   2.671   1.865  0.5879 -0.7221 -1.1757
  307SOL    HW210961   8.273   2.603   2.006 -3.0498  1.2248 -1.4248
  308SOL     OW10962   2.535   7.151   1.009  0.3020 -0.0224 -0.3204
  308SOL    HW110963   2.476   7.077   1.040  1.5450 -1.4020 -1.1918
  308SOL    HW210964   2.502   7.184   0.921 -0.0782  0.2756 -0.0705
  309SOL     OW10965   4.179   1.128   1.945 -0.2209 -0.0832  0.2133
  309SOL    HW110966   4.114   1.103   2.017  0.1521 -2.8311 -0.3792
  309SOL    HW210967   4.172   1.063   1.870  2.2350  0.4224 -0.4765
  310SOL     OW10968   9.585   3.731   2.484 -0.2440 -0.1671  0.2250
  310SOL    HW110969   9.600   3.652   2.424 -2.5782 -0.2014 -0.3729
  310SOL    HW210970   9.575   3.701   2.578 -2.9008 -0.8209 -0.2283
  311SOL     OW10971   9.910   2.286   0.233  0.0043 -0.3509 -0.2562
  311SOL    HW110972   9.990   2.343   0.246  0.0852 -0.1169 -1.7034
  311SOL    HW210973   9.889   2.237   0.318  0.1800  1.4913  0.8539
  312SOL     OW10974   0.469   3.218   0.351 -0.3920 -0.0363 -0.3743
  312SOL    HW110975   0.464   3.123   0.380 -2.0835 -0.4138 -1.8183
  312SOL    HW210976   0.562   3.237   0.317 -0.7658 -2.0021 -2.6868
  313SOL     OW10977   1.780   6.567   0.283  0.0606  0.0302  0.3816
  313SOL    HW110978   1.845   6.633   0.319 -0.4358  0.3208  0.7548
  313SOL    HW210979   1.794   6.478   0.328  1.3749 -0.3892 -0.8245
  314SOL     OW10980   2.445   0.629   0.697  0.6026  0.0149  0.8575
  314SOL    HW110981   2.386   0.634   0.778 -2.1350 -1.9595 -0.9198
  314SOL    HW210982   2.392   0.657   0.617  3.1812  1.5983 -0.3382
  315SOL     OW10983   1.294   8.249   1.124 -0.0586  0.3633 -0.7161
  315SOL    HW110984   1.232   8.292   1.059 -0.4326 -1.0837 -1.3476
  315SOL    HW210985   1.377   8.218   1.077 -0.8025 -1.6723 -0.7573
  316SOL     OW10986   1.516   2.648   1.505 -0.1445  0.3540  0.0857
  316SOL    HW110987   1.580   2.713   1.545  0.7538 -0.1243 -0.5603
  316SOL    HW210988   1.429   2.651   1.555  1.0821 -0.4998  2.3038
  317SOL     OW10989   1.963   2.041   1.488  0.1407  0.3117  0.9873
  317SOL    HW110990   1.914   1.974   1.432  0.6502 -1.4948  2.6694
  317SOL    HW210991   1.920   2.131   1.477 -1.0510 -0.4224 -0.6552
  318SOL     OW10992   3.520   3.540   2.277 -0.9139  0.4025  0.2988
  318SOL    HW110993   3.509   3.554   2.179 -1.4567 -0.4170  0.2382
  318SOL    HW210994   3.581   3.610   2.314 -0.7373  0.7365 -0.6127
  319SOL     OW10995   4.041   1.378   0.890 -0.1354  0.2357 -0.3006
  319SOL    HW110996   3.983   1.298   0.878 -0.0584 -0.1761  1.7813
  319SOL    HW210997   4.132   1.350   0.919  0.1882  1.0181 -0.5355
  320SOL     OW10998   2.949   8.849   2.389 -0.1666 -0.0011  0.1760
  320SOL    HW110999   3.040   8.878   2.418 -0.0615 -1.8509  1.7848
  320SOL    HW211000   2.892   8.930   2.372  1.6828  1.1632 -0.6271
  321SOL     OW11001   2.981   7.626   1.376  0.2961 -0.6639 -0.2680
  321SOL    HW111002   2.929   7.561   1.432  0.5134 -1.1928 -0.6768
  321SOL    HW211003   2.941   7.631   1.285 -1.5177  1.9825  0.6174
  322SOL     OW11004   0.438   0.993   0.412  0.4452  0.0205  0.3069
  322SOL    HW111005   0.417   1.037   0.325 -0.0302 -0.9044 -0.0575
  322SOL    HW211006   0.368   0.923   0.431 -0.0507  0.9435  1.9461
  323SOL     OW11007   0.145   5.559   2.166  0.1551  0.4786 -0.1393
  323SOL    HW111008   0.139   5.618   2.246  0.1439  0.6954 -0.3002
  323SOL    HW211009   0.131   5.613   2.083 -0.4433  0.1526 -0.2526
  324SOL     OW11010   1.601   0.208   2.130 -0.1676 -0.6289 -0.2634
  324SOL    HW111011   1.518   0.180   2.081 -0.2501  0.4848 -0.7825
  324SOL    HW211012   1.681   0.184   2.076 -0.1093 -2.3591  0.5684
  325SOL     OW11013   3.436   9.134   0.304 -0.2283 -0.0992  0.0320
  325SOL    HW111014   3.467   9.209   0.362 -1.0997 -0.1299  0.5348
  325SOL    HW211015   3.356   9.090   0.344 -1.8329  0.8952 -1.9675
  326SOL     OW11016   3.933   2.146   1.446 -0.4864 -0.3287 -0.1668
  326SOL    HW111017   3.968   2.053   1.430 -1.3294 -0.5610 -0.7478
  326SOL    HW211018   3.872   2.145   1.525  0.9824  0.1168  0.9702
  327SOL     OW11019   1.563   4.640   0.851 -0.6666 -0.1858 -0.0791
  327SOL    HW111020   1.613   4.561   0.814 -1.4173 -1.1172  0.8464
  327SOL    HW211021   1.486   4.661   0.791 -0.3112  0.0085 -0.4679
  328SOL     OW11022   0.494   4.509   2.546 -0.7016  0.1412 -0.2525
  328SOL    HW111023   0.584   4.545   2.521 -0.1337 -0.3234  1.0862
  328SOL    HW211024   0.443   4.578   2.597  0.2581 -0.7795  2.0213
  329SOL     OW11025   1.794   1.815   0.391  0.3151 -0.0834 -0.3621
  329SOL    HW111026   1.727   1.881   0.424  1.4505  1.0259 -0.2285
  329SOL    HW211027   1.791   1.733   0.448 -2.4247 -0.9624 -1.6968
  330SOL     OW11028   4.131   0.595   0.026  0.0237  0.2121  0.6288
  330SOL    HW111029   4.097   0.578  -0.066  1.3985  1.1439 -0.0525
  330SOL    HW211030   4.204   0.662   0.024  1.4436 -1.2267  2.1701
  331SOL     OW11031   7.997   1.292   1.278 -0.3454 -0.8038  0.3977
  331SOL    HW111032   7.951   1.211   1.315  1.3927 -3.2522 -2.6309
  331SOL    HW211033   8.092   1.294   1.310  0.4161 -1.5168 -1.7842
  332SOL     OW11034   1.347   9.059   1.292  0.0024  0.0125 -0.1510
  332SOL    HW111035   1.409   9.009   1.231 -1.1737 -0.8738 -0.6325
  332SOL    HW211036   1.389   9.146   1.317  1.0551 -0.1705 -1.2072
  333SOL     OW11037   4.727   3.067   1.130 -0.1478  0.2082  0.3332
  333SOL    HW111038   4.748   2.986   1.075  2.1022  1.3038 -0.4886
  333SOL    HW211039   4.681   3.039   1.215 -0.3340 -1.8101 -0.3924
  334SOL     OW11040   2.856   9.155   2.365 -0.4997  0.0457  0.3660
  334SOL    HW111041   2.819   9.229   2.308 -0.0998 -0.3688 -0.4304
  334SOL    HW211042   2.878   9.191   2.456  1.7897  1.4335 -0.7040
  335SOL     OW11043   4.061   0.906   0.397 -0.3193  0.0017 -0.3131
  335SOL    HW111044   4.075   0.811   0.370 -0.9137  0.0670 -0.8703
  335SOL    HW211045   4.102   0.922   0.487 -1.3664 -1.1288  0.3836
  336SOL     OW11046   2.402   5.850   2.776  0.1430  0.2395 -0.3671
  336SOL    HW111047   2.384   5.760   2.738 -0.9652  1.4353 -2.8115
  336SOL    HW211048   2.443   5.908   2.706  1.7522  1.3683  1.4520
  337SOL     OW11049   0.226   0.128   1.211 -0.8653  0.1515  0.3368
  337SOL    HW111050   0.289   0.104   1.138 -1.8088 -0.7570 -0.2101
  337SOL    HW211051   0.143   0.168   1.172 -0.9127  0.7086  0.9936
  338SOL     OW11052   2.655   9.893   0.092 -0.4960  0.2683  0.5065
  338SOL    HW111053   2.715   9.923   0.166 -0.3995  1.8570 -0.2079
  338SOL    HW211054   2.629   9.971   0.036 -0.0643 -0.9854 -1.5169
  339SOL     OW11055   2.684   7.732   1.565 -0.4100 -0.0207 -0.2320
  339SOL    HW111056   2.701   7.693   1.656 -0.8247  1.7787  0.6244
  339SOL    HW211057   2.771   7.766   1.527 -0.5726  1.0750  0.3633
  340SOL     OW11058   3.339   1.712   1.322  0.3411 -0.4780 -0.2070
  340SOL    HW111059   3.400   1.782   1.286  0.9826 -1.2178 -0.5625
  340SOL    HW211060   3.256   1.756   1.357  1.5347  0.6304  1.3163
  341SOL     OW11061   3.496   7.646   0.310  0.3488 -0.1683  0.0059
  341SOL    HW111062   3.586   7.604   0.297  1.5756  1.2622  3.3183
  341SOL    HW211063   3.494   7.735   0.265  0.1686 -0.6916 -1.0388
  342SOL     OW11064   2.397   6.649   1.219 -0.1078  0.3266 -0.3059
  342SOL    HW111065   2.393   6.669   1.121 -0.9231  0.4166 -0.2586
  342SOL    HW211066   2.459   6.713   1.264  1.0565 -0.3537 -0.9185
  343SOL     OW11067   1.546   9.432   1.625 -0.6352 -0.3499  0.4476
  343SOL    HW111068   1.625   9.484   1.658 -1.5586  1.7023 -0.4464
  343SOL    HW211069   1.554   9.337   1.653  2.6519 -0.3997 -0.5182
  344SOL     OW11070   2.643   9.404   0.091 -0.1558 -0.0762  0.3806
  344SOL    HW111071   2.679   9.430   0.002 -0.5328 -0.6374  0.0538
  344SOL    HW211072   2.711   9.422   0.162  0.1463  0.3707 -0.0224
  345SOL     OW11073   3.830   8.724   0.044 -0.1388  0.1473 -0.0783
  345SOL    HW111074   3.897   8.762   0.108 -0.9012  0.7667  0.3499
  345SOL    HW211075   3.772   8.797   0.008  0.5894 -0.1092 -1.8596
  346SOL     OW11076   3.181   0.145   0.361 -0.2461 -0.2266 -0.1870
  346SOL    HW111077   3.121   0.115   0.434  1.9848 -0.1689  1.7319
  346SOL    HW211078   3.197   0.244   0.370 -0.3978 -0.1186 -1.0840
  347SOL     OW11079   2.094   7.966   2.106  0.2638  0.0790  0.2299
  347SOL    HW111080   2.122   7.890   2.048  0.1672 -1.0830  1.6885
  347SOL    HW211081   2.095   8.051   2.052  2.2330 -0.6325 -0.9020
  348SOL     OW11082   2.697   5.090   2.789  0.4011  0.5980 -0.2800
  348SOL    HW111083   2.626   5.038   2.837  3.1811 -0.6142  2.6903
  348SOL    HW211084   2.767   5.027   2.755  1.1319  1.9578 -1.3387
  349SOL     OW11085   4.040   2.971   0.199 -0.0476  0.0326  0.1069
  349SOL    HW111086   4.089   2.895   0.156  2.3075  0.4032  2.0289
  349SOL    HW211087   3.945   2.944   0.216 -0.4253 -0.8876 -3.2211
  350SOL     OW11088   2.877   8.163   0.509  0.2670  0.4288 -0.5330
  350SOL    HW111089   2.929   8.241   0.475 -1.7045  1.0992 -2.1594
  350SOL    HW211090   2.805   8.195   0.570  1.7044 -0.4819  1.6904
  351SOL     OW11091   2.590   0.272   0.702  0.2838 -0.5502  0.0982
  351SOL    HW111092   2.518   0.240   0.764  0.8242  1.1602  1.6593
  351SOL    HW211093   2.663   0.203   0.699 -0.7281 -1.6243 -0.3425
  352SOL     OW11094   3.289   7.759   1.085  0.0976  0.1715  0.0173
  352SOL    HW111095   3.353   7.800   1.020  0.0091 -0.2332 -0.3214
  352SOL    HW211096   3.270   7.665   1.059  0.8696 -0.3351  1.2038
  353SOL     OW11097   1.347   3.294   2.517  0.6951  0.4113  0.2462
  353SOL    HW111098   1.272   3.229   2.526  0.3777  0.5887 -1.0364
  353SOL    HW211099   1.315   3.386   2.542 -0.3801  1.0297 -3.1573
  354SOL     OW11100   0.912   1.246   1.527 -0.6089 -0.3944  0.2748
  354SOL    HW111101   0.982   1.178   1.550  0.6239  0.4733 -0.8195
  354SOL    HW211102   0.916   1.322   1.593 -2.9404 -1.9967  2.3633
  355SOL     OW11103   9.290   2.939   2.608  0.1334  0.2009 -0.3195
  355SOL    HW111104   9.385   2.913   2.622 -0.3222 -1.0195  0.5975
  355SOL    HW211105   9.243   2.869   2.554 -0.7591 -0.2414  0.9971
  356SOL     OW11106   0.189   3.071   0.200  0.1501 -0.2701 -0.5607
  356SOL    HW111107   0.147   3.159   0.221 -0.6282 -0.4654 -1.2669
  356SOL    HW211108   0.126   2.997   0.224  0.6245 -0.6248 -0.3829
  357SOL     OW11109   8.938   1.496   1.642  0.1136  0.1315  0.3303
  357SOL    HW111110   8.954   1.410   1.594  0.4876 -0.0275  0.7409
  357SOL    HW211111   8.866   1.483   1.711 -0.1848  0.2743  0.0499
  358SOL     OW11112   2.612   8.001   1.491 -0.0863 -0.2508 -0.2179
  358SOL    HW111113   2.617   7.904   1.512  2.8020 -0.1330 -0.1245
  358SOL    HW211114   2.698   8.031   1.450 -0.4336  2.5215  0.9355
  359SOL     OW11115   1.762   7.979   0.937  0.2797 -0.5867 -0.0869
  359SOL    HW111116   1.708   7.929   1.004  0.0573  0.3239  0.4286
  359SOL    HW211117   1.789   7.918   0.863 -2.4029 -0.8020 -0.9350
  360SOL     OW11118   1.869   8.398   0.663  0.5063  0.4657  0.8776
  360SOL    HW111119   1.933   8.341   0.612  0.1062  0.7415  0.0652
  360SOL    HW211120   1.788   8.346   0.687 -0.5319  1.0888 -1.1730
  361SOL     OW11121   2.897   0.806   2.113 -0.4735  0.2935  0.5556
  361SOL    HW111122   2.989   0.799   2.149 -0.3264  1.2473  0.3852
  361SOL    HW211123   2.859   0.896   2.135 -1.1957  0.0771  0.2328
  362SOL     OW11124   9.949   0.437   2.203 -0.0421  0.1511  0.0132
  362SOL    HW111125   9.892   0.394   2.133 -0.1618 -0.3680  0.4177
  362SOL    HW211126   9.913   0.527   2.225  0.0747  0.3725 -0.6903
  363SOL     OW11127   2.827   3.587   0.788  0.7370  0.3201 -0.0352
  363SOL    HW111128   2.892   3.528   0.741  1.5596  1.1124  0.0977
  363SOL    HW211129   2.876   3.655   0.842 -0.2012  0.6798  0.3808
  364SOL     OW11130   2.452   9.626   0.079  0.1439  0.0117  0.6723
  364SOL    HW111131   2.485   9.533   0.094 -1.2620 -0.5504  0.3797
  364SOL    HW211132   2.522   9.679   0.031  0.2057 -1.4728 -0.9124
  365SOL     OW11133   1.743   1.981   1.966 -0.3380  0.3944 -0.4221
  365SOL    HW111134   1.765   1.899   1.914  1.9796 -0.1035  1.2571
  365SOL    HW211135   1.753   2.062   1.908 -3.0848 -0.4655 -2.2154
  366SOL     OW11136   9.940   0.501   1.282 -0.0609  0.4815  0.0517
  366SOL    HW111137   9.912   0.565   1.211  0.7925 -2.2548 -2.8967
  366SOL    HW211138  10.029   0.527   1.318 -0.1119  1.4033 -0.4979
  367SOL     OW11139   9.605   1.222   0.894  0.3814  0.5899  0.0868
  367SOL    HW111140   9.674   1.157   0.863  1.8614  0.4234  3.4484
  367SOL    HW211141   9.523   1.214   0.838  2.3147 -0.6944 -2.6568
  368SOL     OW11142   2.260   2.509   0.081 -0.2093 -0.3116 -0.0319
  368SOL    HW111143   2.333   2.472   0.137  0.2110 -0.5312 -0.7226
  368SOL    HW211144   2.172   2.492   0.125  0.1484 -0.1228  0.7535
  369SOL     OW11145   1.746   3.740   1.299 -0.5495 -0.0184  0.3870
  369SOL    HW111146   1.839   3.705   1.295 -0.3104  0.7952 -1.5321
  369SOL    HW211147   1.746   3.829   1.346  0.2089  1.6275 -2.5773
  370SOL     OW11148   1.390   4.635   1.531  0.1518  0.0264 -0.1551
  370SOL    HW111149   1.350   4.603   1.617  0.3556 -1.7860 -0.7155
  370SOL    HW211150   1.479   4.677   1.549  0.0628 -0.0813  0.5474
  371SOL     OW11151   3.997   9.718   0.490 -0.0797 -0.1685  0.0716
  371SOL    HW111152   4.068   9.684   0.553 -1.5821 -2.1711  0.7515
  371SOL    HW211153   3.911   9.671   0.510 -1.3617  1.5502 -1.3775
  372SOL     OW11154   9.755   2.644   2.422 -0.2572 -0.1087 -0.0580
  372SOL    HW111155   9.819   2.567   2.424  0.0113  0.1368  0.7209
  372SOL    HW211156   9.762   2.690   2.333  1.5206  0.6510  0.4444
  373SOL     OW11157   9.566   2.445   2.366 -0.3891 -0.1389  0.3302
  373SOL    HW111158   9.545   2.395   2.451  0.7413  0.9550  1.2728
  373SOL    HW211159   9.618   2.527   2.388  0.4199 -0.1428 -1.5054
  374SOL     OW11160   1.588   3.333   0.594  0.2578 -0.1827  0.3078
  374SOL    HW111161   1.531   3.415   0.588 -0.5342 -0.6355  1.4462
  374SOL    HW211162   1.684   3.360   0.598 -0.0557  0.7719  1.9941
  375SOL     OW11163   8.443   2.501   2.757 -0.4414 -0.0782  0.0106
  375SOL    HW111164   8.387   2.426   2.721 -1.3996  0.7203 -0.1716
  375SOL    HW211165   8.426   2.584   2.705  0.6760  0.2661  0.1674
  376SOL     OW11166   1.666   7.581   1.335 -0.0744  0.7276  0.0882
  376SOL    HW111167   1.622   7.601   1.423 -0.0246  0.2291  0.2297
  376SOL    HW211168   1.755   7.628   1.331  1.3968 -1.7936  1.6459
  377SOL     OW11169   1.116   4.929   0.370  0.1911  0.2993  0.5941
  377SOL    HW111170   1.168   4.892   0.447  1.9393 -0.6871 -1.0351
  377SOL    HW211171   1.159   5.014   0.339  0.8333 -0.5188 -0.7606
  378SOL     OW11172   3.674   2.414   0.038  0.1519  0.5662  0.6709
  378SOL    HW111173   3.681   2.333   0.095 -1.3380 -0.0799 -0.0454
  378SOL    HW211174   3.598   2.404  -0.026 -0.4166  2.7766  0.9617
  379SOL     OW11175   3.071   4.079   0.054  0.4185  0.4559  0.0183
  379SOL    HW111176   3.125   4.154   0.017 -1.8115  1.1403 -1.9469
  379SOL    HW211177   3.057   4.094   0.152 -0.2467  2.7857 -0.4042
  380SOL     OW11178   2.505   6.888   1.376 -0.4437 -0.4817  0.3661
  380SOL    HW111179   2.439   6.863   1.446 -0.6294  1.3228  0.8616
  380SOL    HW211180   2.598   6.873   1.410 -0.5395  0.1511  0.9258
  381SOL     OW11181   9.794   5.406   2.526 -0.0219  0.0463  0.1166
  381SOL    HW111182   9.759   5.467   2.455 -0.1105 -1.2263 -0.9524
  381SOL    HW211183   9.756   5.432   2.615  0.0474  1.6208 -0.2999
  382SOL     OW11184   1.035   0.973   1.576  0.4161  0.1253 -0.1781
  382SOL    HW111185   1.092   0.938   1.502 -0.3770  0.1754 -0.8106
  382SOL    HW211186   1.093   1.020   1.643  1.5999 -2.8634  0.9842
  383SOL     OW11187   1.208   5.242   1.145 -1.4342 -0.0521 -0.0184
  383SOL    HW111188   1.227   5.332   1.184 -0.4959 -0.3969  0.3439
  383SOL    HW211189   1.256   5.232   1.058  0.9770 -1.3217  1.4059
  384SOL     OW11190   1.197   5.982   0.238 -0.2045 -0.3752  0.6012
  384SOL    HW111191   1.192   5.922   0.158 -3.0860 -0.5028  0.8191
  384SOL    HW211192   1.129   5.952   0.306  1.3396  0.5056  2.5592
  385SOL     OW11193   3.578   1.705   1.053  0.6928 -0.3130 -0.0357
  385SOL    HW111194   3.488   1.705   1.010  0.5803  0.0707  0.2035
  385SOL    HW211195   3.615   1.797   1.055  0.9412 -0.4149  0.1775
  386SOL     OW11196   1.974   7.022   0.394 -0.0710  0.3333  0.4238
  386SOL    HW111197   1.996   7.047   0.488 -1.4800 -0.2541  0.9302
  386SOL    HW211198   1.875   7.011   0.385  0.2452 -2.1542 -0.4789
  387SOL     OW11199   2.238   3.500   0.292  0.2466  0.0611  0.1415
  387SOL    HW111200   2.335   3.514   0.314  0.1201  0.2280  0.5913
  387SOL    HW211201   2.183   3.513   0.374  0.1024 -2.9077  0.5801
  388SOL     OW11202   3.268   0.806   1.835  0.4948 -0.1506 -0.3760
  388SOL    HW111203   3.255   0.713   1.801  1.5142 -0.5652  0.3558
  388SOL    HW211204   3.237   0.871   1.766  0.7222 -1.0232 -1.3124
  389SOL     OW11205   8.875   3.116   2.584  0.1612 -0.6592  0.4634
  389SOL    HW111206   8.833   3.086   2.670 -0.4437 -3.7313 -0.8670
  389SOL    HW211207   8.812   3.102   2.509  1.5662 -0.2362 -0.8147
  390SOL     OW11208   9.877   3.566   2.634  0.7644  0.1379  0.6213
  390SOL    HW111209   9.895   3.609   2.722 -3.4357  0.8396  1.2483
  390SOL    HW211210   9.884   3.635   2.562 -1.0879  0.7938  1.0527
  391SOL     OW11211   9.563   0.862   0.818 -0.6562  0.5480  0.2393
  391SOL    HW111212   9.555   0.771   0.777  0.4120  1.7663 -2.8333
  391SOL    HW211213   9.655   0.898   0.801 -1.4739  2.7242  0.2722
  392SOL     OW11214   1.382   1.258   0.088 -0.2317  0.2271 -0.0702
  392SOL    HW111215   1.318   1.244   0.013  1.0441 -1.2515 -0.8963
  392SOL    HW211216   1.473   1.226   0.062  0.5857  1.1349  1.5445
  393SOL     OW11217   0.776   5.420   1.754 -0.0125 -0.3076  0.2730
  393SOL    HW111218   0.724   5.340   1.723  1.2314 -0.8973 -0.3362
  393SOL    HW211219   0.855   5.391   1.807  0.9546  0.4733 -0.7111
  394SOL     OW11220   1.010   0.496   0.433  0.0456  0.0550 -0.3930
  394SOL    HW111221   1.042   0.435   0.506 -0.6012  0.0175 -0.1334
  394SOL    HW211222   0.966   0.441   0.361 -1.1184  0.2624  0.1475
  395SOL     OW11223   2.397   0.105   0.013 -0.5062  0.2885  0.0514
  395SOL    HW111224   2.342   0.026   0.039 -1.8753  0.6798 -1.5771
  395SOL    HW211225   2.356   0.188   0.051 -1.3157  0.6238 -1.4968
  396SOL     OW11226   0.551   4.254   1.760  0.3717 -0.0647  0.1643
  396SOL    HW111227   0.604   4.177   1.798  3.2079  1.3213 -0.8634
  396SOL    HW211228   0.555   4.331   1.824  0.4648  0.3934 -0.3972
  397SOL     OW11229   1.192   1.203   1.267  0.4379 -0.3397  0.0878
  397SOL    HW111230   1.169   1.283   1.322 -0.5844 -0.8988  0.4822
  397SOL    HW211231   1.284   1.171   1.291  0.8671  0.7312 -0.1016
  398SOL     OW11232   2.671   2.287   0.531 -0.2138  0.0542  0.1671
  398SOL    HW111233   2.676   2.196   0.571 -0.6846  0.0326  0.1823
  398SOL    HW211234   2.724   2.289   0.446 -1.1007 -0.5417 -0.4120
  399SOL     OW11235   3.732   0.528   0.002 -0.2055  0.4603  0.2851
  399SOL    HW111236   3.805   0.575   0.051  0.7587  1.0294 -1.6203
  399SOL    HW211237   3.746   0.429   0.006  0.4971  0.5551  0.1927
  400SOL     OW11238   1.812   5.422   0.287 -0.6162  0.2925  0.2719
  400SOL    HW111239   1.755   5.430   0.368 -0.8929  1.4376 -0.0269
  400SOL    HW211240   1.756   5.438   0.205  0.2044  1.9350  0.0022
  401SOL     OW11241   3.976   4.058   1.122 -0.3005 -0.6516 -0.0353
  401SOL    HW111242   3.923   4.055   1.037 -0.4842  0.0355  0.0509
  401SOL    HW211243   4.069   4.087   1.102 -1.0097  1.9941  0.2992
  402SOL     OW11244   2.829   0.306   1.653 -0.6123 -0.5517  0.6228
  402SOL    HW111245   2.847   0.209   1.664 -0.0040 -0.2283  2.9376
  402SOL    HW211246   2.866   0.338   1.566  0.2976 -2.1439  0.4087
  403SOL     OW11247   3.352   4.019   0.437 -0.0470  0.1132  0.6650
  403SOL    HW111248   3.315   3.985   0.351  0.5728  0.8119  0.1168
  403SOL    HW211249   3.449   3.993   0.445 -0.1987 -0.2621  1.3159
  404SOL     OW11250   0.795   5.916   1.456  0.7041  0.5862  0.0883
  404SOL    HW111251   0.884   5.889   1.492  0.0835 -0.3310  0.9453
  404SOL    HW211252   0.805   5.999   1.400  2.3894 -0.5831 -1.3819
  405SOL     OW11253   7.864   1.539   0.514  0.0176 -0.0030  0.0249
  405SOL    HW111254   7.883   1.541   0.612 -0.3121 -0.2710  0.0961
  405SOL    HW211255   7.766   1.534   0.499  0.0558  0.2438 -0.3244
  406SOL     OW11256   9.180   0.554   1.294  0.3479 -0.2387  0.2711
  406SOL    HW111257   9.176   0.652   1.312  0.3855  0.0408 -1.2626
  406SOL    HW211258   9.249   0.512   1.354 -0.3287  0.4957  1.6004
  407SOL     OW11259   2.764   3.357   0.272 -0.0025 -0.0069 -0.3607
  407SOL    HW111260   2.739   3.414   0.193  0.8041  0.7540 -0.0729
  407SOL    HW211261   2.681   3.334   0.323 -0.4899 -0.1724 -1.1984
  408SOL     OW11262   3.462   8.765   1.010  0.0632  0.1836 -0.2652
  408SOL    HW111263   3.544   8.822   1.012  0.4932 -0.3624 -1.9080
  408SOL    HW211264   3.385   8.820   0.978  0.3469  0.0019 -1.2581
  409SOL     OW11265   8.633   4.061   0.917 -0.4449 -0.4518 -0.1227
  409SOL    HW111266   8.665   4.147   0.957 -0.8090 -0.0860 -0.6042
  409SOL    HW211267   8.657   3.985   0.977  0.2018 -0.0517  0.1333
  410SOL     OW11268   9.650   3.848   1.920 -0.5137  0.4783 -0.0936
  410SOL    HW111269   9.657   3.881   1.826 -0.0051 -0.6696 -0.4684
  410SOL    HW211270   9.672   3.923   1.983 -3.3437  1.9380 -0.7888
  411SOL     OW11271   0.218   2.108   1.260 -0.1299 -0.0541  0.2931
  411SOL    HW111272   0.230   2.186   1.322 -2.1249 -0.7676  1.6100
  411SOL    HW211273   0.268   2.030   1.297  1.3040  0.3716 -0.6782
  412SOL     OW11274   2.856   3.817   2.441  0.4646  0.3442  0.0311
  412SOL    HW111275   2.874   3.856   2.351 -0.5115  1.1861  0.1887
  412SOL    HW211276   2.942   3.800   2.489  0.9982 -0.4675 -1.2014
  413SOL     OW11277   0.819   6.117   1.282  0.4954 -0.4805 -0.3386
  413SOL    HW111278   0.899   6.167   1.247  0.8817 -1.1726 -0.4680
  413SOL    HW211279   0.738   6.174   1.275  0.8927  0.0451 -0.6931
  414SOL     OW11280   9.360   2.533   2.198  0.2062  0.2826  0.2729
  414SOL    HW111281   9.413   2.570   2.122  1.3391  2.2627  1.9314
  414SOL    HW211282   9.423   2.496   2.267 -0.7377 -0.5385  0.7000
  415SOL     OW11283   2.529   2.901   0.452 -0.9867  0.2350  0.3384
  415SOL    HW111284   2.565   2.832   0.388 -0.7110  0.2611  0.4646
  415SOL    HW211285   2.482   2.855   0.527 -0.9646  0.1916  0.3261
  416SOL     OW11286   1.078   2.045   2.648  0.2922  0.0127  0.2147
  416SOL    HW111287   0.992   2.024   2.695 -0.4789 -0.4594 -1.3476
  416SOL    HW211288   1.153   1.996   2.691 -0.1187  0.8725  1.9611
  417SOL     OW11289   9.660   0.810   1.386 -0.5253  0.1269 -0.5549
  417SOL    HW111290   9.635   0.726   1.339 -0.1239  0.4304 -1.3164
  417SOL    HW211291   9.751   0.840   1.356 -0.0764  0.1044  0.7171
  418SOL     OW11292   1.212   4.723   2.228 -0.3176  0.7678  0.1016
  418SOL    HW111293   1.150   4.781   2.174 -1.2538 -0.1946  0.1217
  418SOL    HW211294   1.159   4.667   2.291  0.5011 -0.8321 -0.6110
  419SOL     OW11295   2.496   8.442   1.580  0.0732  0.0569 -0.3170
  419SOL    HW111296   2.419   8.389   1.545 -1.9708  0.9517  2.5613
  419SOL    HW211297   2.477   8.539   1.569  0.8686  0.2782  0.2635
  420SOL     OW11298   3.029   3.221   1.418  0.5453  0.3747 -0.5822
  420SOL    HW111299   3.041   3.176   1.330  0.2003  0.2078 -0.5438
  420SOL    HW211300   3.086   3.303   1.422  1.1904 -0.0705 -0.6441
  421SOL     OW11301   3.292   0.518   0.565 -0.2679 -0.4088  0.1772
  421SOL    HW111302   3.299   0.613   0.595  0.8968 -0.0473 -1.1757
  421SOL    HW211303   3.198   0.498   0.537 -0.5012  0.3539  0.4218
  422SOL     OW11304   0.174   3.034   0.554 -0.1132  0.3413  0.2437
  422SOL    HW111305   0.252   2.979   0.523 -0.4914  0.3673 -0.7540
  422SOL    HW211306   0.168   3.118   0.500 -0.1495  0.8855  1.0863
  423SOL     OW11307   9.450   4.226   1.255  0.2088  0.7403 -0.1820
  423SOL    HW111308   9.469   4.324   1.245  1.3304  0.5893  0.4407
  423SOL    HW211309   9.463   4.181   1.167  0.5079  1.0127 -0.2785
  424SOL     OW11310   1.200   2.100   0.459  0.2152  0.3529 -0.0854
  424SOL    HW111311   1.298   2.110   0.441  0.1572 -0.8480 -1.1467
  424SOL    HW211312   1.153   2.077   0.373 -0.8925  0.2109  0.5552
  425SOL     OW11313   9.009   2.788   0.381 -0.0944 -0.0060 -0.0601
  425SOL    HW111314   8.928   2.750   0.426 -1.0272  1.3190 -0.5815
  425SOL    HW211315   9.078   2.717   0.372 -0.8917 -0.9575  1.1095
  426SOL     OW11316   2.998   8.656   0.851  0.1059 -0.3125 -0.2548
  426SOL    HW111317   2.948   8.742   0.853  0.6206 -0.0289  1.3121
  426SOL    HW211318   3.032   8.635   0.943  1.2331 -1.4540 -0.9132
  427SOL     OW11319   1.223   5.456   0.658  1.1719  0.3400 -0.0062
  427SOL    HW111320   1.153   5.390   0.685  1.0293  0.1514 -0.8123
  427SOL    HW211321   1.245   5.442   0.561 -0.6302  3.0290 -0.8730
  428SOL     OW11322   8.882   3.812   0.349 -0.0146  0.0635 -0.0281
  428SOL    HW111323   8.971   3.767   0.341  0.4231  1.4109 -4.0152
  428SOL    HW211324   8.893   3.900   0.396  0.3646 -0.6663  1.2871
  429SOL     OW11325   8.989   0.651   1.068  0.1318 -0.0970  0.1854
  429SOL    HW111326   9.058   0.589   1.029 -0.0058  0.1748 -0.5042
  429SOL    HW211327   9.033   0.710   1.136  0.3838 -0.5570  0.4285
  430SOL     OW11328   4.143   3.229   0.602  0.1410  0.0253 -0.0066
  430SOL    HW111329   4.126   3.184   0.690 -1.5371  1.9046  0.6845
  430SOL    HW211330   4.241   3.228   0.582  0.5960 -0.0779  2.0936
  431SOL     OW11331   0.856   4.939   1.365  0.0718 -0.2186  0.2035
  431SOL    HW111332   0.883   5.000   1.290 -1.2532 -1.0564 -0.9712
  431SOL    HW211333   0.858   4.989   1.451 -1.3581  1.5949 -0.7929
  432SOL     OW11334   0.066   1.177   2.468  0.3110  0.3493 -0.3932
  432SOL    HW111335   0.117   1.094   2.492 -0.4672 -0.0116  0.0017
  432SOL    HW211336   0.076   1.194   2.370  1.5600  0.5294 -0.2521
  433SOL     OW11337   1.860   1.886   0.029  0.4919 -0.5539 -0.3215
  433SOL    HW111338   1.872   1.829  -0.052  1.6261  0.4426 -0.8667
  433SOL    HW211339   1.781   1.853   0.082  0.0109 -1.4709 -1.5977
  434SOL     OW11340   1.066   3.914   2.492  0.0158  0.4423 -0.8753
  434SOL    HW111341   0.979   3.933   2.446 -1.2347  0.8129  1.5663
  434SOL    HW211342   1.066   3.957   2.581  2.2011 -0.6717 -0.3104
  435SOL     OW11343   3.638   9.008   0.954  0.0958 -0.3475  0.0539
  435SOL    HW111344   3.567   9.079   0.956  0.0514 -0.3730 -0.6675
  435SOL    HW211345   3.715   9.040   0.899 -0.3999 -1.3202 -1.2029
  436SOL     OW11346   1.179   2.783   2.328  0.0661 -0.0545  0.5197
  436SOL    HW111347   1.104   2.832   2.373 -1.5825 -0.3434 -1.7769
  436SOL    HW211348   1.188   2.817   2.234  0.5098 -2.4278 -0.3233
  437SOL     OW11349   8.460   3.211   0.299 -0.1093  0.7829  0.4576
  437SOL    HW111350   8.390   3.140   0.304  1.7225 -0.9976  1.5656
  437SOL    HW211351   8.447   3.275   0.375  0.0406 -0.1096  1.2491
  438SOL     OW11352   0.454   3.076   2.531  0.3761 -0.2371  0.3735
  438SOL    HW111353   0.526   3.016   2.567  0.3582 -1.0738 -0.9540
  438SOL    HW211354   0.494   3.146   2.473  0.1134 -0.8320 -0.5377
  439SOL     OW11355   0.841   7.914   1.698 -0.2181 -0.0823  0.1429
  439SOL    HW111356   0.759   7.870   1.734 -0.3126  0.0922  0.1398
  439SOL    HW211357   0.892   7.957   1.773 -0.5047  0.4291  0.0483
  440SOL     OW11358   9.901   4.656   2.630 -0.1256  0.1685 -0.0992
  440SOL    HW111359   9.961   4.730   2.600  1.1874 -0.4393  0.9671
  440SOL    HW211360   9.934   4.619   2.717 -1.0426 -1.3494 -0.3661
  441SOL     OW11361   8.451   3.203   1.279 -0.1880  0.3266 -0.1128
  441SOL    HW111362   8.420   3.131   1.342  0.5901 -0.4096 -0.5450
  441SOL    HW211363   8.542   3.234   1.308  0.9864 -1.3130 -1.8913
  442SOL     OW11364   8.279   3.558   1.925 -0.0391 -0.5021  0.3968
  442SOL    HW111365   8.183   3.582   1.939 -0.2822 -1.1663 -0.1122
  442SOL    HW211366   8.337   3.623   1.974 -0.7178  0.5708 -0.2138
  443SOL     OW11367   3.892   9.339   1.885  0.2965  0.0469  0.4257
  443SOL    HW111368   3.893   9.439   1.884 -4.0289  0.1967  1.9263
  443SOL    HW211369   3.926   9.306   1.973  0.8339  0.2060  0.2805
  444SOL     OW11370   2.905   4.196   1.250 -0.6640 -0.6062  0.0532
  444SOL    HW111371   2.898   4.156   1.159 -0.4268 -1.4688  0.4082
  444SOL    HW211372   2.854   4.140   1.316 -0.5243 -0.2046  0.5096
  445SOL     OW11373   4.190   1.948   1.094  0.0686  0.1908  0.3193
  445SOL    HW111374   4.215   2.036   1.135  1.6185  0.0101 -0.2202
  445SOL    HW211375   4.264   1.916   1.035 -1.0700 -0.8033 -0.6013
  446SOL     OW11376   2.360   8.159   1.530  0.4358 -0.2046  0.4810
  446SOL    HW111377   2.336   8.147   1.626  1.1477 -0.4005  0.6388
  446SOL    HW211378   2.430   8.092   1.505  1.0008  0.5179  0.1109
  447SOL     OW11379   0.279   9.728   2.066  0.0685  0.4168 -0.6560
  447SOL    HW111380   0.257   9.822   2.039  0.7910  1.2180  1.4271
  447SOL    HW211381   0.215   9.698   2.137  1.9183  0.6144  1.1504
  448SOL     OW11382   1.087   1.030   2.283 -0.3790  0.3100  0.2085
  448SOL    HW111383   1.067   0.978   2.366  2.1965 -0.7552  0.2023
  448SOL    HW211384   1.169   1.084   2.297 -0.6766  1.1498 -1.2251
  449SOL     OW11385   1.026   6.784   2.243 -0.4641  0.8028 -0.0908
  449SOL    HW111386   1.057   6.879   2.230 -1.0585  0.6507 -2.7927
  449SOL    HW211387   0.970   6.779   2.326  0.8931  2.4671  0.9894
  450SOL     OW11388   2.206   7.094   0.895 -0.1989  0.1566  0.5772
  450SOL    HW111389   2.284   7.109   0.835 -0.4685  1.3468  0.5131
  450SOL    HW211390   2.233   7.033   0.970  0.9607  1.0219  0.8843
  451SOL     OW11391   7.562   2.102   1.156  0.4500  0.7568 -0.2901
  451SOL    HW111392   7.630   2.029   1.151 -0.6496 -0.1535 -2.3681
  451SOL    HW211393   7.478   2.074   1.110 -0.5860  2.7071  0.3340
  452SOL     OW11394   3.103   4.207   1.834 -0.2980  0.1661 -0.2029
  452SOL    HW111395   3.009   4.227   1.859 -1.1308 -0.7936 -2.4458
  452SOL    HW211396   3.105   4.147   1.754  2.2046 -1.1091  0.7403
  453SOL     OW11397   9.607   3.605   1.714 -0.5284 -0.3657 -0.3847
  453SOL    HW111398   9.507   3.608   1.715 -0.5234  0.1222 -0.7348
  453SOL    HW211399   9.643   3.696   1.689 -0.0373 -0.8927 -1.6613
  454SOL     OW11400   1.153   9.841   0.845 -0.6254 -0.3691 -0.1521
  454SOL    HW111401   1.183   9.869   0.754 -1.4205 -1.4828 -0.7761
  454SOL    HW211402   1.197   9.898   0.914 -0.5084  0.9091 -1.2660
  455SOL     OW11403   2.344   0.933   0.853  0.0244  0.0624 -0.0376
  455SOL    HW111404   2.408   0.859   0.873  0.9732  1.0023  0.4862
  455SOL    HW211405   2.309   0.971   0.939  0.4122  0.9565 -0.2695
  456SOL     OW11406   0.742   9.183   2.338 -0.1128 -0.0967  0.1526
  456SOL    HW111407   0.826   9.228   2.307 -0.3678  0.3044  0.0360
  456SOL    HW211408   0.674   9.253   2.361 -0.7525 -0.4309 -0.7064
  457SOL     OW11409   2.049   1.583   1.017 -0.1104 -0.4498  0.1873
  457SOL    HW111410   1.993   1.501   1.012 -1.3638  0.3990 -0.0313
  457SOL    HW211411   2.028   1.633   1.101  0.6519 -0.3450  0.3252
  458SOL     OW11412   2.266   8.982   2.348  0.4505  0.4149  0.4028
  458SOL    HW111413   2.203   8.972   2.271  0.1604  3.3754  0.2093
  458SOL    HW211414   2.261   8.899   2.405 -1.5039 -0.5879 -1.1309
  459SOL     OW11415   9.480   4.748   2.580  0.1205  0.4891 -0.1849
  459SOL    HW111416   9.475   4.685   2.502 -0.8887  1.4622 -0.9169
  459SOL    HW211417   9.537   4.708   2.652 -1.0205 -1.5703 -0.3795
  460SOL     OW11418   1.700   7.848   1.760  0.1251 -0.6506 -0.3461
  460SOL    HW111419   1.776   7.846   1.825 -0.6201  2.3281  0.7088
  460SOL    HW211420   1.734   7.870   1.669  0.5968  0.2786  0.0489
  461SOL     OW11421   2.700   3.556   0.552  0.2994  0.1642 -0.3606
  461SOL    HW111422   2.781   3.509   0.517  0.5432  0.9694 -0.9006
  461SOL    HW211423   2.718   3.592   0.643  0.9810  1.4173 -0.9750
  462SOL     OW11424   8.847   2.247   1.492 -0.0920  0.1378  0.5117
  462SOL    HW111425   8.756   2.242   1.532 -0.9859 -1.1693 -1.6308
  462SOL    HW211426   8.874   2.156   1.459  1.5059  0.7576  0.0517
  463SOL     OW11427   1.061   3.169   0.704 -1.0207 -0.1645 -0.0143
  463SOL    HW111428   1.058   3.191   0.801  0.1019 -1.2435  0.2803
  463SOL    HW211429   1.035   3.074   0.691  0.5714 -0.5450 -0.5685
  464SOL     OW11430   0.758   4.815   0.129  0.6885  0.1361 -0.2429
  464SOL    HW111431   0.766   4.716   0.124 -0.5359 -0.0200  0.7956
  464SOL    HW211432   0.667   4.844   0.099  0.8455  0.8998 -0.0156
  465SOL     OW11433   3.145   4.341   0.035  0.2292 -0.4837  0.0573
  465SOL    HW111434   3.086   4.412   0.073  0.0713 -0.9608  0.7295
  465SOL    HW211435   3.195   4.377  -0.043 -0.5211  0.0991 -0.1663
  466SOL     OW11436   3.714   8.968   1.899 -0.0107 -0.0335 -0.1510
  466SOL    HW111437   3.669   8.932   1.817 -1.8233  2.8537 -0.4765
  466SOL    HW211438   3.701   9.067   1.903  0.1084 -0.1344  3.6183
  467SOL     OW11439   4.426   2.807   1.672  0.5398  0.2168 -0.2321
  467SOL    HW111440   4.430   2.749   1.590  0.8302  1.3470 -1.0302
  467SOL    HW211441   4.409   2.902   1.644  0.9469  0.6563  1.0090
  468SOL     OW11442   2.804   8.180   1.297 -0.0845  1.1231  0.1940
  468SOL    HW111443   2.757   8.198   1.210  0.8822  0.8848 -0.3910
  468SOL    HW211444   2.789   8.257   1.359 -2.7343  0.2360  0.6846
  469SOL     OW11445   1.749   8.682   0.035  0.2768  0.0378  0.5471
  469SOL    HW111446   1.837   8.665   0.079  0.5902  0.2080 -0.0172
  469SOL    HW211447   1.743   8.630  -0.050 -0.6447 -0.9011  1.1827
  470SOL     OW11448   3.678   3.244   2.766 -0.4542 -0.3788 -0.0267
  470SOL    HW111449   3.763   3.298   2.772  0.4172 -1.4549 -2.0172
  470SOL    HW211450   3.660   3.199   2.853 -0.3603  1.8902  1.1955
  471SOL     OW11451   1.803   4.027   0.752 -0.3708  0.3974  0.1570
  471SOL    HW111452   1.781   3.934   0.723  0.8610  0.1162  0.1253
  471SOL    HW211453   1.818   4.084   0.671  0.2907  0.2855  0.2029
  472SOL     OW11454   2.744   0.707   1.178 -1.0721 -0.0630 -0.3944
  472SOL    HW111455   2.690   0.753   1.249 -3.0933 -2.1964 -0.5144
  472SOL    HW211456   2.736   0.758   1.092  0.8453  2.1542  0.6664
  473SOL     OW11457   3.232   0.163   2.634  0.0745 -0.1519  0.1147
  473SOL    HW111458   3.295   0.226   2.589  0.3959 -0.1001  0.6435
  473SOL    HW211459   3.282   0.100   2.691 -0.2296 -1.0612 -0.6115
  474SOL     OW11460   2.451   6.649   0.601  0.3418  0.3695  0.0408
  474SOL    HW111461   2.452   6.737   0.554 -1.3374  0.3404 -0.0562
  474SOL    HW211462   2.487   6.578   0.539  0.9930  0.8426 -0.1352
  475SOL     OW11463   3.612   8.065   1.128 -0.3836  0.6835 -0.2436
  475SOL    HW111464   3.626   8.023   1.038 -0.6459  0.6467 -0.2676
  475SOL    HW211465   3.622   7.995   1.198  1.9508  1.1294 -0.0975
  476SOL     OW11466   1.062   6.071   2.279 -0.0950 -0.2874 -0.4667
  476SOL    HW111467   1.111   6.015   2.212 -0.6788 -0.3143 -0.8770
  476SOL    HW211468   1.115   6.153   2.298 -0.1999  0.0045 -1.4092
  477SOL     OW11469   9.327   5.070   2.367  0.3108  0.1073  0.3903
  477SOL    HW111470   9.341   5.035   2.274  0.7178 -0.8723  0.8106
  477SOL    HW211471   9.267   5.150   2.364  1.9281  1.2945 -0.9207
  478SOL     OW11472   0.216   4.633   2.622 -0.2214  0.7052  0.2971
  478SOL    HW111473   0.242   4.729   2.614  2.3459 -0.1141 -1.8832
  478SOL    HW211474   0.159   4.607   2.543  1.2019 -0.1733 -0.4637
  479SOL     OW11475   3.181   1.325   0.724  0.2200  0.2377  0.6520
  479SOL    HW111476   3.130   1.259   0.780  1.0863 -0.8399  0.1842
  479SOL    HW211477   3.279   1.306   0.731  0.3901  0.6379 -0.5366
  480SOL     OW11478   3.176   2.832   2.069 -0.1664 -0.3229  0.0515
  480SOL    HW111479   3.229   2.917   2.077  1.0123 -0.9581 -0.7537
  480SOL    HW211480   3.152   2.799   2.160 -0.5462  0.8113  0.3786
  481SOL     OW11481   2.563   6.910   0.790  0.1213 -0.5967 -0.1595
  481SOL    HW111482   2.581   6.961   0.706 -0.7142 -1.9531 -1.1696
  481SOL    HW211483   2.464   6.906   0.806  0.1881 -1.7573  0.0010
  482SOL     OW11484   3.009   8.050   2.535  0.6205 -0.5152 -0.7348
  482SOL    HW111485   3.082   8.001   2.582 -0.8971 -0.2863  1.9266
  482SOL    HW211486   2.975   7.993   2.459  0.9567 -2.2836  0.4026
  483SOL     OW11487   3.078   7.992   0.597 -0.1487  0.0401 -1.0322
  483SOL    HW111488   3.016   8.065   0.569 -1.8977 -0.8862  0.3413
  483SOL    HW211489   3.151   8.030   0.653 -1.1009  0.7365 -0.2476
  484SOL     OW11490   0.884   5.044   0.270  0.2304 -0.3694 -0.1530
  484SOL    HW111491   0.942   4.972   0.307 -0.8723 -1.1961 -0.0220
  484SOL    HW211492   0.809   5.004   0.218  0.8523  0.7491 -1.9424
  485SOL     OW11493   0.356   2.496   2.596 -0.2448  0.1467 -0.3234
  485SOL    HW111494   0.370   2.592   2.620 -1.5645  0.5566 -1.1575
  485SOL    HW211495   0.436   2.443   2.623 -0.2927  1.1543  1.9424
  486SOL     OW11496   8.876   2.423   2.475 -0.2776  0.3944 -0.3342
  486SOL    HW111497   8.823   2.476   2.542  0.7365  2.0216 -0.7829
  486SOL    HW211498   8.842   2.329   2.473 -0.5723  0.4037  2.1844
  487SOL     OW11499   2.653   5.663   1.657 -0.7292  0.2842 -0.2501
  487SOL    HW111500   2.693   5.625   1.573 -1.3178 -1.0237  0.0541
  487SOL    HW211501   2.679   5.759   1.665  2.1958 -0.4535 -0.1784
  488SOL     OW11502   1.544   8.537   0.772 -0.2566 -0.2917 -0.2810
  488SOL    HW111503   1.464   8.562   0.718  0.8264 -1.0550 -2.3271
  488SOL    HW211504   1.551   8.437   0.777 -0.1188 -0.2200  0.9265
  489SOL     OW11505   9.323   3.059   0.687 -0.1583 -1.0196  0.1420
  489SOL    HW111506   9.294   3.003   0.764  0.5544 -3.5837 -1.3667
  489SOL    HW211507   9.261   3.045   0.610 -0.9686  1.6351  0.2562
  490SOL     OW11508   0.620   0.909   2.737 -0.1290  0.3980  0.0269
  490SOL    HW111509   0.595   0.885   2.643  1.4660 -0.9057 -0.0887
  490SOL    HW211510   0.567   0.853   2.801 -0.5718  0.6590 -0.1061
  491SOL     OW11511   2.126   7.709   0.723 -0.1098  0.6458 -0.1049
  491SOL    HW111512   2.115   7.778   0.652 -1.1564  0.3671 -0.2253
  491SOL    HW211513   2.212   7.724   0.771 -0.5191  2.2912  0.1453
  492SOL     OW11514   3.525   7.324   0.264 -0.1685 -0.4677 -0.1706
  492SOL    HW111515   3.460   7.324   0.188 -0.3393 -1.0494 -0.0294
  492SOL    HW211516   3.527   7.233   0.305  1.5291 -0.7462 -0.8529
  493SOL     OW11517   3.470   4.349   0.629  0.0015  0.5293  0.0600
  493SOL    HW111518   3.525   4.266   0.619 -0.6501  0.1071  0.0004
  493SOL    HW211519   3.385   4.339   0.578 -1.0402  0.4009  1.8047
  494SOL     OW11520   2.416   4.237   2.454 -0.3789 -0.0315 -0.2801
  494SOL    HW111521   2.423   4.146   2.493  1.0648 -0.2129 -0.9590
  494SOL    HW211522   2.328   4.246   2.406 -1.0916 -0.6123  0.8894
  495SOL     OW11523   2.078   3.759   2.229 -0.2263  0.4251  0.0850
  495SOL    HW111524   2.062   3.768   2.327 -0.1261  2.2215 -0.0630
  495SOL    HW211525   1.990   3.744   2.182 -0.2135 -1.0380  0.4910
  496SOL     OW11526   0.770   4.903   2.619  0.6761 -0.1046 -0.0943
  496SOL    HW111527   0.866   4.910   2.647  0.7569 -2.0691  0.1843
  496SOL    HW211528   0.716   4.868   2.695  0.3705 -2.4863 -1.3685
  497SOL     OW11529   3.450   3.578   1.979 -0.2225 -0.5206 -0.4394
  497SOL    HW111530   3.488   3.651   1.922 -1.6158 -0.9860 -2.0309
  497SOL    HW211531   3.354   3.598   1.998  0.0749 -0.6900  1.2441
  498SOL     OW11532   2.002   5.023   1.120  0.2428 -0.0434  0.8198
  498SOL    HW111533   1.927   5.053   1.061 -0.4526  1.2046  2.3219
  498SOL    HW211534   1.987   4.928   1.148  0.3337 -0.4890 -0.6153
  499SOL     OW11535   9.977   4.278   1.862 -0.9135  0.3731 -0.6964
  499SOL    HW111536  10.069   4.246   1.883 -0.7942  0.8841 -0.4410
  499SOL    HW211537   9.930   4.210   1.806 -0.4324  0.0482 -0.7042
  500SOL     OW11538   0.562   4.662   0.850 -0.3463  0.3930 -0.9014
  500SOL    HW111539   0.580   4.721   0.929 -1.5246 -0.5243  0.0800
  500SOL    HW211540   0.465   4.635   0.850 -0.0371 -0.7605 -1.8725
  501SOL     OW11541   4.069   0.541   2.564  0.6902 -0.4944 -0.0387
  501SOL    HW111542   3.990   0.480   2.562  0.9352 -0.8082 -3.3445
  501SOL    HW211543   4.061   0.609   2.491  2.4410  0.8301  0.9478
  502SOL     OW11544   2.916   4.166   2.562 -0.0554  0.1058  0.4183
  502SOL    HW111545   2.931   4.256   2.603 -0.9908  0.7897 -0.7037
  502SOL    HW211546   2.850   4.115   2.617 -1.7390  1.2336 -0.5147
  503SOL     OW11547   2.841   9.158   0.642 -0.1706 -0.7345  0.1547
  503SOL    HW111548   2.749   9.120   0.625 -1.0037  1.3221 -0.0329
  503SOL    HW211549   2.889   9.099   0.706 -1.8846 -1.4994  0.7851
  504SOL     OW11550   2.339   6.787   1.584 -0.3471 -0.1396 -0.3130
  504SOL    HW111551   2.339   6.786   1.684 -0.3444 -0.1657 -0.3132
  504SOL    HW211552   2.328   6.694   1.550  0.8102 -0.2713 -0.3432
  505SOL     OW11553   2.526   2.933   1.232 -0.3462  0.1224 -0.3012
  505SOL    HW111554   2.472   2.891   1.159  0.9148 -0.8210 -0.7055
  505SOL    HW211555   2.602   2.985   1.192 -1.4537  2.1871  0.2250
  506SOL     OW11556   9.898   1.917   1.783  0.1278 -0.0784  0.1417
  506SOL    HW111557   9.841   1.999   1.792  1.8857  1.1425  0.3394
  506SOL    HW211558   9.873   1.851   1.853  0.8660  1.6137  2.0316
  507SOL     OW11559   1.628   6.374   2.632  0.1648  0.1018  0.0212
  507SOL    HW111560   1.595   6.462   2.598 -1.6622  0.0593  1.5731
  507SOL    HW211561   1.707   6.389   2.691 -0.3724  0.7453  0.5864
  508SOL     OW11562   0.009   3.332   0.085 -0.1405 -0.2820  0.4405
  508SOL    HW111563  -0.025   3.426   0.081  0.9283  0.2038  2.5640
  508SOL    HW211564   0.087   3.322   0.023  1.0852  0.8015  1.7846
  509SOL     OW11565   8.574   1.571   0.293 -0.0430  0.4253 -0.5090
  509SOL    HW111566   8.575   1.490   0.352 -0.9015  0.8765  0.1408
  509SOL    HW211567   8.545   1.545   0.201 -2.0450  0.2784  0.1500
  510SOL     OW11568   3.481   2.597   0.429 -0.8892  0.1722 -0.3602
  510SOL    HW111569   3.508   2.507   0.394 -3.8987 -0.5251 -1.0280
  510SOL    HW211570   3.546   2.666   0.398  3.0213 -2.0993  2.3878
  511SOL     OW11571   9.439   1.602   1.422 -0.3965 -0.1105  0.2746
  511SOL    HW111572   9.455   1.566   1.330  0.1717 -1.9469  1.0780
  511SOL    HW211573   9.510   1.570   1.484 -1.2782  0.3798  1.5718
  512SOL     OW11574   1.680   7.693   1.097 -0.4392 -0.3298  0.2429
  512SOL    HW111575   1.665   7.639   1.179  0.3623 -3.4154 -1.5749
  512SOL    HW211576   1.658   7.638   1.016  0.1112  2.1747 -1.6792
  513SOL     OW11577   2.862   3.041   2.238 -0.2076 -0.3017 -0.0892
  513SOL    HW111578   2.808   2.956   2.239 -0.3382 -0.2138  0.5667
  513SOL    HW211579   2.856   3.083   2.148 -2.2609  0.3448  0.3189
  514SOL     OW11580   2.734   9.942   1.509  0.1677  0.1977  0.4782
  514SOL    HW111581   2.808   9.954   1.574  0.7997  0.1011 -0.2243
  514SOL    HW211582   2.670  10.019   1.515 -0.3671 -0.3445  1.9812
  515SOL     OW11583   9.631   5.498   1.112 -0.0287 -0.3251 -0.2843
  515SOL    HW111584   9.595   5.410   1.144  0.5031 -0.3420  0.2751
  515SOL    HW211585   9.634   5.498   1.012 -2.9028  0.2086 -0.3887
  516SOL     OW11586   2.461   9.641   2.162  0.1578  0.1231  0.5358
  516SOL    HW111587   2.498   9.566   2.107  2.1523  1.4878 -0.0533
  516SOL    HW211588   2.512   9.648   2.247  1.4424  2.1633 -0.3758
  517SOL     OW11589   3.204   0.864   2.109  0.9157 -0.0283 -0.2497
  517SOL    HW111590   3.183   0.821   2.021 -1.4767 -0.0266  0.2793
  517SOL    HW211591   3.153   0.950   2.117  1.4203  0.1683  0.9681
  518SOL     OW11592   1.367   9.752   1.125 -0.2960  0.2014 -0.1332
  518SOL    HW111593   1.426   9.831   1.139  0.9839 -0.8408  0.5228
  518SOL    HW211594   1.311   9.737   1.207 -1.1140  0.8805 -0.5571
  519SOL     OW11595   9.433   0.928   1.057 -0.2242  1.0659 -0.2426
  519SOL    HW111596   9.468   1.007   1.109  0.3765 -0.0105  1.0326
  519SOL    HW211597   9.466   0.934   0.963  0.6291  1.8413  0.0866
  520SOL     OW11598   1.097   8.457   2.155 -0.2695 -0.1345 -0.5753
  520SOL    HW111599   1.163   8.382   2.160  1.1868  1.1352 -0.3367
  520SOL    HW211600   1.121   8.517   2.079 -0.0143  1.3596  0.6487
  521SOL     OW11601   1.437   3.753   0.932 -0.2425 -0.7770 -0.4298
  521SOL    HW111602   1.338   3.740   0.931 -0.5612  1.5241 -0.6266
  521SOL    HW211603   1.458   3.849   0.952  1.9590 -1.3529  0.1417
  522SOL     OW11604   2.505   2.660   2.073  0.1392  0.3355 -0.2258
  522SOL    HW111605   2.573   2.700   2.013 -0.4219  0.4403 -0.7923
  522SOL    HW211606   2.455   2.732   2.120 -0.2516  0.2804 -0.5561
  523SOL     OW11607   0.243   5.121   1.151  0.0509 -0.4516 -0.5704
  523SOL    HW111608   0.192   5.135   1.066  0.1246 -1.5843 -0.8156
  523SOL    HW211609   0.261   5.023   1.162  0.2969 -0.2736  0.6009
  524SOL     OW11610   2.130   4.678   1.604  0.1931  0.3875 -0.1303
  524SOL    HW111611   2.089   4.587   1.613  0.8320  0.2683  1.8735
  524SOL    HW211612   2.058   4.747   1.598 -0.3037 -0.2607 -2.1415
  525SOL     OW11613   2.680   8.784   2.468 -0.0677 -0.7475  0.1534
  525SOL    HW111614   2.724   8.702   2.432  1.4462 -0.8525  2.1426
  525SOL    HW211615   2.745   8.860   2.466 -1.1013  0.1283 -0.6270
  526SOL     OW11616   2.221   8.004   1.179  0.2780 -0.6364 -0.6747
  526SOL    HW111617   2.319   8.018   1.195  0.3569 -0.3169 -1.3943
  526SOL    HW211618   2.194   7.914   1.214  0.7103 -0.4961  0.0185
  527SOL     OW11619   8.871   3.616   2.489 -0.1074 -0.4896  0.4500
  527SOL    HW111620   8.817   3.692   2.527  2.0798  0.2130  2.2114
  527SOL    HW211621   8.817   3.532   2.493 -1.9475  0.6445  0.0118
  528SOL     OW11622   1.211   1.555   0.279  0.1764 -0.5177 -0.2353
  528SOL    HW111623   1.289   1.540   0.340 -1.2923 -2.6461  1.2163
  528SOL    HW211624   1.175   1.467   0.249 -0.7676  0.4676 -2.0862
  529SOL     OW11625   1.922   4.369   0.336 -0.2409  0.2635 -0.1979
  529SOL    HW111626   2.017   4.401   0.335  0.2046 -0.9212 -3.3888
  529SOL    HW211627   1.862   4.441   0.303 -0.4013  0.8780  1.4318
  530SOL     OW11628   9.959   0.275   0.137 -0.5686  0.1819 -0.0545
  530SOL    HW111629   9.986   0.343   0.205  0.1121  2.5993 -2.6376
  530SOL    HW211630   9.949   0.185   0.181  2.7262  1.0468  2.6567
  531SOL     OW11631   3.851   1.030   1.096 -0.0801 -0.2447 -0.3126
  531SOL    HW111632   3.851   0.931   1.081 -0.7925 -0.2131 -0.5425
  531SOL    HW211633   3.804   1.051   1.182  0.3156 -0.1224 -0.1233
  532SOL     OW11634   0.521   0.678   0.448 -0.3387 -0.5724 -0.2100
  532SOL    HW111635   0.577   0.752   0.484  1.8622 -1.8349 -0.9235
  532SOL    HW211636   0.453   0.651   0.516 -0.2764  1.1645  0.5688
  533SOL     OW11637   7.967   1.863   0.054 -0.1612 -0.5438  0.1327
  533SOL    HW111638   7.981   1.905  -0.036  2.7933 -0.4264  0.6184
  533SOL    HW211639   7.922   1.774   0.043 -2.5410  0.7630 -1.2063
  534SOL     OW11640   9.138   3.013   1.880 -0.1145 -0.1334 -0.0437
  534SOL    HW111641   9.106   2.956   1.955  2.5587 -1.0078  0.4978
  534SOL    HW211642   9.109   3.107   1.894  0.3100 -0.3052  2.0670
  535SOL     OW11643   1.308   4.946   1.907 -0.3766 -0.0799  0.4840
  535SOL    HW111644   1.298   4.995   1.994 -0.2940  0.4964  0.1695
  535SOL    HW211645   1.395   4.971   1.865 -0.6131 -0.0368  0.0241
  536SOL     OW11646   0.928   6.778   0.521  0.1288  0.6525 -0.4698
  536SOL    HW111647   0.842   6.768   0.472  0.7648 -0.4521 -1.3806
  536SOL    HW211648   0.929   6.717   0.601  0.9990 -1.1570 -1.8101
  537SOL     OW11649   2.192   9.751   2.263 -0.4954 -0.3574  0.4174
  537SOL    HW111650   2.256   9.701   2.205  0.1834  0.7095  0.2492
  537SOL    HW211651   2.200   9.717   2.357 -0.9887 -1.4866  0.0700
  538SOL     OW11652   2.792   5.301   1.047 -0.4210 -0.7419 -0.3620
  538SOL    HW111653   2.768   5.295   0.950  1.1117 -1.8603 -0.6902
  538SOL    HW211654   2.850   5.223   1.072  2.0650  1.3477  0.6160
  539SOL     OW11655   1.843   2.301   1.447 -0.2436 -0.3553 -0.2209
  539SOL    HW111656   1.911   2.351   1.393 -1.4578  1.4052 -0.1581
  539SOL    HW211657   1.840   2.339   1.539 -0.4070 -1.2764  0.1522
  540SOL     OW11658   0.761   0.229   2.244 -0.3344  0.3667 -0.0690
  540SOL    HW111659   0.671   0.219   2.201  0.0484 -0.1733 -0.7668
  540SOL    HW211660   0.808   0.140   2.243  0.6727  0.9025 -0.7568
  541SOL     OW11661   1.859   5.934   1.803 -0.3145 -0.0397  0.1500
  541SOL    HW111662   1.953   5.964   1.795  0.2752 -2.1085 -1.0615
  541SOL    HW211663   1.811   5.947   1.716  0.3282 -3.6454 -0.8327
  542SOL     OW11664   9.540   2.857   2.694  0.2447 -0.0633  0.0965
  542SOL    HW111665   9.516   2.765   2.725 -0.1084 -0.1738 -0.5091
  542SOL    HW211666   9.638   2.862   2.676  0.1419 -0.5358 -0.6052
  543SOL     OW11667   8.390   3.613   0.676 -0.0641  0.3456 -0.1708
  543SOL    HW111668   8.425   3.676   0.607  0.9982  0.2192  0.2347
  543SOL    HW211669   8.362   3.528   0.632  1.6987 -0.1784 -0.3353
  544SOL     OW11670   8.394   3.238   2.591 -0.5395 -0.5695  0.3417
  544SOL    HW111671   8.448   3.254   2.674 -1.5010 -0.6195  0.9772
  544SOL    HW211672   8.297   3.245   2.612 -0.7656  1.2707 -1.1604
  545SOL     OW11673   2.187   8.157   2.636 -0.0199  0.0339  0.9493
  545SOL    HW111674   2.285   8.140   2.626 -0.1310 -0.3116  0.4099
  545SOL    HW211675   2.142   8.148   2.547 -1.1396 -3.5990  1.7993
  546SOL     OW11676   3.037   3.917   1.758 -0.2179 -0.1215  0.5446
  546SOL    HW111677   3.108   3.920   1.829 -0.0432  0.1418  0.3583
  546SOL    HW211678   3.073   3.955   1.673 -0.2654 -0.8931  0.1689
  547SOL     OW11679   4.533   3.407   0.678 -0.8341  0.5167  0.1792
  547SOL    HW111680   4.527   3.425   0.580  0.1655  1.5472  0.3002
  547SOL    HW211681   4.466   3.463   0.726 -0.7657  0.6120  0.1631
  548SOL     OW11682   9.018   0.715   2.279  0.7643 -0.7154 -0.9299
  548SOL    HW111683   8.943   0.733   2.343  0.4611 -0.2733 -1.4074
  548SOL    HW211684   8.992   0.641   2.218  0.6974 -0.5297 -1.1266
  549SOL     OW11685   0.924   4.954   0.878 -0.4994 -0.1265  0.0853
  549SOL    HW111686   0.852   4.884   0.884 -0.5147 -0.0990  0.2249
  549SOL    HW211687   0.922   5.010   0.961  0.6859 -1.0966  0.7767
  550SOL     OW11688   0.705   2.483   2.405  0.1201 -0.1739 -0.1050
  550SOL    HW111689   0.664   2.419   2.471  2.7248 -1.4740  0.3160
  550SOL    HW211690   0.723   2.435   2.319  0.1619  0.5583 -0.5113
  551SOL     OW11691   1.683   5.365   0.536  0.1218 -0.3656 -0.3819
  551SOL    HW111692   1.761   5.356   0.599  1.7102  3.7475 -1.6035
  551SOL    HW211693   1.607   5.410   0.584 -0.0183 -0.5803 -0.3990
  552SOL     OW11694   2.033   2.759   2.792  0.3187  0.4842 -0.3975
  552SOL    HW111695   1.953   2.792   2.842 -0.1546 -2.4369  0.8727
  552SOL    HW211696   2.116   2.788   2.840 -0.0591  0.4290  0.2929
  553SOL     OW11697   1.587   6.768   1.840 -0.3023  0.0079 -0.4198
  553SOL    HW111698   1.534   6.801   1.762  1.1144  0.5498 -1.1660
  553SOL    HW211699   1.608   6.671   1.827 -0.5172 -0.0349 -0.4515
  554SOL     OW11700   2.242   1.154   1.851  0.2630 -0.4119 -0.3282
  554SOL    HW111701   2.236   1.092   1.772 -0.3843 -0.4256 -0.2733
  554SOL    HW211702   2.274   1.103   1.931  0.6032 -0.4728 -0.5031
  555SOL     OW11703   2.432   5.836   0.310 -0.2936 -0.7520  0.2211
  555SOL    HW111704   2.348   5.857   0.259 -0.8035 -2.7155  0.2128
  555SOL    HW211705   2.441   5.737   0.320  1.0075 -0.4764  1.9552
  556SOL     OW11706   3.386   2.102   0.230 -0.0430 -0.0369 -0.1864
  556SOL    HW111707   3.378   2.012   0.186 -0.6248  0.0533 -0.2614
  556SOL    HW211708   3.458   2.098   0.299  0.6964 -0.2558 -0.9483
  557SOL     OW11709   8.960   4.186   0.138  0.8678  0.0396 -0.1418
  557SOL    HW111710   8.880   4.181   0.078  0.0054  1.1323  0.8735
  557SOL    HW211711   9.040   4.214   0.086  0.6572 -1.3830 -1.2401
  558SOL     OW11712   9.760   5.244   0.668  0.2311 -0.3107  0.5154
  558SOL    HW111713   9.784   5.147   0.661  0.4821 -0.2730  0.8531
  558SOL    HW211714   9.731   5.278   0.578  0.7512 -0.5415  0.2620
  559SOL     OW11715   1.555   8.556   2.675  0.3482  0.2331  0.1485
  559SOL    HW111716   1.456   8.560   2.687  0.4454 -0.2744  1.1677
  559SOL    HW211717   1.577   8.494   2.600 -0.0248 -1.2534  1.2493
  560SOL     OW11718   4.678   1.706   1.997  0.4099  0.5729  0.1842
  560SOL    HW111719   4.776   1.688   1.984  0.1551  0.2770 -1.4246
  560SOL    HW211720   4.627   1.620   1.993 -0.1018  0.9109 -0.8786
  561SOL     OW11721   0.650   6.529   1.192  0.2880 -0.4671  0.2141
  561SOL    HW111722   0.583   6.534   1.266  0.8332 -1.7550  0.8159
  561SOL    HW211723   0.734   6.486   1.226 -0.0527 -2.6299 -1.5691
  562SOL     OW11724   9.592   3.064   0.586  0.2365 -0.3966  0.0391
  562SOL    HW111725   9.654   3.125   0.635  1.2915 -0.3824 -1.2854
  562SOL    HW211726   9.503   3.064   0.631  0.4956  1.3953  0.5926
  563SOL     OW11727   9.111   3.466   0.828  0.5189 -0.1658  0.3537
  563SOL    HW111728   9.200   3.424   0.839  0.8825  0.7522  1.0045
  563SOL    HW211729   9.122   3.560   0.796 -0.2518 -0.3527 -0.4756
  564SOL     OW11730   1.831   9.027   0.204  0.2582 -0.2799 -0.3681
  564SOL    HW111731   1.832   9.100   0.272 -0.7584 -0.3871 -0.2215
  564SOL    HW211732   1.740   9.021   0.163  0.8566 -0.2112 -1.7523
  565SOL     OW11733   8.179   1.585   0.212 -0.3063 -0.3907 -0.2061
  565SOL    HW111734   8.194   1.643   0.292  0.3231  1.0682 -1.3723
  565SOL    HW211735   8.094   1.611   0.166 -2.0348 -2.9179  1.4072
  566SOL     OW11736   3.399   1.362   2.534  0.1355  0.3709  0.1169
  566SOL    HW111737   3.387   1.403   2.444 -0.8795  0.2075  0.1689
  566SOL    HW211738   3.422   1.433   2.601  0.2747  0.5771 -0.1517
  567SOL     OW11739   0.383   3.002   0.034 -0.0730  0.3581 -0.4221
  567SOL    HW111740   0.378   3.040  -0.058  1.9089  1.1417 -0.2361
  567SOL    HW211741   0.308   3.039   0.089  0.0002  1.5781 -1.1170
  568SOL     OW11742   1.586   3.895   1.927 -0.1329  0.3492  0.9958
  568SOL    HW111743   1.596   3.838   1.845 -0.6975  1.3054  0.2400
  568SOL    HW211744   1.616   3.844   2.007 -1.3398 -1.2791  0.4420
  569SOL     OW11745   1.921   2.948   0.470 -0.2218  0.6194  0.2330
  569SOL    HW111746   1.830   2.969   0.434  0.7933 -0.2691 -3.0147
  569SOL    HW211747   1.988   2.950   0.396  1.7725 -2.8584  1.8134
  570SOL     OW11748   9.905   4.413   1.353 -0.0395  0.2118  0.2015
  570SOL    HW111749   9.830   4.441   1.413 -0.5134  0.7085 -0.6177
  570SOL    HW211750   9.904   4.314   1.341  1.8286 -0.2737  3.3761
  571SOL     OW11751   2.907   3.798   0.069 -0.0341  0.4876  0.0334
  571SOL    HW111752   2.941   3.891   0.059 -0.1509  0.6172  0.7673
  571SOL    HW211753   2.978   3.733   0.044  0.2936  0.7677  0.2320
  572SOL     OW11754   2.569   3.774   1.330  0.5230 -0.3537  0.9972
  572SOL    HW111755   2.597   3.696   1.386  1.7523  0.1489  1.1003
  572SOL    HW211756   2.476   3.801   1.356  0.4483 -1.1667  1.6317
  573SOL     OW11757   2.970   3.164   0.712  0.2130 -0.0284 -0.0753
  573SOL    HW111758   3.054   3.134   0.757 -0.3403 -0.9596  0.3495
  573SOL    HW211759   2.984   3.162   0.613  0.3985 -1.1000 -0.0425
  574SOL     OW11760   0.705   4.533   0.092 -0.1221 -0.4981 -0.4266
  574SOL    HW111761   0.748   4.451   0.131 -0.6483 -1.3496 -1.5928
  574SOL    HW211762   0.609   4.536   0.119 -0.2017 -0.4798 -0.7097
  575SOL     OW11763   2.555   4.597   1.061  0.5087 -0.4349 -0.8526
  575SOL    HW111764   2.540   4.501   1.038  1.4833 -0.8498  0.1751
  575SOL    HW211765   2.630   4.604   1.127  0.3966  1.0289 -0.8606
  576SOL     OW11766   8.527   3.691   2.016  0.1275 -0.5452  0.3174
  576SOL    HW111767   8.587   3.637   2.075  0.1406  0.1398  0.9349
  576SOL    HW211768   8.555   3.679   1.920 -0.7968 -2.7994  0.2944
  577SOL     OW11769   1.865   3.618   2.468  0.3508  0.0758  0.1838
  577SOL    HW111770   1.927   3.697   2.462 -1.7896  1.8333  0.5957
  577SOL    HW211771   1.858   3.575   2.378  0.6519  1.0428 -0.3090
  578SOL     OW11772   2.969   7.362   0.003  0.1753  0.2555 -0.0838
  578SOL    HW111773   2.947   7.314  -0.082 -0.2561 -1.4106  0.9561
  578SOL    HW211774   2.885   7.391   0.048  0.3182 -0.6548  0.7863
  579SOL     OW11775   1.160   9.238   1.926  0.2433  0.0155  0.1048
  579SOL    HW111776   1.062   9.225   1.936  0.2622 -1.7398 -1.8000
  579SOL    HW211777   1.208   9.185   1.996 -0.1418  0.9467  1.0942
  580SOL     OW11778   3.071   3.760   0.403  0.0281  0.8363 -0.0235
  580SOL    HW111779   3.133   3.797   0.334 -2.0347  0.7743 -1.9426
  580SOL    HW211780   3.087   3.806   0.490  2.3853  1.1977 -0.6009
  581SOL     OW11781   1.176   2.889   1.560 -0.4350  0.1436 -0.2609
  581SOL    HW111782   1.216   2.800   1.583 -0.6374 -0.1583 -1.0806
  581SOL    HW211783   1.248   2.951   1.528 -0.4326  0.0064 -0.5140
  582SOL     OW11784   1.504   1.715   2.517 -0.4593  0.4647  0.4402
  582SOL    HW111785   1.501   1.687   2.421 -0.4903 -0.2757  0.6544
  582SOL    HW211786   1.472   1.640   2.574  0.4674  0.5607  1.1024
  583SOL     OW11787   3.728   3.216   2.480  0.2506 -0.1180  0.5153
  583SOL    HW111788   3.716   3.238   2.577 -2.4490 -1.0029  0.4252
  583SOL    HW211789   3.788   3.136   2.472 -0.2510 -0.6007  1.4948
  584SOL     OW11790   2.160   1.611   2.708 -0.0908 -0.4537 -0.3840
  584SOL    HW111791   2.166   1.656   2.798 -0.9303 -2.7760  0.8852
  584SOL    HW211792   2.097   1.662   2.650  1.7118  2.0104 -0.2485
  585SOL     OW11793   9.824   3.482   1.779  0.0091  0.0418  0.2571
  585SOL    HW111794   9.746   3.530   1.740  0.5887  0.4906 -0.3758
  585SOL    HW211795   9.799   3.388   1.801 -0.5402  0.0100 -0.4981
  586SOL     OW11796   2.976   2.013   1.570  0.1897  0.0010 -0.4390
  586SOL    HW111797   2.904   1.993   1.637 -0.4156  2.0820 -0.4405
  586SOL    HW211798   3.035   2.086   1.605  0.5388  0.3327 -1.6899
  587SOL     OW11799   0.389   1.245   2.261 -0.6794  0.0556  0.6719
  587SOL    HW111800   0.298   1.226   2.224 -0.7473 -0.9925  1.3581
  587SOL    HW211801   0.409   1.343   2.253 -2.1151  0.3829  1.0867
  588SOL     OW11802   2.300   0.322   2.215 -0.1057  0.0272 -1.1231
  588SOL    HW111803   2.382   0.267   2.235  0.2737  0.3834 -1.6870
  588SOL    HW211804   2.269   0.302   2.122 -2.0741 -1.8848 -0.1182
  589SOL     OW11805   1.004   4.587   0.210 -0.0512 -0.0071  0.1675
  589SOL    HW111806   1.021   4.633   0.123 -0.7280 -0.0264  0.0218
  589SOL    HW211807   1.044   4.641   0.285 -0.4858  0.6073 -0.0427
  590SOL     OW11808   3.621   7.628   2.469  0.0465  0.4501  0.0946
  590SOL    HW111809   3.526   7.596   2.465  0.5013 -0.7323 -1.4118
  590SOL    HW211810   3.674   7.565   2.526  0.2164  0.3750 -0.1476
  591SOL     OW11811   0.666   8.505   2.293  0.1706 -0.1844 -0.0971
  591SOL    HW111812   0.671   8.539   2.386  0.0216  0.7944 -0.4441
  591SOL    HW211813   0.571   8.506   2.261  0.1732 -0.8577 -0.1335
  592SOL     OW11814   2.367   6.263   2.165  0.3628 -0.4435 -0.5505
  592SOL    HW111815   2.398   6.352   2.199 -0.6003  0.1843 -1.3021
  592SOL    HW211816   2.395   6.252   2.070 -1.6234  0.0932 -1.2059
  593SOL     OW11817   1.906   1.104   1.014  0.0280  0.5507  0.3527
  593SOL    HW111818   1.869   1.019   1.052 -1.0543  0.8474 -0.0316
  593SOL    HW211819   1.832   1.158   0.975  0.6860  1.7563  0.7462
  594SOL     OW11820   2.025   8.600   0.812 -0.1692  0.3685 -0.4390
  594SOL    HW111821   2.055   8.514   0.854 -1.6185 -0.1460 -0.4291
  594SOL    HW211822   2.019   8.588   0.713 -1.0668  0.2410 -0.3696
  595SOL     OW11823   0.914   8.316   2.628 -0.4828  0.1466  0.5949
  595SOL    HW111824   0.953   8.393   2.578 -1.1313  0.2634  0.2581
  595SOL    HW211825   0.977   8.238   2.624 -0.9922 -0.1869 -1.3195
  596SOL     OW11826   1.969   1.447   0.020  0.3264 -0.2728  0.6461
  596SOL    HW111827   1.984   1.484   0.111  2.2147  0.1239  0.1899
  596SOL    HW211828   2.026   1.495  -0.046 -1.2439 -0.3349 -0.8162
  597SOL     OW11829   0.052   5.610   0.334 -0.1936 -0.7014  0.0555
  597SOL    HW111830  -0.031   5.648   0.374  1.5062  1.0182  2.0731
  597SOL    HW211831   0.065   5.516   0.367 -0.4199 -0.3651  1.1321
  598SOL     OW11832   2.172   2.524   2.118  0.0569 -0.6567  0.3686
  598SOL    HW111833   2.163   2.466   2.198  0.0036 -0.9153  0.1755
  598SOL    HW211834   2.105   2.599   2.123 -0.5065 -1.1431  0.1629
  599SOL     OW11835   1.404   2.227   2.314 -0.0991 -0.6318 -0.2194
  599SOL    HW111836   1.370   2.288   2.241  0.1978 -1.9395 -1.4677
  599SOL    HW211837   1.327   2.191   2.366 -0.3139  0.3068  0.1326
  600SOL     OW11838   7.669   1.837   1.501 -0.0445  0.5685  0.2736
  600SOL    HW111839   7.648   1.797   1.412  0.3789  1.5689 -0.2837
  600SOL    HW211840   7.725   1.774   1.554 -0.7156 -0.2408  0.0361
  601SOL     OW11841   3.104   0.037   2.117  0.3822  0.3559 -0.3974
  601SOL    HW111842   3.112   0.084   2.030  1.6885 -2.7596 -2.0183
  601SOL    HW211843   3.030   0.079   2.170 -0.6603  2.0844 -3.1068
  602SOL     OW11844   3.381   9.066   1.270 -0.5167 -0.2221  0.0418
  602SOL    HW111845   3.383   8.967   1.282 -0.9166 -0.0239  1.9239
  602SOL    HW211846   3.328   9.107   1.345  2.5289  1.6930  1.2377
  603SOL     OW11847   0.731   3.635   1.033 -0.2584 -0.1145 -0.1777
  603SOL    HW111848   0.812   3.603   1.082 -0.0541  0.8507  0.1218
  603SOL    HW211849   0.734   3.601   0.939 -0.4538 -1.6477  0.3529
  604SOL     OW11850   9.480   4.652   1.474  0.3047  0.3794  0.4669
  604SOL    HW111851   9.491   4.636   1.573 -0.6629  1.5341  0.7754
  604SOL    HW211852   9.499   4.748   1.454  1.6177 -0.1052 -0.6632
  605SOL     OW11853   2.273   6.827   1.857  0.7352 -0.2686 -0.1599
  605SOL    HW111854   2.176   6.801   1.860  0.8195 -0.3978  2.7347
  605SOL    HW211855   2.280   6.925   1.837  0.0225 -0.3087 -0.6351
  606SOL     OW11856   2.851   8.189   2.333 -0.4779  0.1676 -0.2395
  606SOL    HW111857   2.917   8.205   2.406 -0.2778 -1.0154 -0.1404
  606SOL    HW211858   2.898   8.151   2.253 -1.5334 -4.6930  1.2745
  607SOL     OW11859   2.926   4.579   2.206 -0.1035 -0.4472 -0.2699
  607SOL    HW111860   2.897   4.657   2.150  0.9074  0.5957  0.6260
  607SOL    HW211861   3.001   4.532   2.160  0.6227  0.3184  0.1059
  608SOL     OW11862   9.998   0.842   2.392  0.4615 -0.3199 -0.0277
  608SOL    HW111863   9.910   0.861   2.436  0.3681  1.9162 -1.1019
  608SOL    HW211864  10.072   0.869   2.453  0.4078 -1.9144  0.7537
  609SOL     OW11865   9.447   3.768   0.573  0.4354 -0.1267  0.1583
  609SOL    HW111866   9.360   3.785   0.526  1.8453  2.1750 -1.7372
  609SOL    HW211867   9.462   3.669   0.581 -2.3660 -0.5554  0.6103
  610SOL     OW11868   1.901   0.592   1.774  0.3338  1.0418  0.0022
  610SOL    HW111869   1.970   0.579   1.845 -0.9427 -0.4911  0.9749
  610SOL    HW211870   1.837   0.664   1.802 -1.2744 -0.8394  1.2994
  611SOL     OW11871   1.057   8.639   0.095  0.8001 -0.4319  0.2268
  611SOL    HW111872   0.979   8.575   0.094 -1.3292  2.0520  1.0067
  611SOL    HW211873   1.106   8.629   0.182  0.8510 -1.3917  0.1012
  612SOL     OW11874   2.234   9.430   1.417 -0.1652 -0.0925  0.4489
  612SOL    HW111875   2.252   9.333   1.434  1.3755  0.7837  4.3912
  612SOL    HW211876   2.135   9.446   1.416 -0.4178 -1.2996  2.8025
  613SOL     OW11877   3.703   0.698   1.545  0.5491 -0.4537  0.0996
  613SOL    HW111878   3.756   0.698   1.629  1.5298 -0.1474 -0.4990
  613SOL    HW211879   3.617   0.747   1.559  1.3997  0.9719  0.5190
  614SOL     OW11880   2.106   7.600   0.333  0.1123 -0.4758  0.1285
  614SOL    HW111881   2.120   7.672   0.401  0.7512 -0.0932 -0.4033
  614SOL    HW211882   2.128   7.511   0.374  3.1345 -0.0116 -0.3421
  615SOL     OW11883   8.440   1.239   1.174 -0.1033  0.0322  0.5454
  615SOL    HW111884   8.539   1.244   1.160 -0.2697  3.7275  0.2111
  615SOL    HW211885   8.395   1.208   1.091  0.6320 -0.0447  0.1759
  616SOL     OW11886   1.456   0.812   2.685 -0.3403 -0.2312  0.2553
  616SOL    HW111887   1.556   0.809   2.692 -0.3176 -0.0084  0.0066
  616SOL    HW211888   1.418   0.838   2.774 -0.2263 -1.2834  0.6223
  617SOL     OW11889   9.223   3.097   1.629  0.8387 -0.0385 -0.0809
  617SOL    HW111890   9.159   3.068   1.557  0.6874 -0.9103  0.4023
  617SOL    HW211891   9.183   3.079   1.719  1.1384  0.8099  0.2266
  618SOL     OW11892   2.242   4.005   0.615  0.0548 -0.0200 -0.4906
  618SOL    HW111893   2.205   4.073   0.678  0.5198 -0.2758  0.0621
  618SOL    HW211894   2.333   3.975   0.646  0.5555  0.2925 -1.6036
  619SOL     OW11895   3.170   1.573   2.025  0.4513  0.7189 -0.7023
  619SOL    HW111896   3.105   1.498   2.036  0.2270  0.8466 -1.1485
  619SOL    HW211897   3.244   1.545   1.964  1.2448  0.2995  0.4419
  620SOL     OW11898   3.264   8.953   0.904  1.0358 -0.0582  0.3965
  620SOL    HW111899   3.170   8.934   0.933  0.2232 -0.8245 -2.5259
  620SOL    HW211900   3.281   9.052   0.911 -0.5843  0.3183 -0.6311
  621SOL     OW11901   9.283   0.763   0.266  0.3734  0.8420 -0.7703
  621SOL    HW111902   9.378   0.770   0.237  0.5440  0.2610 -0.3695
  621SOL    HW211903   9.222   0.793   0.193  0.7351 -1.7506 -2.1963
  622SOL     OW11904   9.728   1.961   1.114  0.0910 -0.2953 -0.2537
  622SOL    HW111905   9.695   1.912   1.194  1.3080 -0.7321 -0.0083
  622SOL    HW211906   9.772   1.896   1.051 -1.5793 -0.0865 -1.6602
  623SOL     OW11907   1.997   9.421   2.300 -0.2438 -0.2054 -0.4987
  623SOL    HW111908   1.961   9.470   2.380 -0.5018 -0.4973 -0.4358
  623SOL    HW211909   2.045   9.339   2.330  1.8416  0.9920 -0.4761
  624SOL     OW11910   9.928   2.865   1.125 -0.4764  0.2962  0.0937
  624SOL    HW111911  10.002   2.846   1.190 -1.1328  1.1699  1.1214
  624SOL    HW211912   9.905   2.782   1.075 -0.7196 -0.6648  1.7732
  625SOL     OW11913   2.895   7.636   1.123 -0.0475  0.2928  0.3760
  625SOL    HW111914   2.825   7.587   1.071 -2.7189  0.7250  3.4228
  625SOL    HW211915   2.897   7.732   1.096  1.1735 -0.2288 -1.4887
  626SOL     OW11916   2.545   6.123   1.135  0.0856  0.1867  0.4938
  626SOL    HW111917   2.476   6.187   1.100  1.5137  0.1538 -2.5738
  626SOL    HW211918   2.627   6.174   1.160 -0.4895  0.0594  2.7145
  627SOL     OW11919   8.619   3.108   2.396  0.7356 -0.0575  0.0413
  627SOL    HW111920   8.542   3.138   2.342  1.1330  1.0362  0.0789
  627SOL    HW211921   8.649   3.017   2.365  0.3593  0.1515 -0.9216
  628SOL     OW11922   3.221   2.333   0.820 -0.2533 -0.3411  0.2268
  628SOL    HW111923   3.198   2.239   0.844 -1.1231 -0.1244  0.2848
  628SOL    HW211924   3.310   2.336   0.776 -0.8196 -1.3651 -1.0237
  629SOL     OW11925   2.292   9.852   1.830  0.2598  0.2769  0.2731
  629SOL    HW111926   2.373   9.796   1.812  0.8708  0.4827  2.2391
  629SOL    HW211927   2.214   9.793   1.848  0.1456  0.0727 -0.8949
  630SOL     OW11928   0.950   9.297   2.239 -0.5305 -0.5276 -0.3815
  630SOL    HW111929   0.929   9.261   2.148 -1.0294 -0.5037 -0.2803
  630SOL    HW211930   1.041   9.338   2.239 -0.6246 -0.3136 -0.9381
  631SOL     OW11931   1.709   7.143   0.147 -0.0877 -0.9063  0.3454
  631SOL    HW111932   1.691   7.063   0.204 -1.5914 -0.2127  0.8507
  631SOL    HW211933   1.645   7.216   0.169  0.2851 -0.0822 -1.1740
  632SOL     OW11934   1.729   1.368   1.446  0.3476  0.5108  0.2288
  632SOL    HW111935   1.673   1.449   1.426  1.2334  0.9643 -0.4768
  632SOL    HW211936   1.823   1.397   1.464  0.7086 -0.3891 -0.2048
  633SOL     OW11937   0.591   2.650   0.432  0.5001 -0.4908 -0.1644
  633SOL    HW111938   0.616   2.580   0.364 -0.9928  0.4303 -1.6917
  633SOL    HW211939   0.512   2.619   0.484  0.3910 -0.3318 -0.2353
  634SOL     OW11940   1.414   2.082   2.020  1.0854 -0.3418 -0.7005
  634SOL    HW111941   1.418   2.181   2.031 -0.1676 -0.4131  0.5091
  634SOL    HW211942   1.506   2.043   2.029  1.1721  0.3915  1.9046
  635SOL     OW11943   2.527   1.862   0.169  0.9832 -0.8833  0.3316
  635SOL    HW111944   2.455   1.911   0.120  1.6305 -1.2246 -0.9927
  635SOL    HW211945   2.516   1.876   0.267  1.4867  2.4187 -0.0007
  636SOL     OW11946   0.869   6.406   1.334  0.6049 -0.3342 -0.2973
  636SOL    HW111947   0.946   6.371   1.280  1.2178  1.2135 -0.4660
  636SOL    HW211948   0.896   6.491   1.380 -2.0188  2.2737 -3.2417
  637SOL     OW11949   4.051   1.738   1.173 -0.3499  0.8283 -0.0570
  637SOL    HW111950   4.107   1.818   1.153  0.8111  0.0575  0.0483
  637SOL    HW211951   3.989   1.721   1.097  0.7192  0.7246 -0.9297
  638SOL     OW11952   1.277   2.588   0.097  0.3853  0.0314 -0.2677
  638SOL    HW111953   1.227   2.551   0.175  2.6382  1.3459  1.8787
  638SOL    HW211954   1.261   2.531   0.016 -2.9970 -0.6314  0.7968
  639SOL     OW11955   2.429   1.436   0.770  0.5052  0.1511 -0.2694
  639SOL    HW111956   2.341   1.437   0.723  0.7862  0.2463 -0.7999
  639SOL    HW211957   2.480   1.354   0.744  0.0732 -0.5302  0.9827
  640SOL     OW11958   4.466   0.402   0.940  0.2762  0.4752  0.1192
  640SOL    HW111959   4.372   0.394   0.906  0.8305 -1.4764 -1.0300
  640SOL    HW211960   4.473   0.354   1.028  0.4013 -0.2123 -0.2569
  641SOL     OW11961   3.362   4.700   2.541  0.0418  0.1244 -0.0365
  641SOL    HW111962   3.295   4.706   2.615 -0.5691 -0.0655 -0.5719
  641SOL    HW211963   3.381   4.792   2.506 -1.1635  0.0343 -0.9684
  642SOL     OW11964   9.921   3.485   0.375 -0.2280 -0.1727  0.2099
  642SOL    HW111965   9.824   3.487   0.398 -0.3945 -2.1464 -0.2277
  642SOL    HW211966   9.934   3.512   0.280 -0.2886  0.4612  0.3748
  643SOL     OW11967   2.875   7.229   2.591  0.2192  0.7126 -0.3780
  643SOL    HW111968   2.846   7.324   2.585  0.2633  0.7108 -0.6110
  643SOL    HW211969   2.805   7.170   2.549 -0.5508  0.5092  1.1300
  644SOL     OW11970   2.604   5.014   2.129  0.4047  0.1583 -0.5163
  644SOL    HW111971   2.522   4.985   2.080 -0.3480  0.8667  0.2948
  644SOL    HW211972   2.583   5.022   2.227  1.2347  1.0995 -0.4070
  645SOL     OW11973   3.275   1.826   1.738  0.1123 -0.1136  0.0500
  645SOL    HW111974   3.244   1.834   1.643  0.1629 -0.4382  0.0064
  645SOL    HW211975   3.210   1.873   1.798  0.0906  0.1089 -0.1460
  646SOL     OW11976   2.664   1.558   0.894  0.2092  0.1341  0.3730
  646SOL    HW111977   2.721   1.484   0.858 -1.2672 -0.4257 -0.8887
  646SOL    HW211978   2.570   1.545   0.863 -0.5201  1.3154  1.9998
  647SOL     OW11979   3.732   7.475   2.665 -0.4191 -0.4814 -0.1328
  647SOL    HW111980   3.725   7.412   2.742  1.4009  1.0433  1.3331
  647SOL    HW211981   3.826   7.477   2.631 -0.6299  0.8527 -0.6862
  648SOL     OW11982   0.959   7.704   2.612 -0.2846 -0.5745  0.4827
  648SOL    HW111983   0.907   7.718   2.528  0.0980 -0.8768  0.1898
  648SOL    HW211984   0.942   7.612   2.647 -1.1015 -0.1622  1.2059
  649SOL     OW11985   4.073   1.004   1.712 -0.0095 -0.9079 -0.0417
  649SOL    HW111986   4.033   0.940   1.776 -1.1619  0.3840  0.5451
  649SOL    HW211987   4.034   0.991   1.621 -2.6354  1.0713  0.7521
  650SOL     OW11988   3.655   3.762   0.060  0.2152 -0.5464  0.4908
  650SOL    HW111989   3.687   3.667   0.058 -2.1406 -1.3418 -2.0654
  650SOL    HW211990   3.679   3.807  -0.026 -0.5066  0.5277  0.8439
  651SOL     OW11991   4.865   2.442   1.939 -0.0306 -0.5966  0.2128
  651SOL    HW111992   4.814   2.405   1.862 -0.8849  0.2677  0.3584
  651SOL    HW211993   4.868   2.542   1.933  0.0329 -0.5334  1.2010
  652SOL     OW11994   1.688   9.510   2.642  0.2177  1.0283  0.4655
  652SOL    HW111995   1.662   9.580   2.709  1.3279  2.0556 -0.1416
  652SOL    HW211996   1.606   9.461   2.612 -0.4280  1.2833  1.7655
  653SOL     OW11997   1.753   9.023   0.802  0.0422 -0.2607 -1.0600
  653SOL    HW111998   1.677   8.997   0.742  0.8245 -0.9918 -1.7438
  653SOL    HW211999   1.769   8.950   0.868  1.1771 -0.8199 -1.9328
  654SOL     OW12000   2.435   4.153   1.249  0.2548  0.0883  0.7018
  654SOL    HW112001   2.457   4.230   1.188 -2.0886 -0.7815 -1.3387
  654SOL    HW212002   2.519   4.110   1.280  1.5840 -0.8873 -3.8838
  655SOL     OW12003   3.141   9.950   2.509  0.2808 -0.4734 -0.3553
  655SOL    HW112004   3.159  10.036   2.556  0.2650  0.3013 -1.7311
  655SOL    HW212005   3.076   9.895   2.562  0.2664  0.3704  0.5107
  656SOL     OW12006   9.094   1.736   2.503 -0.2417  0.3417 -0.1064
  656SOL    HW112007   9.044   1.728   2.417 -1.0595 -0.1529  0.3992
  656SOL    HW212008   9.169   1.800   2.492 -1.5652  1.8469 -0.6295
  657SOL     OW12009   0.721   0.106   0.009 -0.4709  0.1046 -0.2198
  657SOL    HW112010   0.699   0.010   0.025 -1.3247  0.4995  1.0853
  657SOL    HW212011   0.787   0.137   0.078 -2.2423  1.1462  1.0603
  658SOL     OW12012   3.280   1.651   0.199  0.1356  0.1465 -0.1053
  658SOL    HW112013   3.292   1.618   0.292  0.3149  1.5475  0.3727
  658SOL    HW212014   3.189   1.624   0.165 -0.4280  0.7368  0.9272
  659SOL     OW12015   2.438   0.454   1.065  0.5485 -0.0305  0.2142
  659SOL    HW112016   2.362   0.480   1.006  0.4844  0.7949  0.6599
  659SOL    HW212017   2.521   0.502   1.036  0.4569  0.5809  0.9639
  660SOL     OW12018   0.733   3.491   1.701 -0.0322 -0.4240  1.2555
  660SOL    HW112019   0.737   3.591   1.709  0.4349 -0.1604 -1.5839
  660SOL    HW212020   0.637   3.462   1.691 -0.1771 -0.2697  2.2117
  661SOL     OW12021   0.560   3.260   2.119  0.1427 -0.2347  0.0763
  661SOL    HW112022   0.465   3.271   2.091 -0.2931  0.2570  1.6728
  661SOL    HW212023   0.595   3.172   2.086 -0.2498  0.4278 -2.1551
  662SOL     OW12024   8.307   1.097   0.979 -0.1341  0.2427 -0.4170
  662SOL    HW112025   8.304   0.998   0.992 -0.9090  0.5668  2.0235
  662SOL    HW212026   8.286   1.118   0.883 -3.7158 -1.7802 -0.1731
  663SOL     OW12027   9.757   3.260   0.126  0.0680 -0.1843  0.5478
  663SOL    HW112028   9.737   3.196   0.201  1.1530 -1.0223  0.1369
  663SOL    HW212029   9.853   3.287   0.131 -0.3255  1.2357  0.5719
  664SOL     OW12030   8.026   1.196   1.637  0.3796  0.0040 -0.5676
  664SOL    HW112031   8.046   1.288   1.604  1.7694  1.7701  4.6569
  664SOL    HW212032   8.112   1.147   1.654 -0.2871 -1.1974 -0.5867
  665SOL     OW12033   2.279   3.179   2.533 -0.4596  0.3130 -0.1833
  665SOL    HW112034   2.373   3.150   2.554 -0.7455 -0.5173 -0.0296
  665SOL    HW212035   2.264   3.174   2.434 -0.0319  1.4221 -0.3181
  666SOL     OW12036   1.735   9.434   0.564  0.0482  0.3970  0.5370
  666SOL    HW112037   1.732   9.426   0.664 -1.8127 -0.5476  0.4248
  666SOL    HW212038   1.664   9.377   0.524  0.4704  1.1463 -1.3288
  667SOL     OW12039   8.410   2.803   2.321  0.1768 -0.3057  0.3933
  667SOL    HW112040   8.416   2.872   2.393 -0.8633 -0.2719  0.4621
  667SOL    HW212041   8.422   2.846   2.232  2.0793 -0.4409  0.5614
  668SOL     OW12042   2.357   8.641   0.550  0.3111 -0.5384  0.3824
  668SOL    HW112043   2.353   8.631   0.450  0.5420 -2.3282  0.5455
  668SOL    HW212044   2.265   8.633   0.588  0.6696 -4.0910  0.6711
  669SOL     OW12045   2.477   8.871   2.632 -0.3228  0.3673  0.4752
  669SOL    HW112046   2.552   8.830   2.580 -0.1036  2.2184 -0.7367
  669SOL    HW212047   2.410   8.801   2.656  0.4035 -0.8044 -0.8640
  670SOL     OW12048   3.586   9.370   0.304 -0.1907  1.0434 -0.1557
  670SOL    HW112049   3.674   9.329   0.282 -1.6924 -1.4769 -1.7881
  670SOL    HW212050   3.565   9.442   0.238  0.3550  1.2052 -0.1535
  671SOL     OW12051   0.984   3.194   2.752 -0.4943 -0.5972  0.1742
  671SOL    HW112052   0.902   3.207   2.697  0.3443  0.4312 -0.8823
  671SOL    HW212053   1.055   3.151   2.695  0.7944  1.6246  0.0460
  672SOL     OW12054   1.812   0.338   2.611 -0.3434  0.3453 -0.3937
  672SOL    HW112055   1.748   0.366   2.539 -0.0719 -0.9965 -1.1739
  672SOL    HW212056   1.779   0.371   2.699 -1.2759  1.0328 -0.9810
  673SOL     OW12057   2.380   1.111   0.658 -0.3808  0.3517 -0.0590
  673SOL    HW112058   2.361   1.033   0.718 -1.4036  0.9321  0.3920
  673SOL    HW212059   2.476   1.137   0.667  0.4963 -2.1161 -1.7267
  674SOL     OW12060   9.908   4.693   0.313  0.8390  0.1219 -0.4348
  674SOL    HW112061   9.890   4.776   0.365  0.5340  0.5058 -1.1623
  674SOL    HW212062   9.975   4.712   0.241 -1.7497  0.5470 -2.7846
  675SOL     OW12063   1.057   7.739   0.969 -0.1948 -0.0019  0.4870
  675SOL    HW112064   1.058   7.709   0.874  1.7900  2.4918 -0.3188
  675SOL    HW212065   0.964   7.762   0.996 -0.2837  2.7654 -1.9987
  676SOL     OW12066   1.699   1.461   2.491  0.3532 -0.2532 -0.1814
  676SOL    HW112067   1.798   1.445   2.494  0.1360 -1.5921 -0.0791
  676SOL    HW212068   1.682   1.558   2.473  1.6832  0.0768  0.2903
  677SOL     OW12069   1.992   1.728   1.242  0.5288  0.7404  1.2127
  677SOL    HW112070   2.076   1.755   1.291 -0.3047  2.3876  1.7676
  677SOL    HW212071   1.917   1.788   1.270 -0.8116 -0.6447  0.6167
  678SOL     OW12072   1.388   4.396   2.505 -0.4768 -0.1990 -0.3139
  678SOL    HW112073   1.385   4.495   2.497 -0.7773  0.0995  2.6531
  678SOL    HW212074   1.302   4.363   2.545  0.3972 -1.4048  0.6370
  679SOL     OW12075   2.760   1.954   1.738 -0.3075 -0.0068 -0.4780
  679SOL    HW112076   2.753   1.884   1.667 -0.7929  0.5378 -0.9694
  679SOL    HW212077   2.668   1.989   1.759 -0.2944 -0.8997  1.1516
  680SOL     OW12078   2.893   4.814   2.073 -0.2016 -0.0925 -0.1996
  680SOL    HW112079   2.826   4.888   2.064 -0.6137 -0.5658 -1.0798
  680SOL    HW212080   2.957   4.836   2.147  1.1353  2.3049 -1.9972
  681SOL     OW12081   8.182   2.438   2.372 -0.0071  0.3627  0.0783
  681SOL    HW112082   8.110   2.440   2.304  0.5904 -0.2791 -0.5855
  681SOL    HW212083   8.184   2.349   2.417  1.4474 -0.2038 -1.0872
  682SOL     OW12084   3.080   7.270   1.563 -0.3341 -0.8050 -0.0928
  682SOL    HW112085   3.158   7.260   1.625  0.2378  1.1143 -0.4792
  682SOL    HW212086   3.108   7.241   1.471 -0.6921 -2.0457  0.1745
  683SOL     OW12087   2.370   3.964   2.489 -0.8430  0.4132 -0.3225
  683SOL    HW112088   2.377   3.940   2.586 -1.9321 -0.4552 -0.4421
  683SOL    HW212089   2.418   3.896   2.434  1.6526  2.0943 -0.2756
  684SOL     OW12090   3.343   3.597   2.536 -0.1237  0.1434 -0.0709
  684SOL    HW112091   3.410   3.552   2.477 -0.5790  0.5887 -0.9486
  684SOL    HW212092   3.371   3.589   2.631  0.8977 -0.1376 -0.3889
  685SOL     OW12093   1.166   2.958   0.013  0.5753 -0.6358  0.6188
  685SOL    HW112094   1.156   2.887  -0.057  2.0734 -0.8698  0.6268
  685SOL    HW212095   1.245   3.015  -0.009 -0.3732  0.7773  0.8366
  686SOL     OW12096   8.131   2.256   0.005  0.1043 -0.1001  0.3021
  686SOL    HW112097   8.151   2.273  -0.091  0.6871 -2.0625  0.0590
  686SOL    HW212098   8.216   2.258   0.058  0.3358 -2.8333  0.1399
  687SOL     OW12099   2.393   0.318   0.517 -0.1569 -0.5498 -0.6538
  687SOL    HW112100   2.316   0.305   0.579 -0.0681  1.0099 -0.1854
  687SOL    HW212101   2.479   0.309   0.569 -0.0300 -1.4098 -0.9994
  688SOL     OW12102   9.518   2.147   0.488  0.1708  0.5422  0.4591
  688SOL    HW112103   9.447   2.089   0.528  0.0102  1.3470  1.3607
  688SOL    HW212104   9.576   2.092   0.428 -1.4796 -0.0175 -0.6236
  689SOL     OW12105   1.890   5.469   1.946 -0.9124 -0.4528  0.0215
  689SOL    HW112106   1.854   5.380   1.975 -2.0702  0.1337  0.4425
  689SOL    HW212107   1.881   5.533   2.022 -0.6468  0.1795 -0.4852
  690SOL     OW12108   1.571   9.230   0.383  0.3415  0.3963 -0.1526
  690SOL    HW112109   1.530   9.190   0.300 -0.1051  2.5278 -0.9970
  690SOL    HW212110   1.670   9.219   0.379  0.2056 -0.8831 -0.2249
  691SOL     OW12111   1.444   6.958   2.306 -0.7870 -0.3835  0.9918
  691SOL    HW112112   1.429   7.051   2.275 -2.0101 -0.6989  0.5742
  691SOL    HW212113   1.445   6.956   2.406  1.2591  0.3567  0.9988
  692SOL     OW12114   4.032   3.310   2.265  0.5965  0.0591  0.3662
  692SOL    HW112115   4.068   3.291   2.357  0.8306 -0.5028  0.1647
  692SOL    HW212116   3.933   3.311   2.268  0.6086  2.6630  1.1382
  693SOL     OW12117   2.941   8.389   2.535 -0.4212  0.3912  0.1036
  693SOL    HW112118   2.962   8.307   2.589 -1.0359 -0.5986 -1.1254
  693SOL    HW212119   3.026   8.431   2.504 -0.0010  1.6324  2.7500
  694SOL     OW12120   1.598   4.681   1.723  0.2359  0.2634 -0.0106
  694SOL    HW112121   1.676   4.624   1.746  0.4758  1.6538  2.8194
  694SOL    HW212122   1.517   4.649   1.772 -0.6613 -0.2763 -1.7979
  695SOL     OW12123   0.078   1.337   0.282  0.0468 -0.2868 -0.0280
  695SOL    HW112124   0.147   1.330   0.354 -0.7067 -1.7567  0.5711
  695SOL    HW212125   0.119   1.379   0.201  1.3765 -0.2394  0.6533
  696SOL     OW12126   0.922   1.033   0.538 -0.1255 -0.4089 -0.3700
  696SOL    HW112127   0.957   0.940   0.531  1.1458 -0.0533  1.0196
  696SOL    HW212128   0.892   1.064   0.448  2.9071 -0.8259 -1.5826
  697SOL     OW12129   0.877   1.395   0.213 -0.2465  0.6035  0.0673
  697SOL    HW112130   0.977   1.392   0.216 -0.2686 -0.7200 -0.3657
  697SOL    HW212131   0.848   1.440   0.129 -0.0159  1.8928  0.6628
  698SOL     OW12132   2.126   0.616   1.298  0.5533 -0.2229 -0.3237
  698SOL    HW112133   2.131   0.713   1.320 -0.3592 -0.0877 -0.6625
  698SOL    HW212134   2.035   0.581   1.321  0.8142 -0.9532 -0.3737
  699SOL     OW12135   2.408   9.975   0.360 -0.1670  0.4279 -0.2709
  699SOL    HW112136   2.458   9.911   0.420 -2.0641 -0.2075  0.6624
  699SOL    HW212137   2.467  10.053   0.339  1.6678 -0.9077 -0.2266
  700SOL     OW12138   2.928   1.113   1.102  0.3872  0.5127  0.2412
  700SOL    HW112139   2.894   1.044   1.038  0.4883  0.3007  0.4175
  700SOL    HW212140   3.018   1.145   1.071 -0.3891  1.7877 -0.7721
  701SOL     OW12141   0.174   0.021   2.755 -0.5875  1.0500  0.5441
  701SOL    HW112142   0.133   0.034   2.664 -0.5962 -0.3660  0.3318
  701SOL    HW212143   0.110   0.052   2.825 -0.8075  1.6243  0.0984
  702SOL     OW12144   2.759   9.027   2.737 -0.3968  0.0507  0.5006
  702SOL    HW112145   2.706   8.946   2.760  0.4777 -0.4201  0.9055
  702SOL    HW212146   2.706   9.087   2.678 -1.5338 -0.2017  1.2662
  703SOL     OW12147   0.754   1.516   2.790  0.2342  0.6878  0.2719
  703SOL    HW112148   0.776   1.464   2.707 -0.1040 -0.3301  0.8247
  703SOL    HW212149   0.798   1.606   2.784  3.1699 -0.6595  0.5763
  704SOL     OW12150   2.230   3.785   0.196  0.0458  0.1441 -0.0758
  704SOL    HW112151   2.156   3.844   0.164 -2.0919 -1.6388  1.4182
  704SOL    HW212152   2.245   3.712   0.129 -0.1000  0.0332  0.0133
  705SOL     OW12153   1.174   9.079   1.526  0.1434  0.3982 -0.1373
  705SOL    HW112154   1.244   9.060   1.457  0.5200  1.2988 -0.0214
  705SOL    HW212155   1.212   9.142   1.594  0.1153 -1.2814  1.4702
  706SOL     OW12156   0.863   4.590   2.680  0.7166 -1.1432  0.2486
  706SOL    HW112157   0.946   4.643   2.700 -1.1608  1.4218  1.4931
  706SOL    HW212158   0.822   4.558   2.765  0.1653 -1.9932 -0.3294
  707SOL     OW12159   8.736   1.732   2.753 -0.0003 -0.1973  0.2741
  707SOL    HW112160   8.828   1.769   2.754  0.0796 -0.3858  0.0170
  707SOL    HW212161   8.703   1.727   2.659 -1.3531  2.5337  0.5373
  708SOL     OW12162   2.745   8.199   1.814 -0.5024 -0.3766  0.3740
  708SOL    HW112163   2.759   8.273   1.747 -0.5233 -0.5854  0.1388
  708SOL    HW212164   2.742   8.238   1.906  0.2565 -0.1697  0.3161
  709SOL     OW12165   0.347   0.838   2.221 -0.4481 -0.5142 -0.1619
  709SOL    HW112166   0.411   0.901   2.178  0.5205 -1.8490 -0.7178
  709SOL    HW212167   0.262   0.835   2.169 -0.7042  0.7171  0.1707
  710SOL     OW12168   2.648   3.935   1.971 -0.4016  0.1424 -0.3039
  710SOL    HW112169   2.668   4.017   1.916 -0.0149 -2.8078 -4.7951
  710SOL    HW212170   2.558   3.898   1.945  0.4134 -2.1381  0.0112
  711SOL     OW12171   1.688   5.380   0.020  0.2449  0.4747  0.3203
  711SOL    HW112172   1.663   5.301  -0.037 -0.2827  2.2713 -2.0496
  711SOL    HW212173   1.625   5.455   0.001  0.1063  1.1466  3.3175
  712SOL     OW12174   0.657   4.252   0.995 -0.1522  0.1209  0.2179
  712SOL    HW112175   0.748   4.286   1.017  0.4549 -0.4459 -1.3217
  712SOL    HW212176   0.598   4.258   1.075  1.9298 -1.8326  1.9411
  713SOL     OW12177   2.310   8.870   0.194 -0.4517  0.3941  0.4037
  713SOL    HW112178   2.396   8.914   0.218 -0.5838  1.1447 -0.4697
  713SOL    HW212179   2.244   8.939   0.164 -0.8601 -0.3308 -0.4007
  714SOL     OW12180   0.833   9.781   1.030 -0.1714  0.4854  0.2917
  714SOL    HW112181   0.863   9.790   0.935 -0.4309  0.5684  0.2176
  714SOL    HW212182   0.764   9.850   1.050  1.8441  2.2632  1.3402
  715SOL     OW12183   2.543   2.657   0.889  0.0362  0.3013 -0.5212
  715SOL    HW112184   2.621   2.711   0.857 -0.5716  1.6384  0.2146
  715SOL    HW212185   2.522   2.681   0.984 -0.8415 -0.5362 -0.4955
  716SOL     OW12186   2.286   3.472   2.520 -0.1117  0.5845 -0.4778
  716SOL    HW112187   2.307   3.523   2.437  2.4790 -1.3117 -1.0620
  716SOL    HW212188   2.264   3.377   2.496 -0.6762  0.3503  0.9037
  717SOL     OW12189   9.649   2.222   1.055  0.4816  0.3465 -0.1015
  717SOL    HW112190   9.680   2.127   1.061 -1.0066 -0.0727  1.3790
  717SOL    HW212191   9.643   2.249   0.958  0.3281 -1.2769 -0.5673
  718SOL     OW12192   1.232   4.900   0.869  0.8151 -0.3333 -0.0069
  718SOL    HW112193   1.133   4.910   0.859  0.5716 -0.4179  2.1215
  718SOL    HW212194   1.269   4.980   0.916  1.3751 -1.4193  1.4582
  719SOL     OW12195   3.114   8.534   0.212 -0.8424  0.4939 -0.7078
  719SOL    HW112196   3.054   8.589   0.154  0.0043 -0.2417 -2.3307
  719SOL    HW212197   3.189   8.590   0.246 -0.5716  0.5984 -1.4754
  720SOL     OW12198   3.487   2.030   1.867 -0.4248  0.4316  0.2541
  720SOL    HW112199   3.496   2.011   1.769  0.5088 -0.7879  0.5718
  720SOL    HW212200   3.578   2.035   1.908 -0.8677 -1.3220  1.4820
  721SOL     OW12201   8.655   3.598   1.220 -0.7965 -0.0878  0.2262
  721SOL    HW112202   8.680   3.563   1.130  0.1929 -0.7337  0.7311
  721SOL    HW212203   8.672   3.696   1.224 -1.2008  0.0100 -0.4046
  722SOL     OW12204   2.478   0.534   2.093  0.4662 -0.0482 -0.4352
  722SOL    HW112205   2.461   0.436   2.076  1.5493 -0.1965 -0.6944
  722SOL    HW212206   2.440   0.560   2.181  0.2132 -0.7227 -0.3429
  723SOL     OW12207   9.473   3.389   1.150 -0.4491 -0.3090 -0.4883
  723SOL    HW112208   9.525   3.312   1.113  0.8866 -0.8240  2.2707
  723SOL    HW212209   9.536   3.457   1.187 -1.6868  0.3680  0.4086
  724SOL     OW12210   1.164   7.284   0.271 -0.3487  0.0183  0.3624
  724SOL    HW112211   1.154   7.383   0.257 -3.4389 -0.0270  1.7735
  724SOL    HW212212   1.202   7.267   0.362  2.7374 -0.0777 -0.8972
  725SOL     OW12213   8.940   1.581   2.053  0.0116  0.0982  0.2860
  725SOL    HW112214   8.894   1.522   1.987 -0.9776 -1.2016  2.1043
  725SOL    HW212215   9.033   1.547   2.070 -0.3761 -0.6580  0.9389
  726SOL     OW12216   9.829   5.976   0.508  0.2296 -0.7208  0.6057
  726SOL    HW112217   9.740   5.995   0.548  0.1142  1.6821 -0.7179
  726SOL    HW212218   9.890   6.055   0.521  0.5164 -0.2609 -2.9177
  727SOL     OW12219   1.553   7.661   1.602  0.4481 -0.0458 -0.1838
  727SOL    HW112220   1.599   7.742   1.638  0.3544 -0.4984  0.9499
  727SOL    HW212221   1.461   7.686   1.570  0.2442  0.2100  0.5947
  728SOL     OW12222   2.790   4.284   0.374 -0.2769  0.0599  0.2643
  728SOL    HW112223   2.703   4.279   0.422  0.2000 -2.1849  0.9938
  728SOL    HW212224   2.774   4.294   0.276 -1.3331  0.5083  0.4749
  729SOL     OW12225   2.952   1.631   1.319  0.4953 -0.0993  0.0479
  729SOL    HW112226   2.947   1.642   1.220  1.6572 -0.7260 -0.0904
  729SOL    HW212227   2.997   1.544   1.341 -1.3246 -0.7899  1.1242
  730SOL     OW12228   3.694   0.704   1.981 -0.5396  0.0183  0.0413
  730SOL    HW112229   3.772   0.747   2.027  0.5399 -0.8016 -0.9524
  730SOL    HW212230   3.632   0.774   1.947 -0.2673  0.6880  0.9167
  731SOL     OW12231   3.265   2.589   2.000  0.3283 -0.0145 -0.5907
  731SOL    HW112232   3.360   2.578   2.029  0.1555  1.3266  0.5329
  731SOL    HW212233   3.240   2.686   2.005 -1.1614 -0.3851 -0.6640
  732SOL     OW12234   9.983   2.356   1.851  0.5406  0.0879 -0.5304
  732SOL    HW112235   9.972   2.260   1.824 -0.4555 -0.3514  1.3073
  732SOL    HW212236   9.978   2.415   1.771  1.7451 -1.4445 -1.7526
  733SOL     OW12237   0.085   3.267   0.493 -0.6872  0.3300 -0.3762
  733SOL    HW112238   0.046   3.355   0.465 -0.5551  0.6965  0.5737
  733SOL    HW212239   0.057   3.246   0.586 -1.8565 -1.3220 -1.0850
  734SOL     OW12240   3.138   3.646   0.011  0.4723 -0.0623  0.1544
  734SOL    HW112241   3.133   3.557   0.057 -0.7908 -1.9294 -3.4123
  734SOL    HW212242   3.233   3.672  -0.002  0.8982 -2.1372 -1.0189
  735SOL     OW12243   0.759   9.349   0.126  0.0621  0.3969  0.1053
  735SOL    HW112244   0.668   9.381   0.152 -0.7224 -0.9764 -0.8903
  735SOL    HW212245   0.756   9.309   0.035  1.0767 -2.1460  1.1455
  736SOL     OW12246   8.528   1.580   2.329  0.4120 -0.5329 -0.2952
  736SOL    HW112247   8.602   1.621   2.382 -0.8454 -0.0665  1.1122
  736SOL    HW212248   8.497   1.646   2.260 -0.3896  0.2404  0.7817
  737SOL     OW12249   9.342   3.339   0.847 -0.0506  0.2886  0.6210
  737SOL    HW112250   9.398   3.319   0.927 -1.3537 -0.2255  1.4142
  737SOL    HW212251   9.328   3.255   0.794 -2.0839 -0.1042  1.7378
  738SOL     OW12252   0.499   1.414   1.340 -0.8254 -0.4830 -0.3789
  738SOL    HW112253   0.456   1.390   1.427 -0.9409  0.2552 -0.2307
  738SOL    HW212254   0.564   1.343   1.314 -0.5321 -0.5303  0.4851
  739SOL     OW12255   2.035   0.824   2.312  0.0691  0.0903  0.6663
  739SOL    HW112256   1.979   0.765   2.253  1.4710 -1.0547  0.4485
  739SOL    HW212257   1.981   0.904   2.340 -1.1324 -0.1553 -0.8592
  740SOL     OW12258   3.963   1.739   2.230  0.1067 -0.0896  0.0891
  740SOL    HW112259   3.948   1.777   2.321 -1.4081 -1.3392  0.3823
  740SOL    HW212260   3.909   1.791   2.164 -0.1853 -0.2847  0.1700
  741SOL     OW12261   0.033   3.293   2.551  0.3053 -0.0893 -0.1694
  741SOL    HW112262  -0.063   3.319   2.557  0.3564  0.1213 -0.2678
  741SOL    HW212263   0.090   3.374   2.556  0.5138 -0.2844  0.8562
  742SOL     OW12264   0.733   2.460   2.783 -0.0386  0.2471 -0.5004
  742SOL    HW112265   0.658   2.521   2.811 -0.2068 -0.5259  0.8161
  742SOL    HW212266   0.813   2.514   2.758 -0.3239  1.0271  0.2383
  743SOL     OW12267   8.680   3.557   0.926  0.0524 -0.0530 -0.2090
  743SOL    HW112268   8.675   3.641   0.872  1.7509 -0.5081 -1.1083
  743SOL    HW212269   8.587   3.524   0.945 -0.6355  1.9165  0.0170
  744SOL     OW12270   0.404   0.833   1.687  0.4499 -0.2078  0.0977
  744SOL    HW112271   0.408   0.882   1.600  0.2330 -0.2796  0.0452
  744SOL    HW212272   0.403   0.735   1.670 -1.9083 -0.2046  0.0622
  745SOL     OW12273   4.279   8.655   2.664 -0.1922  0.4782 -0.5347
  745SOL    HW112274   4.362   8.710   2.667  0.5272 -0.6178  0.1983
  745SOL    HW212275   4.200   8.715   2.650  0.7781  1.4472 -1.9879
  746SOL     OW12276   2.531   6.557   1.825  0.1566 -0.3094 -0.1376
  746SOL    HW112277   2.448   6.504   1.843 -0.3432  0.6728  0.4600
  746SOL    HW212278   2.561   6.603   1.908  0.4013  0.6299 -0.7335
  747SOL     OW12279   0.553   8.848   0.205  0.0286  0.6869  0.3470
  747SOL    HW112280   0.556   8.936   0.253  0.0638  0.2998  1.0642
  747SOL    HW212281   0.597   8.778   0.261  0.0270  0.2158 -0.2355
  748SOL     OW12282   1.732   4.905   2.804 -0.1710  0.4231 -0.1093
  748SOL    HW112283   1.822   4.875   2.773 -0.0409  0.0891  0.5910
  748SOL    HW212284   1.703   4.985   2.751  0.2227  0.0912 -0.8158
  749SOL     OW12285   9.773   1.483   1.186  0.7345 -0.2190  0.2321
  749SOL    HW112286   9.724   1.418   1.243  1.2926 -0.5354  0.3542
  749SOL    HW212287   9.708   1.545   1.142  0.4000  1.0555  2.4530
  750SOL     OW12288   0.983   5.985   0.702  0.3345 -0.6388  0.0995
  750SOL    HW112289   0.928   6.067   0.716  2.0546  0.1729  2.3087
  750SOL    HW212290   0.986   5.932   0.786  1.4750 -1.5841 -0.5144
  751SOL     OW12291   2.182   1.040   1.076 -0.1797  0.2383  0.6892
  751SOL    HW112292   2.084   1.058   1.062  0.3000  2.7381  0.3732
  751SOL    HW212293   2.229   1.126   1.098  1.9395 -0.9598  0.9513
  752SOL     OW12294   9.686   2.225   2.277 -0.1703 -0.0288  0.2879
  752SOL    HW112295   9.617   2.292   2.304 -0.2494 -0.1948  0.5089
  752SOL    HW212296   9.716   2.174   2.358  0.5828  0.3878  0.2695
  753SOL     OW12297   0.550   2.403   1.254  0.0436 -0.4078  0.2559
  753SOL    HW112298   0.626   2.466   1.243 -1.0394  1.0089  0.7336
  753SOL    HW212299   0.584   2.309   1.254  1.9779  0.2478  2.1723
  754SOL     OW12300   2.465   4.703   2.789 -0.2505 -0.5797  0.2393
  754SOL    HW112301   2.506   4.665   2.872  1.2419 -0.3486 -0.3758
  754SOL    HW212302   2.466   4.803   2.793  1.2641 -0.5419 -0.7266
  755SOL     OW12303   1.682   2.032   1.644 -0.2405 -0.2159 -0.0663
  755SOL    HW112304   1.754   2.066   1.705 -0.7260 -0.7070  0.7877
  755SOL    HW212305   1.672   2.094   1.567  1.4598 -0.4035 -0.4714
  756SOL     OW12306   3.674   0.751   2.310  0.3349 -0.1228  0.7292
  756SOL    HW112307   3.711   0.744   2.403 -0.9918  0.8953  1.3531
  756SOL    HW212308   3.592   0.695   2.302  0.4552 -0.2225  0.1602
  757SOL     OW12309   1.125   1.073   0.839 -0.3546  0.0769 -0.1511
  757SOL    HW112310   1.135   1.170   0.816  0.7978  0.2251  0.9302
  757SOL    HW212311   1.029   1.046   0.830 -1.0954  1.9387  1.9470
  758SOL     OW12312   9.458   4.575   0.399 -0.3552  0.9940  0.2352
  758SOL    HW112313   9.376   4.524   0.424 -0.3257  0.6423 -0.3658
  758SOL    HW212314   9.516   4.519   0.339  0.4121  1.1656  0.8028
  759SOL     OW12315   9.749   1.103   1.837 -0.3646  0.5793  0.3198
  759SOL    HW112316   9.848   1.102   1.845 -0.4451  0.4143  1.4843
  759SOL    HW212317   9.718   1.192   1.805  0.1445  0.7190  0.2262
  760SOL     OW12318   2.013   2.971   2.104  0.2648 -0.1672  0.1094
  760SOL    HW112319   2.041   2.985   2.199  0.0402  0.2191  0.1187
  760SOL    HW212320   2.015   2.873   2.083 -2.8637 -0.6038  1.5096
  761SOL     OW12321   2.513   1.685   1.081 -0.4241  0.3073  0.2411
  761SOL    HW112322   2.427   1.641   1.105  0.4930 -0.1530  2.8038
  761SOL    HW212323   2.571   1.621   1.031 -0.7670 -0.0038  0.2417
  762SOL     OW12324   9.618   1.354   1.838 -0.2015 -0.6437  0.2343
  762SOL    HW112325   9.549   1.364   1.767 -1.9069 -0.0386  1.9575
  762SOL    HW212326   9.618   1.434   1.897  0.0641 -1.8619  1.9211
  763SOL     OW12327   9.404   0.719   0.600  0.2950 -0.7650  0.0487
  763SOL    HW112328   9.375   0.695   0.693 -0.5930 -3.8291 -0.9813
  763SOL    HW212329   9.352   0.799   0.569 -0.3971 -0.5584  1.6754
  764SOL     OW12330   0.003   1.011   1.810  0.0490 -0.0208  0.0250
  764SOL    HW112331   0.013   0.959   1.725  1.1056  0.1158  0.0516
  764SOL    HW212332   0.064   0.973   1.879 -2.0816 -1.2325  1.2736
  765SOL     OW12333   0.060   3.616   1.776  0.2107 -0.4862  0.5443
  765SOL    HW112334   0.079   3.697   1.831  0.1673  0.5996 -1.0205
  765SOL    HW212335  -0.028   3.578   1.803  0.3259 -0.1382  1.4313
  766SOL     OW12336   1.947   4.534   1.335  0.3222  0.3364  0.4666
  766SOL    HW112337   1.887   4.458   1.360 -0.2971  0.7159  0.1631
  766SOL    HW212338   2.013   4.504   1.267 -0.3607  0.2398 -0.1602
  767SOL     OW12339   1.408   5.840   1.756  0.2443 -0.4231  0.8428
  767SOL    HW112340   1.333   5.779   1.731  1.1217 -2.1734  2.3406
  767SOL    HW212341   1.378   5.903   1.827  0.2031 -1.1692  1.4878
  768SOL     OW12342   1.702   5.135   1.269 -0.5492  0.3769 -0.5607
  768SOL    HW112343   1.672   5.222   1.310 -0.7788  0.5019 -0.9920
  768SOL    HW212344   1.718   5.149   1.171 -0.5332 -0.0574 -0.6179
  769SOL     OW12345   3.100   3.897   0.640  0.0723 -0.0833  0.0571
  769SOL    HW112346   3.159   3.856   0.709 -0.4020 -1.6258 -0.4335
  769SOL    HW212347   3.052   3.975   0.679  0.3818 -0.4844  1.2467
  770SOL     OW12348   2.817   0.478   1.289 -0.2571 -0.1907 -0.6016
  770SOL    HW112349   2.752   0.404   1.270  1.3188 -1.4355 -1.3321
  770SOL    HW212350   2.792   0.559   1.237 -0.6901 -0.9717 -1.6266
  771SOL     OW12351   2.648   6.934   0.229  0.0852 -0.1039  0.3534
  771SOL    HW112352   2.705   6.866   0.184  1.8673  1.6199 -0.0805
  771SOL    HW212353   2.558   6.938   0.186  0.6592 -0.7668 -0.9010
  772SOL     OW12354   1.279   4.174   0.027 -0.0596 -0.3140  0.1773
  772SOL    HW112355   1.204   4.139  -0.029 -0.0029  1.4095 -1.0069
  772SOL    HW212356   1.359   4.192  -0.031  0.7016 -0.4971  1.1498
  773SOL     OW12357   1.313   5.403   1.449 -0.0972  0.2734  0.6576
  773SOL    HW112358   1.250   5.446   1.385 -2.0663 -0.0040  2.3478
  773SOL    HW212359   1.326   5.307   1.424  0.4784  0.5820 -0.2727
  774SOL     OW12360   0.804   3.353   2.024 -0.1473  0.2992  0.2411
  774SOL    HW112361   0.708   3.338   2.047 -0.3153  0.8180 -0.1286
  774SOL    HW212362   0.862   3.301   2.088 -0.7119 -1.3702 -0.5721
  775SOL     OW12363   2.705   6.893   2.270 -0.6025 -0.9561  0.2642
  775SOL    HW112364   2.733   6.802   2.299  0.0814 -0.9562 -0.3706
  775SOL    HW212365   2.780   6.936   2.220 -0.8785  0.0062  0.6756
  776SOL     OW12366   3.849   1.770   0.492  0.2078 -0.4811 -0.5739
  776SOL    HW112367   3.860   1.838   0.419 -1.1880 -1.0575 -1.3298
  776SOL    HW212368   3.883   1.808   0.578 -1.4126  1.5322 -0.7872
  777SOL     OW12369   2.615   1.181   0.258 -0.0245  0.3572 -0.0485
  777SOL    HW112370   2.659   1.253   0.205 -0.6086  0.5064 -0.3313
  777SOL    HW212371   2.542   1.220   0.314  2.4044  0.6550  3.0199
  778SOL     OW12372   3.987   2.541   2.035  0.4218 -0.3769  0.5377
  778SOL    HW112373   3.922   2.613   2.011  0.4189 -1.2208 -2.1550
  778SOL    HW212374   3.968   2.508   2.128 -1.4811  0.9968  0.6654
  779SOL     OW12375   3.942   0.955   1.470  0.2928  0.0747 -0.1639
  779SOL    HW112376   4.015   0.993   1.413  2.1739 -0.3374  1.9194
  779SOL    HW212377   3.935   0.856   1.453  0.7243 -0.0142  0.1623
  780SOL     OW12378   2.736   0.639   2.377  0.5695 -0.6297 -0.0262
  780SOL    HW112379   2.729   0.739   2.383 -0.8268 -0.7980  1.7659
  780SOL    HW212380   2.823   0.610   2.417  0.6468 -0.1767  0.1487
  781SOL     OW12381   9.629   3.653   1.228 -0.1550 -0.7555  0.8674
  781SOL    HW112382   9.577   3.730   1.264  1.1899  0.6710 -0.1841
  781SOL    HW212383   9.721   3.653   1.267  0.9158  0.0801 -1.5218
  782SOL     OW12384   9.593   4.253   1.560 -0.3670  0.1777  0.0762
  782SOL    HW112385   9.682   4.297   1.565 -0.3312  0.3064 -1.5855
  782SOL    HW212386   9.536   4.300   1.493 -1.8180  0.3108  1.3511
  783SOL     OW12387   3.005   9.386   0.602  0.1945  0.1175  0.4816
  783SOL    HW112388   2.991   9.476   0.645  1.6750 -0.1063  1.4312
  783SOL    HW212389   2.936   9.322   0.636 -0.3648  0.6697  0.4053
  784SOL     OW12390   3.028   4.882   0.192 -0.5261  0.3004 -0.2289
  784SOL    HW112391   3.024   4.789   0.229  0.6569  0.0969 -0.5935
  784SOL    HW212392   2.937   4.923   0.196 -0.9510 -0.6824  0.4208
  785SOL     OW12393   0.612   2.541   0.941  0.7480 -0.4119  0.0406
  785SOL    HW112394   0.706   2.574   0.933  0.3079  0.7317 -0.6398
  785SOL    HW212395   0.549   2.618   0.936 -0.3128 -1.3333 -1.4731
  786SOL     OW12396   2.043   2.153   1.975  0.6062  0.0712  0.1893
  786SOL    HW112397   2.049   2.208   2.059 -0.0966  3.1025 -1.6706
  786SOL    HW212398   2.070   2.059   1.995 -0.3599  0.5173  3.9952
  787SOL     OW12399   2.617   7.388   0.576 -0.6820 -0.1322  0.6234
  787SOL    HW112400   2.606   7.482   0.609 -0.3045 -0.3187  1.2831
  787SOL    HW212401   2.699   7.381   0.521 -1.1449  0.1089 -0.1030
  788SOL     OW12402   2.367   5.557   2.104 -0.0254  0.6186  0.0268
  788SOL    HW112403   2.317   5.488   2.052  3.4041 -1.9219 -0.0741
  788SOL    HW212404   2.427   5.608   2.042 -0.1721  1.5044  0.6123
  789SOL     OW12405   1.624   7.941   1.198  0.2114  0.1374 -0.0067
  789SOL    HW112406   1.548   7.952   1.262  0.3431  1.7341 -0.0970
  789SOL    HW212407   1.632   7.845   1.172 -1.3750 -0.1537  0.5013
  790SOL     OW12408   1.769   2.245   0.164  0.0007 -0.3036 -0.0383
  790SOL    HW112409   1.707   2.174   0.131 -0.5671  0.1614  0.0167
  790SOL    HW212410   1.742   2.272   0.256 -1.1755  1.5620 -0.8996
  791SOL     OW12411   0.364   4.441   0.914 -0.5277 -0.0323 -0.5804
  791SOL    HW112412   0.442   4.378   0.920  0.2532  0.7944 -1.7473
  791SOL    HW212413   0.352   4.488   1.001 -0.8931 -1.5212  0.1892
  792SOL     OW12414   2.797   2.348   0.302  0.2639  0.2772  0.3483
  792SOL    HW112415   2.878   2.363   0.246  0.4703 -2.6184 -0.2091
  792SOL    HW212416   2.717   2.387   0.257  1.1374  2.1715  0.3771
  793SOL     OW12417   8.560   0.966   2.079 -0.0631  0.5942 -0.0729
  793SOL    HW112418   8.594   0.874   2.061 -1.1470  0.0488  0.6610
  793SOL    HW212419   8.495   0.964   2.155  1.7305  2.3021  1.6009
  794SOL     OW12420   8.273   1.862   0.728 -0.0537 -0.2615  0.7481
  794SOL    HW112421   8.269   1.902   0.636 -1.5295  1.0362  1.3491
  794SOL    HW212422   8.309   1.769   0.722 -0.6252 -0.3873 -1.2120
  795SOL     OW12423   1.432   1.097   0.632 -0.2591 -0.3013 -0.5951
  795SOL    HW112424   1.333   1.089   0.616 -0.0802 -0.6628 -1.5476
  795SOL    HW212425   1.473   1.006   0.633 -0.0068 -0.1778  0.2860
  796SOL     OW12426   2.033   6.000   1.489  0.2518 -0.4877  0.2348
  796SOL    HW112427   2.105   6.069   1.479  0.2015 -0.2759  1.2303
  796SOL    HW212428   2.074   5.909   1.488  0.0981 -0.5600 -3.1583
  797SOL     OW12429   2.383   9.489   1.866 -0.3333 -0.4269  0.6108
  797SOL    HW112430   2.300   9.522   1.820  0.0416 -0.0299  0.2045
  797SOL    HW212431   2.387   9.390   1.858 -1.0701 -0.5082  1.1517
  798SOL     OW12432   9.696   3.037   0.306 -0.1731 -0.2389 -0.1486
  798SOL    HW112433   9.787   2.997   0.312 -0.3014 -0.3777  1.0087
  798SOL    HW212434   9.654   3.040   0.397 -0.8168  1.0062 -0.4679
  799SOL     OW12435   0.614   1.877   1.108 -0.1344 -0.9202 -0.1622
  799SOL    HW112436   0.553   1.860   1.031 -0.4804  1.3124 -0.4092
  799SOL    HW212437   0.709   1.883   1.076 -0.5957  3.4521 -1.0301
  800SOL     OW12438   0.653   0.463   1.261 -0.7145  0.0423  0.0627
  800SOL    HW112439   0.687   0.389   1.319  0.0583  0.7048  0.4655
  800SOL    HW212440   0.728   0.524   1.238 -1.3651  0.7468 -0.2033
  801SOL     OW12441   8.592   2.139   1.956 -0.0946 -0.6102  0.6641
  801SOL    HW112442   8.684   2.137   1.994 -0.7788 -0.8049  2.3917
  801SOL    HW212443   8.546   2.223   1.985 -0.5446 -0.6392  0.0407
  802SOL     OW12444   1.133   5.841   0.017  0.2172  0.5141  0.1319
  802SOL    HW112445   1.061   5.791   0.065  0.1338  0.8982  0.4141
  802SOL    HW212446   1.104   5.858  -0.078 -0.0973  0.7326  0.2646
  803SOL     OW12447   1.318   8.606   0.240  0.4623 -0.1459  0.5852
  803SOL    HW112448   1.414   8.622   0.263 -0.1125  1.2897  2.0881
  803SOL    HW212449   1.282   8.529   0.293  0.9845 -1.2000 -0.5672
  804SOL     OW12450   2.237   4.588   2.337  0.7982 -0.6333 -0.0215
  804SOL    HW112451   2.158   4.580   2.277 -0.3945 -1.1453  1.5861
  804SOL    HW212452   2.221   4.536   2.420  2.2952  0.3176  0.8844
  805SOL     OW12453   0.216   4.185   1.994 -0.0877  0.3107  0.0005
  805SOL    HW112454   0.255   4.276   1.982 -0.5589  0.9351  2.8707
  805SOL    HW212455   0.287   4.124   2.030 -0.7785  0.5657  1.8536
  806SOL     OW12456   2.408   1.904   2.593 -0.7513  0.4819  0.5682
  806SOL    HW112457   2.462   1.956   2.526  2.8145  1.0078  3.7197
  806SOL    HW212458   2.401   1.809   2.562  0.2462  0.8526 -0.8936
  807SOL     OW12459   3.238   1.131   0.068  0.4206  0.0147  0.3914
  807SOL    HW112460   3.187   1.166  -0.010  0.5117  1.7999  1.1189
  807SOL    HW212461   3.316   1.077   0.035 -0.5847 -0.7907 -0.7232
  808SOL     OW12462   1.085   0.997   1.995  0.1413  0.0501  0.0109
  808SOL    HW112463   1.039   0.990   2.083 -1.2363  1.7648 -0.5427
  808SOL    HW212464   1.150   0.922   1.985 -1.7601 -1.7986  1.2728
  809SOL     OW12465   8.279   1.044   1.670  0.5467  0.2315 -0.3838
  809SOL    HW112466   8.248   0.949   1.677 -1.5158  0.7568 -1.8743
  809SOL    HW212467   8.376   1.045   1.645  0.7215 -1.4822  0.1711
  810SOL     OW12468   1.862   8.197   1.228  0.5719 -0.5015  0.5576
  810SOL    HW112469   1.820   8.108   1.214 -1.6924  0.4527  1.0559
  810SOL    HW212470   1.887   8.237   1.140 -0.7906 -0.5134  0.1640
  811SOL     OW12471   1.414   9.325   1.057  0.0407  0.2277 -0.3487
  811SOL    HW112472   1.353   9.248   1.035 -2.3545  2.4064 -1.5483
  811SOL    HW212473   1.424   9.333   1.156  0.5411 -1.7832 -0.2132
  812SOL     OW12474   0.271   3.990   2.719  0.3182 -0.1407 -0.0033
  812SOL    HW112475   0.367   3.988   2.746  0.4272  1.5282 -0.1856
  812SOL    HW212476   0.219   4.041   2.789 -0.6737 -2.2153  0.8001
  813SOL     OW12477   1.496   6.509   1.492  0.2861  0.3006  0.2922
  813SOL    HW112478   1.493   6.591   1.550  1.7814  1.5168 -1.2981
  813SOL    HW212479   1.527   6.431   1.547 -0.2203  0.9946  1.5933
  814SOL     OW12480   1.186   3.889   1.854 -0.2664  0.4798  0.6380
  814SOL    HW112481   1.249   3.953   1.898 -0.1887 -0.0949  1.3771
  814SOL    HW212482   1.219   3.796   1.868  0.7417  0.3714 -2.2273
  815SOL     OW12483   3.489   8.137   0.731  0.0310 -0.4751 -0.5466
  815SOL    HW112484   3.493   8.117   0.633  0.2125  0.4412 -0.7271
  815SOL    HW212485   3.431   8.217   0.747  1.8038  0.7767 -0.1330
  816SOL     OW12486   1.051   7.059   1.797 -0.4850  0.4862 -0.6658
  816SOL    HW112487   0.978   7.085   1.860 -2.1483 -0.8232 -1.9973
  816SOL    HW212488   1.138   7.099   1.827 -1.0749 -0.6998  2.8584
  817SOL     OW12489   9.495   2.788   0.873 -0.2293 -0.0413  0.0086
  817SOL    HW112490   9.463   2.693   0.866  0.0410 -0.2119  0.9591
  817SOL    HW212491   9.419   2.850   0.852 -0.8901 -0.4554  1.0551
  818SOL     OW12492   1.994   4.825   2.685 -0.0408  0.2729 -0.1842
  818SOL    HW112493   1.972   4.763   2.609  1.3615  0.8566 -1.0944
  818SOL    HW212494   2.076   4.791   2.732 -0.6496  0.1549  0.8024
  819SOL     OW12495   3.916   3.032   2.460  0.1060  0.2434  0.0392
  819SOL    HW112496   3.994   3.075   2.414  0.5309  1.0431  1.4950
  819SOL    HW212497   3.947   2.983   2.541 -0.5638 -1.7175 -0.8417
  820SOL     OW12498   0.590   4.592   1.321  0.2444  0.1012 -0.2270
  820SOL    HW112499   0.677   4.545   1.317  2.5635  4.1397 -0.3578
  820SOL    HW212500   0.546   4.575   1.409  1.7844 -0.9025  0.3668
  821SOL     OW12501   2.665   9.481   1.323 -0.7155 -0.0520  0.0406
  821SOL    HW112502   2.620   9.541   1.257  1.3251  2.3309  0.7354
  821SOL    HW212503   2.659   9.522   1.414  0.6122 -0.9893  0.5668
  822SOL     OW12504   9.805   5.230   1.965 -0.2061  0.0157 -0.4981
  822SOL    HW112505   9.834   5.324   1.984 -1.2953  0.6392 -1.7931
  822SOL    HW212506   9.729   5.206   2.025 -0.0868  0.0558 -0.3318
  823SOL     OW12507   9.507   1.534   2.507 -0.0476 -0.5194  0.0616
  823SOL    HW112508   9.563   1.610   2.472 -1.5030 -0.5084 -2.3215
  823SOL    HW212509   9.543   1.447   2.473  1.4597 -0.9280  2.5758
  824SOL     OW12510   0.918   5.832   2.039  0.9186  0.0221 -0.0588
  824SOL    HW112511   1.013   5.841   2.071  1.2519  0.0410 -1.0511
  824SOL    HW212512   0.914   5.766   1.965  0.2248  0.3743 -0.3323
  825SOL     OW12513   3.513   1.864   2.733 -0.6117 -0.5251  0.0723
  825SOL    HW112514   3.605   1.825   2.738 -0.1817  0.2612 -1.4605
  825SOL    HW212515   3.470   1.841   2.646 -1.1239  0.7034 -0.0230
  826SOL     OW12516   1.378   8.819   0.041 -0.1526  0.1702 -0.4918
  826SOL    HW112517   1.355   8.748   0.107  0.5291  0.5982  0.2195
  826SOL    HW212518   1.363   8.785  -0.052  1.0851 -1.2540 -0.1971
  827SOL     OW12519   0.818   5.285   2.452  0.6021 -0.2900 -0.4070
  827SOL    HW112520   0.811   5.351   2.527  1.6304  1.2902 -1.6675
  827SOL    HW212521   0.766   5.319   2.373 -1.1453 -2.3168 -0.1705
  828SOL     OW12522   3.870   2.593   1.750 -0.0095 -0.2257 -0.0214
  828SOL    HW112523   3.811   2.539   1.689 -1.9563  2.9749 -1.0874
  828SOL    HW212524   3.819   2.618   1.832  0.4924  0.9729 -0.0740
  829SOL     OW12525   9.574   4.206   1.997 -0.4288 -0.6431  0.2055
  829SOL    HW112526   9.489   4.173   2.038 -1.1540 -1.3077 -1.7591
  829SOL    HW212527   9.650   4.151   2.030 -1.1577 -1.9631 -0.2922
  830SOL     OW12528   1.618   3.181   1.231  0.0991  0.5513 -0.3608
  830SOL    HW112529   1.572   3.111   1.176  0.4432 -0.5065  0.6958
  830SOL    HW212530   1.552   3.253   1.254 -0.5464  0.0044 -0.4646
  831SOL     OW12531   1.127   9.999   2.165 -0.4974 -0.1420 -0.2404
  831SOL    HW112532   1.130   9.937   2.087  0.0262 -0.3247 -0.0784
  831SOL    HW212533   1.218  10.007   2.205 -0.3943  1.3510 -0.7429
  832SOL     OW12534   8.691   2.545   1.820 -0.6995  0.0669  0.6959
  832SOL    HW112535   8.681   2.625   1.880  1.8950 -0.3921  1.8144
  832SOL    HW212536   8.681   2.461   1.874  0.8370 -0.3509  0.3555
  833SOL     OW12537   2.169   4.280   2.386  0.0029  0.7623  0.3867
  833SOL    HW112538   2.096   4.275   2.454 -0.7656  2.0082 -0.3375
  833SOL    HW212539   2.136   4.244   2.299 -0.5216  3.4420 -0.5753
  834SOL     OW12540   8.609   2.196   1.606 -0.5492 -0.1259  0.3001
  834SOL    HW112541   8.547   2.249   1.663 -0.6682 -1.3120  1.3003
  834SOL    HW212542   8.569   2.183   1.515 -0.7182  1.0851  0.1978
  835SOL     OW12543   2.503   3.932   0.050  0.4826 -0.4347  0.1345
  835SOL    HW112544   2.434   3.876   0.004  0.3197 -0.5123  0.4759
  835SOL    HW212545   2.550   3.878   0.119 -1.2829  0.4782  2.1001
  836SOL     OW12546   3.874   8.237   1.912 -0.1349  0.3348 -0.8530
  836SOL    HW112547   3.888   8.196   2.002  0.4837 -0.8638 -1.4836
  836SOL    HW212548   3.853   8.334   1.922  0.8785  0.4220  0.5424
  837SOL     OW12549   9.644   4.248   0.360 -0.2383 -0.1279  0.2572
  837SOL    HW112550   9.671   4.335   0.402 -0.8214 -0.1222  0.6359
  837SOL    HW212551   9.614   4.185   0.432 -0.3833 -0.4354 -0.0716
  838SOL     OW12552   2.969   1.394   0.334  0.5937 -0.5727  0.3975
  838SOL    HW112553   2.978   1.308   0.284 -0.8319  0.8606 -2.4640
  838SOL    HW212554   2.886   1.441   0.305  1.0370  1.5027  2.3420
  839SOL     OW12555   8.615   1.292   1.420  0.4842  0.2890 -0.0317
  839SOL    HW112556   8.646   1.387   1.424 -0.6548  0.6544  0.3232
  839SOL    HW212557   8.555   1.279   1.341  1.0338 -0.2539 -0.3606
  840SOL     OW12558   9.963   5.241   1.038 -0.4020  0.6582  0.4293
  840SOL    HW112559   9.883   5.269   0.984  0.5530  3.8142  0.5582
  840SOL    HW212560  10.046   5.281   0.998  0.9186 -1.0582  1.3795
  841SOL     OW12561   9.558   2.330   1.718 -0.1739  0.0714  0.4766
  841SOL    HW112562   9.598   2.418   1.743 -1.3512  1.9296 -3.6912
  841SOL    HW212563   9.458   2.338   1.718 -0.2717 -0.1946 -3.0008
  842SOL     OW12564   9.383   0.784   2.771  0.3892 -0.4472  0.5169
  842SOL    HW112565   9.296   0.788   2.819  0.0977  0.5453 -0.1021
  842SOL    HW212566   9.448   0.731   2.825 -0.8226 -1.8613  0.6178
  843SOL     OW12567   3.030   7.100   0.904  0.6955 -0.2144  0.3869
  843SOL    HW112568   3.108   7.045   0.933  1.1438 -0.3655 -1.0493
  843SOL    HW212569   3.054   7.149   0.820 -1.0534 -0.9496 -0.5524
  844SOL     OW12570   0.003   5.865   2.623 -0.2096 -0.2388 -0.2282
  844SOL    HW112571   0.090   5.905   2.654 -0.3438  0.7787 -1.1343
  844SOL    HW212572  -0.036   5.810   2.697  1.3037 -0.8665  0.1124
  845SOL     OW12573   0.431   1.442   0.325 -0.4027  0.0051 -0.1889
  845SOL    HW112574   0.411   1.514   0.259 -0.7891 -0.5904 -0.7203
  845SOL    HW212575   0.527   1.450   0.354 -0.7375  1.4200  0.6125
  846SOL     OW12576   9.034   1.089   2.155 -0.0766 -0.8995 -0.0950
  846SOL    HW112577   8.976   1.068   2.075  0.5922 -1.0513 -0.5502
  846SOL    HW212578   9.125   1.047   2.141 -0.2543 -1.7324  1.1737
  847SOL     OW12579   3.544   7.491   1.143  0.3275 -0.9327 -0.0463
  847SOL    HW112580   3.462   7.456   1.097 -0.3646  0.2932  0.2232
  847SOL    HW212581   3.605   7.532   1.075 -0.2221 -0.0443 -0.0181
  848SOL     OW12582   3.763   2.412   1.065 -0.1100 -0.1391 -0.4931
  848SOL    HW112583   3.732   2.477   1.133 -2.3205 -1.9526  0.2926
  848SOL    HW212584   3.829   2.349   1.107 -1.3377 -1.1454 -0.0401
  849SOL     OW12585   2.657   6.498   1.029 -0.2759 -0.4374 -0.2583
  849SOL    HW112586   2.565   6.495   0.990 -0.6550 -0.0915  0.5949
  849SOL    HW212587   2.707   6.575   0.988 -0.6394 -0.1307 -0.1336
  850SOL     OW12588   0.482   2.704   2.149  0.5286 -0.3976  0.3714
  850SOL    HW112589   0.441   2.617   2.178 -0.4803 -0.1115 -0.1603
  850SOL    HW212590   0.428   2.780   2.185  2.4511  0.0728  2.3842
  851SOL     OW12591   2.025   4.396   0.907 -0.3515 -0.5243 -0.3453
  851SOL    HW112592   1.955   4.373   0.974  0.5159 -2.1412  0.0255
  851SOL    HW212593   1.993   4.471   0.850 -1.6261  0.0038  1.0285
  852SOL     OW12594   1.644   5.486   0.982  0.0321  0.1277  0.4109
  852SOL    HW112595   1.653   5.559   1.050  0.1631 -0.1342  0.6787
  852SOL    HW212596   1.597   5.520   0.901 -0.6345  0.2882  0.8671
  853SOL     OW12597   2.052   3.232   2.699 -0.5099  0.4708  0.3819
  853SOL    HW112598   2.084   3.289   2.775  0.5800 -0.7257  0.8329
  853SOL    HW212599   2.117   3.236   2.623 -1.2007  1.0408 -0.1805
  854SOL     OW12600   8.441   2.688   1.551  0.3734 -0.3582  0.0627
  854SOL    HW112601   8.400   2.607   1.508  1.5033 -1.4903  1.0458
  854SOL    HW212602   8.541   2.683   1.540  0.4678  0.7494  0.4011
  855SOL     OW12603   0.909   2.060   1.877 -0.4201  0.7827  0.1619
  855SOL    HW112604   0.855   1.980   1.850  0.3476 -0.1372  1.2551
  855SOL    HW212605   1.007   2.039   1.865 -0.0627  0.4559  3.2050
  856SOL     OW12606   9.629   3.415   0.395  0.1025 -0.3504  0.0568
  856SOL    HW112607   9.579   3.358   0.330  1.0105  0.0612 -1.0226
  856SOL    HW212608   9.569   3.438   0.472 -1.2033 -0.2948 -0.9489
  857SOL     OW12609   2.171   7.760   1.946  0.1777  0.4773 -0.4582
  857SOL    HW112610   2.217   7.698   2.009  1.5685  2.1026  0.1661
  857SOL    HW212611   2.160   7.715   1.857 -0.2075 -1.1865  0.4057
  858SOL     OW12612   2.070   3.989   0.147  0.2266 -0.0609  0.8518
  858SOL    HW112613   2.115   4.065   0.194 -0.4211  2.3557 -2.3008
  858SOL    HW212614   1.984   4.020   0.108 -0.1291 -2.4739 -0.3573
  859SOL     OW12615   8.753   3.373   2.585  0.5338  0.0563 -0.1596
  859SOL    HW112616   8.663   3.378   2.629  0.1121 -2.0270 -0.7318
  859SOL    HW212617   8.771   3.279   2.555  3.1694  0.3186  0.4660
  860SOL     OW12618   2.414   7.361   1.308  0.1693 -0.0432  0.6227
  860SOL    HW112619   2.450   7.271   1.333  1.3913  0.6193  1.3082
  860SOL    HW212620   2.489   7.427   1.306 -0.8335  1.1152  0.8803
  861SOL     OW12621   8.712   3.166   1.181 -0.2762 -0.3009 -0.2491
  861SOL    HW112622   8.781   3.228   1.143 -0.5349 -0.4580 -0.9880
  861SOL    HW212623   8.622   3.190   1.142 -0.2161 -1.8110 -1.3407
  862SOL     OW12624   3.443   1.665   0.716  0.0358  0.1321  0.2969
  862SOL    HW112625   3.528   1.621   0.687 -0.6551 -0.7202 -0.4550
  862SOL    HW212626   3.396   1.608   0.782 -0.0066  0.5629  0.6442
  863SOL     OW12627   0.071   4.605   2.368  0.0426 -0.4994 -0.3427
  863SOL    HW112628   0.091   4.618   2.271 -0.5701 -1.7937 -0.6468
  863SOL    HW212629  -0.017   4.559   2.378  0.9038 -1.9369  0.7716
  864SOL     OW12630   0.600   2.943   0.196  0.3731  0.4926 -0.1467
  864SOL    HW112631   0.671   3.012   0.180 -0.1356  1.0264 -0.0892
  864SOL    HW212632   0.526   2.956   0.131 -0.3685  0.8761  0.7695
  865SOL     OW12633   2.325   2.240   2.024 -0.3349  0.6762  0.1803
  865SOL    HW112634   2.283   2.323   1.988 -0.7509  0.6815  0.6754
  865SOL    HW212635   2.279   2.160   1.986 -0.8898  0.6833  0.8431
  866SOL     OW12636   2.950   0.470   0.681 -0.0999  0.7973 -0.2108
  866SOL    HW112637   2.855   0.489   0.653 -0.3007 -1.0867 -0.8940
  866SOL    HW212638   3.010   0.481   0.601  0.0354  0.3989 -0.1618
  867SOL     OW12639   2.832   3.242   1.659  0.5900  0.3852  0.2846
  867SOL    HW112640   2.894   3.192   1.599  0.7977  1.6269 -0.5506
  867SOL    HW212641   2.797   3.323   1.612 -2.3295 -0.7409  0.4710
  868SOL     OW12642   7.846   2.260   0.446  0.0514 -0.0570  0.3406
  868SOL    HW112643   7.930   2.258   0.501  0.1226 -0.2393  0.2278
  868SOL    HW212644   7.865   2.218   0.357 -0.2541 -0.4178  0.4467
  869SOL     OW12645   3.405   9.295   0.085 -0.0941 -0.4545  0.1892
  869SOL    HW112646   3.459   9.260   0.009  0.1963 -0.8301  0.5707
  869SOL    HW212647   3.411   9.232   0.162 -0.3601 -0.0537  0.5363
  870SOL     OW12648   2.458   9.926   2.106  0.1534 -0.4090 -0.7836
  870SOL    HW112649   2.365   9.947   2.137  0.5710 -1.8074  1.4847
  870SOL    HW212650   2.465   9.829   2.087  1.4771 -0.5125  0.1928
  871SOL     OW12651   1.543   4.881   2.289  0.2212  0.0683  0.0596
  871SOL    HW112652   1.605   4.856   2.364 -0.2508 -1.2859  0.0161
  871SOL    HW212653   1.576   4.840   2.204  0.7989  1.6710 -0.5067
  872SOL     OW12654   1.848   9.133   2.703  0.5196 -0.0167  0.2671
  872SOL    HW112655   1.921   9.128   2.771  1.4662  0.7742 -0.6837
  872SOL    HW212656   1.855   9.053   2.643 -0.7958 -1.1287  1.5591
  873SOL     OW12657   9.038   3.002   1.406  0.1311  0.0444  0.3628
  873SOL    HW112658   9.064   2.984   1.311 -1.7810  1.5708 -0.4719
  873SOL    HW212659   8.992   2.922   1.444  0.3461 -0.3398 -0.1896
  874SOL     OW12660   1.242   1.931   0.645  0.2864  0.0367 -0.6489
  874SOL    HW112661   1.226   1.843   0.602 -3.2044 -0.9428  2.4016
  874SOL    HW212662   1.204   2.004   0.588 -2.1785 -1.0138 -0.3890
  875SOL     OW12663   2.651   0.172   0.249 -0.1974 -0.3139 -0.0750
  875SOL    HW112664   2.632   0.189   0.153 -0.6506  0.5622  0.1589
  875SOL    HW212665   2.677   0.258   0.293  0.5693 -0.8172  0.4553
  876SOL     OW12666   2.860   9.586   0.238  0.2115  0.0049  1.0127
  876SOL    HW112667   2.927   9.573   0.310 -1.1469  0.9425  2.4881
  876SOL    HW212668   2.895   9.651   0.170  0.9055  0.2447  1.6015
  877SOL     OW12669   8.381   3.570   0.950 -0.3049  0.0855 -0.4058
  877SOL    HW112670   8.410   3.618   0.866 -0.8555  0.4862 -0.3715
  877SOL    HW212671   8.284   3.585   0.964 -0.4926 -1.0957 -0.4132
  878SOL     OW12672   1.600   9.109   2.009  0.0184  0.8915 -0.4626
  878SOL    HW112673   1.686   9.096   2.057 -0.3117  0.1185 -0.0895
  878SOL    HW212674   1.601   9.199   1.964  1.2232  0.6763 -0.8975
  879SOL     OW12675   0.183   4.156   0.439 -0.4455 -0.5706  0.3393
  879SOL    HW112676   0.148   4.068   0.471 -1.7327 -0.3610 -0.4683
  879SOL    HW212677   0.277   4.167   0.471 -0.8179 -1.5041  1.8682
  880SOL     OW12678   2.711   4.015   2.676 -0.1286  0.1527  0.0340
  880SOL    HW112679   2.721   3.938   2.613  0.6095 -0.0859  0.4373
  880SOL    HW212680   2.648   3.990   2.749  0.8788 -0.4307  0.7146
  881SOL     OW12681   9.077   1.597   0.222 -0.1813 -0.8525 -0.3771
  881SOL    HW112682   8.995   1.563   0.177 -0.5059  0.0651 -0.4783
  881SOL    HW212683   9.117   1.671   0.168  0.7923 -1.3809 -0.4003
  882SOL     OW12684   3.448   7.844   0.878  0.7831 -0.5552 -0.2850
  882SOL    HW112685   3.456   7.834   0.779  1.6524 -1.3621 -0.1506
  882SOL    HW212686   3.539   7.863   0.917  1.1143 -3.7548  0.7051
  883SOL     OW12687   7.611   2.013   1.701 -0.4780  0.4992 -0.3031
  883SOL    HW112688   7.634   1.966   1.616 -2.8664  2.2314 -1.9695
  883SOL    HW212689   7.526   1.976   1.738 -0.4446  1.0354  0.3298
  884SOL     OW12690   0.879   9.599   0.176  0.3360  0.1304 -0.7205
  884SOL    HW112691   0.940   9.620   0.099  1.0576 -1.1010 -0.5009
  884SOL    HW212692   0.833   9.512   0.159  0.8548 -0.3781  0.4552
  885SOL     OW12693   8.957   1.313   2.330  0.2695  0.0826  0.0408
  885SOL    HW112694   8.982   1.252   2.255 -1.2894  0.8483 -1.1441
  885SOL    HW212695   9.014   1.395   2.328  0.6414 -0.1772  0.0668
  886SOL     OW12696   3.159   1.855   0.514  0.1259 -0.1704 -0.5072
  886SOL    HW112697   3.132   1.926   0.449 -1.1891 -0.6041 -0.4367
  886SOL    HW212698   3.147   1.765   0.472  0.9222 -0.3944 -0.2706
  887SOL     OW12699   1.796   0.116   1.671  0.4793 -0.0215  0.2085
  887SOL    HW112700   1.734   0.149   1.600  0.2873 -0.3390  0.2290
  887SOL    HW212701   1.789   0.017   1.678  1.1511 -0.0780  0.0634
  888SOL     OW12702   2.059   6.512   2.572  0.0675  0.0118  0.2177
  888SOL    HW112703   2.081   6.590   2.631 -0.3078  0.0061  0.3676
  888SOL    HW212704   2.064   6.428   2.625  2.2034 -0.2531 -0.3630
  889SOL     OW12705   7.877   2.025   0.790 -0.6161  0.0761 -0.0885
  889SOL    HW112706   7.939   2.074   0.851  1.3229 -0.8845 -1.2635
  889SOL    HW212707   7.822   2.090   0.738  0.7128  0.9794 -0.3792
  890SOL     OW12708   0.667   2.411   2.129  0.0873  0.5705 -0.1082
  890SOL    HW112709   0.608   2.330   2.136 -1.0461  1.2863 -1.2099
  890SOL    HW212710   0.747   2.389   2.073  0.2928 -0.0616  0.4189
  891SOL     OW12711   1.222   9.686   1.357  0.3867  0.0401 -0.5186
  891SOL    HW112712   1.222   9.586   1.359  0.4366 -0.0204 -2.3713
  891SOL    HW212713   1.135   9.720   1.394  1.0916 -0.6155  1.8046
  892SOL     OW12714   1.798   3.750   2.170 -0.2330  0.1853 -0.2041
  892SOL    HW112715   1.781   3.654   2.145  0.8239  0.2124 -1.0744
  892SOL    HW212716   1.743   3.774   2.249 -1.7017 -0.6876 -0.9427
  893SOL     OW12717   2.734   1.998   0.049  0.3234 -0.3096 -0.4407
  893SOL    HW112718   2.692   2.044  -0.029  0.6031 -0.7608 -0.8612
  893SOL    HW212719   2.667   1.938   0.092  1.4204 -3.7375 -3.2246
  894SOL     OW12720   1.942   6.505   2.309 -0.4209 -0.5403  0.0124
  894SOL    HW112721   1.951   6.482   2.406  0.4334  0.7683  0.2601
  894SOL    HW212722   1.864   6.567   2.297 -0.0735 -0.1013 -0.0142
  895SOL     OW12723   8.113   2.321   1.371 -0.1197  0.0917 -0.1187
  895SOL    HW112724   8.094   2.392   1.303  4.9992  1.4914 -0.3432
  895SOL    HW212725   8.116   2.232   1.326 -0.3553  0.5394 -1.0336
  896SOL     OW12726   1.399   2.463   2.553  0.1160  0.0150 -0.3343
  896SOL    HW112727   1.444   2.552   2.552 -0.4665  0.3213  0.5802
  896SOL    HW212728   1.466   2.392   2.534  0.7244  0.5840 -0.3447
  897SOL     OW12729   3.512   0.898   1.865  0.2933  0.9744 -0.3941
  897SOL    HW112730   3.418   0.869   1.884 -0.2188  2.2513 -0.9012
  897SOL    HW212731   3.512   0.961   1.788  1.7077  0.1457 -1.0880
  898SOL     OW12732   2.219   1.303   1.091 -0.3396  0.0274  0.0831
  898SOL    HW112733   2.149   1.319   1.160 -1.0725  2.3323 -1.1617
  898SOL    HW212734   2.243   1.389   1.047  1.1276 -1.1979 -1.5900
  899SOL     OW12735   2.482   5.441   1.580  0.0888 -0.5788 -0.1101
  899SOL    HW112736   2.569   5.455   1.532 -0.2731  0.4196 -0.4753
  899SOL    HW212737   2.493   5.367   1.646  0.5285 -2.1871 -1.9212
  900SOL     OW12738   0.115   4.486   0.820 -0.0148 -0.2944 -0.0955
  900SOL    HW112739   0.200   4.454   0.861 -1.0723 -0.8111  1.7788
  900SOL    HW212740   0.103   4.443   0.730  1.8376  0.0446 -0.5251
  901SOL     OW12741   3.055   1.565   0.090 -0.3752 -0.2549  0.2217
  901SOL    HW112742   3.060   1.531  -0.004 -1.5129 -0.5394  0.2501
  901SOL    HW212743   2.959   1.580   0.114 -0.0494  0.3864  1.1391
  902SOL     OW12744   8.804   1.137   2.484  0.0794  0.3384 -0.4094
  902SOL    HW112745   8.863   1.210   2.452  2.2078 -0.8531  0.7262
  902SOL    HW212746   8.764   1.162   2.572 -0.4283  0.7558 -0.7504
  903SOL     OW12747   1.076   0.386   2.750 -0.4554  0.1165  0.5063
  903SOL    HW112748   1.112   0.404   2.658 -3.3318 -0.6608 -0.8017
  903SOL    HW212749   1.153   0.370   2.813  1.7013  3.5590 -1.0879
  904SOL     OW12750   8.856   3.905   2.090 -0.5672  0.6453 -0.1137
  904SOL    HW112751   8.894   3.903   2.183 -0.0610  1.4546 -0.2938
  904SOL    HW212752   8.761   3.876   2.093  0.2780 -2.2693  0.2178
  905SOL     OW12753   3.081   8.350   1.671 -0.2199 -0.5659 -0.3098
  905SOL    HW112754   3.164   8.388   1.629 -0.3303  0.7807  0.6712
  905SOL    HW212755   3.102   8.262   1.712  1.0768  0.4326  1.1897
  906SOL     OW12756   8.852   1.714   0.702 -0.1156 -0.4508  0.4575
  906SOL    HW112757   8.810   1.783   0.642 -0.2765 -0.7617  0.2133
  906SOL    HW212758   8.844   1.624   0.660  1.0501 -0.4694  0.2829
  907SOL     OW12759   1.843   1.028   0.566 -0.0086  0.3977  0.1805
  907SOL    HW112760   1.845   1.095   0.492  2.0202 -1.2132 -1.2533
  907SOL    HW212761   1.935   1.016   0.603 -0.2867 -1.8957  0.1651
  908SOL     OW12762   1.966   6.438   1.736  0.0759 -0.6583  0.2453
  908SOL    HW112763   1.931   6.446   1.642  1.6514 -0.9727 -0.3719
  908SOL    HW212764   1.949   6.345   1.770  2.2722 -1.4776 -0.8556
  909SOL     OW12765   2.015   8.117   0.956  0.0737 -0.4546 -0.1682
  909SOL    HW112766   1.931   8.064   0.959 -0.7646  0.8402 -0.2811
  909SOL    HW212767   2.084   8.075   1.016  0.2661 -3.0042 -2.1052
  910SOL     OW12768   0.260   2.674   0.337  0.0197 -0.5305  0.1792
  910SOL    HW112769   0.178   2.707   0.383  0.1818 -0.5233  0.4673
  910SOL    HW212770   0.310   2.612   0.398 -0.9391 -2.3077 -0.8269
  911SOL     OW12771   0.162   2.317   2.545  0.1965  0.0618  0.2579
  911SOL    HW112772   0.222   2.242   2.517  0.6115  0.1621  0.8647
  911SOL    HW212773   0.216   2.402   2.552 -0.3916  0.5532 -1.0326
  912SOL     OW12774   4.402   2.705   0.287  0.2588  0.2344  0.2097
  912SOL    HW112775   4.359   2.631   0.339  3.3107 -2.3987 -0.7935
  912SOL    HW212776   4.453   2.764   0.348 -1.0459  0.6760  0.8728
  913SOL     OW12777   1.935   5.614   0.897 -0.0293 -0.3179  0.4789
  913SOL    HW112778   1.984   5.598   0.983 -1.5221 -1.2877  1.1724
  913SOL    HW212779   1.981   5.686   0.845  0.3594  0.9476  2.5313
  914SOL     OW12780   3.986   7.901   0.785 -0.0670  0.2586 -0.1118
  914SOL    HW112781   4.073   7.861   0.756  0.1445 -0.3499  1.3216
  914SOL    HW212782   3.985   7.998   0.762  0.1847 -0.1595 -1.9147
  915SOL     OW12783   1.186   6.821   0.382  0.4238 -0.2186 -0.1047
  915SOL    HW112784   1.240   6.757   0.328 -0.2158 -0.9538  0.1127
  915SOL    HW212785   1.110   6.772   0.426 -0.6154  0.8436 -0.6781
  916SOL     OW12786   3.031   2.372   1.008  0.2521 -0.0619  0.7326
  916SOL    HW112787   3.106   2.388   0.943 -1.0636  0.2079 -0.7485
  916SOL    HW212788   3.038   2.279   1.044 -0.3661 -1.0433 -1.6281
  917SOL     OW12789   2.959   6.999   0.050  0.2937 -0.5100  0.0773
  917SOL    HW112790   2.996   7.017  -0.041 -0.5701  0.7606 -0.0390
  917SOL    HW212791   3.004   7.059   0.116 -0.8888  0.3853  0.0804
  918SOL     OW12792   4.769   3.542   0.369  0.2399 -0.4110 -0.2641
  918SOL    HW112793   4.867   3.540   0.387  0.1807 -2.3972  0.0153
  918SOL    HW212794   4.753   3.555   0.272  0.7367  1.6916 -0.0814
  919SOL     OW12795   9.770   0.814   0.620  0.4628  0.5603  0.5114
  919SOL    HW112796   9.689   0.769   0.584 -0.0481  0.8279  1.3080
  919SOL    HW212797   9.819   0.859   0.546 -0.0762  0.3332  0.0138
  920SOL     OW12798   2.894   3.920   2.183  0.6962  0.3330  0.1344
  920SOL    HW112799   2.987   3.892   2.160 -0.0069  0.1819 -2.7597
  920SOL    HW212800   2.837   3.916   2.101 -1.9008  0.3176  1.8708
  921SOL     OW12801   0.651   1.893   1.860 -0.0194  0.3295  0.3401
  921SOL    HW112802   0.687   1.866   1.949  1.7247  0.5248 -0.2857
  921SOL    HW212803   0.571   1.952   1.872  1.1557  1.6374  1.7894
  922SOL     OW12804   8.960   2.827   2.526  0.1706 -0.4732 -0.9272
  922SOL    HW112805   8.962   2.802   2.623  0.5084  0.0300 -0.8043
  922SOL    HW212806   9.035   2.781   2.478  1.1448  0.7567 -0.5902
  923SOL     OW12807   2.635   0.456   0.056 -0.4138 -0.2218  0.0168
  923SOL    HW112808   2.564   0.429   0.120 -1.3665 -0.1812 -1.0104
  923SOL    HW212809   2.673   0.374   0.012 -1.3412 -0.1003 -1.0261
  924SOL     OW12810   0.617   5.220   1.665  0.2242 -0.2672  0.1670
  924SOL    HW112811   0.576   5.273   1.591  1.1656  0.4569  0.1489
  924SOL    HW212812   0.547   5.196   1.732  0.1061  2.5919  1.1164
  925SOL     OW12813   0.605   5.007   0.593 -0.7400  0.1337 -0.0088
  925SOL    HW112814   0.534   4.938   0.580 -1.4978  0.4051  2.5382
  925SOL    HW212815   0.695   4.963   0.591 -1.2057 -0.8905  1.2820
  926SOL     OW12816   8.980   4.230   2.531  0.0182  0.2545  0.1597
  926SOL    HW112817   8.891   4.259   2.496  0.4570  0.5375 -0.7382
  926SOL    HW212818   9.052   4.274   2.479  0.6858 -0.7596  0.2120
  927SOL     OW12819   8.789   3.391   0.294 -0.4457  0.1454  0.2060
  927SOL    HW112820   8.693   3.392   0.265 -0.5579 -0.6151  0.5380
  927SOL    HW212821   8.847   3.366   0.216 -0.5768 -0.0087  0.1573
  928SOL     OW12822   1.151   8.865   2.173 -0.6306  0.8341 -0.4616
  928SOL    HW112823   1.215   8.932   2.135  0.1819  0.4756  0.2569
  928SOL    HW212824   1.179   8.842   2.266 -0.5935 -0.8840 -0.8804
  929SOL     OW12825   2.582   6.214   0.714  0.1098  0.0725 -0.0613
  929SOL    HW112826   2.503   6.206   0.774 -0.3013  0.3833 -0.5570
  929SOL    HW212827   2.639   6.291   0.743  0.0193  0.0965  0.0517
  930SOL     OW12828   3.484   2.696   1.255  0.1394 -0.0928 -0.4504
  930SOL    HW112829   3.423   2.715   1.331 -0.4665 -0.9854 -0.7034
  930SOL    HW212830   3.433   2.649   1.182  0.6084  1.1083 -1.5734
  931SOL     OW12831   0.323   2.753   2.763 -0.4296 -0.4197 -0.5381
  931SOL    HW112832   0.269   2.767   2.680  1.2170  0.1848 -1.5401
  931SOL    HW212833   0.339   2.842   2.808 -0.4366 -0.6151 -0.1418
  932SOL     OW12834   0.398   4.013   2.100 -0.3170  0.0997 -0.1039
  932SOL    HW112835   0.394   3.955   2.019  0.8229 -2.5242  1.6142
  932SOL    HW212836   0.493   4.036   2.120 -0.7703  2.7946 -0.8648
  933SOL     OW12837   8.892   3.362   1.077  0.2061  0.2702  0.2348
  933SOL    HW112838   8.837   3.415   1.012 -0.6138 -1.1080 -0.2129
  933SOL    HW212839   8.985   3.398   1.078  0.9399 -1.2586 -3.6710
  934SOL     OW12840   8.640   2.090   0.360 -0.0883  0.0450 -0.0080
  934SOL    HW112841   8.596   2.136   0.437 -2.0538 -2.2020  0.2531
  934SOL    HW212842   8.583   2.014   0.329  1.9151 -0.6934 -2.0180
  935SOL     OW12843   9.434   4.565   2.382  0.0590 -0.0569 -0.4339
  935SOL    HW112844   9.386   4.578   2.295 -2.3545  0.3872  0.9224
  935SOL    HW212845   9.418   4.473   2.416 -0.6805  0.4107  0.5105
  936SOL     OW12846   1.215   7.792   2.756 -0.2114  0.2406  0.3573
  936SOL    HW112847   1.155   7.762   2.682  2.0495  2.6827 -2.6013
  936SOL    HW212848   1.165   7.856   2.815 -1.7785 -1.0889  0.5098
  937SOL     OW12849   0.716   0.225   0.664 -0.2232  0.1907  0.3502
  937SOL    HW112850   0.754   0.234   0.756  0.7196 -0.6208  0.0539
  937SOL    HW212851   0.741   0.304   0.609  1.1021 -0.3515  0.1474
  938SOL     OW12852   0.677   1.622   1.284 -0.3797 -0.7051  0.1850
  938SOL    HW112853   0.641   1.702   1.236  2.0064 -1.4484 -3.0586
  938SOL    HW212854   0.607   1.552   1.289 -1.0625 -0.1365 -1.1975
  939SOL     OW12855   1.575   1.966   0.495  0.0738  0.3700  0.1407
  939SOL    HW112856   1.529   2.053   0.477  1.4198  0.9678 -0.4407
  939SOL    HW212857   1.587   1.954   0.594  0.8696  1.3624  0.1657
  940SOL     OW12858   1.524   4.718   1.222 -0.4039 -0.0045 -0.4480
  940SOL    HW112859   1.501   4.687   1.314  0.4174  0.4706 -0.0807
  940SOL    HW212860   1.457   4.786   1.192 -0.3307  0.2829  0.0357
  941SOL     OW12861   0.355   0.163   0.740  0.0306  0.0658  0.4906
  941SOL    HW112862   0.417   0.106   0.686  0.2595  1.2098 -0.4757
  941SOL    HW212863   0.322   0.239   0.684  0.1161  1.1756  1.9003
  942SOL     OW12864   1.103   4.357   0.675  0.1520 -0.5975  0.3001
  942SOL    HW112865   1.125   4.361   0.773  2.1377 -0.1403 -0.1539
  942SOL    HW212866   1.170   4.301   0.628 -1.3892 -1.6571 -0.6625
  943SOL     OW12867   3.027   9.030   0.262  0.2307  0.1385 -0.6641
  943SOL    HW112868   3.099   9.100   0.251 -0.3963  0.8680 -0.1713
  943SOL    HW212869   2.940   9.068   0.232 -0.0746 -0.5207 -0.6036
  944SOL     OW12870   9.519   4.722   0.765  0.0048  0.5414  0.2443
  944SOL    HW112871   9.459   4.721   0.686  2.8398 -0.6945 -1.9828
  944SOL    HW212872   9.575   4.639   0.767  1.6725  1.6299  2.2077
  945SOL     OW12873   1.769   4.322   1.424 -0.6554 -0.3127  0.5139
  945SOL    HW112874   1.706   4.276   1.485 -0.7887 -0.4104  0.3045
  945SOL    HW212875   1.755   4.289   1.330 -0.6162  0.0059  0.3938
  946SOL     OW12876   2.624   8.788   0.032 -0.4852 -0.0374 -0.1964
  946SOL    HW112877   2.581   8.835   0.109  0.3453  0.3040  0.0661
  946SOL    HW212878   2.579   8.816  -0.053 -1.8316 -0.9257  0.2262
  947SOL     OW12879   1.166   7.494   0.021 -0.0332  0.1631 -0.3207
  947SOL    HW112880   1.207   7.581  -0.008 -1.0249  1.4498  1.9602
  947SOL    HW212881   1.233   7.421   0.013  1.6164  1.5990  0.0444
  948SOL     OW12882   1.500   2.959   1.116 -0.0698  0.1288 -0.2819
  948SOL    HW112883   1.406   2.931   1.095 -0.2348  0.8330 -0.5037
  948SOL    HW212884   1.562   2.882   1.101 -0.6759 -0.4872  0.3670
  949SOL     OW12885   8.794   1.391   1.905 -0.5584  0.0951  0.1848
  949SOL    HW112886   8.751   1.340   1.980 -0.5957 -0.5369 -0.2638
  949SOL    HW212887   8.723   1.425   1.843 -0.3908 -1.3659 -0.8212
  950SOL     OW12888   2.844   7.507   2.293  0.3018 -0.2595 -0.1749
  950SOL    HW112889   2.757   7.525   2.246  0.6481 -1.8245 -1.4613
  950SOL    HW212890   2.828   7.448   2.372  0.4610 -2.4889 -1.7617
  951SOL     OW12891   8.142   1.729   1.489  0.1015  0.1875 -0.0174
  951SOL    HW112892   8.181   1.642   1.458  0.2184  0.5515 -0.9025
  951SOL    HW212893   8.125   1.787   1.410 -0.7137  0.6646  0.5129
  952SOL     OW12894   2.309   0.638   0.249  0.1582 -0.0951  0.1986
  952SOL    HW112895   2.221   0.643   0.202 -0.5961 -1.5399  1.4016
  952SOL    HW212896   2.381   0.673   0.189 -1.0867  0.1392 -1.1920
  953SOL     OW12897   0.468   2.908   0.707 -0.2005  0.0804 -0.3892
  953SOL    HW112898   0.460   3.008   0.706  0.8184  0.1767  0.1548
  953SOL    HW212899   0.456   2.873   0.614  0.1106  0.7747 -0.7021
  954SOL     OW12900   1.382   9.851   0.507 -0.7554 -0.0577  0.0168
  954SOL    HW112901   1.302   9.885   0.558 -0.6650  1.5767 -0.8845
  954SOL    HW212902   1.464   9.896   0.541 -0.7290  1.2754 -1.7357
  955SOL     OW12903   8.770   0.880   0.422  0.1689  0.1375 -0.4491
  955SOL    HW112904   8.824   0.799   0.399  0.7043  0.2309  0.4481
  955SOL    HW212905   8.797   0.956   0.363 -0.5886 -0.4223 -1.5461
  956SOL     OW12906   0.557   2.646   1.874  0.0833 -0.2529 -0.5179
  956SOL    HW112907   0.526   2.701   1.796  0.2110  1.3347  0.5293
  956SOL    HW212908   0.492   2.654   1.949  0.6859 -0.6237  0.0509
  957SOL     OW12909   2.886   4.507   2.619 -0.0712  0.3167 -0.0418
  957SOL    HW112910   2.953   4.502   2.545 -0.6962 -1.0944 -0.5094
  957SOL    HW212911   2.804   4.456   2.595 -0.2407 -0.2704  1.6747
  958SOL     OW12912   9.950   4.051   2.743  0.7071  0.0096 -0.1403
  958SOL    HW112913  10.036   4.095   2.720  0.5215  0.6920  0.4697
  958SOL    HW212914   9.888   4.056   2.665  0.7288  0.7301 -0.1127
  959SOL     OW12915   4.005   2.107   0.929  0.2605  0.6282 -0.0575
  959SOL    HW112916   4.089   2.065   0.965 -0.5742 -2.4380 -1.5120
  959SOL    HW212917   3.947   2.136   1.005  1.3887  0.1764  0.9992
  960SOL     OW12918   2.431   0.412   0.240 -0.2582  0.0522 -0.6107
  960SOL    HW112919   2.415   0.352   0.318 -1.1672  0.0562 -0.7812
  960SOL    HW212920   2.368   0.490   0.246  0.1707  0.4258 -0.9630
  961SOL     OW12921   9.831   5.139   2.442  0.2533 -0.1416 -0.1215
  961SOL    HW112922   9.742   5.094   2.445  0.2105 -0.0351  0.2735
  961SOL    HW212923   9.822   5.232   2.478  0.4535 -0.0152 -0.3985
  962SOL     OW12924   2.822   0.883   0.948  0.3657 -0.0669  0.2105
  962SOL    HW112925   2.740   0.900   0.894  0.5799  0.9791  0.1974
  962SOL    HW212926   2.891   0.838   0.891 -0.8915 -2.8073  0.7555
  963SOL     OW12927   9.007   0.896   1.880 -0.1987 -0.0340 -0.1493
  963SOL    HW112928   9.028   0.847   1.795  0.9369  3.6699 -2.0792
  963SOL    HW212929   8.921   0.946   1.870 -0.7698 -0.6732  1.4004
  964SOL     OW12930   0.516   9.669   2.188  0.2966  0.2972  0.3051
  964SOL    HW112931   0.517   9.715   2.277  3.3704  2.5942 -0.7954
  964SOL    HW212932   0.438   9.702   2.135  0.2238  1.2837  1.0018
  965SOL     OW12933   3.154   9.748   1.078  0.3018  0.0950 -0.0762
  965SOL    HW112934   3.206   9.806   1.141 -0.4465  0.4166  0.2506
  965SOL    HW212935   3.062   9.734   1.114 -0.3709  0.8921 -1.4559
  966SOL     OW12936   3.021   7.744   0.493 -0.0187 -0.5302 -0.1120
  966SOL    HW112937   3.096   7.681   0.473  0.8850  0.4292  0.2188
  966SOL    HW212938   3.058   7.833   0.517 -1.2471 -0.2643  0.8366
  967SOL     OW12939   9.355   3.569   0.202 -0.3826 -0.2626 -0.0948
  967SOL    HW112940   9.341   3.511   0.283 -0.0992 -0.9540 -0.5432
  967SOL    HW212941   9.315   3.525   0.122 -2.3954  1.3076 -0.0076
  968SOL     OW12942   9.444   2.570   1.554 -0.8590  0.2451 -0.0927
  968SOL    HW112943   9.431   2.498   1.485 -0.3747  0.4809 -0.4308
  968SOL    HW212944   9.534   2.559   1.596 -1.4519 -0.3487  1.0320
  969SOL     OW12945   9.447   1.080   1.766  0.4485  0.1707 -0.4173
  969SOL    HW112946   9.535   1.057   1.807 -0.9251  0.6276  2.9122
  969SOL    HW212947   9.400   0.996   1.740  0.9085 -0.1828 -0.1166
  970SOL     OW12948   3.467   8.876   0.210 -0.0958 -0.0751 -0.2339
  970SOL    HW112949   3.549   8.855   0.263 -0.0558 -0.7969 -0.5811
  970SOL    HW212950   3.444   8.973   0.221  0.4223 -0.0213  0.3876
  971SOL     OW12951   9.864   4.887   2.253  0.4605  0.2376  0.4588
  971SOL    HW112952   9.837   4.801   2.210 -0.6209  0.4164  0.7653
  971SOL    HW212953   9.821   4.894   2.343  0.6672  1.0314  0.4999
  972SOL     OW12954   3.969   3.125   1.662  0.4377  0.4065 -0.0158
  972SOL    HW112955   3.904   3.201   1.660 -1.3310 -0.9880  1.8552
  972SOL    HW212956   3.926   3.046   1.706  3.1393 -0.8447  0.4632
  973SOL     OW12957   3.787   8.654   2.301 -0.4946 -0.1123  0.3440
  973SOL    HW112958   3.879   8.672   2.336 -1.3663  1.8178  1.7546
  973SOL    HW212959   3.773   8.708   2.218 -0.0509 -1.1148 -0.3930
  974SOL     OW12960   0.130   3.261   0.816 -0.0731  0.1968  0.1566
  974SOL    HW112961   0.077   3.197   0.872  1.2150 -0.9914  0.0203
  974SOL    HW212962   0.227   3.239   0.822  0.4812  2.6653  0.7962
  975SOL     OW12963   0.892   2.751   0.165  0.5448 -0.2178  0.0244
  975SOL    HW112964   0.820   2.742   0.233  0.7232  0.0631  0.2536
  975SOL    HW212965   0.976   2.782   0.210  0.7975 -0.5088 -0.2445
  976SOL     OW12966   1.939   5.400   1.412 -0.2993 -0.2084  0.1262
  976SOL    HW112967   1.850   5.446   1.422 -0.6387 -0.9441  0.5617
  976SOL    HW212968   2.005   5.443   1.474 -0.5564 -0.1584  0.3691
  977SOL     OW12969   0.904   3.697   0.132 -0.1267 -0.3122  0.1489
  977SOL    HW112970   0.927   3.787   0.095 -1.6646  0.1889  0.3856
  977SOL    HW212971   0.970   3.629   0.098  0.5771  0.7589 -0.6524
  978SOL     OW12972   1.748   0.393   1.672  0.0667  0.6414 -0.6811
  978SOL    HW112973   1.818   0.454   1.710  0.0779  0.3602 -0.2420
  978SOL    HW212974   1.791   0.306   1.647  0.2125  1.1109 -2.1010
  979SOL     OW12975   1.154   7.012   2.128  0.3318 -0.0510  0.6475
  979SOL    HW112976   1.136   7.036   2.033 -1.1499 -0.2821  0.8477
  979SOL    HW212977   1.249   7.033   2.151  0.4500  0.8421 -0.6138
  980SOL     OW12978   3.514   0.005   1.587 -0.1962 -0.6549  0.4756
  980SOL    HW112979   3.587  -0.038   1.641  0.6214  0.1499  0.0132
  980SOL    HW212980   3.544   0.095   1.556 -2.0972  0.5009  1.8888
  981SOL     OW12981   9.207   2.803   1.227  0.2520 -0.1074 -0.0081
  981SOL    HW112982   9.264   2.779   1.306 -0.8688 -0.8256  0.6062
  981SOL    HW212983   9.126   2.744   1.226 -0.5533  0.9872 -0.7792
  982SOL     OW12984   0.723   4.469   0.759 -0.3046 -0.4265  0.0799
  982SOL    HW112985   0.765   4.434   0.842 -2.1503 -0.2799  1.0887
  982SOL    HW212986   0.688   4.561   0.775  0.8450  0.2923 -1.3682
  983SOL     OW12987   2.874   9.379   1.667  0.0465  0.2192  0.2149
  983SOL    HW112988   2.776   9.396   1.659 -0.4916 -1.9328  1.6864
  983SOL    HW212989   2.898   9.298   1.613  0.8901  0.4094  0.3017
  984SOL     OW12990   1.491   4.197   0.528  0.2354 -0.3581  0.5008
  984SOL    HW112991   1.462   4.120   0.583  0.2096 -1.6432 -1.2591
  984SOL    HW212992   1.462   4.282   0.571 -3.0425 -1.4668  0.6087
  985SOL     OW12993   3.083   9.273   1.272 -0.3496  0.0817 -1.1117
  985SOL    HW112994   3.013   9.322   1.221 -0.9014 -0.0019 -0.4395
  985SOL    HW212995   3.171   9.321   1.263 -1.4352  2.7814  1.7486
  986SOL     OW12996   0.793   3.922   1.250  0.1521  0.0607 -0.1200
  986SOL    HW112997   0.764   3.921   1.154  0.4960  0.0152 -0.2239
  986SOL    HW212998   0.738   3.988   1.301 -0.9328 -0.8768 -0.0590
  987SOL     OW12999   9.939   3.922   0.364  0.1396 -0.1260 -0.0903
  987SOL    HW113000   9.999   3.943   0.441 -0.4524 -0.1645  0.3819
  987SOL    HW213001   9.878   3.846   0.388  0.8350 -1.0082 -1.0502
  988SOL     OW13002   0.580   3.049   1.422  0.0443 -0.1678  0.1623
  988SOL    HW113003   0.648   3.068   1.493  0.3416 -2.5221  0.5703
  988SOL    HW213004   0.490   3.038   1.465  0.4193 -2.7596  0.3872
  989SOL     OW13005   3.935   3.542   0.559  0.1366  0.5514  0.4829
  989SOL    HW113006   3.911   3.445   0.548 -1.6200  1.0939 -0.7610
  989SOL    HW213007   3.920   3.570   0.653 -1.2547  0.0789  0.4215
  990SOL     OW13008   9.651   4.025   2.754 -0.0308 -0.0469  0.1863
  990SOL    HW113009   9.598   4.109   2.770 -0.7068 -0.3508 -0.4894
  990SOL    HW213010   9.667   3.979   2.842 -2.4699 -0.9284  0.1824
  991SOL     OW13011   2.739   1.718   1.521 -0.8985 -0.1555 -0.1041
  991SOL    HW113012   2.658   1.737   1.465  0.1230 -0.0631 -1.5784
  991SOL    HW213013   2.810   1.677   1.463  0.4231  0.5716  0.9881
  992SOL     OW13014   4.584   1.445   1.957 -0.0300 -0.0046  0.1350
  992SOL    HW113015   4.530   1.365   1.985  0.0318  0.1174  0.5954
  992SOL    HW213016   4.587   1.449   1.857  1.3101 -1.5060  0.0903
  993SOL     OW13017   1.991   7.128   0.653 -0.2215 -0.1183  0.5904
  993SOL    HW113018   1.968   7.197   0.721 -0.4040 -0.2491  0.6607
  993SOL    HW213019   1.967   7.037   0.688 -0.6229 -0.1560  0.2180
  994SOL     OW13020   3.193   3.406   0.804  0.2713 -0.3893 -0.1254
  994SOL    HW113021   3.107   3.387   0.852 -0.9796  0.2862 -2.0716
  994SOL    HW213022   3.226   3.496   0.831 -0.6176  0.1393 -0.7754
  995SOL     OW13023   9.787   2.385   1.237  0.3393 -1.0436  0.0222
  995SOL    HW113024   9.720   2.323   1.195  0.4224 -0.6696 -0.6699
  995SOL    HW213025   9.757   2.479   1.225  0.4353 -0.9271  0.6889
  996SOL     OW13026   1.600   2.199   1.410  0.2413  0.4932 -0.3591
  996SOL    HW113027   1.694   2.229   1.422  0.5790 -0.0451 -1.5764
  996SOL    HW213028   1.546   2.273   1.370 -0.2283  1.3214  1.7281
  997SOL     OW13029   3.307   3.030   2.579 -0.3955 -0.4503  0.0270
  997SOL    HW113030   3.348   3.117   2.605 -1.8217  0.0761  0.5154
  997SOL    HW213031   3.353   2.995   2.497  0.6743  0.3818  0.2648
  998SOL     OW13032   1.319   8.653   0.687  0.0274 -0.3697 -0.0110
  998SOL    HW113033   1.319   8.753   0.690  0.6729 -0.3436 -0.8811
  998SOL    HW213034   1.258   8.622   0.615  1.0180 -0.5696 -0.7682
  999SOL     OW13035   3.745   9.481   2.247  0.5705  0.3210  0.5960
  999SOL    HW113036   3.755   9.520   2.156 -0.0979  0.6883  0.6704
  999SOL    HW213037   3.768   9.551   2.315  1.0208  0.0632  0.7051
 1000SOL     OW13038   3.693   1.603   0.650  0.2066  0.1183  0.5898
 1000SOL    HW113039   3.693   1.521   0.593  1.3756  1.1259 -0.9046
 1000SOL    HW213040   3.739   1.677   0.601  1.2617  1.0111  2.8530
 1001SOL     OW13041   3.478   2.882   2.811  0.2243  0.4861  0.4949
 1001SOL    HW113042   3.416   2.939   2.757  1.3536 -0.5697 -1.9659
 1001SOL    HW213043   3.443   2.789   2.815  0.5167  0.3939  1.0067
 1002SOL     OW13044   0.926   1.387   1.773 -0.6407 -0.8935  0.3533
 1002SOL    HW113045   0.826   1.390   1.772 -0.6262  3.4005  2.5505
 1002SOL    HW213046   0.958   1.346   1.858 -0.4939 -1.2158  0.1470
 1003SOL     OW13047   1.289   9.299   2.788 -0.4433  0.3167  0.1376
 1003SOL    HW113048   1.237   9.217   2.814 -1.1317  1.0239  0.9948
 1003SOL    HW213049   1.375   9.301   2.839 -0.5965  0.3211  0.3974
 1004SOL     OW13050   2.757   9.580   0.966 -0.3463 -0.2026 -0.0344
 1004SOL    HW113051   2.744   9.676   0.989 -0.3514 -0.2809  0.2923
 1004SOL    HW213052   2.669   9.533   0.963 -0.3572 -0.1586 -0.3591
 1005SOL     OW13053   1.427   2.982   1.461 -0.4160  0.5428  0.0096
 1005SOL    HW113054   1.511   3.030   1.485 -1.3163  0.9158  2.6551
 1005SOL    HW213055   1.441   2.926   1.379  2.1310  1.2527 -0.0574
 1006SOL     OW13056   9.009   1.253   1.801 -0.1949  0.3946 -0.6592
 1006SOL    HW113057   8.984   1.180   1.738 -1.9166  2.2412 -2.1666
 1006SOL    HW213058   8.926   1.293   1.840  0.7619  1.2055  0.5743
 1007SOL     OW13059   8.437   2.905   2.044 -0.1398  0.1464 -0.1773
 1007SOL    HW113060   8.414   2.858   1.959  0.0850  1.3487 -0.9110
 1007SOL    HW213061   8.411   3.001   2.037 -1.5928 -0.0792  1.7156
 1008SOL     OW13062   1.408   4.357   1.480  0.3264 -0.3997  0.5090
 1008SOL    HW113063   1.350   4.306   1.545 -3.4150  0.0786 -2.2718
 1008SOL    HW213064   1.392   4.455   1.493  1.5587 -0.2117  0.5979
 1009SOL     OW13065   9.395   2.501   0.888  0.0681  0.2696  0.7901
 1009SOL    HW113066   9.447   2.415   0.889  0.8441  0.7166  3.0428
 1009SOL    HW213067   9.307   2.487   0.934 -0.8636  0.0944 -0.9988
 1010SOL     OW13068   3.937   3.167   1.205  0.2709  0.2946 -0.0863
 1010SOL    HW113069   4.018   3.115   1.182 -1.3621 -2.2736 -0.2390
 1010SOL    HW213070   3.876   3.111   1.262 -3.1874  0.6673 -3.2037
 1011SOL     OW13071   3.433   4.013   0.725 -0.3568  0.3778 -0.6566
 1011SOL    HW113072   3.527   4.048   0.721  0.1696 -0.4760  2.7612
 1011SOL    HW213073   3.404   3.986   0.633  1.7900  3.0030 -2.2021
 1012SOL     OW13074   1.933   6.770   1.534  1.3405 -0.3311 -1.1748
 1012SOL    HW113075   1.861   6.701   1.538  1.5374 -0.6113 -2.2310
 1012SOL    HW213076   1.986   6.768   1.619 -0.0596  0.0736 -0.2724
 1013SOL     OW13077   2.506   3.518   2.241  0.0845  0.0827  0.7936
 1013SOL    HW113078   2.585   3.553   2.292  0.5511 -0.8710  0.7343
 1013SOL    HW213079   2.538   3.457   2.168 -0.6746  0.1862  0.3700
 1014SOL     OW13080   0.981   8.826   1.356  0.3646  0.8485  0.0626
 1014SOL    HW113081   1.004   8.741   1.403 -2.1610  0.4561  0.6804
 1014SOL    HW213082   0.952   8.895   1.422 -1.1846  0.9705 -0.7095
 1015SOL     OW13083   3.867   8.212   1.657 -0.0966  0.5762 -0.0560
 1015SOL    HW113084   3.778   8.167   1.645  0.4114 -0.5010  0.2726
 1015SOL    HW213085   3.882   8.232   1.753  0.6639 -0.5394  0.0561
 1016SOL     OW13086   1.153   5.691   1.720  0.1297 -0.4234  0.1777
 1016SOL    HW113087   1.188   5.599   1.738  1.5609  0.2831  1.1328
 1016SOL    HW213088   1.053   5.690   1.721  0.1392 -1.8480  0.7624
 1017SOL     OW13089   0.691   7.141   2.494  0.5897  0.0353  0.3173
 1017SOL    HW113090   0.654   7.231   2.473 -0.3159 -0.4963 -0.4044
 1017SOL    HW213091   0.753   7.148   2.572  1.6957  1.5482 -0.6673
 1018SOL     OW13092   1.916   9.368   1.354 -0.3978 -0.1618 -0.0770
 1018SOL    HW113093   1.936   9.275   1.385 -0.6346 -0.2766 -0.2654
 1018SOL    HW213094   1.892   9.366   1.257 -0.8894  0.0287  0.0412
 1019SOL     OW13095   2.773   8.925   2.025  0.9023  0.1331 -0.5349
 1019SOL    HW113096   2.686   8.939   2.073  1.0383 -1.1206  0.0874
 1019SOL    HW213097   2.843   8.985   2.065  0.6416  0.2064 -0.1878
 1020SOL     OW13098   9.316   1.637   0.443  0.0139  0.2415  0.0698
 1020SOL    HW113099   9.262   1.589   0.512 -0.9479  0.1826 -0.6971
 1020SOL    HW213100   9.263   1.642   0.358  0.5349  1.7217 -0.1744
 1021SOL     OW13101   1.719   6.849   2.597 -0.5825  0.3533 -0.7094
 1021SOL    HW113102   1.620   6.853   2.609 -0.6115 -1.4484 -0.2420
 1021SOL    HW213103   1.741   6.786   2.522  0.2769 -0.7300  0.4318
 1022SOL     OW13104   1.097   6.507   0.177 -0.6767 -0.5010 -0.5186
 1022SOL    HW113105   1.040   6.430   0.205 -1.6439 -0.3482 -2.0359
 1022SOL    HW213106   1.080   6.528   0.081 -2.4548  3.3580  0.5477
 1023SOL     OW13107   1.966   3.121   1.862 -0.1356  0.1924 -0.6155
 1023SOL    HW113108   1.867   3.107   1.860 -0.3562  1.8559 -1.9256
 1023SOL    HW213109   2.005   3.068   1.937 -2.0935  0.0682  0.3434
 1024SOL     OW13110   2.520   5.557   2.336  0.0703 -0.2163 -0.4862
 1024SOL    HW113111   2.603   5.612   2.346  0.2788 -0.7287  0.7408
 1024SOL    HW213112   2.492   5.555   2.240  2.0809 -0.9304 -1.0803
 1025SOL     OW13113   1.741   8.116   2.372  0.1147 -0.0058  0.2514
 1025SOL    HW113114   1.697   8.035   2.336 -0.7197  0.2212  0.7446
 1025SOL    HW213115   1.741   8.188   2.303  1.9070 -0.7859 -0.6025
 1026SOL     OW13116   3.675   8.019   0.866  0.4091  0.1303  0.1063
 1026SOL    HW113117   3.741   7.966   0.813  0.8703  0.6296  0.1794
 1026SOL    HW213118   3.600   8.048   0.807  0.5925  0.1309 -0.1279
 1027SOL     OW13119   0.111   9.842   1.513  0.2573 -0.4789 -0.0645
 1027SOL    HW113120   0.127   9.787   1.595  0.4725 -0.1690  0.1026
 1027SOL    HW213121   0.016   9.833   1.485 -0.2878  0.8591  1.2842
 1028SOL     OW13122   0.657   5.488   0.026 -0.1390  0.2505  0.1023
 1028SOL    HW113123   0.597   5.528  -0.044  1.0431  1.1615 -0.4086
 1028SOL    HW213124   0.698   5.404  -0.010 -1.0898 -0.3800  0.4550
 1029SOL     OW13125   1.459   4.862   0.019  0.1058  0.7656  0.1565
 1029SOL    HW113126   1.458   4.826   0.112 -1.6511  1.5446  0.4543
 1029SOL    HW213127   1.553   4.885  -0.007  1.0583 -2.3805  0.5761
 1030SOL     OW13128   3.776   1.138   1.597  0.2818  0.7873  0.5055
 1030SOL    HW113129   3.821   1.188   1.671  0.0495  1.0551  0.4680
 1030SOL    HW213130   3.838   1.069   1.560  1.2321  2.2100 -0.6020
 1031SOL     OW13131   0.355   6.031   1.414 -0.5287  0.0492  0.0134
 1031SOL    HW113132   0.416   5.954   1.430  1.2931  0.7556 -3.0648
 1031SOL    HW213133   0.395   6.114   1.453  0.9475  0.6558 -2.6771
 1032SOL     OW13134   8.309   1.542   1.381  0.2654  0.3034 -0.3723
 1032SOL    HW113135   8.283   1.458   1.428 -0.7640 -0.1724 -1.7683
 1032SOL    HW213136   8.408   1.544   1.368  0.3132 -0.6020 -0.1677
 1033SOL     OW13137   1.141   9.821   1.962  0.2505 -0.0939  0.5860
 1033SOL    HW113138   1.058   9.769   1.944 -1.0335  1.6436  1.3527
 1033SOL    HW213139   1.219   9.759   1.969 -1.0083 -1.7520  0.0293
 1034SOL     OW13140   2.142   1.720   0.136 -0.0807 -0.0068  0.7814
 1034SOL    HW113141   2.092   1.806   0.141 -0.8372 -0.2988 -1.3675
 1034SOL    HW213142   2.094   1.650   0.189 -0.4960  0.4025  0.9431
 1035SOL     OW13143   8.367   2.280   0.164 -0.1326  0.1884  0.3988
 1035SOL    HW113144   8.297   2.270   0.235 -1.3456  0.6067 -0.7195
 1035SOL    HW213145   8.433   2.350   0.192 -1.1132  1.0043  0.7418
 1036SOL     OW13146   0.621   4.004   2.781  0.1293  0.7919 -0.1200
 1036SOL    HW113147   0.615   4.100   2.753  0.5806  0.6049 -0.8790
 1036SOL    HW213148   0.648   3.999   2.877 -0.9842  1.4370  0.2314
 1037SOL     OW13149   2.860   7.927   1.135 -0.6352 -0.0024 -0.0388
 1037SOL    HW113150   2.952   7.958   1.112 -0.1783  0.5563  2.4144
 1037SOL    HW213151   2.792   7.991   1.098  0.0908  1.2580  0.8176
 1038SOL     OW13152   0.259   5.461   1.055  0.3422  0.1243  0.8444
 1038SOL    HW113153   0.187   5.515   1.013  1.2043  0.1657 -0.6110
 1038SOL    HW213154   0.225   5.369   1.074 -1.1866  1.1772  3.5078
 1039SOL     OW13155   1.444   9.355   1.329  0.5454 -0.3965 -0.1463
 1039SOL    HW113156   1.350   9.384   1.347  0.4743 -0.2502 -0.7232
 1039SOL    HW213157   1.495   9.349   1.414  1.0831  3.1711 -0.1719
 1040SOL     OW13158   2.934   8.054   1.919 -0.1574 -0.3281 -0.0036
 1040SOL    HW113159   2.866   8.120   1.888 -0.7220 -1.8018 -1.9802
 1040SOL    HW213160   3.023   8.075   1.879 -0.0242  0.0664  0.4992
 1041SOL     OW13161   1.757   9.917   1.457 -0.4946 -0.2360  0.0588
 1041SOL    HW113162   1.758  10.014   1.432 -0.7085  0.4968  2.7078
 1041SOL    HW213163   1.662   9.884   1.453 -0.5552 -0.0673  0.0512
 1042SOL     OW13164   7.949   2.165   0.214  0.3220  0.4866 -0.2749
 1042SOL    HW113165   7.959   2.239   0.148 -1.2789  0.3471 -0.6957
 1042SOL    HW213166   7.928   2.080   0.166 -2.3356  0.6791  0.4745
 1043SOL     OW13167   4.322   2.845   2.561  0.3769 -0.0168 -0.9575
 1043SOL    HW113168   4.302   2.852   2.463 -0.8291  1.0240 -0.6585
 1043SOL    HW213169   4.413   2.882   2.580  0.3395  0.3953 -1.5888
 1044SOL     OW13170   1.621   3.600   1.503  0.8008  0.2301  0.5057
 1044SOL    HW113171   1.676   3.656   1.441  0.3657 -1.1556 -1.1957
 1044SOL    HW213172   1.659   3.508   1.507 -0.7428 -0.4413  0.1595
 1045SOL     OW13173   0.550   6.136   2.661 -0.4787 -0.7445 -0.0527
 1045SOL    HW113174   0.539   6.221   2.712  1.5427 -0.8994  0.6791
 1045SOL    HW213175   0.540   6.155   2.563  1.3536  0.6170 -0.0067
 1046SOL     OW13176   0.894   5.972   0.985 -0.4019  0.7250 -0.1735
 1046SOL    HW113177   0.879   6.005   1.079 -1.5472  1.8907 -0.7582
 1046SOL    HW213178   0.810   5.984   0.932  0.2569  0.0912 -1.3683
 1047SOL     OW13179   2.320   7.342   2.780 -0.0991 -0.4360  0.1382
 1047SOL    HW113180   2.403   7.381   2.742  0.2293 -0.5432  0.7320
 1047SOL    HW213181   2.252   7.414   2.795 -0.4577 -0.4843 -1.2175
 1048SOL     OW13182   1.272   5.936   1.231 -0.5191  0.0320 -0.1286
 1048SOL    HW113183   1.350   5.888   1.192 -0.8611 -1.0656  0.5187
 1048SOL    HW213184   1.303   5.998   1.303 -0.1771  0.1596 -0.3817
 1049SOL     OW13185   1.888   1.023   2.422 -0.4127  0.0668 -0.1847
 1049SOL    HW113186   1.877   1.065   2.513  0.4538 -1.9620  0.8953
 1049SOL    HW213187   1.827   1.067   2.357 -1.9806  0.7226  1.6874
 1050SOL     OW13188   3.020   9.015   1.059 -0.1019  0.2926 -0.0260
 1050SOL    HW113189   3.041   8.940   1.122  0.1772  0.2194 -0.2038
 1050SOL    HW213190   3.021   9.101   1.109  1.9001  0.4290 -0.2670
 1051SOL     OW13191   2.862   9.401   1.148 -0.2723 -0.7550 -0.0590
 1051SOL    HW113192   2.788   9.414   1.214 -0.9785  0.4605 -1.0597
 1051SOL    HW213193   2.836   9.441   1.060  3.0026  2.9885  0.5460
 1052SOL     OW13194   3.683   0.178   0.079  0.0977 -0.1140  0.3335
 1052SOL    HW113195   3.601   0.200   0.131  0.5697  0.4084  0.8768
 1052SOL    HW213196   3.669   0.093   0.028  0.3886 -1.8738  3.0829
 1053SOL     OW13197   2.754   6.079   0.522  0.0204  0.3244  0.1770
 1053SOL    HW113198   2.768   6.121   0.432 -0.7513  0.0018 -0.0968
 1053SOL    HW213199   2.696   6.137   0.578 -0.1889  0.1225  0.1685
 1054SOL     OW13200   0.574   2.990   1.152  0.0628 -0.2902  0.7126
 1054SOL    HW113201   0.613   3.007   1.243 -0.7515  2.0887  0.6510
 1054SOL    HW213202   0.480   2.957   1.162  0.6320 -1.9103  0.7680
 1055SOL     OW13203   1.473   1.976   2.627  0.1695 -0.5380 -0.2640
 1055SOL    HW113204   1.502   1.887   2.592  1.6330 -1.1217  2.3248
 1055SOL    HW213205   1.508   2.048   2.567 -1.2972 -1.6669 -2.5522
 1056SOL     OW13206   1.946   7.147   1.835  0.5717 -0.1081 -0.1224
 1056SOL    HW113207   1.926   7.187   1.746  0.2310  0.9270  0.4178
 1056SOL    HW213208   2.043   7.123   1.839  0.8298  0.8994 -0.3429
 1057SOL     OW13209   0.526   6.390   0.699 -0.4585 -1.0904 -0.0614
 1057SOL    HW113210   0.466   6.465   0.672 -0.8196 -1.6136 -0.7085
 1057SOL    HW213211   0.539   6.392   0.798  1.1800  1.0524 -0.3004
 1058SOL     OW13212   0.890   5.674   1.812 -0.3626 -0.5347  0.4728
 1058SOL    HW113213   0.833   5.726   1.749  1.3761 -0.5728 -1.1804
 1058SOL    HW213214   0.858   5.579   1.815 -0.7805 -0.4089  0.0315
 1059SOL     OW13215   0.111   9.351   2.121  0.3037  0.0789  0.6428
 1059SOL    HW113216   0.018   9.387   2.133 -0.8906 -2.0956 -1.5339
 1059SOL    HW213217   0.152   9.331   2.210 -1.1075  1.5371  1.6432
 1060SOL     OW13218   1.792   1.908   1.321 -0.5589  0.0105 -0.1008
 1060SOL    HW113219   1.783   1.982   1.254 -0.1574 -0.0768 -0.2507
 1060SOL    HW213220   1.701   1.872   1.343 -0.9280  1.7094  1.2872
 1061SOL     OW13221   1.617   5.674   0.083 -0.0753 -0.4551 -0.0923
 1061SOL    HW113222   1.595   5.661   0.180  4.1152  1.2769  1.1713
 1061SOL    HW213223   1.545   5.729   0.039  0.8599  3.8866  3.5113
 1062SOL     OW13224   1.632   8.075   1.998  0.0408  0.7435 -0.1042
 1062SOL    HW113225   1.638   8.143   2.072 -0.6089 -0.1080  0.7381
 1062SOL    HW213226   1.573   8.110   1.926 -1.3794  0.5261  0.9415
 1063SOL     OW13227   2.375   2.819   0.651  0.0655  0.0695  0.3839
 1063SOL    HW113228   2.275   2.824   0.661 -0.0663  2.5041 -1.6740
 1063SOL    HW213229   2.417   2.807   0.741 -2.0760 -1.3813  1.2529
 1064SOL     OW13230   2.578   5.817   0.683 -0.1373 -0.0249 -0.3563
 1064SOL    HW113231   2.599   5.846   0.776 -0.1650  0.0317 -0.3674
 1064SOL    HW213232   2.663   5.801   0.633 -0.0350 -4.4433  0.9946
 1065SOL     OW13233   0.382   4.848   2.554  0.2593  0.1434  0.1031
 1065SOL    HW113234   0.426   4.937   2.558 -0.5918  0.5640  0.1564
 1065SOL    HW213235   0.423   4.794   2.480 -0.0830  1.0363 -0.7431
 1066SOL     OW13236   3.303   9.697   2.686 -0.3413 -0.0048 -0.4116
 1066SOL    HW113237   3.393   9.673   2.650  0.3073 -0.2525  1.3218
 1066SOL    HW213238   3.296   9.796   2.695 -0.0624 -0.0111 -0.1086
 1067SOL     OW13239   2.328   2.907   1.018 -0.1730  0.0188 -0.0919
 1067SOL    HW113240   2.256   2.860   1.070  0.5057 -1.3746 -0.3900
 1067SOL    HW213241   2.286   2.963   0.947 -1.0628  1.1420  1.2942
 1068SOL     OW13242   2.189   9.759   0.718  0.0694 -0.2730 -0.0163
 1068SOL    HW113243   2.276   9.797   0.749  0.3707 -1.3636  0.5255
 1068SOL    HW213244   2.200   9.661   0.701 -1.1264 -0.4841  0.3513
 1069SOL     OW13245   9.040   4.381   1.085 -0.1369 -0.1339  0.0635
 1069SOL    HW113246   9.027   4.296   1.035 -1.5999  0.6553 -0.9406
 1069SOL    HW213247   9.127   4.422   1.060 -0.7522  0.1406 -1.6743
 1070SOL     OW13248   0.055   0.562   0.079  0.8654  0.1315  0.7409
 1070SOL    HW113249   0.140   0.513   0.096  0.7076  0.1455  1.6071
 1070SOL    HW213250  -0.008   0.503   0.029  1.1600 -0.0824  0.6213
 1071SOL     OW13251   3.524   8.631   1.417  0.4169 -0.5174 -0.0982
 1071SOL    HW113252   3.525   8.576   1.333  1.1208 -1.5969  0.6052
 1071SOL    HW213253   3.578   8.585   1.488 -0.7453  0.0332  1.1747
 1072SOL     OW13254   3.159   2.035   1.911  0.2141  0.1643 -0.1044
 1072SOL    HW113255   3.219   2.067   1.984  0.4644  0.6273 -0.5122
 1072SOL    HW213256   3.158   2.101   1.836 -0.9765  0.2636 -0.0093
 1073SOL     OW13257   8.988   3.628   2.258 -0.3039  0.8356  0.1055
 1073SOL    HW113258   8.962   3.609   2.353 -0.0180 -0.1591 -0.0133
 1073SOL    HW213259   9.043   3.712   2.255 -0.1686  0.7789  0.8465
 1074SOL     OW13260   2.295   3.491   1.620  0.0911  0.0433  0.0590
 1074SOL    HW113261   2.325   3.570   1.674 -2.1509  2.5406 -2.1853
 1074SOL    HW213262   2.374   3.450   1.573  1.1932  1.2865  0.7928
 1075SOL     OW13263   1.488   6.357   0.238 -0.1379  0.1117  0.6138
 1075SOL    HW113264   1.537   6.273   0.215 -0.9188 -0.2682  0.3195
 1075SOL    HW213265   1.481   6.366   0.337  1.0605  0.4820  0.6707
 1076SOL     OW13266   2.293   0.829   2.246 -0.6189 -0.3277 -0.1664
 1076SOL    HW113267   2.201   0.827   2.285 -0.7384  1.4539 -0.3044
 1076SOL    HW213268   2.351   0.763   2.294 -1.4484 -0.0413  1.2699
 1077SOL     OW13269   2.021   0.875   0.299  0.1146  0.8304 -0.1640
 1077SOL    HW113270   1.977   0.942   0.359  2.4344  2.9691 -0.7731
 1077SOL    HW213271   2.119   0.893   0.295  0.9156 -2.9003 -0.0109
 1078SOL     OW13272   3.979   0.384   1.063  0.5626 -0.2048 -0.5106
 1078SOL    HW113273   3.917   0.321   1.015 -0.4437 -0.2088  0.7609
 1078SOL    HW213274   3.926   0.444   1.123  1.7197  0.4019 -0.0707
 1079SOL     OW13275   1.568   9.649   0.072 -0.4991 -0.0165 -0.5556
 1079SOL    HW113276   1.484   9.697   0.044 -2.0386 -0.8314  2.4801
 1079SOL    HW213277   1.621   9.709   0.131 -0.7722 -0.8413  0.5265
 1080SOL     OW13278   0.039   2.440   1.296 -0.1559  0.2111 -0.3119
 1080SOL    HW113279   0.064   2.515   1.234 -1.0548  1.9894  1.4507
 1080SOL    HW213280  -0.052   2.406   1.271 -1.0193  1.6994  0.6979
 1081SOL     OW13281   2.883   1.103   0.679  0.0450 -0.0198  0.0703
 1081SOL    HW113282   2.932   1.041   0.739 -0.3882  0.0804  0.5335
 1081SOL    HW213283   2.901   1.079   0.583 -1.5502 -2.0003  0.2300
 1082SOL     OW13284   0.731   8.577   2.567  0.0358  0.2708  1.2199
 1082SOL    HW113285   0.812   8.535   2.526  1.4826  0.8212  3.4274
 1082SOL    HW213286   0.739   8.676   2.564 -1.2898  0.3621  0.0872
 1083SOL     OW13287   3.029   0.503   0.431  0.1097  0.2382 -0.1489
 1083SOL    HW113288   2.949   0.473   0.379 -0.2188  0.5623  0.1636
 1083SOL    HW213289   3.056   0.594   0.401  0.4736  0.0571 -0.3774
 1084SOL     OW13290   1.074   1.596   2.059 -0.6174  0.1302 -0.2419
 1084SOL    HW113291   1.089   1.694   2.051  0.3614 -0.0694 -0.8245
 1084SOL    HW213292   0.976   1.577   2.054 -0.7202  0.9460 -1.5955
 1085SOL     OW13293   2.654   8.342   0.578 -0.1725 -0.0196  0.3073
 1085SOL    HW113294   2.609   8.323   0.665  0.0847  1.2733  0.7356
 1085SOL    HW213295   2.657   8.441   0.563 -1.1238 -0.2669 -1.6490
 1086SOL     OW13296   0.238   2.653   0.887  0.2552  0.3478 -0.2808
 1086SOL    HW113297   0.336   2.669   0.874  0.5513 -0.4453  0.9167
 1086SOL    HW213298   0.187   2.733   0.857  1.3858  1.5126  0.8390
 1087SOL     OW13299   1.329   1.030   1.483 -0.2732  0.0741  0.1217
 1087SOL    HW113300   1.383   1.107   1.449 -2.0058  1.0090 -0.6031
 1087SOL    HW213301   1.385   0.975   1.545  1.5796  0.8362 -0.8221
 1088SOL     OW13302   8.879   3.996   2.638  0.2439 -0.0678  0.7060
 1088SOL    HW113303   8.945   4.054   2.591 -1.4409 -0.6589 -2.5668
 1088SOL    HW213304   8.797   4.049   2.661 -0.7419 -0.7747 -1.0721
 1089SOL     OW13305   0.737   3.827   1.659 -0.5154 -0.4022  0.8482
 1089SOL    HW113306   0.795   3.807   1.580  0.1055  3.5882  0.1606
 1089SOL    HW213307   0.794   3.830   1.741 -0.1807  0.7191  0.5927
 1090SOL     OW13308   9.337   4.000   2.231 -0.3680  0.3918 -0.5476
 1090SOL    HW113309   9.299   3.917   2.191 -0.4312  1.0184 -1.8020
 1090SOL    HW213310   9.266   4.046   2.284 -1.5278  1.7399 -3.1670
 1091SOL     OW13311   2.382   8.815   1.890 -0.4523  0.1071  0.1653
 1091SOL    HW113312   2.324   8.893   1.864  1.2319  1.8724  1.4821
 1091SOL    HW213313   2.405   8.823   1.987  1.9447 -0.5574 -0.3263
 1092SOL     OW13314   0.312   1.944   1.018 -0.8409 -0.2261  0.6270
 1092SOL    HW113315   0.269   1.960   0.929 -0.4871  1.4433  0.7364
 1092SOL    HW213316   0.299   2.025   1.076  1.8792  0.0754  0.8908
 1093SOL     OW13317   3.277   7.476   0.998 -0.7408 -0.4223  0.0628
 1093SOL    HW113318   3.214   7.402   1.019 -2.0413 -0.4150 -3.4879
 1093SOL    HW213319   3.295   7.478   0.900  2.1161  1.7395  0.5492
 1094SOL     OW13320   3.357   7.149   0.666  0.0186  0.2296  0.4644
 1094SOL    HW113321   3.340   7.248   0.670 -0.6740  0.0942  0.9677
 1094SOL    HW213322   3.322   7.113   0.579 -3.6919 -0.2838  2.0633
 1095SOL     OW13323   3.182   9.013   2.462 -0.2806 -0.1930  0.1653
 1095SOL    HW113324   3.128   9.062   2.531 -1.3907 -0.8803 -0.1900
 1095SOL    HW213325   3.224   9.079   2.400  0.9058  0.4467  1.6147
 1096SOL     OW13326   9.264   1.237   1.913 -1.5093 -0.6845  0.6935
 1096SOL    HW113327   9.341   1.198   1.862 -1.0743 -0.6432  1.3007
 1096SOL    HW213328   9.182   1.236   1.857 -0.5145  1.5751 -0.8627
 1097SOL     OW13329   4.016   1.994   2.385  0.3076 -0.3141  0.0672
 1097SOL    HW113330   4.068   2.012   2.469 -1.3775  1.1415  0.8147
 1097SOL    HW213331   4.038   2.064   2.317 -1.8780  1.2894  0.9612
 1098SOL     OW13332   0.437   5.609   2.078  0.0976 -0.1161  0.4538
 1098SOL    HW113333   0.408   5.704   2.068 -0.7772 -0.3329  0.8736
 1098SOL    HW213334   0.357   5.551   2.092  0.5140 -1.0804 -1.0709
 1099SOL     OW13335   2.333   5.348   1.903 -0.1731  0.0642  0.1991
 1099SOL    HW113336   2.390   5.317   1.827  0.8001  1.8513  0.1516
 1099SOL    HW213337   2.353   5.293   1.984 -3.0011 -3.4911 -1.4027
 1100SOL     OW13338   8.608   4.131   1.359 -0.0995 -1.1180 -0.6075
 1100SOL    HW113339   8.686   4.078   1.324 -0.6295 -2.7123  0.6032
 1100SOL    HW213340   8.582   4.097   1.448 -1.1224  0.5433 -0.2522
 1101SOL     OW13341   2.981   1.402   2.075  0.4615  0.3478  0.3541
 1101SOL    HW113342   2.974   1.410   2.174 -1.0317 -1.5688  0.4327
 1101SOL    HW213343   2.890   1.402   2.034  1.0556  1.0861 -1.0298
 1102SOL     OW13344   4.050   2.865   1.459  0.0318  0.7851 -0.6365
 1102SOL    HW113345   4.071   2.788   1.521  0.7132 -0.9163 -2.9222
 1102SOL    HW213346   3.987   2.927   1.505 -1.6403 -1.8574  0.7953
 1103SOL     OW13347   1.862   4.978   0.238 -0.3588  0.2090  0.2162
 1103SOL    HW113348   1.911   4.891   0.245  1.9571  1.2464 -1.9863
 1103SOL    HW213349   1.805   4.977   0.155  0.7769  1.2685 -0.5969
 1104SOL     OW13350   2.503   3.250   0.345 -0.1237  0.9145  0.1111
 1104SOL    HW113351   2.464   3.340   0.325  0.8291  0.9477 -1.6348
 1104SOL    HW213352   2.459   3.213   0.426 -1.0114  2.6607  0.4584
 1105SOL     OW13353   2.372   9.258   0.931  0.6943  0.1630 -0.3265
 1105SOL    HW113354   2.396   9.166   0.961  1.9545  0.3882 -0.6041
 1105SOL    HW213355   2.273   9.267   0.926  0.5563 -1.0201  0.1828
 1106SOL     OW13356   0.620   2.268   0.961  0.8454 -0.0194  0.3746
 1106SOL    HW113357   0.590   2.214   1.040 -1.2019  0.2807 -0.1555
 1106SOL    HW213358   0.595   2.364   0.975 -1.3393 -0.2792 -1.4685
 1107SOL     OW13359   0.442   5.375   1.501  0.1162  0.7234  0.3123
 1107SOL    HW113360   0.466   5.313   1.425  0.5058  0.8730  0.3095
 1107SOL    HW213361   0.348   5.359   1.528  1.2265 -2.3717  2.6708
 1108SOL     OW13362   9.672   2.109   1.819  0.2634 -0.4455 -0.7633
 1108SOL    HW113363   9.633   2.118   1.910 -2.1165 -2.6379 -1.5136
 1108SOL    HW213364   9.658   2.195   1.769 -0.5347 -0.0248  0.1475
 1109SOL     OW13365   3.757   9.729   1.120  0.2060 -0.1806  0.3962
 1109SOL    HW113366   3.821   9.665   1.163 -0.4454 -1.5395 -0.6417
 1109SOL    HW213367   3.663   9.699   1.134 -0.1599  1.0179  0.6338
 1110SOL     OW13368   9.040   2.482   0.688  0.2765  0.1958 -0.3745
 1110SOL    HW113369   8.997   2.462   0.776 -1.0098 -0.0476 -1.0479
 1110SOL    HW213370   8.970   2.513   0.623  1.0769 -0.4567 -1.5575
 1111SOL     OW13371   3.068   0.028   0.605  0.6736  0.1374 -0.8961
 1111SOL    HW113372   3.142   0.089   0.633  0.4881 -0.8257  1.8771
 1111SOL    HW213373   2.984   0.054   0.652  0.5029 -1.9721  0.0139
 1112SOL     OW13374   8.913   0.789   0.833 -0.1114  0.6847 -0.0244
 1112SOL    HW113375   8.827   0.835   0.815  0.0342  1.7818  1.9860
 1112SOL    HW213376   8.909   0.743   0.922  1.5447  1.1646  0.3102
 1113SOL     OW13377   3.332   3.215   0.577 -0.3188 -0.3369  0.5978
 1113SOL    HW113378   3.316   3.285   0.646 -2.8440 -1.4381  1.1880
 1113SOL    HW213379   3.315   3.254   0.486  0.1614  0.3371  0.7975
 1114SOL     OW13380   9.854   1.751   1.552  0.1322  0.0126  0.3565
 1114SOL    HW113381   9.869   1.817   1.625 -0.9802  0.1622  0.4592
 1114SOL    HW213382   9.913   1.773   1.474  0.6739  0.3772  0.8683
 1115SOL     OW13383   3.818   3.034   2.011  0.2750  0.1576 -0.4037
 1115SOL    HW113384   3.733   3.039   2.063 -0.0718 -1.6143 -0.7644
 1115SOL    HW213385   3.872   2.957   2.042  2.3395  1.9638  0.6304
 1116SOL     OW13386   3.310   8.954   1.552  0.4515 -0.0633  0.1473
 1116SOL    HW113387   3.391   8.968   1.610  0.2196  2.2665 -0.0362
 1116SOL    HW213388   3.251   8.886   1.594  0.8041  0.8187  2.1278
 1117SOL     OW13389   2.264   2.305   2.732  0.3077  0.0733 -0.8301
 1117SOL    HW113390   2.193   2.236   2.719 -0.7154  1.0365 -0.4324
 1117SOL    HW213391   2.238   2.365   2.808  0.5692  1.6659 -1.9745
 1118SOL     OW13392   9.528   4.773   2.036 -0.1717 -0.3914 -0.1319
 1118SOL    HW113393   9.608   4.750   2.092 -0.6767  0.7791  1.0867
 1118SOL    HW213394   9.454   4.709   2.057 -0.2250 -0.2118  0.2244
 1119SOL     OW13395   3.616   7.861   0.123 -0.0853 -0.4463  0.2184
 1119SOL    HW113396   3.697   7.855   0.181 -0.2735  0.6037  0.6119
 1119SOL    HW213397   3.642   7.884   0.030  0.1935 -1.8102 -0.0555
 1120SOL     OW13398   2.494   3.543   0.337 -0.1333 -0.1742  0.9239
 1120SOL    HW113399   2.497   3.632   0.292 -2.3296 -0.4842  0.0758
 1120SOL    HW213400   2.567   3.537   0.405 -0.0131  2.3159  1.0654
 1121SOL     OW13401   9.741   0.475   0.235  0.5657  0.0468  0.6811
 1121SOL    HW113402   9.669   0.527   0.190 -0.3422 -1.6604  0.1516
 1121SOL    HW213403   9.753   0.387   0.190 -0.1018 -1.5561  3.4789
 1122SOL     OW13404   3.795   9.955   1.646 -0.0330 -0.6493 -0.2361
 1122SOL    HW113405   3.761   9.863   1.625 -0.1955 -0.7545  0.4771
 1122SOL    HW213406   3.810  10.004   1.561  0.4326 -1.4701 -0.6366
 1123SOL     OW13407   4.270   2.872   0.076 -0.6293 -0.1046  0.0669
 1123SOL    HW113408   4.283   2.864  -0.023  1.3888 -0.2976  0.3316
 1123SOL    HW213409   4.308   2.791   0.121 -0.1066  0.7091  1.1181
 1124SOL     OW13410   2.340   6.519   2.519  0.4922 -0.3920  0.0675
 1124SOL    HW113411   2.242   6.532   2.535  0.7197  0.0621  1.1226
 1124SOL    HW213412   2.357   6.515   2.421 -0.7228 -1.5632 -0.1023
 1125SOL     OW13413   0.143   2.984   1.894 -0.2080  0.0392  0.1784
 1125SOL    HW113414   0.062   3.015   1.843  0.3795 -0.2543 -0.9467
 1125SOL    HW213415   0.154   3.040   1.976 -2.5574 -1.0093  1.2725
 1126SOL     OW13416   3.706   2.625   2.601 -0.3213 -0.1418 -0.0858
 1126SOL    HW113417   3.629   2.634   2.664  0.8136 -0.0656  1.3010
 1126SOL    HW213418   3.732   2.715   2.566 -1.4405 -0.2630 -1.2918
 1127SOL     OW13419   2.273   7.430   0.683 -0.0736 -0.2260 -0.5545
 1127SOL    HW113420   2.226   7.497   0.740  1.0066  0.0244  0.0744
 1127SOL    HW213421   2.328   7.478   0.614  0.6186 -0.4645 -0.1716
 1128SOL     OW13422   2.390   5.993   0.530  0.6929 -0.0340  0.1429
 1128SOL    HW113423   2.461   5.973   0.597  3.0657  0.3748 -2.1727
 1128SOL    HW213424   2.391   5.924   0.458 -1.2790 -0.0315  0.0884
 1129SOL     OW13425   0.151   0.652   0.876  0.1658 -0.2865  0.4773
 1129SOL    HW113426   0.139   0.553   0.883 -0.8637 -0.1200  1.1808
 1129SOL    HW213427   0.069   0.693   0.837  1.2580  0.1177 -1.4288
 1130SOL     OW13428   4.033   2.419   2.321 -0.1284  0.3121 -0.4341
 1130SOL    HW113429   4.032   2.413   2.420 -1.1742 -0.3158 -0.4776
 1130SOL    HW213430   4.104   2.359   2.284  0.5295  0.8493 -0.0578
 1131SOL     OW13431   1.838   2.511   0.996 -0.2710 -0.4752 -0.1996
 1131SOL    HW113432   1.828   2.514   0.896 -0.3205  1.6514 -0.1461
 1131SOL    HW213433   1.932   2.533   1.020 -0.1745 -1.3286  0.2203
 1132SOL     OW13434   3.631   2.524   2.333  0.1904 -0.2468  0.1807
 1132SOL    HW113435   3.532   2.539   2.331 -0.3094 -3.1636  1.2709
 1132SOL    HW213436   3.665   2.537   2.426  0.7558  0.2079 -0.0852
 1133SOL     OW13437   2.816   2.656   1.315  0.5864  0.6449  0.2678
 1133SOL    HW113438   2.854   2.589   1.379  1.3177  0.2461 -0.5675
 1133SOL    HW213439   2.802   2.612   1.226 -1.5254  0.8671  0.4574
 1134SOL     OW13440   2.105   6.069   0.226  0.3523 -0.5931  0.7822
 1134SOL    HW113441   2.127   5.979   0.189 -1.5228 -1.4067  1.5877
 1134SOL    HW213442   2.091   6.062   0.325  1.6082  0.8655  1.0872
 1135SOL     OW13443   2.157   6.572   1.355 -0.2973 -0.2342 -0.3109
 1135SOL    HW113444   2.238   6.603   1.305 -0.1250  0.8782  0.6396
 1135SOL    HW213445   2.176   6.485   1.399  0.8315  0.6476  0.9915
 1136SOL     OW13446   8.740   4.261   2.772 -0.5364  0.1438  0.1091
 1136SOL    HW113447   8.706   4.169   2.789  0.9351 -0.2909  0.8700
 1136SOL    HW213448   8.686   4.305   2.701 -2.1321 -0.7896  0.7303
 1137SOL     OW13449   8.763   3.569   1.507 -0.0515 -0.7468  0.5734
 1137SOL    HW113450   8.735   3.604   1.418  1.1305 -1.5335 -0.1309
 1137SOL    HW213451   8.844   3.619   1.539  0.5212 -1.5548  0.4221
 1138SOL     OW13452   0.375   3.793   0.502 -0.3084  0.1688 -1.1285
 1138SOL    HW113453   0.378   3.853   0.582 -0.7842  0.0712 -1.0382
 1138SOL    HW213454   0.315   3.832   0.433  0.3268  0.3978 -1.5631
 1139SOL     OW13455   0.344   3.316   0.560 -0.2288 -0.1431  0.1183
 1139SOL    HW113456   0.247   3.303   0.541 -0.1797  0.6738 -0.7477
 1139SOL    HW213457   0.398   3.283   0.482 -0.0090  2.9946 -1.1684
 1140SOL     OW13458   3.276   7.483   0.707 -0.2463  0.1277  0.6359
 1140SOL    HW113459   3.320   7.505   0.619 -0.9456 -0.8986  0.0090
 1140SOL    HW213460   3.179   7.506   0.702 -0.6022 -1.3242  0.6044
 1141SOL     OW13461   0.401   0.082   1.001 -0.3178 -0.2113  0.7755
 1141SOL    HW113462   0.453   0.160   1.036 -0.2346  1.0364 -2.0009
 1141SOL    HW213463   0.363   0.105   0.912  0.0811 -3.5124 -0.3079
 1142SOL     OW13464   2.691   0.247   1.240 -0.0925  0.0957 -0.4538
 1142SOL    HW113465   2.697   0.165   1.297 -3.0832 -0.4109 -0.8184
 1142SOL    HW213466   2.701   0.221   1.144 -1.2879  0.1000 -0.5878
 1143SOL     OW13467   9.170   4.770   2.606  0.3598 -0.4638  0.2472
 1143SOL    HW113468   9.174   4.775   2.706  0.2685 -1.6607  0.3240
 1143SOL    HW213469   9.260   4.793   2.568  0.4101 -0.0605  0.6144
 1144SOL     OW13470   2.232   1.330   0.565  0.6147 -0.2604  0.3088
 1144SOL    HW113471   2.278   1.247   0.598 -1.7822 -1.5264  0.5935
 1144SOL    HW213472   2.149   1.345   0.618 -1.3111 -0.1566 -2.6245
 1145SOL     OW13473   0.019   1.363   1.180 -0.4062  0.6840  0.3363
 1145SOL    HW113474   0.089   1.433   1.165 -0.7013  0.3652 -2.9935
 1145SOL    HW213475  -0.070   1.407   1.190 -0.4974  0.8409 -1.0727
 1146SOL     OW13476   2.404   0.153   0.857 -0.0555 -0.5709  0.0305
 1146SOL    HW113477   2.344   0.206   0.917  2.1502  0.5647  1.3062
 1146SOL    HW213478   2.405   0.057   0.886 -1.6065 -0.6966 -0.3047
 1147SOL     OW13479   3.147   8.458   0.750 -0.0536  0.2190 -0.2007
 1147SOL    HW113480   3.123   8.554   0.762  0.1565  0.3679 -0.9493
 1147SOL    HW213481   3.121   8.428   0.658 -0.7046 -0.6192  0.2420
 1148SOL     OW13482   0.299   3.921   0.761  0.2355 -0.0762  0.0405
 1148SOL    HW113483   0.228   3.884   0.821  0.2723 -1.8631 -0.9742
 1148SOL    HW213484   0.378   3.949   0.815  0.4787 -2.1679  0.8027
 1149SOL     OW13485   0.682   2.374   0.632 -0.5112 -0.2660  0.0214
 1149SOL    HW113486   0.685   2.390   0.731 -2.1396  1.1391 -0.1118
 1149SOL    HW213487   0.689   2.462   0.585 -1.9816 -0.6940 -1.0263
 1150SOL     OW13488   8.617   2.144   0.849 -0.6730 -0.3453  0.3995
 1150SOL    HW113489   8.710   2.144   0.886  0.5922  1.1753 -2.6441
 1150SOL    HW213490   8.590   2.050   0.828 -0.3180 -0.9233  2.3765
 1151SOL     OW13491   3.282   3.403   0.390  0.2070 -0.1674  0.3471
 1151SOL    HW113492   3.198   3.437   0.348 -1.7023 -1.8161  2.6831
 1151SOL    HW213493   3.312   3.465   0.462  0.3598 -0.1695  0.2872
 1152SOL     OW13494   8.454   1.649   0.729 -0.2779 -0.0818  0.3966
 1152SOL    HW113495   8.420   1.585   0.799  2.0202 -1.2711  0.4757
 1152SOL    HW213496   8.464   1.600   0.642 -0.3164  0.6544 -0.0233
 1153SOL     OW13497   2.414   2.560   1.605  0.6256 -0.6762  0.7133
 1153SOL    HW113498   2.377   2.566   1.698 -0.0122 -0.6307  0.4577
 1153SOL    HW213499   2.445   2.651   1.576 -1.2233 -0.2229  0.0524
 1154SOL     OW13500   1.911   0.112   2.264 -0.3859  0.2129  0.0747
 1154SOL    HW113501   1.890   0.209   2.279  0.1979  0.8078 -2.6409
 1154SOL    HW213502   1.851   0.076   2.193  1.8886 -0.4011 -1.5716
 1155SOL     OW13503   2.838   2.048   0.303  0.5175 -0.2591  0.1583
 1155SOL    HW113504   2.805   2.032   0.210  2.0245 -0.3642 -0.3709
 1155SOL    HW213505   2.866   2.143   0.313  0.5928 -0.3084  0.4210
 1156SOL     OW13506   9.531   3.913   1.211  0.5012  0.1438 -0.1797
 1156SOL    HW113507   9.432   3.916   1.225  0.7820  0.2676  1.8272
 1156SOL    HW213508   9.558   3.988   1.150 -0.4957  0.7515  0.1138
 1157SOL     OW13509   2.272   6.998   2.504  0.2299  0.3679 -0.1159
 1157SOL    HW113510   2.302   6.925   2.565  2.6563  0.4199 -1.2000
 1157SOL    HW213511   2.266   7.084   2.556  1.6503  0.2867  0.1828
 1158SOL     OW13512   1.516   3.597   0.315  0.6497 -0.4579 -0.1046
 1158SOL    HW113513   1.517   3.568   0.410  1.1314  0.4097  0.1580
 1158SOL    HW213514   1.595   3.559   0.267 -0.2344 -1.8761 -0.4612
 1159SOL     OW13515   1.272   8.912   0.727 -0.4905  0.5228 -0.4140
 1159SOL    HW113516   1.185   8.942   0.689  0.2443  0.1197 -2.4317
 1159SOL    HW213517   1.343   8.977   0.702  0.9511 -2.2999 -4.0850
 1160SOL     OW13518   2.853   8.012   0.255 -0.0682 -0.2597 -0.3298
 1160SOL    HW113519   2.839   7.919   0.221  0.4079 -0.3252 -0.3491
 1160SOL    HW213520   2.812   8.021   0.346  0.3893 -0.6480 -0.0850
 1161SOL     OW13521   3.189   2.698   0.721  0.4805  0.3422 -1.0169
 1161SOL    HW113522   3.103   2.666   0.760  0.7621  0.7122 -0.0911
 1161SOL    HW213523   3.170   2.762   0.647 -0.0443  0.3299 -0.8942
 1162SOL     OW13524   9.788   4.304   2.775 -0.3280 -0.0097 -0.2281
 1162SOL    HW113525   9.843   4.364   2.717 -2.6167  1.5392 -0.8694
 1162SOL    HW213526   9.833   4.216   2.784  0.8603  0.2677 -3.0493
 1163SOL     OW13527   1.817   0.210   0.533  0.0492 -0.4440 -0.4377
 1163SOL    HW113528   1.908   0.206   0.491  0.5212 -0.7930  0.6017
 1163SOL    HW213529   1.778   0.301   0.519  1.5326  0.4706  1.0756
 1164SOL     OW13530   2.594   0.358   1.766 -0.2569  0.3933  0.0794
 1164SOL    HW113531   2.677   0.354   1.711  0.1707  0.5445  0.7146
 1164SOL    HW213532   2.540   0.438   1.740 -0.7603 -0.3077 -1.1136
 1165SOL     OW13533   3.411   8.808   2.504  0.2883 -1.0464  0.3860
 1165SOL    HW113534   3.341   8.874   2.478  0.3616  0.1362  3.0883
 1165SOL    HW213535   3.463   8.781   2.423 -0.9998  0.7055 -1.0608
 1166SOL     OW13536   9.120   4.730   1.448  0.3063 -0.3875  0.4572
 1166SOL    HW113537   9.148   4.718   1.352 -0.8193  0.8237 -0.0399
 1166SOL    HW213538   9.103   4.827   1.466 -2.5292 -0.9444  1.0051
 1167SOL     OW13539   0.963   4.264   1.629 -0.7052  0.3864  0.2023
 1167SOL    HW113540   1.008   4.198   1.570 -0.1495  1.5758 -0.7290
 1167SOL    HW213541   0.889   4.310   1.578 -0.0068  1.6535  0.2967
 1168SOL     OW13542   9.921   2.518   1.592  0.3119  0.4570 -0.6580
 1168SOL    HW113543   9.995   2.474   1.542  1.7537  1.8048  0.2397
 1168SOL    HW213544   9.899   2.605   1.548 -1.4169 -0.3740 -1.4848
 1169SOL     OW13545   1.723   3.674   1.793 -0.0103  0.2827  0.5457
 1169SOL    HW113546   1.813   3.704   1.825  0.1653 -0.2342  0.5330
 1169SOL    HW213547   1.728   3.650   1.696 -0.4045  1.2613  0.2760
 1170SOL     OW13548   0.852   0.852   1.225 -0.7389  0.2725  0.1653
 1170SOL    HW113549   0.875   0.931   1.168 -0.0410 -0.3058 -0.3599
 1170SOL    HW213550   0.854   0.878   1.321  0.0227  0.7563  0.0173
 1171SOL     OW13551   0.578   4.045   1.348 -0.4543 -0.0586  0.0705
 1171SOL    HW113552   0.617   4.120   1.401  0.0138 -0.4459  0.2915
 1171SOL    HW213553   0.504   4.002   1.401 -1.2058  0.7045 -0.3661
 1172SOL     OW13554   3.463   2.177   2.704 -0.1460  0.6339 -0.4066
 1172SOL    HW113555   3.546   2.126   2.728  0.0652  0.4822 -1.4556
 1172SOL    HW213556   3.398   2.172   2.780 -0.1497 -1.2368 -0.4970
 1173SOL     OW13557   9.572   2.912   2.330  0.6495 -0.2827 -0.1052
 1173SOL    HW113558   9.626   2.931   2.412  1.7238  0.9726 -1.0683
 1173SOL    HW213559   9.615   2.838   2.278  0.9560  0.1111 -0.4175
 1174SOL     OW13560   3.232   9.288   0.495  0.1221  0.2459  0.2503
 1174SOL    HW113561   3.155   9.325   0.547  1.5801  0.6598  2.1763
 1174SOL    HW213562   3.223   9.189   0.487 -0.8654  0.3480  0.0173
 1175SOL     OW13563   1.207   6.103   0.999  0.2350  0.4029  0.2020
 1175SOL    HW113564   1.266   6.051   1.061  0.1099  0.4036  0.3212
 1175SOL    HW213565   1.152   6.041   0.944 -1.0417  0.4317  1.4315
 1176SOL     OW13566   0.118   2.207   2.136 -0.3373  0.2907 -0.5958
 1176SOL    HW113567   0.032   2.257   2.130 -0.9522 -0.7438 -0.5193
 1176SOL    HW213568   0.105   2.114   2.101  0.8924  0.3057 -1.1145
 1177SOL     OW13569   8.204   2.045   1.640  0.0503  0.2124 -0.2197
 1177SOL    HW113570   8.168   2.134   1.666  0.7290  0.6424 -0.7280
 1177SOL    HW213571   8.282   2.057   1.578 -0.0959 -0.7362 -0.6057
 1178SOL     OW13572   2.312   5.282   1.433 -0.3419  0.5199  0.2666
 1178SOL    HW113573   2.300   5.316   1.340  1.0659  2.0741  0.6243
 1178SOL    HW213574   2.377   5.341   1.481  0.6394 -1.5725  1.5434
 1179SOL     OW13575   2.953   0.137   2.729  0.2991 -0.4248 -0.1788
 1179SOL    HW113576   2.890   0.200   2.683  1.0810 -0.3615 -1.1787
 1179SOL    HW213577   3.047   0.172   2.722  0.6260 -1.2430  0.0553
 1180SOL     OW13578   2.257   2.921   0.087 -0.6452  0.4080  0.2811
 1180SOL    HW113579   2.313   2.840   0.068 -1.2699 -0.3824  1.7138
 1180SOL    HW213580   2.313   3.003   0.081  0.4216 -0.2919  0.6247
 1181SOL     OW13581   3.350   4.337   2.097 -0.2247 -0.2099 -0.5056
 1181SOL    HW113582   3.356   4.338   1.998  0.5434 -0.5023 -0.4592
 1181SOL    HW213583   3.335   4.244   2.130  0.1730 -0.2059 -0.3080
 1182SOL     OW13584   9.045   2.693   1.735 -0.6702 -0.5282  0.2234
 1182SOL    HW113585   9.094   2.780   1.740  1.0192 -1.4460  0.1383
 1182SOL    HW213586   9.035   2.655   1.827  1.3213 -1.6918 -0.0100
 1183SOL     OW13587   2.500   7.499   2.607 -0.6444 -0.2105  0.3973
 1183SOL    HW113588   2.467   7.578   2.554 -0.0320  0.6541  1.2840
 1183SOL    HW213589   2.516   7.422   2.545 -0.0236  0.7545 -0.6744
 1184SOL     OW13590   8.647   1.211   1.717  0.5379  0.2531  0.5469
 1184SOL    HW113591   8.598   1.240   1.799  1.7143  0.6481  1.1166
 1184SOL    HW213592   8.626   1.273   1.641 -0.8663 -0.3456  0.4201
 1185SOL     OW13593   2.468   2.335   2.245  0.8184  0.2065 -0.2124
 1185SOL    HW113594   2.399   2.280   2.197  0.2070 -1.8376  2.8887
 1185SOL    HW213595   2.553   2.334   2.192 -0.3664 -0.4261 -2.1742
 1186SOL     OW13596   3.968   3.713   0.241  0.0691  0.5540  0.4066
 1186SOL    HW113597   3.922   3.796   0.211 -1.2128 -0.1057  0.5249
 1186SOL    HW213598   3.903   3.637   0.241  0.9733 -0.2303  1.2855
 1187SOL     OW13599   0.920   3.475   1.384  0.5293 -0.6943 -0.4384
 1187SOL    HW113600   0.906   3.386   1.342  2.0022 -0.7791 -0.7741
 1187SOL    HW213601   1.003   3.474   1.439 -0.2216  0.0584  0.7470
 1188SOL     OW13602   9.907   2.112   0.006 -0.0151 -0.1564 -0.0942
 1188SOL    HW113603   9.911   2.181   0.079 -0.1017 -1.3586  1.0522
 1188SOL    HW213604   9.998   2.099  -0.032  0.4237 -1.0648  1.2486
 1189SOL     OW13605   1.918   2.334   2.236 -0.1684 -0.1563  0.0609
 1189SOL    HW113606   1.991   2.325   2.304  0.0298 -0.7128 -0.2204
 1189SOL    HW213607   1.869   2.247   2.227  0.5717 -0.4528 -1.3608
 1190SOL     OW13608   2.284   9.847   0.159 -0.3938  0.1294  0.6363
 1190SOL    HW113609   2.359   9.791   0.123  0.0931  1.3718 -0.2971
 1190SOL    HW213610   2.312   9.892   0.244  0.2082  1.2406 -0.1430
 1191SOL     OW13611   3.166   2.355   1.877 -0.1685  0.0505  0.4393
 1191SOL    HW113612   3.070   2.354   1.904 -0.3148 -0.4321 -0.1000
 1191SOL    HW213613   3.206   2.444   1.900 -0.7001  0.1980  0.8038
 1192SOL     OW13614   1.018   9.673   2.766  0.5319  0.0898 -0.0936
 1192SOL    HW113615   1.068   9.756   2.793  2.2650 -0.4160 -1.5813
 1192SOL    HW213616   0.994   9.680   2.669 -0.6187 -0.5100  0.1504
 1193SOL     OW13617   3.139   2.174   1.259 -0.3147  0.1811 -0.5348
 1193SOL    HW113618   3.154   2.271   1.242 -1.5649  0.3213 -0.8324
 1193SOL    HW213619   3.194   2.145   1.338 -2.1465  1.7599  1.3629
 1194SOL     OW13620   3.532   8.523   1.158 -0.2241 -0.3704  0.2574
 1194SOL    HW113621   3.521   8.428   1.127  0.8705 -0.2522 -0.5066
 1194SOL    HW213622   3.514   8.585   1.082  2.1183 -0.0730 -0.0834
 1195SOL     OW13623   1.334   5.094   0.642  0.2970 -0.9937  0.2479
 1195SOL    HW113624   1.370   5.129   0.728  0.9284  1.7314 -1.0823
 1195SOL    HW213625   1.234   5.085   0.649  0.2945 -0.3607  1.1156
 1196SOL     OW13626   1.385   4.455   0.990  0.0229 -0.7436 -0.0527
 1196SOL    HW113627   1.425   4.537   0.949 -1.1162 -0.2790 -0.2400
 1196SOL    HW213628   1.413   4.449   1.086  0.3951 -0.3318 -0.1321
 1197SOL     OW13629   0.033   2.185   0.473  0.6400  0.0788  0.0842
 1197SOL    HW113630  -0.024   2.111   0.510 -0.4566  0.4651 -0.8283
 1197SOL    HW213631   0.073   2.237   0.549 -0.4825  0.0132  0.7303
 1198SOL     OW13632   2.543   9.691   2.512 -0.0135 -0.8254 -0.2420
 1198SOL    HW113633   2.453   9.730   2.492 -0.6801 -1.1871  1.9169
 1198SOL    HW213634   2.611   9.733   2.452 -1.0720  2.0318  0.4867
 1199SOL     OW13635   8.015   2.286   1.647 -0.1802  0.5165 -0.1663
 1199SOL    HW113636   7.925   2.241   1.645  1.0346 -2.1308  1.7442
 1199SOL    HW213637   8.049   2.296   1.554 -2.3240  1.3776 -0.9132
 1200SOL     OW13638   3.800   3.501   2.034  0.5425  0.4365  0.0174
 1200SOL    HW113639   3.887   3.470   1.994  0.9659  0.2079  1.0943
 1200SOL    HW213640   3.767   3.432   2.098 -0.8901  0.1281 -1.0426
 1201SOL     OW13641   1.959   9.097   1.439  0.3762  0.0520 -0.3764
 1201SOL    HW113642   1.906   9.042   1.376 -0.0232 -0.8231  0.7136
 1201SOL    HW213643   1.965   9.051   1.528  2.9870  0.0922 -0.4778
 1202SOL     OW13644   3.768   0.621   0.381 -0.2229 -0.4530 -0.1092
 1202SOL    HW113645   3.851   0.587   0.427 -0.3706 -0.6762 -0.0041
 1202SOL    HW213646   3.688   0.575   0.420 -0.4461  0.1604  0.1649
 1203SOL     OW13647   2.933   2.664   0.808 -0.3709 -0.5149  0.4499
 1203SOL    HW113648   2.885   2.746   0.841 -0.9443 -1.4399  1.9863
 1203SOL    HW213649   2.878   2.583   0.829  0.7505 -1.3938  0.0257
 1204SOL     OW13650   0.728   4.112   0.497 -0.3296  0.2858 -0.1667
 1204SOL    HW113651   0.709   4.087   0.592 -2.8997 -0.5224 -0.8496
 1204SOL    HW213652   0.772   4.201   0.495  0.6626 -0.1189  1.8321
 1205SOL     OW13653   1.769   7.855   0.691  0.2068 -0.2933  0.5101
 1205SOL    HW113654   1.767   7.767   0.644 -0.6126  0.5244 -1.0240
 1205SOL    HW213655   1.844   7.910   0.656 -0.5092  0.3865  0.0322
 1206SOL     OW13656   0.572   6.545   2.279  0.1290  0.0991  0.5095
 1206SOL    HW113657   0.533   6.514   2.193 -1.9761 -0.0768  1.4892
 1206SOL    HW213658   0.631   6.473   2.317  0.5667 -0.0622 -0.4824
 1207SOL     OW13659   9.612   5.201   0.429  0.0255  0.3715  0.0678
 1207SOL    HW113660   9.591   5.104   0.443 -2.5909  0.8387 -0.2184
 1207SOL    HW213661   9.552   5.237   0.358  0.9772  2.2125  0.1797
 1208SOL     OW13662   0.967   4.333   1.928 -0.5540 -0.6907  0.0536
 1208SOL    HW113663   0.952   4.274   1.849  0.4390 -0.2090 -0.5064
 1208SOL    HW213664   1.008   4.419   1.898 -0.4266 -0.3897  1.0612
 1209SOL     OW13665   2.319   9.030   1.078  0.4456 -0.2566 -0.1197
 1209SOL    HW113666   2.259   8.953   1.056 -0.8246  0.6780  0.0313
 1209SOL    HW213667   2.269   9.097   1.132  1.8667  0.1718  0.6759
 1210SOL     OW13668   1.123   1.634   0.626 -0.1076  0.3606  0.0866
 1210SOL    HW113669   1.054   1.563   0.613 -2.6823  2.4670  1.8230
 1210SOL    HW213670   1.206   1.607   0.578 -1.9578 -2.4417 -1.7617
 1211SOL     OW13671   2.314   5.807   0.947 -0.4674  0.0424 -0.4669
 1211SOL    HW113672   2.305   5.775   0.852 -1.7522  0.9549 -0.6626
 1211SOL    HW213673   2.410   5.803   0.974 -0.1078 -0.4043 -1.7478
 1212SOL     OW13674   8.592   1.337   2.548  0.4180 -0.3205 -0.3473
 1212SOL    HW113675   8.675   1.348   2.602 -0.2335 -0.8566  0.7840
 1212SOL    HW213676   8.594   1.400   2.470  1.7527 -0.1432 -0.1797
 1213SOL     OW13677   8.307   2.647   2.581  0.4751 -0.0479 -0.2830
 1213SOL    HW113678   8.331   2.743   2.566 -0.8298  0.2459 -0.5864
 1213SOL    HW213679   8.208   2.636   2.571  0.6043 -1.4054 -0.1205
 1214SOL     OW13680   1.335   1.753   1.894  0.5443  0.7570  0.0570
 1214SOL    HW113681   1.271   1.698   1.840  0.6129  1.8530 -1.1825
 1214SOL    HW213682   1.283   1.811   1.957  0.3296  1.1536 -0.4741
 1215SOL     OW13683   2.285   1.395   2.630  0.2113  0.1395 -0.2836
 1215SOL    HW113684   2.231   1.468   2.671  0.5076  0.5063 -0.5441
 1215SOL    HW213685   2.342   1.352   2.701  1.2137  1.2107 -0.4202
 1216SOL     OW13686   0.724   6.588   1.616  0.6653  0.2275  0.0796
 1216SOL    HW113687   0.724   6.547   1.708  0.9332 -0.0243 -0.0320
 1216SOL    HW213688   0.810   6.636   1.602  0.6912  0.1258 -0.1034
 1217SOL     OW13689   1.188   9.432   0.478  0.4116 -0.1590  0.6064
 1217SOL    HW113690   1.246   9.454   0.556  0.7291  0.1176  0.2938
 1217SOL    HW213691   1.227   9.473   0.395  0.3222 -0.8209  0.2322
 1218SOL     OW13692   0.266   0.838   1.092 -0.1120 -0.6420  0.4777
 1218SOL    HW113693   0.320   0.799   1.167 -0.0495 -2.0998 -0.3075
 1218SOL    HW213694   0.226   0.764   1.038 -2.2907  0.4097  0.5897
 1219SOL     OW13695   0.513   9.621   2.800  0.1493 -0.0104  0.7356
 1219SOL    HW113696   0.457   9.697   2.765  1.8655  1.2109  0.6078
 1219SOL    HW213697   0.546   9.566   2.723 -0.1657 -0.2415  0.7625
 1220SOL     OW13698   2.314   1.545   0.985  0.3314  0.8277  0.0190
 1220SOL    HW113699   2.351   1.513   0.898  0.4522  1.1394 -0.0435
 1220SOL    HW213700   2.215   1.556   0.977 -0.1956 -2.5660  0.9474
 1221SOL     OW13701   1.803   1.114   1.381 -0.3112 -0.6022  0.0827
 1221SOL    HW113702   1.751   1.199   1.398  1.1751  0.3835 -0.2144
 1221SOL    HW213703   1.854   1.089   1.463  1.1484  0.1356 -0.5872
 1222SOL     OW13704   0.821   2.978   1.840 -0.3807  0.2359 -0.1553
 1222SOL    HW113705   0.871   3.048   1.789 -1.0909 -0.3367 -1.6733
 1222SOL    HW213706   0.835   2.889   1.797 -0.7850 -0.3084  0.8159
 1223SOL     OW13707   3.645   3.984   0.429 -0.0700  0.0310  0.0636
 1223SOL    HW113708   3.650   3.894   0.472 -0.5186 -0.1294 -0.2110
 1223SOL    HW213709   3.698   3.984   0.345 -0.1368 -0.0045  0.0209
 1224SOL     OW13710   1.201   2.373   2.731  0.0804  0.0903 -0.1818
 1224SOL    HW113711   1.260   2.398   2.654  1.0342  0.7904  0.7739
 1224SOL    HW213712   1.108   2.355   2.696  0.8962 -1.3043 -1.7118
 1225SOL     OW13713   9.296   2.317   1.777 -0.1662 -0.4230 -0.1234
 1225SOL    HW113714   9.219   2.375   1.750  0.5740  0.1167 -1.1084
 1225SOL    HW213715   9.284   2.225   1.738 -0.8276 -0.6471  0.5942
 1226SOL     OW13716   4.060   9.934   1.270  0.8689  0.2194 -0.0766
 1226SOL    HW113717   3.970   9.971   1.294  0.0572  0.4349 -3.3276
 1226SOL    HW213718   4.119  10.007   1.238  1.2072 -0.3980 -0.8635
 1227SOL     OW13719   4.104   2.418   2.729  0.1212  0.2077 -0.9296
 1227SOL    HW113720   4.071   2.337   2.778 -0.0712  0.6044 -0.3906
 1227SOL    HW213721   4.190   2.396   2.683  0.9700  0.1475  0.6224
 1228SOL     OW13722   9.105   3.169   2.464  0.1226  0.0154  0.0440
 1228SOL    HW113723   9.182   3.126   2.512 -0.1736 -0.3823  0.1725
 1228SOL    HW213724   9.022   3.156   2.518 -0.1037  0.0907 -0.2905
 1229SOL     OW13725   9.436   3.450   0.594 -0.0457  0.4888 -0.5175
 1229SOL    HW113726   9.341   3.432   0.567 -0.4593  2.5283 -0.4620
 1229SOL    HW213727   9.445   3.436   0.692  0.1682 -1.5332 -0.8031
 1230SOL     OW13728   1.215   0.803   1.295 -0.3924 -0.0983 -0.0200
 1230SOL    HW113729   1.188   0.835   1.204  1.5716 -0.6254 -0.8112
 1230SOL    HW213730   1.270   0.874   1.340  0.0616 -0.5093  0.0779
 1231SOL     OW13731   0.153   4.602   0.422 -0.7345 -0.6049 -0.0148
 1231SOL    HW113732   0.214   4.648   0.358  0.3426 -0.0302  1.3969
 1231SOL    HW213733   0.058   4.627   0.401 -0.3752 -0.1294 -1.1286
 1232SOL     OW13734   3.343   4.294   1.827  0.2188 -0.4650  0.1333
 1232SOL    HW113735   3.393   4.275   1.743  2.0073 -0.4441  1.1602
 1232SOL    HW213736   3.246   4.273   1.814  0.2644  0.7235 -2.2968
 1233SOL     OW13737   1.517   0.780   1.378 -0.0925  0.5309 -0.3284
 1233SOL    HW113738   1.499   0.682   1.382 -1.5988  0.7179 -1.9270
 1233SOL    HW213739   1.512   0.811   1.283  2.8698  1.7227 -0.1708
 1234SOL     OW13740   1.227   3.638   1.918 -1.0415  0.1769  0.3389
 1234SOL    HW113741   1.213   3.638   2.017 -0.1922  1.0416  0.4660
 1234SOL    HW213742   1.157   3.581   1.875 -1.5241 -0.0688  1.4185
 1235SOL     OW13743   7.878   1.421   2.645 -0.4006  0.6102 -0.2901
 1235SOL    HW113744   7.976   1.412   2.627 -0.4733  1.2699 -1.0378
 1235SOL    HW213745   7.828   1.421   2.559 -1.0945 -0.0279  0.1025
 1236SOL     OW13746   0.955   6.315   2.575 -0.1529 -0.5444 -0.2372
 1236SOL    HW113747   0.938   6.226   2.616 -1.8156 -0.9094 -1.6958
 1236SOL    HW213748   0.978   6.381   2.647  0.3471 -1.9594  0.9143
 1237SOL     OW13749   2.727   9.749   2.319 -0.0613  0.4603  0.5572
 1237SOL    HW113750   2.806   9.689   2.329 -1.7576 -1.9943 -0.1047
 1237SOL    HW213751   2.738   9.805   2.237  0.6665 -0.3791  0.0705
 1238SOL     OW13752   3.355   2.175   0.607  0.9071 -0.3799 -0.6060
 1238SOL    HW113753   3.380   2.085   0.643  2.1553  0.1425 -0.1060
 1238SOL    HW213754   3.439   2.226   0.588  0.2061  1.0029 -0.0399
 1239SOL     OW13755   9.667   5.155   2.201 -0.0166  0.7945 -0.2455
 1239SOL    HW113756   9.593   5.111   2.252  0.2978  0.1205 -0.3728
 1239SOL    HW213757   9.749   5.157   2.257  0.1330  0.6988 -0.4628
 1240SOL     OW13758   3.938   0.147   0.148 -0.3149  0.3855  0.0228
 1240SOL    HW113759   3.841   0.162   0.129 -0.6332 -2.0304 -0.2897
 1240SOL    HW213760   3.949   0.073   0.214  1.2761  1.7217  1.3360
 1241SOL     OW13761   1.850   7.992   0.388 -0.0091 -0.1437  0.1506
 1241SOL    HW113762   1.779   7.931   0.352 -0.3889 -0.1528  0.8935
 1241SOL    HW213763   1.851   8.077   0.335 -2.2922  0.8862  1.6767
 1242SOL     OW13764   4.018   8.803   0.209 -0.2547 -0.6841 -0.1423
 1242SOL    HW113765   4.082   8.878   0.228 -1.0853  0.1963 -0.7662
 1242SOL    HW213766   4.065   8.715   0.219  1.4160 -0.0237 -1.9417
 1243SOL     OW13767   9.458   4.324   0.700  0.2346 -0.6278 -0.2979
 1243SOL    HW113768   9.492   4.233   0.677 -1.2538 -1.2817  0.1090
 1243SOL    HW213769   9.399   4.357   0.626  0.7218  0.0036 -0.4188
 1244SOL     OW13770   1.491   0.552   2.265 -0.3267 -0.0105  0.3163
 1244SOL    HW113771   1.528   0.478   2.322 -0.1202 -0.2998 -0.1838
 1244SOL    HW213772   1.494   0.638   2.315  0.1876 -0.2000  0.6137
 1245SOL     OW13773   1.809   4.526   2.287  0.4228 -0.2171  0.2430
 1245SOL    HW113774   1.738   4.477   2.236  0.7042 -0.4969  0.1163
 1245SOL    HW213775   1.773   4.613   2.320 -0.3570 -0.8899  1.2013
 1246SOL     OW13776   0.864   5.566   1.529 -0.8465  0.6012 -0.3034
 1246SOL    HW113777   0.896   5.495   1.467  0.3253 -0.1179  1.1023
 1246SOL    HW213778   0.826   5.525   1.611  1.7561  1.5855  1.4550
 1247SOL     OW13779   3.122   2.116   0.267 -0.5618 -0.2345 -0.1969
 1247SOL    HW113780   3.064   2.058   0.210 -0.7324 -1.6039  1.3210
 1247SOL    HW213781   3.217   2.090   0.255 -0.7848 -2.1280  1.8676
 1248SOL     OW13782   9.964   1.740   0.410  0.0740 -0.0659  0.0528
 1248SOL    HW113783   9.917   1.808   0.354 -0.4116  0.3437  0.9635
 1248SOL    HW213784  10.049   1.779   0.446  0.1513 -0.1740 -0.0116
 1249SOL     OW13785   2.547   7.121   2.180 -0.1628 -0.3948  0.1182
 1249SOL    HW113786   2.623   7.067   2.217  0.5416  0.0690 -0.6416
 1249SOL    HW213787   2.474   7.059   2.150 -0.4784 -0.8079  1.6562
 1250SOL     OW13788   2.781   8.552   2.347  0.1670  0.0811 -0.2305
 1250SOL    HW113789   2.861   8.601   2.313  0.2206 -0.3857 -0.7797
 1250SOL    HW213790   2.809   8.489   2.419 -0.0467  1.5714  1.1969
 1251SOL     OW13791   2.331   3.701   2.120 -0.0088  0.4104  0.1981
 1251SOL    HW113792   2.250   3.713   2.177  0.2286  0.6446  0.4880
 1251SOL    HW213793   2.400   3.648   2.169  0.0763  0.3452  0.0126
 1252SOL     OW13794   1.999   0.272   1.214 -0.1246  0.1279 -0.3320
 1252SOL    HW113795   2.086   0.293   1.258  0.3200  0.6575 -1.4459
 1252SOL    HW213796   1.999   0.176   1.184 -0.4580 -0.2579  0.8493
 1253SOL     OW13797   0.108   1.884   0.789  0.4031  0.1227  0.0821
 1253SOL    HW113798   0.112   1.786   0.808  1.4686  0.1570  0.0550
 1253SOL    HW213799   0.197   1.915   0.755 -0.6630  0.5804 -2.4238
 1254SOL     OW13800   1.305   9.719   0.077  0.2983 -0.6545  0.3133
 1254SOL    HW113801   1.265   9.811   0.069  1.1324 -0.3975 -1.0162
 1254SOL    HW213802   1.273   9.662   0.002  2.2961 -0.4643 -0.7500
 1255SOL     OW13803   0.801   8.993   0.422  0.2519  0.1108  0.4936
 1255SOL    HW113804   0.880   8.996   0.484 -0.1232  0.8609  0.9391
 1255SOL    HW213805   0.819   9.052   0.342 -0.4060  1.3776  1.2612
 1256SOL     OW13806   1.042   5.799   1.232  0.2914 -0.8624 -0.6982
 1256SOL    HW113807   1.031   5.785   1.134 -0.8253  0.8681 -0.8567
 1256SOL    HW213808   1.108   5.872   1.249  0.3332 -1.0147 -0.1631
 1257SOL     OW13809   4.051   2.344   0.308  0.0395 -0.0466  0.1052
 1257SOL    HW113810   4.044   2.393   0.221 -1.6975  0.0318  0.2600
 1257SOL    HW213811   4.113   2.392   0.369  0.4808  0.4500 -0.7278
 1258SOL     OW13812   2.230   9.373   2.129  0.3260  0.1629  0.0809
 1258SOL    HW113813   2.208   9.376   2.226  1.0338 -0.5768  0.2717
 1258SOL    HW213814   2.175   9.440   2.080  0.6164  1.1798  1.1199
 1259SOL     OW13815   9.414   1.165   2.154  0.4525  0.8320  0.2270
 1259SOL    HW113816   9.361   1.194   2.075  1.6990  2.3572 -0.0887
 1259SOL    HW213817   9.511   1.177   2.135  0.9380 -1.8682  0.8080
 1260SOL     OW13818   8.275   2.615   2.191 -0.1919  0.6607  0.1684
 1260SOL    HW113819   8.321   2.686   2.245  1.8994 -0.5491  0.0174
 1260SOL    HW213820   8.236   2.547   2.253  2.9296 -1.1758  0.2264
 1261SOL     OW13821   2.014   2.457   0.217  0.4504 -0.7330 -0.1603
 1261SOL    HW113822   1.941   2.392   0.196  1.4525 -2.2250  0.8972
 1261SOL    HW213823   1.975   2.538   0.261 -0.7572 -0.7438 -1.1661
 1262SOL     OW13824   0.317   1.335   1.149  0.5513 -0.3024  0.0082
 1262SOL    HW113825   0.355   1.353   1.240 -1.9630  0.6952  0.9004
 1262SOL    HW213826   0.372   1.382   1.080 -0.0318  2.5679  1.4293
 1263SOL     OW13827   3.047   9.381   1.900  0.2249 -0.0680 -0.0244
 1263SOL    HW113828   2.992   9.380   1.816  0.3828 -0.9441 -0.1261
 1263SOL    HW213829   3.006   9.444   1.966  0.6971  1.4392 -1.1577
 1264SOL     OW13830   1.199   1.607   2.813  0.3028  0.3520  0.2143
 1264SOL    HW113831   1.196   1.600   2.913 -1.5020 -1.0555  0.0887
 1264SOL    HW213832   1.278   1.557   2.778  0.8581  0.7239  0.9098
 1265SOL     OW13833   0.261   2.107   2.369 -0.3904 -0.3229  0.4185
 1265SOL    HW113834   0.246   2.008   2.373  2.2753 -0.7796  0.2511
 1265SOL    HW213835   0.208   2.146   2.293 -1.9049 -1.5092  0.8368
 1266SOL     OW13836   1.868   4.794   1.959 -0.3168  0.4600 -0.3360
 1266SOL    HW113837   1.903   4.882   1.926  0.9972  0.0151 -0.1719
 1266SOL    HW213838   1.916   4.768   2.043 -0.6596 -0.4313 -0.4051
 1267SOL     OW13839   3.310   8.649   0.308  0.6690  0.1122 -0.0733
 1267SOL    HW113840   3.368   8.721   0.271 -0.4823  1.2893  0.3755
 1267SOL    HW213841   3.334   8.633   0.404  0.3347  0.5283  0.0832
 1268SOL     OW13842   2.602   4.118   0.768 -0.2558 -0.2908  0.0515
 1268SOL    HW113843   2.547   4.034   0.765 -1.8851  0.7675 -0.6173
 1268SOL    HW213844   2.541   4.197   0.777  1.0862  1.0098 -1.8462
 1269SOL     OW13845   1.430   9.482   1.919 -0.2542 -0.4665 -0.4837
 1269SOL    HW113846   1.460   9.433   1.837  0.3965  0.8741 -1.0600
 1269SOL    HW213847   1.495   9.466   1.993  0.5385  0.3750 -0.9860
 1270SOL     OW13848   2.130   9.280   0.635  0.5429 -0.5047  0.4036
 1270SOL    HW113849   2.071   9.316   0.707  0.2913 -0.7818  0.3373
 1270SOL    HW213850   2.111   9.183   0.622  0.0718 -0.2920 -0.5322
 1271SOL     OW13851   2.513   5.018   0.304 -0.3214 -0.6059 -0.3457
 1271SOL    HW113852   2.467   5.079   0.368 -1.8648 -1.5218 -0.5579
 1271SOL    HW213853   2.606   5.051   0.287 -0.5411  0.6857  0.8965
 1272SOL     OW13854   8.683   2.413   0.779 -0.3651 -0.3614  0.7398
 1272SOL    HW113855   8.676   2.317   0.803  0.7627 -0.4443  0.7663
 1272SOL    HW213856   8.779   2.440   0.777 -0.6364  0.5904  0.0597
 1273SOL     OW13857   0.054   5.097   2.025  0.0914 -0.1153  0.2123
 1273SOL    HW113858  -0.037   5.136   2.032 -0.8047 -2.0189 -0.3290
 1273SOL    HW213859   0.065   5.025   2.094  1.3046  0.3030  0.4774
 1274SOL     OW13860   1.385   0.905   2.264  0.1716 -0.6946  0.0338
 1274SOL    HW113861   1.340   0.856   2.339 -1.6126 -0.1161 -0.6414
 1274SOL    HW213862   1.485   0.900   2.276 -0.0611 -1.8999  1.6041
 1275SOL     OW13863   2.916   7.058   1.378  0.1672 -0.0835 -0.4775
 1275SOL    HW113864   2.908   6.993   1.303  0.7343 -1.1526  0.3706
 1275SOL    HW213865   2.950   7.145   1.344  0.2112 -0.4952 -1.4878
 1276SOL     OW13866   9.726   3.732   0.408  0.2147  0.4053  0.1403
 1276SOL    HW113867   9.674   3.715   0.324  1.9961 -1.3999 -0.6735
 1276SOL    HW213868   9.667   3.772   0.477 -1.6310  0.6594 -1.5331
 1277SOL     OW13869   1.008   1.821   2.532 -0.3303 -0.0211 -0.4603
 1277SOL    HW113870   1.081   1.770   2.487 -1.7468  0.3543 -3.2193
 1277SOL    HW213871   1.027   1.919   2.525 -0.0260  0.0198  0.7270
 1278SOL     OW13872   1.810   7.104   2.705  0.4619  0.4252  0.1714
 1278SOL    HW113873   1.784   7.109   2.801  1.9549 -0.4740  0.6474
 1278SOL    HW213874   1.775   7.019   2.665 -0.7232  1.1099 -0.2722
 1279SOL     OW13875   0.705   5.870   2.745 -0.2963  0.5107  0.6784
 1279SOL    HW113876   0.671   5.800   2.682  0.9177 -0.0752  0.6643
 1279SOL    HW213877   0.686   5.961   2.707  2.3559  0.1676 -1.6299
 1280SOL     OW13878   9.345   4.091   2.615 -0.1287 -0.0139 -0.3450
 1280SOL    HW113879   9.266   4.123   2.668  0.3917 -0.3118  0.6173
 1280SOL    HW213880   9.375   4.002   2.650  0.7983  0.2198 -0.5427
 1281SOL     OW13881   8.789   0.709   2.480  0.5803  0.3970  0.1115
 1281SOL    HW113882   8.733   0.786   2.447 -0.2045  0.4625  1.4966
 1281SOL    HW213883   8.838   0.738   2.563  0.2371 -0.6047  0.6716
 1282SOL     OW13884   8.369   3.077   1.755  0.2851  0.2873 -0.0421
 1282SOL    HW113885   8.405   3.066   1.662 -0.6861  1.4220 -0.5747
 1282SOL    HW213886   8.333   3.169   1.765  0.4258  0.1771  1.4902
 1283SOL     OW13887   3.102   0.139   1.866 -1.0117  0.4427  0.0439
 1283SOL    HW113888   3.061   0.224   1.898 -1.3356 -0.1048  1.1088
 1283SOL    HW213889   3.181   0.159   1.808 -2.8364  1.5165 -2.1405
 1284SOL     OW13890   9.758   0.415   2.466 -0.5312 -0.4655 -0.0417
 1284SOL    HW113891   9.808   0.421   2.380 -0.3968  0.9702  0.1211
 1284SOL    HW213892   9.679   0.475   2.463 -1.3204 -1.4720  0.3222
 1285SOL     OW13893   3.607   4.032   2.550  0.3802 -0.1488  0.3138
 1285SOL    HW113894   3.514   4.068   2.541  1.0448  1.1852 -1.3588
 1285SOL    HW213895   3.666   4.073   2.481  1.4342 -3.5667 -0.9395
 1286SOL     OW13896   3.216   9.788   2.044  0.3159 -0.0115  0.1041
 1286SOL    HW113897   3.186   9.882   2.060 -0.4192 -0.0899 -0.8136
 1286SOL    HW213898   3.264   9.754   2.126 -0.1932  0.8491  0.7645
 1287SOL     OW13899   2.921   8.223   2.755 -0.5115  0.4887  0.5428
 1287SOL    HW113900   2.853   8.216   2.828 -0.8870  2.0805  0.3635
 1287SOL    HW213901   2.932   8.134   2.711 -1.4254 -0.1172  1.5177
 1288SOL     OW13902   9.446   3.225   0.278 -0.5056  0.1496 -0.2443
 1288SOL    HW113903   9.368   3.199   0.335  1.2673 -0.5516  1.9494
 1288SOL    HW213904   9.452   3.162   0.200 -0.2615 -1.8330  1.3189
 1289SOL     OW13905   1.117   8.588   0.448 -0.2381 -0.1424 -0.7426
 1289SOL    HW113906   1.038   8.568   0.506 -0.4492  1.0429 -0.6108
 1289SOL    HW213907   1.114   8.683   0.418  2.2740  0.5492  1.0385
 1290SOL     OW13908   8.346   2.341   0.736 -0.0268 -0.4971 -0.1846
 1290SOL    HW113909   8.405   2.320   0.814 -0.4818 -0.9879  0.0289
 1290SOL    HW213910   8.397   2.396   0.669  1.3318 -2.7099 -1.0034
 1291SOL     OW13911   0.865   2.608   0.906 -0.2266 -0.1500 -0.3897
 1291SOL    HW113912   0.896   2.610   0.811 -1.8562 -1.5522 -0.9859
 1291SOL    HW213913   0.876   2.699   0.947  1.5378  0.1854 -1.5500
 1292SOL     OW13914   1.980   0.696   1.040  0.8647  0.0766  0.4953
 1292SOL    HW113915   1.996   0.633   1.115 -0.8294 -1.0721 -0.0979
 1292SOL    HW213916   1.923   0.772   1.071  0.7788 -0.0159  0.5632
 1293SOL     OW13917   4.042   8.664   1.213  0.1825  0.1149 -0.2193
 1293SOL    HW113918   4.102   8.659   1.293  0.3521 -1.1265 -0.4102
 1293SOL    HW213919   3.954   8.622   1.235  1.3323 -3.2435 -1.6333
 1294SOL     OW13920   2.748   3.055   1.120  0.4175  0.2133 -0.6195
 1294SOL    HW113921   2.761   3.105   1.206 -0.7467  0.8632 -0.8136
 1294SOL    HW213922   2.754   3.119   1.043  3.2048 -0.6424 -1.1485
 1295SOL     OW13923   1.362   7.098   0.971 -0.2567  0.5753 -0.9270
 1295SOL    HW113924   1.444   7.149   0.997 -0.0139  0.1767 -0.9003
 1295SOL    HW213925   1.380   7.000   0.981 -0.5324  0.4658 -1.5022
 1296SOL     OW13926   8.688   2.851   0.450  0.0780  0.2941 -0.2560
 1296SOL    HW113927   8.602   2.857   0.501  0.0076  1.1990 -0.4832
 1296SOL    HW213928   8.691   2.922   0.380  1.0929  0.3841 -0.1323
 1297SOL     OW13929   3.049   3.501   0.292  0.3489  0.4541  0.3052
 1297SOL    HW113930   2.956   3.464   0.287  0.6624 -0.5857  1.8656
 1297SOL    HW213931   3.048   3.586   0.344  0.3269  0.2401  0.6564
 1298SOL     OW13932   1.220   2.044   1.833  0.1808  0.8911 -0.2205
 1298SOL    HW113933   1.278   2.012   1.758 -0.0109  0.3589 -0.1472
 1298SOL    HW213934   1.272   2.048   1.918 -0.3949 -1.5750  0.2785
 1299SOL     OW13935   1.821   2.674   1.578 -0.0810  0.5379 -0.1472
 1299SOL    HW113936   1.806   2.665   1.479  2.7219 -1.6189 -0.4222
 1299SOL    HW213937   1.887   2.748   1.595 -1.8764  2.0983  0.2888
 1300SOL     OW13938   9.119   3.597   2.651 -0.1937  0.2317  0.3410
 1300SOL    HW113939   9.031   3.572   2.612 -0.2490  3.0135 -1.4669
 1300SOL    HW213940   9.151   3.523   2.711 -4.2079 -0.3647  1.9008
 1301SOL     OW13941   9.750   5.393   0.268 -0.1451 -0.2725 -0.0484
 1301SOL    HW113942   9.707   5.458   0.331 -1.2707 -1.2126  0.1806
 1301SOL    HW213943   9.760   5.304   0.314  0.6880 -0.4655 -0.5971
 1302SOL     OW13944   2.140   6.092   0.498 -0.4027 -0.2169  0.0626
 1302SOL    HW113945   2.083   6.042   0.562  0.5455  0.7007  1.6476
 1302SOL    HW213946   2.237   6.077   0.520 -0.1055  1.8473  0.2164
 1303SOL     OW13947   3.516   3.732   1.395  0.1308  0.0730  0.1917
 1303SOL    HW113948   3.563   3.680   1.466 -0.4637  1.0354  1.3130
 1303SOL    HW213949   3.582   3.768   1.330  0.6726 -0.8997  0.1933
 1304SOL     OW13950   2.556   4.323   1.480 -0.7091  0.0292 -0.1574
 1304SOL    HW113951   2.459   4.348   1.471 -0.8263 -0.4498 -0.2513
 1304SOL    HW213952   2.568   4.227   1.455 -0.4922 -0.3976  1.5088
 1305SOL     OW13953   3.255   7.580   0.445 -0.2352 -1.2752  0.2220
 1305SOL    HW113954   3.324   7.613   0.381  0.5119  0.6635  1.9772
 1305SOL    HW213955   3.213   7.497   0.409 -0.0383 -0.0906 -2.9089
 1306SOL     OW13956   4.108   0.567   2.090  0.2819 -0.0903  0.5917
 1306SOL    HW113957   4.051   0.644   2.118 -0.7925 -0.7366  0.1918
 1306SOL    HW213958   4.066   0.481   2.119  1.2222 -0.5636  0.5992
 1307SOL     OW13959   1.327   6.043   1.944  0.0518 -0.4164 -0.1693
 1307SOL    HW113960   1.270   6.116   1.908 -0.8445 -0.5377  0.9770
 1307SOL    HW213961   1.411   6.082   1.983  0.5143 -0.1938 -1.3656
 1308SOL     OW13962   0.710   2.029   2.291 -0.1037  0.0037  0.4115
 1308SOL    HW113963   0.642   2.102   2.293  1.0506  1.0982  2.4101
 1308SOL    HW213964   0.790   2.059   2.239 -0.0893 -0.2627  0.2803
 1309SOL     OW13965   2.613   0.704   2.770 -0.0483 -0.1375  0.9329
 1309SOL    HW113966   2.634   0.615   2.812 -0.3158 -2.5737 -3.8141
 1309SOL    HW213967   2.524   0.698   2.724  0.8450  2.0066 -1.0876
 1310SOL     OW13968   0.730   0.643   0.743 -0.1425  0.3818 -0.3469
 1310SOL    HW113969   0.782   0.668   0.825 -1.0954  0.8100  0.1329
 1310SOL    HW213970   0.700   0.726   0.696 -1.7907  0.1672  0.2799
 1311SOL     OW13971   1.885   1.620   0.572  0.6632 -0.4035 -0.2906
 1311SOL    HW113972   1.859   1.543   0.631 -0.2113  0.2573  0.1899
 1311SOL    HW213973   1.968   1.662   0.609  0.0231  0.1157  0.5783
 1312SOL     OW13974   0.916   8.550   0.669  0.1780  0.6445 -0.1255
 1312SOL    HW113975   0.855   8.484   0.713  1.8665 -1.2560 -0.5503
 1312SOL    HW213976   0.956   8.610   0.738 -1.5660  1.4253  0.2354
 1313SOL     OW13977   2.244   7.111   1.852  0.3471 -0.5343  0.1109
 1313SOL    HW113978   2.279   7.141   1.941  0.3311 -2.4747  0.8050
 1313SOL    HW213979   2.309   7.136   1.780  1.7673 -1.4760  1.0280
 1314SOL     OW13980   3.701   3.775   0.570 -0.0720  0.0937  0.3460
 1314SOL    HW113981   3.697   3.805   0.666  2.6114  0.1093  0.4825
 1314SOL    HW213982   3.690   3.676   0.566 -2.0396  0.2728  0.4731
 1315SOL     OW13983   2.240   8.444   0.954 -0.5963 -0.0268 -0.1488
 1315SOL    HW113984   2.222   8.383   0.877 -0.8097  0.7844 -0.7480
 1315SOL    HW213985   2.324   8.496   0.936 -0.6817  0.2078  0.1369
 1316SOL     OW13986   4.091   9.725   0.897 -0.0720 -0.4640  0.2411
 1316SOL    HW113987   4.001   9.695   0.867 -0.6680  1.0259  0.5092
 1316SOL    HW213988   4.100   9.712   0.996  0.6641 -2.2331 -0.0310
 1317SOL     OW13989   3.392   3.074   1.622 -0.0799 -0.1411 -0.5810
 1317SOL    HW113990   3.315   3.133   1.647 -0.6507 -1.6381  1.2919
 1317SOL    HW213991   3.465   3.083   1.689  1.5622  1.5152 -2.5279
 1318SOL     OW13992   2.441   9.186   1.823  0.5528  0.5369  0.8317
 1318SOL    HW113993   2.537   9.164   1.803 -0.4134 -1.9582 -1.4921
 1318SOL    HW213994   2.419   9.159   1.917  2.0130  0.7890  1.2592
 1319SOL     OW13995   4.620   3.317   0.378  0.2584 -0.2292  0.0811
 1319SOL    HW113996   4.637   3.274   0.290  3.3139 -0.7403  0.8634
 1319SOL    HW213997   4.672   3.402   0.385  0.3765 -0.4036  1.5430
 1320SOL     OW13998   0.934   7.132   2.667 -0.0519  0.8668  0.2859
 1320SOL    HW113999   0.953   7.083   2.753 -0.0734  0.4968  0.0791
 1320SOL    HW214000   1.016   7.131   2.610 -0.0803  0.9952  0.2432
 1321SOL     OW14001   3.104   3.691   2.558  0.4999 -0.4304 -0.6584
 1321SOL    HW114002   3.102   3.696   2.658 -1.6971 -0.0546 -0.7088
 1321SOL    HW214003   3.188   3.644   2.530  0.6307 -1.5088  1.3959
 1322SOL     OW14004   3.138   1.008   2.489 -0.8619  0.1526 -0.3029
 1322SOL    HW114005   3.056   0.968   2.531 -1.1104  0.7822 -0.1905
 1322SOL    HW214006   3.160   1.095   2.533  1.0935 -0.9918  1.0639
 1323SOL     OW14007   1.957   6.961   1.228  0.3530  0.0981  0.5727
 1323SOL    HW114008   1.898   6.883   1.248  0.3062 -0.0469 -0.1219
 1323SOL    HW214009   2.034   6.962   1.292  0.7253 -0.9058  0.1397
 1324SOL     OW14010   1.693   0.208   1.411  0.2235  0.3705 -0.0645
 1324SOL    HW114011   1.747   0.288   1.383  1.0662  0.1855  0.9762
 1324SOL    HW214012   1.596   0.228   1.401  0.4456  1.3465 -0.3179
 1325SOL     OW14013   2.139   6.023   1.820 -0.1313  0.1686 -0.3684
 1325SOL    HW114014   2.223   5.972   1.837  0.5174  1.4546  0.2953
 1325SOL    HW214015   2.113   6.073   1.903  0.0946  2.1710 -1.4869
 1326SOL     OW14016   9.091   1.561   1.102  0.1626  0.3162 -0.1306
 1326SOL    HW114017   9.169   1.509   1.067 -0.9527 -0.6486 -1.2540
 1326SOL    HW214018   9.093   1.654   1.064  2.2548  1.1900  2.0161
 1327SOL     OW14019   8.864   1.425   1.232  0.7258  0.0533  0.2960
 1327SOL    HW114020   8.923   1.476   1.170  0.3664  0.6043  0.4121
 1327SOL    HW214021   8.919   1.386   1.306  0.8095  1.3631  0.9276
 1328SOL     OW14022   2.117   7.947   1.649  0.6350  0.3528  0.6075
 1328SOL    HW114023   2.133   7.926   1.745  0.1609  2.2774  1.1174
 1328SOL    HW214024   2.052   8.023   1.641 -0.1416 -0.4459 -1.2462
 1329SOL     OW14025   2.617   4.014   1.462 -0.0721  0.3130  0.0895
 1329SOL    HW114026   2.646   4.021   1.558  1.4274  1.6789 -0.4234
 1329SOL    HW214027   2.611   3.918   1.436 -2.1744 -0.1298  2.0189
 1330SOL     OW14028   8.063   2.305   1.920 -0.6685  0.3506 -0.9924
 1330SOL    HW114029   8.096   2.397   1.941 -1.2634  0.7066 -1.5749
 1330SOL    HW214030   8.038   2.300   1.823 -3.1243  0.3580 -0.4001
 1331SOL     OW14031   0.473   5.200   1.312 -0.0961  0.7557 -0.1624
 1331SOL    HW114032   0.516   5.111   1.327  2.0248  1.5770 -1.2001
 1331SOL    HW214033   0.381   5.186   1.275  0.1887 -1.0053 -0.2640
 1332SOL     OW14034   1.979   9.028   0.638  0.4126  0.3205  0.3429
 1332SOL    HW114035   1.902   9.034   0.701 -0.8172  1.5346 -1.2242
 1332SOL    HW214036   1.972   8.942   0.585  0.7701 -0.1120  0.9932
 1333SOL     OW14037   9.016   4.217   1.499 -0.3318 -0.6514 -0.2728
 1333SOL    HW114038   9.115   4.202   1.506 -0.3757 -1.0772 -0.5981
 1333SOL    HW214039   9.000   4.305   1.453 -0.1065 -0.7246 -0.4972
 1334SOL     OW14040   1.867   6.430   1.456 -0.1160 -0.2228 -0.4259
 1334SOL    HW114041   1.829   6.476   1.376  0.3985 -0.1181 -0.6101
 1334SOL    HW214042   1.948   6.378   1.430  0.5011  0.4203  0.1643
 1335SOL     OW14043   4.133   3.769   1.011 -0.0629  0.2614  0.0676
 1335SOL    HW114044   4.104   3.678   1.040  0.5623 -0.1162 -0.5067
 1335SOL    HW214045   4.053   3.820   0.979 -0.6354  0.3872  1.6318
 1336SOL     OW14046   3.035   1.650   2.403 -0.1284 -0.5075  0.6572
 1336SOL    HW114047   3.099   1.701   2.345  0.0974 -1.1897  0.3118
 1336SOL    HW214048   2.945   1.649   2.360 -1.1867  3.0238  2.5233
 1337SOL     OW14049   9.775   0.326   1.991  0.3839 -0.5736  0.3256
 1337SOL    HW114050   9.783   0.348   1.894 -1.3164 -1.5542 -0.0451
 1337SOL    HW214051   9.710   0.251   2.003  0.2952 -0.1978  2.2565
 1338SOL     OW14052   1.096   8.160   0.401 -0.1172  0.5357 -0.3577
 1338SOL    HW114053   1.175   8.217   0.426 -0.3559  0.3838  0.8103
 1338SOL    HW214054   1.079   8.167   0.303  1.3497  0.5842 -0.6325
 1339SOL     OW14055   9.214   0.981   1.197 -0.1179  0.5830  0.4509
 1339SOL    HW114056   9.303   0.954   1.160  0.0540  0.4127  0.9794
 1339SOL    HW214057   9.224   1.067   1.248 -0.5840  1.4405 -0.8874
 1340SOL     OW14058   1.167   8.444   0.894  0.2269  0.1204  0.0573
 1340SOL    HW114059   1.072   8.472   0.883  0.1389 -0.1436  0.1220
 1340SOL    HW214060   1.216   8.512   0.948  0.4092  0.9044 -1.0904
 1341SOL     OW14061   8.110   2.065   2.054  0.3196 -0.1362 -0.0494
 1341SOL    HW114062   8.027   2.065   2.109  0.5908  0.1818  0.3692
 1341SOL    HW214063   8.108   2.142   1.991  0.9738  0.7727  1.0154
 1342SOL     OW14064   2.997   0.261   1.003 -0.1228  0.4161 -0.4291
 1342SOL    HW114065   3.066   0.227   0.938  0.1674 -3.3703  1.7097
 1342SOL    HW214066   2.906   0.234   0.972 -0.2648  1.4373 -0.9101
 1343SOL     OW14067   3.522   8.583   2.792  0.1744  0.0568  0.6147
 1343SOL    HW114068   3.569   8.662   2.831 -0.7407  0.0099  1.8487
 1343SOL    HW214069   3.426   8.607   2.775  0.1839 -0.4259 -0.1178
 1344SOL     OW14070   4.525   1.727   1.716 -0.1273 -0.4717  0.8049
 1344SOL    HW114071   4.607   1.727   1.774  0.6062  1.0830 -0.1961
 1344SOL    HW214072   4.453   1.781   1.760  0.5838  1.0920  0.0939
 1345SOL     OW14073   1.189   8.838   2.456  0.3732 -0.7387  0.1882
 1345SOL    HW114074   1.103   8.826   2.505 -0.2223  1.3222 -0.2842
 1345SOL    HW214075   1.250   8.896   2.510  0.3384  0.1887 -0.7498
 1346SOL     OW14076   0.815   1.107   0.265  0.6765 -0.8350  0.4176
 1346SOL    HW114077   0.862   1.195   0.256  2.1103 -1.8416 -2.3272
 1346SOL    HW214078   0.864   1.037   0.214 -2.4655 -2.4602 -0.5145
 1347SOL     OW14079   0.056   0.691   1.828  0.0087  0.1833  0.2603
 1347SOL    HW114080   0.028   0.735   1.914  2.3945  1.8353  0.2547
 1347SOL    HW214081   0.047   0.757   1.753  0.9936 -0.2360 -0.2283
 1348SOL     OW14082   0.193   3.116   2.417  0.4943 -0.0964  0.3046
 1348SOL    HW114083   0.116   3.160   2.463 -0.1036 -1.8923  1.0764
 1348SOL    HW214084   0.278   3.160   2.444 -0.0742  0.5018  1.1549
 1349SOL     OW14085   8.689   0.928   2.366 -0.2212 -0.6046  0.0484
 1349SOL    HW114086   8.734   0.999   2.420 -0.2438 -0.8330  0.3659
 1349SOL    HW214087   8.680   0.960   2.271 -1.0206  0.1780  0.3782
 1350SOL     OW14088   2.376   2.809   1.432 -0.6635 -0.7192  0.7204
 1350SOL    HW114089   2.448   2.850   1.375 -1.5521  0.9973  0.8250
 1350SOL    HW214090   2.367   2.860   1.517 -1.9991 -0.9354  0.7219
 1351SOL     OW14091   9.721   1.988   0.365 -0.4555  0.6229  0.2975
 1351SOL    HW114092   9.769   1.958   0.283 -1.9581  2.8221 -1.4511
 1351SOL    HW214093   9.787   2.018   0.433  0.7350  0.8414 -0.9304
 1352SOL     OW14094   3.351   4.181   2.569 -0.1782 -0.0229  0.7973
 1352SOL    HW114095   3.308   4.271   2.573  0.1714  0.2963 -1.9521
 1352SOL    HW214096   3.281   4.111   2.553 -0.1804  0.0020  0.6993
 1353SOL     OW14097   0.248   3.348   2.139  0.2554 -0.0083 -0.0029
 1353SOL    HW114098   0.243   3.402   2.055 -0.5729  0.3268  0.2574
 1353SOL    HW214099   0.273   3.408   2.215 -1.6538  0.2019  0.4652
 1354SOL     OW14100   2.149   0.119   2.489 -0.0936 -0.2102  0.3016
 1354SOL    HW114101   2.225   0.165   2.442 -0.8603  0.7192 -0.0502
 1354SOL    HW214102   2.066   0.130   2.435 -1.2993  2.0829  2.5249
 1355SOL     OW14103   3.421   9.837   1.367  0.0349 -0.4747  0.1269
 1355SOL    HW114104   3.403   9.903   1.295 -2.1956  0.4395  1.4898
 1355SOL    HW214105   3.471   9.882   1.442 -2.1025 -0.1216  1.3677
 1356SOL     OW14106   2.961   2.764   0.229 -0.4900  0.1949 -0.0350
 1356SOL    HW114107   3.008   2.726   0.308  0.2048  2.9098  0.9100
 1356SOL    HW214108   2.862   2.758   0.242 -0.3795  1.4716  1.4829
 1357SOL     OW14109   2.334   7.897   0.940 -0.2877  0.7841 -0.0837
 1357SOL    HW114110   2.269   7.928   1.010 -1.5082 -1.3338 -0.2410
 1357SOL    HW214111   2.340   7.798   0.943 -0.8919  0.5971 -3.4630
 1358SOL     OW14112   3.357   4.855   2.219 -0.1879  0.1801  0.5462
 1358SOL    HW114113   3.259   4.860   2.197  0.0502 -0.9827 -0.8725
 1358SOL    HW214114   3.404   4.800   2.150  1.5565  1.0762  0.9825
 1359SOL     OW14115   0.824   6.024   1.823 -0.5610  0.4914  0.2412
 1359SOL    HW114116   0.837   5.989   1.915  2.5091 -2.1722 -1.1144
 1359SOL    HW214117   0.762   5.965   1.773  0.4125 -0.0147 -0.3951
 1360SOL     OW14118   0.589   0.444   0.841  0.1583 -0.0029  0.4300
 1360SOL    HW114119   0.579   0.376   0.768  2.1824 -2.0229  1.9621
 1360SOL    HW214120   0.642   0.522   0.806  0.7194 -0.7373 -0.3968
 1361SOL     OW14121   1.379   4.663   2.459  0.1462 -0.5459  0.0785
 1361SOL    HW114122   1.321   4.710   2.525  0.4393 -0.0843  0.0143
 1361SOL    HW214123   1.352   4.689   2.366  0.7050 -0.0264  0.0576
 1362SOL     OW14124   0.913   3.251   1.148 -0.2109  0.5301  0.3515
 1362SOL    HW114125   0.880   3.170   1.198 -1.0066  0.0504 -0.9469
 1362SOL    HW214126   0.861   3.262   1.064  1.1235  1.3413 -0.3863
 1363SOL     OW14127   1.983   9.876   2.420  0.1724 -0.6085 -0.0213
 1363SOL    HW114128   2.074   9.889   2.381  0.1752 -1.9926 -0.5023
 1363SOL    HW214129   1.929   9.959   2.406  0.9826 -0.1935 -0.7563
 1364SOL     OW14130   0.459   4.046   2.450  0.0067 -0.3662 -0.4885
 1364SOL    HW114131   0.395   3.989   2.501  1.1135 -2.0249 -0.8968
 1364SOL    HW214132   0.409   4.114   2.396 -1.4258 -1.8257 -1.0320
 1365SOL     OW14133   2.006   9.814   1.400 -0.0827 -0.6561  0.0527
 1365SOL    HW114134   1.921   9.860   1.424  0.9354  3.8582 -4.1298
 1365SOL    HW214135   2.083   9.859   1.444  0.5178 -2.0187  0.4381
 1366SOL     OW14136   2.022   2.503   2.669 -0.1941 -0.2078  0.3211
 1366SOL    HW114137   2.022   2.578   2.735 -0.9101  2.0515 -2.1568
 1366SOL    HW214138   2.113   2.492   2.631 -0.2139 -0.2234  0.2778
 1367SOL     OW14139   1.553   7.910   2.315  0.0925  0.2496  0.2718
 1367SOL    HW114140   1.578   7.871   2.404  2.7382 -0.1876 -0.6066
 1367SOL    HW214141   1.562   7.840   2.244 -1.9817  0.5993 -0.3597
 1368SOL     OW14142   9.861   5.667   1.123 -0.2518  0.3056 -0.7070
 1368SOL    HW114143   9.853   5.737   1.194  1.1449  0.0895 -0.3149
 1368SOL    HW214144   9.781   5.606   1.127 -1.5355  1.9349 -1.1359
 1369SOL     OW14145   1.058   7.417   0.692  0.6827  0.2155  0.3350
 1369SOL    HW114146   0.977   7.422   0.751  0.9429  0.1754  0.6975
 1369SOL    HW214147   1.119   7.346   0.726  0.1509 -0.8223 -0.8474
 1370SOL     OW14148   9.730   3.248   0.767  0.4408 -0.1385 -0.6629
 1370SOL    HW114149   9.814   3.225   0.719 -0.2023 -0.3575 -1.6831
 1370SOL    HW214150   9.730   3.346   0.788  1.2055 -0.2415 -0.1376
 1371SOL     OW14151   3.619   3.262   1.443  0.5062 -0.7333 -0.7878
 1371SOL    HW114152   3.636   3.223   1.534 -0.1348 -2.5826 -1.4370
 1371SOL    HW214153   3.656   3.355   1.440  0.4128 -0.5773  1.4046
 1372SOL     OW14154   2.657   0.201   2.789  0.0880 -0.1146  0.7610
 1372SOL    HW114155   2.564   0.163   2.789 -0.4019  1.0359 -0.4227
 1372SOL    HW214156   2.708   0.163   2.712  0.6755 -0.9204  1.5469
 1373SOL     OW14157   3.748   2.096   2.699  0.2374  0.2215  0.4035
 1373SOL    HW114158   3.732   2.016   2.757 -0.5079  1.1181  1.4578
 1373SOL    HW214159   3.720   2.076   2.605 -1.3613 -0.2575  0.9770
 1374SOL     OW14160   0.858   2.936   2.757 -0.9395 -0.0217 -0.5284
 1374SOL    HW114161   0.855   2.876   2.837 -2.6246 -0.3767 -0.8379
 1374SOL    HW214162   0.925   3.008   2.772  0.4418 -1.4372  0.2365
 1375SOL     OW14163   1.952   2.659   0.367 -0.2184  0.3705  0.3808
 1375SOL    HW114164   2.015   2.611   0.428 -1.5502 -0.7081  0.9265
 1375SOL    HW214165   1.918   2.741   0.414 -0.2859  0.2094  0.6151
 1376SOL     OW14166   0.253   4.044   1.218 -0.4512  0.1309 -0.4027
 1376SOL    HW114167   0.216   4.107   1.149  1.1452  1.6676  0.1028
 1376SOL    HW214168   0.261   4.092   1.305  0.8871 -0.7440 -0.0334
 1377SOL     OW14169   2.196   4.649   2.777  0.1165 -0.1556 -0.3322
 1377SOL    HW114170   2.292   4.655   2.804 -0.0751 -2.0206  0.8136
 1377SOL    HW214171   2.185   4.579   2.706 -0.2948  0.5463 -0.9716
 1378SOL     OW14172   1.567   1.644   1.953  0.4776 -0.5393 -0.3048
 1378SOL    HW114173   1.625   1.712   1.908  0.3913 -2.4224 -3.4687
 1378SOL    HW214174   1.471   1.664   1.935  0.3074  0.1546  1.2955
 1379SOL     OW14175   2.606   9.398   1.610  0.5507 -0.1607 -0.0282
 1379SOL    HW114176   2.556   9.484   1.604  0.8890  0.0455  0.1067
 1379SOL    HW214177   2.564   9.330   1.549 -0.5033 -0.2923  0.8261
 1380SOL     OW14178   0.104   1.598   2.376  0.0075  0.1038 -0.2330
 1380SOL    HW114179   0.081   1.546   2.294 -0.3774 -0.0450 -0.0320
 1380SOL    HW214180   0.121   1.536   2.452 -0.8564  0.2811  0.1101
 1381SOL     OW14181   1.650   2.954   0.385  0.9536  0.4538  0.8384
 1381SOL    HW114182   1.637   3.043   0.341  0.9281  0.5629  1.0664
 1381SOL    HW214183   1.580   2.891   0.353  1.7675  0.1330 -0.3263
 1382SOL     OW14184   0.701   4.061   1.902  0.5495  0.2547  0.4098
 1382SOL    HW114185   0.727   4.106   1.987  1.6300  0.7149 -0.1508
 1382SOL    HW214186   0.780   4.012   1.865  0.0701 -0.0003 -0.2911
 1383SOL     OW14187   3.201   4.590   1.814 -0.8319  0.8765  0.1316
 1383SOL    HW114188   3.240   4.519   1.755 -1.0744  0.8325  0.0248
 1383SOL    HW214189   3.103   4.595   1.799 -1.0742  0.0424  1.4039
 1384SOL     OW14190   2.299   3.129   1.347  0.1079  0.0309 -0.5936
 1384SOL    HW114191   2.300   3.029   1.360  0.4410  0.1758  0.5531
 1384SOL    HW214192   2.216   3.155   1.299 -0.4313 -0.7023 -0.0704
 1385SOL     OW14193   9.916   5.614   0.734  0.3523 -0.1413  0.5257
 1385SOL    HW114194   9.949   5.628   0.828  0.6837  0.5238  0.3128
 1385SOL    HW214195   9.992   5.588   0.675 -0.0104 -1.4599  0.6157
 1386SOL     OW14196   0.072   5.114   2.332  0.5687  0.2548  0.0170
 1386SOL    HW114197   0.158   5.141   2.375 -0.0743 -0.5605  1.9004
 1386SOL    HW214198  -0.005   5.154   2.383 -0.2219 -0.8670 -0.2688
 1387SOL     OW14199   0.501   6.397   2.041 -0.1278  0.6815 -0.3702
 1387SOL    HW114200   0.489   6.299   2.025 -0.2298  0.9138 -1.7170
 1387SOL    HW214201   0.560   6.436   1.970  2.1771  1.0892  1.6912
 1388SOL     OW14202   0.366   0.544   1.659 -0.4341  0.4239  0.4898
 1388SOL    HW114203   0.377   0.454   1.618  2.8069  0.3448  1.4583
 1388SOL    HW214204   0.384   0.539   1.757  0.1191  2.2081  0.4968
 1389SOL     OW14205   0.294   5.200   0.501 -0.0427  0.0762  0.0435
 1389SOL    HW114206   0.294   5.104   0.529 -1.9021  0.2493  0.7053
 1389SOL    HW214207   0.389   5.232   0.492  0.6534 -0.7760  3.4670
 1390SOL     OW14208   0.687   9.214   2.669 -0.0447 -0.9391 -0.4173
 1390SOL    HW114209   0.756   9.171   2.611  2.7095  0.6460  1.5671
 1390SOL    HW214210   0.638   9.143   2.721  1.5094 -1.9860 -0.3456
 1391SOL     OW14211   3.643   8.396   0.454  0.5231 -0.4116 -0.2135
 1391SOL    HW114212   3.700   8.320   0.485  0.8109 -0.1107 -0.0033
 1391SOL    HW214213   3.681   8.436   0.371 -0.3474 -1.3324 -1.0632
 1392SOL     OW14214   0.788   0.893   1.478 -0.2333 -0.1234 -0.1917
 1392SOL    HW114215   0.874   0.933   1.511  0.8534 -1.2384 -1.6246
 1392SOL    HW214216   0.778   0.800   1.514 -1.9765  0.8014  1.8285
 1393SOL     OW14217   9.005   4.063   1.932  0.6406 -0.0927 -0.0020
 1393SOL    HW114218   8.965   4.065   1.841  0.9650 -0.5543 -0.1601
 1393SOL    HW214219   8.949   4.006   1.992 -0.0908  0.9767  0.3447
 1394SOL     OW14220   2.294   2.584   1.273  0.3064 -0.5746  0.0683
 1394SOL    HW114221   2.356   2.507   1.285  0.5115 -0.0003  2.8882
 1394SOL    HW214222   2.330   2.664   1.321 -1.2093  0.5733 -0.6664
 1395SOL     OW14223   4.080   2.650   0.675  0.2028 -0.2052  0.2314
 1395SOL    HW114224   4.095   2.589   0.753  1.0183 -0.6000 -0.2119
 1395SOL    HW214225   3.983   2.667   0.663  0.2183  1.8258  2.8028
 1396SOL     OW14226   0.563   2.112   0.645 -0.1872  0.5228  0.1568
 1396SOL    HW114227   0.556   2.212   0.646 -1.0943  0.4807 -1.2747
 1396SOL    HW214228   0.580   2.080   0.552  1.5848 -0.5717  0.8265
 1397SOL     OW14229   1.265   8.580   2.713 -0.1198  0.4765  0.3367
 1397SOL    HW114230   1.205   8.558   2.791 -0.1838  0.6865  0.3472
 1397SOL    HW214231   1.216   8.561   2.628  0.0840 -0.1052  0.3491
 1398SOL     OW14232   0.484   2.778   0.953 -0.0659 -0.0737  0.0344
 1398SOL    HW114233   0.450   2.823   0.870 -2.7136  0.4686  1.3305
 1398SOL    HW214234   0.531   2.845   1.010 -1.3695  0.4275  0.5648
 1399SOL     OW14235   3.299   0.802   0.614 -0.1731 -0.2505 -0.3216
 1399SOL    HW114236   3.298   0.819   0.515 -1.4401  2.5840  0.1296
 1399SOL    HW214237   3.364   0.864   0.658  0.6734 -1.7714  0.6090
 1400SOL     OW14238   1.275   9.956   2.586 -0.1237  0.1029 -0.1763
 1400SOL    HW114239   1.353   9.970   2.646  0.5925  0.9257 -1.2944
 1400SOL    HW214240   1.199  10.013   2.616  0.6384  1.4571 -0.7800
 1401SOL     OW14241   1.262   4.243   1.719 -0.4845 -0.1979  0.1903
 1401SOL    HW114242   1.199   4.189   1.664  0.6214 -0.4746 -0.8376
 1401SOL    HW214243   1.295   4.189   1.796 -0.2804 -0.6007 -0.1779
 1402SOL     OW14244   2.192   7.797   2.707  0.2997 -0.2460 -0.4601
 1402SOL    HW114245   2.261   7.803   2.636  1.3012  0.8511  0.5927
 1402SOL    HW214246   2.112   7.852   2.681  0.8271  0.4813 -0.5713
 1403SOL     OW14247   9.574   1.778   0.495 -0.1246 -0.4633 -0.0327
 1403SOL    HW114248   9.596   1.844   0.423 -0.1226  1.2584  1.5154
 1403SOL    HW214249   9.483   1.739   0.477  0.1747 -0.5822 -1.3508
 1404SOL     OW14250   0.368   0.389   0.586  0.0846  0.5881 -0.0323
 1404SOL    HW114251   0.351   0.466   0.647 -0.6276 -0.7310  1.4830
 1404SOL    HW214252   0.424   0.419   0.509  0.7983  2.3422  1.1417
 1405SOL     OW14253   8.936   2.705   2.204  0.4958  0.2420  0.7106
 1405SOL    HW114254   8.880   2.623   2.189 -1.1785  1.5164 -0.2198
 1405SOL    HW214255   9.003   2.713   2.130 -0.1012  0.3029  0.1666
 1406SOL     OW14256   2.157   3.399   1.369  0.2370 -0.1413  0.3827
 1406SOL    HW114257   2.063   3.421   1.344  0.2494 -0.3926  0.1131
 1406SOL    HW214258   2.180   3.445   1.455 -0.8688 -1.9278  1.6461
 1407SOL     OW14259   3.224   3.985   1.933 -0.0309  0.2936  0.1558
 1407SOL    HW114260   3.323   3.978   1.930 -0.0885 -0.2596 -0.7121
 1407SOL    HW214261   3.196   4.080   1.918  0.2753 -0.0080 -2.6978
 1408SOL     OW14262   2.137   5.668   2.276 -0.3164 -0.2742 -0.1734
 1408SOL    HW114263   2.194   5.615   2.213  0.2775 -1.0841  1.0080
 1408SOL    HW214264   2.060   5.708   2.227  0.9748  0.3758 -1.6878
 1409SOL     OW14265   9.142   1.487   0.630 -0.3668 -0.1786 -0.2406
 1409SOL    HW114266   9.047   1.503   0.656 -0.4718  0.9980 -1.3218
 1409SOL    HW214267   9.148   1.401   0.579 -0.5832 -1.0879  1.2290
 1410SOL     OW14268   1.207   2.063   1.416 -0.5420  0.7165 -0.2405
 1410SOL    HW114269   1.109   2.052   1.428 -0.5110  2.1027  1.4757
 1410SOL    HW214270   1.228   2.158   1.392  0.4513  0.6576  0.3366
 1411SOL     OW14271   3.223   0.174   0.807 -0.3127  0.6288  0.6368
 1411SOL    HW114272   3.283   0.250   0.780  1.1970 -0.9962 -0.7535
 1411SOL    HW214273   3.278   0.105   0.854 -1.4013 -0.1915  0.6996
 1412SOL     OW14274   1.719   7.655   1.981 -0.3062 -0.3175 -0.1404
 1412SOL    HW114275   1.780   7.731   2.005 -0.4041 -0.5117  0.7372
 1412SOL    HW214276   1.686   7.668   1.887 -0.0863  0.5640 -0.1050
 1413SOL     OW14277   9.020   3.945   2.309 -0.6835  0.2080  0.1091
 1413SOL    HW114278   9.036   4.042   2.328  0.9892  0.4898 -2.5100
 1413SOL    HW214279   9.075   3.889   2.371 -0.2238  0.9808  0.4011
 1414SOL     OW14280   0.964   4.678   1.364 -0.6069  0.2465 -0.6267
 1414SOL    HW114281   0.910   4.759   1.387 -1.5629 -0.4766 -0.3015
 1414SOL    HW214282   1.059   4.705   1.347 -0.9943  1.4807 -0.8797
 1415SOL     OW14283   0.664   9.508   1.977 -0.1717  0.2525 -0.6485
 1415SOL    HW114284   0.584   9.456   1.947 -0.0317 -1.3395  1.6593
 1415SOL    HW214285   0.635   9.581   2.038  0.1756 -0.8271  0.8398
 1416SOL     OW14286   0.983   6.369   1.956  0.2894  0.1472 -0.0832
 1416SOL    HW114287   1.061   6.322   1.914  0.3727 -1.2130  1.5410
 1416SOL    HW214288   1.013   6.458   1.992  0.2064  1.3482 -2.8679
 1417SOL     OW14289   1.450   7.834   1.896  0.7922 -0.1315  0.7171
 1417SOL    HW114290   1.470   7.830   1.993 -0.3170  1.2503  1.0134
 1417SOL    HW214291   1.532   7.860   1.845  1.1319  0.0603  1.3683
 1418SOL     OW14292   9.933   1.038   2.181  0.1697 -0.1954 -0.7481
 1418SOL    HW114293   9.848   1.001   2.144 -1.4585  1.8523  0.7996
 1418SOL    HW214294   9.967   0.978   2.253 -0.9300 -0.1467 -0.1733
 1419SOL     OW14295   0.192   3.384   1.669 -0.0491 -0.6981  0.1390
 1419SOL    HW114296   0.152   3.471   1.698  1.5585 -0.2623  1.0933
 1419SOL    HW214297   0.119   3.322   1.641 -1.2865  0.5789  0.4657
 1420SOL     OW14298   3.706   4.611   2.212 -0.6850  0.4876  0.4011
 1420SOL    HW114299   3.740   4.561   2.291  0.4482  0.0026 -0.3938
 1420SOL    HW214300   3.610   4.588   2.197 -0.9772  0.7713  1.7807
 1421SOL     OW14301   2.084   7.871   0.490  0.4056  0.4829  0.0807
 1421SOL    HW114302   2.153   7.943   0.500  0.2794  0.5547  0.4468
 1421SOL    HW214303   2.003   7.909   0.445  0.2089  0.6569  0.5751
 1422SOL     OW14304   1.608   7.540   0.300 -0.1690  0.6033  0.0571
 1422SOL    HW114305   1.564   7.620   0.340  0.5170  1.1324 -0.2173
 1422SOL    HW214306   1.656   7.489   0.371  0.4824  1.1651  0.0236
 1423SOL     OW14307   9.912   3.039   0.637 -0.4277  0.2252 -0.4121
 1423SOL    HW114308   9.858   2.959   0.612  1.5589 -0.8926 -1.1934
 1423SOL    HW214309  10.003   3.033   0.596  1.4301  0.5157  3.4150
 1424SOL     OW14310   2.045   7.458   1.757 -0.3120  0.4594 -1.0242
 1424SOL    HW114311   1.977   7.424   1.821  0.3494 -0.8095 -0.9766
 1424SOL    HW214312   2.048   7.398   1.677 -1.0743  1.9747 -2.2160
 1425SOL     OW14313   9.194   3.776   2.458 -0.3510 -0.8869  0.4847
 1425SOL    HW114314   9.179   3.711   2.533 -0.7948 -0.2168  0.9728
 1425SOL    HW214315   9.292   3.778   2.435 -0.3555 -1.8683  0.3368
 1426SOL     OW14316   3.369   9.656   2.287 -0.6937  0.0965  0.2734
 1426SOL    HW114317   3.419   9.570   2.279 -1.2501 -0.2090  0.0447
 1426SOL    HW214318   3.429   9.726   2.326  0.1117 -0.0751 -0.6481
 1427SOL     OW14319   0.178   5.762   1.916  0.0185 -0.2348  0.2386
 1427SOL    HW114320   0.219   5.831   1.856  2.7739 -0.2145  2.0560
 1427SOL    HW214321   0.181   5.673   1.871 -1.5241  0.4259 -1.2144
 1428SOL     OW14322   1.809   2.998   0.967  0.2944  0.5816  0.4861
 1428SOL    HW114323   1.884   3.001   0.900 -0.3319 -3.2338 -0.4981
 1428SOL    HW214324   1.729   3.045   0.929  1.5987  3.1520  0.8303
 1429SOL     OW14325   0.091   3.832   0.107  0.4577  0.6086  0.2247
 1429SOL    HW114326   0.069   3.867   0.198 -2.8062 -1.6394  0.4023
 1429SOL    HW214327   0.045   3.888   0.037 -0.3438 -0.0385  0.2198
 1430SOL     OW14328   0.868   2.845   1.027  1.1028  0.0892 -0.0615
 1430SOL    HW114329   0.947   2.889   0.985  0.7635  1.3608  0.6272
 1430SOL    HW214330   0.829   2.905   1.097 -0.0760 -0.8063  0.0681
 1431SOL     OW14331   9.030   4.450   1.365 -0.3555 -0.3879 -0.0908
 1431SOL    HW114332   9.020   4.441   1.266 -1.0014 -0.1566 -0.0497
 1431SOL    HW214333   9.074   4.537   1.386  0.5842 -0.8289 -0.2119
 1432SOL     OW14334   0.385   4.818   2.077 -0.3622 -0.6197  0.1997
 1432SOL    HW114335   0.305   4.819   2.137 -1.3441 -1.2868 -1.0629
 1432SOL    HW214336   0.361   4.862   1.990  1.1229  0.6051  0.3906
 1433SOL     OW14337   1.736   3.352   1.527  0.3359  0.4794  0.3684
 1433SOL    HW114338   1.817   3.339   1.584 -0.1593  0.0560  0.9877
 1433SOL    HW214339   1.686   3.266   1.522 -0.8223  1.1015  1.1454
 1434SOL     OW14340   2.419   8.216   2.053  0.0415  0.5831 -0.6103
 1434SOL    HW114341   2.380   8.189   2.141 -2.0918 -1.3204 -2.0786
 1434SOL    HW214342   2.505   8.265   2.068 -0.2832  0.2868  2.5091
 1435SOL     OW14343   1.916   7.004   0.946 -0.0476  0.2340  0.4132
 1435SOL    HW114344   1.939   6.995   1.043 -0.9190 -0.4917  0.5691
 1435SOL    HW214345   1.970   6.939   0.893 -0.7489 -0.5223  0.6149
 1436SOL     OW14346   1.777   1.786   1.580 -0.9044 -0.3448  0.4784
 1436SOL    HW114347   1.834   1.811   1.502 -0.8769 -1.7363  0.0514
 1436SOL    HW214348   1.730   1.868   1.614 -1.4457  0.1652 -1.4265
 1437SOL     OW14349   1.291   7.178   1.863  0.2480 -0.0326 -0.4475
 1437SOL    HW114350   1.373   7.163   1.919  0.6475 -0.6383 -1.1887
 1437SOL    HW214351   1.318   7.219   1.775 -0.1654 -0.9471 -0.9995
 1438SOL     OW14352   3.297   9.433   1.208  0.0389  0.1997 -0.3929
 1438SOL    HW114353   3.255   9.514   1.167 -0.9039 -0.1775 -0.1954
 1438SOL    HW214354   3.393   9.427   1.180 -0.1655  0.8115 -1.2515
 1439SOL     OW14355   0.624   9.767   0.757 -0.0737 -0.8158  0.9931
 1439SOL    HW114356   0.599   9.840   0.694 -0.6718  0.4838  2.6947
 1439SOL    HW214357   0.708   9.722   0.725 -0.9500 -0.8849 -1.2538
 1440SOL     OW14358   8.375   4.039   0.494 -0.3745 -0.1374  0.5542
 1440SOL    HW114359   8.376   4.123   0.440 -0.0647 -0.0974  0.6215
 1440SOL    HW214360   8.305   4.046   0.565 -1.3780 -0.5413 -0.3887
 1441SOL     OW14361   8.480   3.372   0.521  0.1035  0.5828 -0.3857
 1441SOL    HW114362   8.547   3.323   0.577  0.1035  0.7615 -0.2295
 1441SOL    HW214363   8.513   3.464   0.501 -0.5833  1.0614  0.6333
 1442SOL     OW14364   3.349   3.001   2.231  0.0580 -0.0653 -0.1782
 1442SOL    HW114365   3.379   2.926   2.290  1.2978  1.7296  1.5471
 1442SOL    HW214366   3.270   3.046   2.272 -0.5214 -0.2540 -1.0729
 1443SOL     OW14367   3.442   8.866   2.029  0.0386  0.3765 -0.3701
 1443SOL    HW114368   3.510   8.937   2.047  2.9684 -1.9528 -1.9569
 1443SOL    HW214369   3.446   8.797   2.101 -0.3210 -0.0342 -0.7421
 1444SOL     OW14370   0.933   7.424   2.678 -0.0586  0.1381 -0.0790
 1444SOL    HW114371   0.906   7.328   2.665  1.6576 -0.4620  0.6319
 1444SOL    HW214372   0.998   7.430   2.754 -0.4121  1.9253  0.1059
 1445SOL     OW14373   0.163   4.448   1.273 -0.3298 -0.2726  0.0240
 1445SOL    HW114374   0.203   4.432   1.363  0.9745 -1.2753 -0.7103
 1445SOL    HW214375   0.066   4.470   1.283  0.0716  0.7998  1.7414
 1446SOL     OW14376   9.594   3.943   2.306  0.6947  0.6687  0.0361
 1446SOL    HW114377   9.501   3.981   2.306  0.6442  0.5524 -1.0998
 1446SOL    HW214378   9.606   3.886   2.387 -0.5273 -0.0475 -0.2669
 1447SOL     OW14379   4.116   2.935   1.067 -0.0946  0.3407  0.2752
 1447SOL    HW114380   4.112   2.837   1.050 -2.6651  0.1944  1.4400
 1447SOL    HW214381   4.165   2.953   1.152  1.0812  0.1330 -0.3559
 1448SOL     OW14382   2.133   0.288   0.958 -0.5200  0.1093 -0.3880
 1448SOL    HW114383   2.095   0.199   0.932  0.7177 -0.6896  0.5141
 1448SOL    HW214384   2.076   0.329   1.029  0.4167 -1.2177  1.1662
 1449SOL     OW14385   2.404   0.572   1.296  0.0696  0.9396 -0.0930
 1449SOL    HW114386   2.425   0.520   1.213 -2.2429  0.4052 -0.3688
 1449SOL    HW214387   2.309   0.603   1.293  0.4681  2.3922  1.5798
 1450SOL     OW14388   0.560   4.741   0.432  0.3000 -0.2308  0.8582
 1450SOL    HW114389   0.645   4.719   0.384 -0.5425 -0.1021 -0.7022
 1450SOL    HW214390   0.535   4.665   0.492  1.5548 -0.2328  1.4105
 1451SOL     OW14391   1.880   8.360   1.473  0.1017 -0.2914 -0.0359
 1451SOL    HW114392   1.899   8.441   1.417 -1.5250 -0.8720 -1.4834
 1451SOL    HW214393   1.883   8.278   1.415 -1.7142 -0.8950  0.6816
 1452SOL     OW14394   3.414   2.377   0.264 -0.7760 -0.4151  0.0002
 1452SOL    HW114395   3.322   2.372   0.224 -1.5378 -0.5112  1.6932
 1452SOL    HW214396   3.464   2.293   0.245 -1.0174 -0.3497 -0.9610
 1453SOL     OW14397   0.322   0.854   0.001  0.0768  0.4775  0.5529
 1453SOL    HW114398   0.388   0.828   0.072 -0.4473  0.6507  1.0997
 1453SOL    HW214399   0.258   0.922   0.037 -1.9928 -1.5567  0.8162
 1454SOL     OW14400   2.245   1.774   1.485  0.6084 -0.7328  0.0065
 1454SOL    HW114401   2.242   1.867   1.448 -1.6554 -0.0018  1.8835
 1454SOL    HW214402   2.287   1.776   1.576 -0.7370 -1.3042  0.6548
 1455SOL     OW14403   3.805   0.200   0.938 -0.1402  0.0041  0.5991
 1455SOL    HW114404   3.757   0.149   1.009  1.6747 -0.6671  1.3398
 1455SOL    HW214405   3.857   0.137   0.881 -0.9214  0.6329 -0.8402
 1456SOL     OW14406   9.288   1.972   0.575 -0.1269 -0.1650  0.0483
 1456SOL    HW114407   9.200   2.019   0.589  0.2126  0.7875 -0.9126
 1456SOL    HW214408   9.274   1.892   0.518 -0.3705  0.0112 -0.1416
 1457SOL     OW14409   2.882   8.733   0.133  0.4260 -0.5414 -0.3887
 1457SOL    HW114410   2.857   8.713   0.227 -0.1911 -1.5604 -0.7545
 1457SOL    HW214411   2.800   8.761   0.082  0.7548  0.0015 -0.6131
 1458SOL     OW14412   0.540   1.149   1.649  0.6709  0.2298  0.7743
 1458SOL    HW114413   0.619   1.119   1.703  0.7030 -0.1426  0.5272
 1458SOL    HW214414   0.503   1.070   1.598  1.2599  0.7767 -0.5322
 1459SOL     OW14415   1.161   2.277   0.851 -0.1183 -0.4973  0.3954
 1459SOL    HW114416   1.076   2.303   0.897  0.0265  0.4917  0.1023
 1459SOL    HW214417   1.219   2.357   0.839  1.2047 -1.3096  1.2917
 1460SOL     OW14418   1.017   2.905   0.669  0.2918  0.3971  0.4928
 1460SOL    HW114419   1.059   2.846   0.601  0.9726  1.6338 -0.1742
 1460SOL    HW214420   0.922   2.877   0.684  0.8203 -1.3120  0.7352
 1461SOL     OW14421   9.739   4.039   2.109  0.0379  0.3834 -0.2424
 1461SOL    HW114422   9.833   4.006   2.110  0.0967  0.5221 -1.1115
 1461SOL    HW214423   9.686   3.992   2.180  0.5350 -0.3503 -0.3544
 1462SOL     OW14424   1.837   2.186   1.793  0.0291  0.2664 -0.1353
 1462SOL    HW114425   1.807   2.281   1.799  1.0962  0.6822 -1.2183
 1462SOL    HW214426   1.924   2.176   1.841  0.8595  0.2585 -1.6181
 1463SOL     OW14427   2.389   1.646   2.508 -0.1655  0.4348 -0.5897
 1463SOL    HW114428   2.324   1.616   2.576 -0.4220  2.9237  0.3162
 1463SOL    HW214429   2.476   1.598   2.521 -0.3944  0.4639  1.1051
 1464SOL     OW14430   1.747   1.069   2.181 -0.2578 -0.0882  0.1937
 1464SOL    HW114431   1.841   1.051   2.153 -0.5518 -0.2201 -0.7107
 1464SOL    HW214432   1.702   1.129   2.115 -0.7319  0.2012  0.7621
 1465SOL     OW14433   2.594   3.820   2.351  0.1679  0.7104  0.2465
 1465SOL    HW114434   2.584   3.911   2.312 -0.6326  0.9687  1.0149
 1465SOL    HW214435   2.685   3.810   2.391  0.2563  1.1776  0.1664
 1466SOL     OW14436   0.983   2.459   1.559 -0.6276  0.8260 -0.3305
 1466SOL    HW114437   0.898   2.459   1.612 -0.5058  1.4804 -0.1277
 1466SOL    HW214438   1.050   2.400   1.603 -1.2109 -0.2426 -0.8698
 1467SOL     OW14439   4.531   2.485   1.568  0.4440 -0.3431 -0.5295
 1467SOL    HW114440   4.473   2.410   1.599  0.0206 -0.7117 -2.1467
 1467SOL    HW214441   4.559   2.540   1.646 -0.6104 -1.2131  0.4846
 1468SOL     OW14442   0.026   2.811   2.117 -0.0741  0.1881  0.2037
 1468SOL    HW114443   0.049   2.909   2.121 -0.9153  0.4070 -0.1941
 1468SOL    HW214444   0.047   2.769   2.205  1.0990  0.5427  0.1032
 1469SOL     OW14445   2.640   9.436   1.972  0.1162  0.1074  0.3727
 1469SOL    HW114446   2.546   9.454   1.943 -0.5771 -2.3311  0.9383
 1469SOL    HW214447   2.691   9.397   1.895  0.2199 -0.0192  0.5059
 1470SOL     OW14448   2.179   9.246   2.402 -0.3063 -0.1124 -0.2397
 1470SOL    HW114449   2.244   9.174   2.380 -0.0697 -0.1958  0.7105
 1470SOL    HW214450   2.191   9.274   2.497  0.4346  2.0223 -0.9275
 1471SOL     OW14451   3.411   3.633   0.002 -0.3073  0.3045  0.1235
 1471SOL    HW114452   3.394   3.561   0.068 -0.4772  0.4207  0.2068
 1471SOL    HW214453   3.497   3.679   0.023  1.0937 -1.5176 -1.3973
 1472SOL     OW14454   1.678   9.488   1.157 -0.1387 -0.4577 -0.0596
 1472SOL    HW114455   1.631   9.449   1.236 -0.4187  0.2655  0.1298
 1472SOL    HW214456   1.616   9.550   1.108  0.7378  0.8357  0.4373
 1473SOL     OW14457   2.019   3.610   1.593 -0.4508  0.3852 -0.0968
 1473SOL    HW114458   1.967   3.540   1.643 -0.5154  0.8154  0.4325
 1473SOL    HW214459   2.076   3.662   1.656 -0.5777  0.9699 -0.4571
 1474SOL     OW14460   1.567   7.799   2.564 -0.4622  1.1427  0.3767
 1474SOL    HW114461   1.574   7.884   2.617  1.0856  0.5532  1.1527
 1474SOL    HW214462   1.551   7.722   2.626  0.3779  0.5773 -0.1015
 1475SOL     OW14463   8.732   1.009   1.864  0.2959 -0.3019 -0.0367
 1475SOL    HW114464   8.694   1.076   1.800  0.6463  0.3006  0.3753
 1475SOL    HW214465   8.692   1.025   1.955  1.3890  0.2177  0.3555
 1476SOL     OW14466   1.741   9.319   1.890 -0.2465  0.2260 -0.4677
 1476SOL    HW114467   1.840   9.307   1.905 -0.8272 -0.7402  3.0346
 1476SOL    HW214468   1.724   9.409   1.852  1.8215  1.3986  1.2393
 1477SOL     OW14469   0.381   1.173   0.199  0.3848 -0.1749  0.0180
 1477SOL    HW114470   0.378   1.257   0.253  0.4951 -0.4790  0.5023
 1477SOL    HW214471   0.470   1.164   0.156  0.0690  0.4089 -0.7632
 1478SOL     OW14472   1.499   7.924   0.688 -0.0396 -0.6580  1.0141
 1478SOL    HW114473   1.449   7.924   0.775 -0.3087  1.0939  0.8843
 1478SOL    HW214474   1.597   7.920   0.705 -0.0803  0.0079  1.4183
 1479SOL     OW14475   1.921   4.846   1.625 -0.2579  0.3242  0.7430
 1479SOL    HW114476   1.926   4.921   1.691 -0.0199  0.8200  0.1648
 1479SOL    HW214477   1.887   4.881   1.538 -0.9667 -0.4088  0.7155
 1480SOL     OW14478   1.291   0.451   0.666  0.1881  0.0514  0.4516
 1480SOL    HW114479   1.360   0.387   0.699  0.3210  0.3580  0.7761
 1480SOL    HW214480   1.238   0.485   0.743 -1.7827 -1.8510 -0.0439
 1481SOL     OW14481   1.530   9.004   0.599  0.1549 -0.2134 -0.7507
 1481SOL    HW114482   1.464   8.949   0.548 -0.9827  2.5892 -2.4380
 1481SOL    HW214483   1.551   9.086   0.547  0.0900  2.0696  2.6822
 1482SOL     OW14484   1.071   8.543   1.445 -0.1062  0.0103  0.3280
 1482SOL    HW114485   1.009   8.469   1.420  0.8090  0.0456 -2.1693
 1482SOL    HW214486   1.151   8.504   1.492  0.3565 -0.5863 -0.9400
 1483SOL     OW14487   1.058   1.709   1.566 -0.0936  0.2479 -0.2336
 1483SOL    HW114488   0.998   1.745   1.495  2.1167  1.0679 -1.7353
 1483SOL    HW214489   1.028   1.744   1.655 -1.7553  0.7315 -0.9666
 1484SOL     OW14490   8.929   1.735   2.285 -0.3939  0.7215 -0.2207
 1484SOL    HW114491   8.896   1.827   2.263  1.4065  1.4565  0.0622
 1484SOL    HW214492   8.920   1.677   2.204 -2.0564  0.9916 -0.2361
 1485SOL     OW14493   1.859   2.918   1.226 -0.5788 -0.1983  0.5136
 1485SOL    HW114494   1.829   2.967   1.144  0.4051  0.7551  0.7180
 1485SOL    HW214495   1.846   2.976   1.306  0.1170 -0.4692  0.8233
 1486SOL     OW14496   4.218   2.212   1.570 -0.3522 -0.0346 -0.3245
 1486SOL    HW114497   4.217   2.208   1.670  0.6118  0.5982 -0.2868
 1486SOL    HW214498   4.126   2.235   1.537 -0.6081  0.0451  0.4299
 1487SOL     OW14499   1.030   8.128   0.130  0.1851 -0.6679 -0.3113
 1487SOL    HW114500   0.968   8.206   0.129  0.1079 -0.6385  3.1961
 1487SOL    HW214501   0.981   8.047   0.098 -0.5525  0.0968 -1.1708
 1488SOL     OW14502   2.214   7.232   2.118  0.7369 -0.0544  0.1909
 1488SOL    HW114503   2.221   7.225   2.218  0.8916 -2.2456  0.0561
 1488SOL    HW214504   2.119   7.214   2.090  0.7809  0.1486 -0.0908
 1489SOL     OW14505   2.256   6.392   0.230 -0.6931 -0.2313  0.0521
 1489SOL    HW114506   2.338   6.407   0.284 -0.1820  1.2470 -1.0843
 1489SOL    HW214507   2.175   6.401   0.288 -0.0897 -0.5379  0.9401
 1490SOL     OW14508   1.343   4.925   1.218 -0.1817 -0.5153 -0.2777
 1490SOL    HW114509   1.314   4.933   1.313  0.1475  1.5698 -0.3414
 1490SOL    HW214510   1.387   5.010   1.189 -0.8615 -0.8928 -2.4842
 1491SOL     OW14511   1.531   6.192   2.035 -0.3282 -0.1820  0.2542
 1491SOL    HW114512   1.572   6.250   1.964 -2.5741 -0.0593 -0.9853
 1491SOL    HW214513   1.483   6.250   2.101 -0.0206 -0.4341  0.7000
 1492SOL     OW14514   0.249   9.299   2.348  0.1818  0.1494  0.1175
 1492SOL    HW114515   0.319   9.278   2.281 -1.2193  0.4480 -1.4830
 1492SOL    HW214516   0.289   9.302   2.439  2.3483  0.9133 -0.8389
 1493SOL     OW14517   4.071   3.366   0.860 -0.0795 -0.1159 -0.0678
 1493SOL    HW114518   4.131   3.401   0.789 -0.6110  0.6824 -0.1247
 1493SOL    HW214519   4.049   3.270   0.841  0.8891 -0.3122 -0.2277
 1494SOL     OW14520   1.268   6.311   0.848 -0.1004 -0.6305 -0.1186
 1494SOL    HW114521   1.245   6.274   0.758  0.4601 -2.8248  0.6142
 1494SOL    HW214522   1.254   6.241   0.918  2.0914  0.1935  1.1836
 1495SOL     OW14523   3.212   4.093   1.611 -0.4642  0.0097 -0.0377
 1495SOL    HW114524   3.288   4.036   1.580 -0.4604 -0.0760  0.1292
 1495SOL    HW214525   3.211   4.178   1.559  0.5168  0.5591  0.8168
 1496SOL     OW14526   0.435   3.963   1.036  0.1974  0.2795 -0.3362
 1496SOL    HW114527   0.393   3.873   1.033 -0.9069  0.8302 -2.6914
 1496SOL    HW214528   0.397   4.016   1.112  0.3478 -0.9732  0.6207
 1497SOL     OW14529   1.928   9.080   2.312  0.3134 -0.2795 -0.1054
 1497SOL    HW114530   1.963   9.058   2.221  1.4927 -2.2104  0.7689
 1497SOL    HW214531   2.002   9.119   2.367  0.2683 -1.4014  0.7641
 1498SOL     OW14532   1.043   8.665   1.737 -0.6784  0.0329 -0.4625
 1498SOL    HW114533   1.046   8.598   1.663  0.6875 -0.3587 -0.0694
 1498SOL    HW214534   1.001   8.750   1.704 -1.5846 -0.7006 -1.2146
 1499SOL     OW14535   4.132   8.396   0.865 -0.3233  0.7820  0.2742
 1499SOL    HW114536   4.120   8.487   0.906 -1.2450  0.0143  1.7476
 1499SOL    HW214537   4.201   8.345   0.917 -2.4732 -0.6912  1.7291
 1500SOL     OW14538   2.477   8.025   1.238  0.1829  0.8251 -0.4487
 1500SOL    HW114539   2.560   8.079   1.225  0.4678  0.5305  0.1394
 1500SOL    HW214540   2.494   7.952   1.305 -0.7024  1.0958  0.0784
 1501SOL     OW14541   9.366   0.487   1.040 -0.0034  0.1536 -0.0049
 1501SOL    HW114542   9.301   0.438   1.097 -1.2378  3.5483  1.5962
 1501SOL    HW214543   9.328   0.499   0.948 -1.0038  0.7840  0.4895
 1502SOL     OW14544   0.807   0.386   1.992  0.0844 -0.7852  0.0446
 1502SOL    HW114545   0.874   0.314   2.011  0.4290 -0.3609  0.4494
 1502SOL    HW214546   0.783   0.432   2.077 -0.2203 -0.4975 -0.1990
 1503SOL     OW14547   1.067   6.095   1.694  0.4809  0.6732  0.2363
 1503SOL    HW114548   0.974   6.093   1.731  0.8340 -0.8169  1.0651
 1503SOL    HW214549   1.078   6.022   1.627  1.2229  0.4861  0.5572
 1504SOL     OW14550   9.846   5.064   1.723 -0.3725 -0.1236 -0.6430
 1504SOL    HW114551   9.895   5.145   1.691  0.3245 -1.4130 -2.9372
 1504SOL    HW214552   9.798   5.086   1.808 -0.2839  2.7111 -1.2724
 1505SOL     OW14553   4.120   9.962   1.575  0.0754 -0.1169  0.2288
 1505SOL    HW114554   4.105   9.882   1.634 -1.3624  0.3160  0.4608
 1505SOL    HW214555   4.079   9.945   1.485 -0.8739  0.6409  0.5127
 1506SOL     OW14556   9.657   0.533   1.323 -0.4627 -0.0812  0.3947
 1506SOL    HW114557   9.742   0.481   1.316 -0.3200  0.1372  0.4944
 1506SOL    HW214558   9.639   0.578   1.235  0.2664  1.0152  0.7955
 1507SOL     OW14559   4.335   4.144   1.299 -0.5873 -0.2845  0.0721
 1507SOL    HW114560   4.331   4.074   1.227 -0.1993 -0.8902  0.6339
 1507SOL    HW214561   4.243   4.160   1.335 -0.6830 -0.4795 -0.0848
 1508SOL     OW14562   0.474   3.543   0.644 -0.1876  0.5408  0.6755
 1508SOL    HW114563   0.435   3.463   0.600  0.1860 -0.1109  1.5293
 1508SOL    HW214564   0.435   3.626   0.603  0.4751 -0.0390 -1.1879
 1509SOL     OW14565   1.907   4.548   0.066  0.4089  0.4143  0.2602
 1509SOL    HW114566   1.813   4.537   0.100  0.2371 -0.0730 -0.3507
 1509SOL    HW214567   1.905   4.553  -0.034  1.1411 -0.6736  0.1930
 1510SOL     OW14568   0.835   3.165   2.500  0.1531 -0.6863 -0.4190
 1510SOL    HW114569   0.879   3.140   2.413 -1.9696 -1.8015 -1.1990
 1510SOL    HW214570   0.772   3.093   2.528 -2.1061  1.3905  0.0456
 1511SOL     OW14571   1.904   1.427   1.780 -0.6171  0.8670 -0.0529
 1511SOL    HW114572   1.806   1.442   1.768 -0.5129  0.8012 -1.0333
 1511SOL    HW214573   1.945   1.406   1.691  0.0382 -0.5201  0.5679
 1512SOL     OW14574   1.464   0.485   1.911  0.3462 -1.2450  0.5147
 1512SOL    HW114575   1.549   0.488   1.962 -0.1476 -0.9074  1.3327
 1512SOL    HW214576   1.476   0.532   1.823  0.5081  0.3545  1.3847
 1513SOL     OW14577   3.691   8.791   0.358 -0.5611  0.3323  0.0729
 1513SOL    HW114578   3.686   8.822   0.453  1.3542 -0.9492  0.6198
 1513SOL    HW214579   3.740   8.704   0.354 -4.4108 -1.9003 -1.5884
 1514SOL     OW14580   1.389   8.989   2.587  0.0996 -0.9540 -0.1181
 1514SOL    HW114581   1.468   8.936   2.616 -0.4599 -0.9933  1.3757
 1514SOL    HW214582   1.350   9.036   2.666 -0.5692  0.1337 -1.0811
 1515SOL     OW14583   3.263   9.024   0.497  0.3185  0.0713  0.0744
 1515SOL    HW114584   3.179   8.979   0.527 -1.0499  2.7663  0.4444
 1515SOL    HW214585   3.336   9.005   0.563  0.2567 -2.9025 -0.6425
 1516SOL     OW14586   3.152   3.963   1.206 -0.5634 -0.6535 -0.1609
 1516SOL    HW114587   3.209   4.043   1.189 -2.8029  0.6988 -1.5610
 1516SOL    HW214588   3.082   3.956   1.135 -1.0468 -3.2812  0.5226
 1517SOL     OW14589   1.591   4.411   2.144 -0.5013  0.4940  0.2251
 1517SOL    HW114590   1.546   4.368   2.222  0.6526  2.9215  2.3063
 1517SOL    HW214591   1.524   4.466   2.094 -1.4250 -1.6941 -1.0382
 1518SOL     OW14592   1.754   5.833   0.996 -0.1246 -0.4941 -0.0805
 1518SOL    HW114593   1.732   5.778   1.076  0.8290  0.8411  1.1264
 1518SOL    HW214594   1.812   5.780   0.934 -0.6031 -1.4236  0.2617
 1519SOL     OW14595   9.892   2.734   1.894  0.1426  0.2815  0.0342
 1519SOL    HW114596   9.953   2.761   1.968  2.1630  0.9397 -1.8285
 1519SOL    HW214597   9.897   2.801   1.821 -0.0414 -1.5687 -1.7188
 1520SOL     OW14598   2.382   5.903   2.011  0.2083  0.1888  0.2043
 1520SOL    HW114599   2.428   5.835   1.954 -2.3666 -0.9339 -0.6091
 1520SOL    HW214600   2.375   5.869   2.104  1.4233  0.5640  0.4357
 1521SOL     OW14601   1.326   5.351   2.243 -0.0528  0.9716 -0.4711
 1521SOL    HW114602   1.324   5.370   2.145 -0.8099 -1.5733 -0.9791
 1521SOL    HW214603   1.233   5.351   2.279 -0.0547 -1.1224 -0.4024
 1522SOL     OW14604   2.454   9.852   1.345  0.4774 -0.2388  0.0381
 1522SOL    HW114605   2.507   9.935   1.323 -0.4301 -0.0855 -1.6416
 1522SOL    HW214606   2.366   9.878   1.384  0.4312 -0.4442  0.0709
 1523SOL     OW14607   1.555   5.706   1.443 -0.2414  0.1165  0.3789
 1523SOL    HW114608   1.481   5.642   1.463  1.9537 -2.4765  0.4860
 1523SOL    HW214609   1.631   5.691   1.506  1.3571  1.0205 -1.2632
 1524SOL     OW14610   1.766   0.811   1.864  0.6221  0.3977  0.0156
 1524SOL    HW114611   1.769   0.906   1.894  1.2666  0.6204 -0.7332
 1524SOL    HW214612   1.738   0.808   1.768 -0.5592 -0.2438  0.3770
 1525SOL     OW14613   0.938   9.990   2.393  1.0388 -0.1650  0.3214
 1525SOL    HW114614   1.007  10.003   2.322 -0.4434  1.7722 -0.8266
 1525SOL    HW214615   0.874   9.919   2.363  1.4968 -0.6994  0.5911
 1526SOL     OW14616   9.293   2.310   2.051 -0.1149 -0.7842  0.1202
 1526SOL    HW114617   9.299   2.310   1.951 -1.4647  0.2564  0.0155
 1526SOL    HW214618   9.326   2.398   2.086 -1.0172 -0.5797  0.4785
 1527SOL     OW14619   9.477   1.809   2.762  0.4164  0.2173  0.0019
 1527SOL    HW114620   9.424   1.726   2.745 -0.2061  0.6678 -0.2786
 1527SOL    HW214621   9.421   1.874   2.812  0.2003  1.2880 -1.6005
 1528SOL     OW14622   1.416   3.345   1.286 -0.4779 -0.0583 -0.2719
 1528SOL    HW114623   1.382   3.346   1.380 -0.2676 -1.1980 -0.1753
 1528SOL    HW214624   1.415   3.438   1.250 -0.5215  0.3996  0.8669
 1529SOL     OW14625   2.209   8.503   2.120 -0.0112 -0.1643  0.4247
 1529SOL    HW114626   2.238   8.474   2.029 -0.7862  3.2668 -1.0126
 1529SOL    HW214627   2.288   8.533   2.172  0.2005 -0.1385  0.0938
 1530SOL     OW14628   3.094   8.681   1.114 -0.5580 -0.2995  0.1650
 1530SOL    HW114629   3.144   8.600   1.147 -0.0513 -0.0741 -0.0374
 1530SOL    HW214630   3.101   8.754   1.182 -1.3025 -0.5338  0.5016
 1531SOL     OW14631   2.279   3.474   1.980  0.3483  0.0821 -0.8271
 1531SOL    HW114632   2.290   3.556   2.035 -0.3620  0.1943 -0.8528
 1531SOL    HW214633   2.221   3.494   1.901  1.8671  0.0908 -1.9712
 1532SOL     OW14634   1.133   4.419   2.647  0.0541  0.0818  0.1427
 1532SOL    HW114635   1.185   4.476   2.710  3.2849 -1.5471 -0.9460
 1532SOL    HW214636   1.104   4.473   2.568  0.5581  0.8621  0.4935
 1533SOL     OW14637   3.939   9.936   0.317 -0.1145  0.5259 -0.0916
 1533SOL    HW114638   3.899   9.882   0.243 -1.8431 -0.0976  1.2563
 1533SOL    HW214639   3.982   9.875   0.384 -0.1340  0.9559  0.3186
 1534SOL     OW14640   9.413   0.888   2.188  0.9373  0.2627 -0.5135
 1534SOL    HW114641   9.330   0.845   2.151  0.1160 -0.3251  1.9068
 1534SOL    HW214642   9.403   0.988   2.184 -0.8350  0.2020  1.7507
 1535SOL     OW14643   2.277   7.588   1.705 -0.3033 -0.0004 -0.7072
 1535SOL    HW114644   2.274   7.638   1.618 -1.3430  0.5120 -0.3841
 1535SOL    HW214645   2.189   7.542   1.720  0.0143 -0.4262 -0.1163
 1536SOL     OW14646   1.581   8.694   0.302 -0.0135  0.0469 -0.4648
 1536SOL    HW114647   1.634   8.717   0.220 -0.0114  0.4511 -0.3532
 1536SOL    HW214648   1.643   8.680   0.379  0.0477 -1.3576 -0.7698
 1537SOL     OW14649   3.662   0.458   2.078 -0.2078  0.1996  0.4064
 1537SOL    HW114650   3.709   0.462   2.166 -0.1355  0.0694  0.3751
 1537SOL    HW214651   3.667   0.547   2.033 -2.4874  0.9818  1.6775
 1538SOL     OW14652   3.779   2.868   1.096 -0.3231 -0.0342 -0.4036
 1538SOL    HW114653   3.819   2.794   1.151  0.4534 -0.5053 -1.5745
 1538SOL    HW214654   3.764   2.948   1.154  1.1146 -0.2923  0.3598
 1539SOL     OW14655   2.815   0.100   0.703 -0.5170  0.4305  0.1825
 1539SOL    HW114656   2.786   0.018   0.655 -0.1248 -0.2806  1.1558
 1539SOL    HW214657   2.866   0.075   0.785  0.2851  1.6497  0.0657
 1540SOL     OW14658   0.530   6.235   1.502 -0.2641  0.4626 -0.4764
 1540SOL    HW114659   0.516   6.333   1.484 -1.3419  0.3318 -0.3990
 1540SOL    HW214660   0.576   6.223   1.589 -0.1710  0.9031 -0.4626
 1541SOL     OW14661   1.950   0.661   2.677 -0.3925 -0.5427 -0.4988
 1541SOL    HW114662   2.004   0.741   2.654 -0.2299 -0.4803  0.0778
 1541SOL    HW214663   1.858   0.689   2.706 -0.6730 -0.6355 -1.2901
 1542SOL     OW14664   0.723   1.981   1.627 -0.1363  0.3527 -0.1183
 1542SOL    HW114665   0.654   1.950   1.561 -1.1141  1.7124  0.2479
 1542SOL    HW214666   0.699   1.948   1.719  0.4550 -0.3271 -0.1975
 1543SOL     OW14667   8.644   4.567   0.499 -0.3591 -0.8256  0.2717
 1543SOL    HW114668   8.693   4.578   0.413 -2.2067 -2.3775 -1.0319
 1543SOL    HW214669   8.590   4.650   0.517 -0.0689 -0.5500 -0.1256
 1544SOL     OW14670   1.458   1.517   2.709  0.3039  0.1232  0.0907
 1544SOL    HW114671   1.400   1.441   2.677  1.9668 -0.3487 -1.9428
 1544SOL    HW214672   1.544   1.480   2.745  0.1562  0.9273  1.2753
 1545SOL     OW14673   2.035   7.304   0.919  0.4912  0.9025  0.2868
 1545SOL    HW114674   1.985   7.297   1.005  1.1280 -0.5124  0.5638
 1545SOL    HW214675   2.094   7.223   0.908 -0.1220  0.7018 -1.8118
 1546SOL     OW14676   1.785   4.227   1.692  0.3475  0.0503  0.2171
 1546SOL    HW114677   1.830   4.175   1.764 -1.3304 -2.0680 -0.1815
 1546SOL    HW214678   1.853   4.271   1.633  1.8870 -2.6576 -0.0814
 1547SOL     OW14679   1.229   0.218   1.727  0.2468 -0.0272 -0.7643
 1547SOL    HW114680   1.248   0.263   1.815  0.5788  0.2357 -0.9665
 1547SOL    HW214681   1.224   0.287   1.655 -2.2517 -0.0107 -0.6071
 1548SOL     OW14682   1.483   3.488   2.332  0.0341  0.3903  0.0561
 1548SOL    HW114683   1.478   3.411   2.396  0.0845  0.2204 -0.1437
 1548SOL    HW214684   1.573   3.532   2.340  0.6160 -0.5758 -0.9798
 1549SOL     OW14685   1.039   6.534   0.674 -0.0883 -0.8225  0.1857
 1549SOL    HW114686   1.107   6.546   0.602  0.2273  0.1025  0.6396
 1549SOL    HW214687   1.082   6.549   0.763 -0.4048 -2.2491  0.6000
 1550SOL     OW14688   0.314   5.165   2.770 -0.8347 -0.1293 -0.1229
 1550SOL    HW114689   0.350   5.106   2.842  0.1454 -0.4910 -0.9083
 1550SOL    HW214690   0.215   5.175   2.782 -0.8623 -1.1600  0.5663
 1551SOL     OW14691   4.843   2.983   0.808 -0.2650  0.1382 -0.3118
 1551SOL    HW114692   4.936   3.019   0.805  0.1032 -0.5939  1.4965
 1551SOL    HW214693   4.777   3.058   0.803  0.4617  0.8642  0.8537
 1552SOL     OW14694   0.325   2.388   1.135  0.2938  0.1562  0.3344
 1552SOL    HW114695   0.264   2.338   1.197 -0.2774  0.5727  0.0983
 1552SOL    HW214696   0.415   2.396   1.178  0.0288  0.0394  0.9172
 1553SOL     OW14697   2.797   4.250   0.901  0.3088  0.2292 -0.5520
 1553SOL    HW114698   2.877   4.228   0.845 -0.6871  1.5361 -2.5367
 1553SOL    HW214699   2.728   4.179   0.891 -0.1851  0.8446 -1.6444
 1554SOL     OW14700   0.421   0.210   2.197  0.1279 -0.4401  0.3991
 1554SOL    HW114701   0.407   0.228   2.294 -0.2501 -0.2256  0.3048
 1554SOL    HW214702   0.335   0.225   2.148 -0.2336 -2.5511  0.3326
 1555SOL     OW14703   0.887   5.057   2.321 -0.3002  0.6285  0.1670
 1555SOL    HW114704   0.802   5.034   2.272 -0.9652 -1.5267  2.1953
 1555SOL    HW214705   0.872   5.139   2.376 -1.2004  0.1068  0.7286
 1556SOL     OW14706   0.558   4.451   0.525  0.7094  0.3338  0.0603
 1556SOL    HW114707   0.472   4.407   0.552  1.0113  0.1651  0.7517
 1556SOL    HW214708   0.620   4.455   0.603  0.6759  2.0289  0.0136
 1557SOL     OW14709   0.849   2.346   1.355  0.8129  0.4968  0.1241
 1557SOL    HW114710   0.823   2.401   1.276 -2.5127 -0.3208  0.5703
 1557SOL    HW214711   0.886   2.406   1.426 -2.3907  2.2234  0.4575
 1558SOL     OW14712   1.013   9.105   0.255  0.1298  0.3990 -0.1985
 1558SOL    HW114713   1.049   9.161   0.330 -0.7832  2.1195 -0.9954
 1558SOL    HW214714   1.083   9.095   0.184  0.8892 -0.9676  0.7300
 1559SOL     OW14715   2.259   6.421   1.801 -0.1885  0.3313 -0.1191
 1559SOL    HW114716   2.176   6.443   1.749 -0.7526  0.3433  0.7692
 1559SOL    HW214717   2.244   6.441   1.897  1.2101  1.2895 -0.0903
 1560SOL     OW14718   0.702   1.458   0.401 -0.2478 -0.4001 -0.1493
 1560SOL    HW114719   0.777   1.429   0.341  0.4424  1.0420 -0.0151
 1560SOL    HW214720   0.674   1.551   0.376 -2.4972 -1.1766 -0.6625
 1561SOL     OW14721   1.706   7.129   0.814  0.8425  0.0634  0.1516
 1561SOL    HW114722   1.649   7.194   0.865  1.3404 -0.1872  1.0394
 1561SOL    HW214723   1.773   7.089   0.875  1.7939  0.1419 -0.8179
 1562SOL     OW14724   2.370   4.963   1.055 -0.1462 -0.4383 -0.2703
 1562SOL    HW114725   2.315   4.988   1.135 -0.4099  2.5764 -1.2948
 1562SOL    HW214726   2.466   4.957   1.081  0.0121  2.3849 -0.0296
 1563SOL     OW14727   1.736   6.723   2.325 -0.0109 -0.6623  0.1544
 1563SOL    HW114728   1.664   6.732   2.256 -0.7203  1.7218  1.1454
 1563SOL    HW214729   1.812   6.784   2.302 -0.5314  0.6447  1.7674
 1564SOL     OW14730   0.915   3.114   2.240  0.4081  0.4346 -0.2936
 1564SOL    HW114731   0.836   3.111   2.179  1.6059  1.2309 -1.8954
 1564SOL    HW214732   0.983   3.047   2.210  0.3715 -0.2503  1.0826
 1565SOL     OW14733   1.668   6.320   2.340 -0.4112  0.3324 -0.2585
 1565SOL    HW114734   1.657   6.304   2.438 -1.9876 -2.1730 -0.7866
 1565SOL    HW214735   1.754   6.280   2.308 -0.4231  0.1808 -0.0971
 1566SOL     OW14736   1.601   7.857   0.261 -0.2221 -0.2684  0.4438
 1566SOL    HW114737   1.527   7.919   0.287 -0.4385  0.3819 -1.5877
 1566SOL    HW214738   1.570   7.799   0.186  1.3895  0.1551 -0.5651
 1567SOL     OW14739   2.069   5.909   0.950  0.2708 -0.6472 -0.3431
 1567SOL    HW114740   2.082   5.991   1.006  0.1973  0.6158 -2.1390
 1567SOL    HW214741   2.155   5.857   0.949  1.6570  1.5381 -2.4783
 1568SOL     OW14742   4.260   1.254   0.587  0.0489  0.5045 -0.0222
 1568SOL    HW114743   4.324   1.302   0.527 -1.0209  1.8686 -0.0957
 1568SOL    HW214744   4.177   1.309   0.598  0.3169  0.4217  2.8998
 1569SOL     OW14745   2.208   9.280   0.112 -0.2387  0.2434  0.1924
 1569SOL    HW114746   2.211   9.310   0.208  0.0476 -0.2236  0.3321
 1569SOL    HW214747   2.289   9.226   0.092 -0.2893  0.3594 -0.3247
 1570SOL     OW14748   1.155   8.555   2.466  0.9437  0.0806  0.0721
 1570SOL    HW114749   1.151   8.502   2.382 -0.7746  0.3410 -0.0384
 1570SOL    HW214750   1.180   8.650   2.444  0.3767  0.1765 -0.1576
 1571SOL     OW14751   0.843   0.536   2.768 -0.2921 -0.0943  0.2535
 1571SOL    HW114752   0.925   0.480   2.754  1.2964  2.2471  0.0160
 1571SOL    HW214753   0.790   0.540   2.683  0.0833 -0.4219  0.0033
 1572SOL     OW14754   3.940   4.274   0.665  0.2834 -0.0148 -0.0639
 1572SOL    HW114755   3.884   4.349   0.630 -1.0737 -0.3014  1.4601
 1572SOL    HW214756   4.018   4.259   0.603  0.1762  2.1500 -0.7614
 1573SOL     OW14757   1.851   8.920   1.244 -0.0445 -0.1009 -0.3674
 1573SOL    HW114758   1.896   8.831   1.237  0.4944  0.1491 -0.1204
 1573SOL    HW214759   1.757   8.912   1.213 -0.1004 -0.8347 -0.0198
 1574SOL     OW14760   3.629   1.133   0.429 -0.2991 -0.0008 -0.1354
 1574SOL    HW114761   3.551   1.156   0.371  0.4582  0.9006 -0.8286
 1574SOL    HW214762   3.681   1.059   0.387 -0.9129 -0.7684  0.4499
 1575SOL     OW14763   1.434   6.829   0.967 -0.0733 -0.1219  0.2447
 1575SOL    HW114764   1.533   6.814   0.962  0.5032  2.8363  1.7861
 1575SOL    HW214765   1.395   6.833   0.875  1.6381  1.1286 -0.4314
 1576SOL     OW14766   3.085   8.391   0.496  0.4606  0.0160 -0.1007
 1576SOL    HW114767   3.137   8.306   0.484  2.2221  0.8915  1.1532
 1576SOL    HW214768   3.082   8.441   0.409  0.4690 -0.7272 -0.5323
 1577SOL     OW14769   0.522   5.719   1.119 -0.2282  0.1990 -0.4739
 1577SOL    HW114770   0.432   5.674   1.114 -0.3556  0.1515  1.6975
 1577SOL    HW214771   0.542   5.741   1.214  2.1949 -0.0324 -0.9150
 1578SOL     OW14772   3.894   0.344   2.107 -0.2574 -0.4567 -0.0243
 1578SOL    HW114773   3.810   0.382   2.067 -0.7727 -1.4203  0.1126
 1578SOL    HW214774   3.872   0.258   2.152  0.6781 -0.3179  0.6886
 1579SOL     OW14775   1.024   0.088   2.639 -0.1882 -0.5418 -0.0043
 1579SOL    HW114776   0.948   0.134   2.684 -0.9208  1.2278 -2.9371
 1579SOL    HW214777   0.993   0.051   2.551  1.8862 -1.4821 -0.3742
 1580SOL     OW14778   3.286   5.085   0.764 -0.1064  0.0383  0.2953
 1580SOL    HW114779   3.313   4.989   0.767  1.5896  0.4901 -0.3537
 1580SOL    HW214780   3.353   5.140   0.814  0.5658  1.2444 -1.8824
 1581SOL     OW14781   1.265   1.898   2.788 -0.1772 -0.5982 -0.3007
 1581SOL    HW114782   1.259   1.798   2.786  1.7221 -0.7790  1.4039
 1581SOL    HW214783   1.333   1.928   2.722  1.7720 -0.6998  1.6231
 1582SOL     OW14784   3.827   1.878   1.744  0.2885  0.3124 -0.0042
 1582SOL    HW114785   3.793   1.913   1.832 -0.2391  2.4295 -1.0049
 1582SOL    HW214786   3.788   1.788   1.727 -0.0421  0.1106  1.6854
 1583SOL     OW14787   1.413   8.278   0.013 -0.9466 -0.9502  0.5069
 1583SOL    HW114788   1.477   8.268   0.090  0.5130 -1.4719 -0.7451
 1583SOL    HW214789   1.413   8.373  -0.017  0.4780 -1.2473 -0.5026
 1584SOL     OW14790   1.882   0.188   0.834  0.0671  0.4647 -0.4540
 1584SOL    HW114791   1.883   0.220   0.740 -0.4010 -1.6623 -1.2204
 1584SOL    HW214792   1.943   0.109   0.843  0.2359  0.7530  1.0648
 1585SOL     OW14793   3.382   0.754   2.290 -0.2958  0.5097 -0.0559
 1585SOL    HW114794   3.316   0.782   2.220 -2.0120 -0.9470  0.9471
 1585SOL    HW214795   3.444   0.830   2.310 -2.8785  2.5602  0.3946
 1586SOL     OW14796   2.630   8.481   0.036 -0.2421  0.5586  0.1213
 1586SOL    HW114797   2.555   8.450   0.095 -0.2414  0.0918 -0.1206
 1586SOL    HW214798   2.630   8.581   0.032 -0.0256  0.6066  1.2027
 1587SOL     OW14799   8.684   2.904   1.315 -0.5491  0.1830  0.3509
 1587SOL    HW114800   8.665   2.996   1.281 -1.7463  0.2752  1.2331
 1587SOL    HW214801   8.755   2.908   1.385  0.3331  0.2632 -0.5340
 1588SOL     OW14802   2.910   4.150   1.590 -0.3899  0.0929  0.5946
 1588SOL    HW114803   2.957   4.234   1.564 -0.2773 -0.0177  0.4417
 1588SOL    HW214804   2.941   4.074   1.533 -1.9900  0.3572 -0.6639
 1589SOL     OW14805   0.066   0.803   0.255  0.1095 -0.2270  0.6192
 1589SOL    HW114806   0.137   0.863   0.219  0.5010  1.0082  3.3283
 1589SOL    HW214807   0.067   0.716   0.205 -0.4996  1.9905 -3.3806
 1590SOL     OW14808   4.340   3.540   2.488 -0.1888  0.0487 -0.4049
 1590SOL    HW114809   4.351   3.628   2.534  2.6693 -0.4960  0.0439
 1590SOL    HW214810   4.304   3.472   2.553 -0.5319  0.4085 -0.2203
 1591SOL     OW14811   3.515   2.957   1.068 -0.1270 -0.6072 -0.0996
 1591SOL    HW114812   3.594   2.908   1.107  0.0077 -0.5943 -0.3554
 1591SOL    HW214813   3.432   2.904   1.084 -0.0763 -0.5909  0.2295
 1592SOL     OW14814   0.291   3.814   1.374  0.5965  0.2007 -0.1282
 1592SOL    HW114815   0.367   3.756   1.343  0.8436 -0.0477  0.9055
 1592SOL    HW214816   0.273   3.885   1.306  2.5887  1.0335  0.1825
 1593SOL     OW14817   2.452   8.993   1.391  0.3781 -0.0792 -0.5523
 1593SOL    HW114818   2.429   9.066   1.326  0.1931  0.1454 -0.2410
 1593SOL    HW214819   2.511   9.030   1.462 -0.2910 -0.0563 -0.0018
 1594SOL     OW14820   1.126   0.535   1.402  0.7644  0.2223 -0.2318
 1594SOL    HW114821   1.026   0.537   1.399  0.7018 -0.0885  1.0541
 1594SOL    HW214822   1.162   0.628   1.401  0.4629  0.3341 -0.6915
 1595SOL     OW14823   3.163   1.227   2.634 -0.3127 -0.7580 -0.2643
 1595SOL    HW114824   3.251   1.249   2.591 -0.9062  0.5092 -0.8516
 1595SOL    HW214825   3.104   1.307   2.631 -1.3569 -1.4967  0.4693
 1596SOL     OW14826   1.585   6.520   0.782  0.2528  0.3944 -0.7490
 1596SOL    HW114827   1.629   6.533   0.693 -0.6365 -0.2858 -1.3023
 1596SOL    HW214828   1.637   6.453   0.835 -0.1721 -0.5210 -1.4605
 1597SOL     OW14829   2.477   3.460   0.716  0.1734 -0.4694  0.1563
 1597SOL    HW114830   2.546   3.467   0.644 -1.0777 -1.4020 -1.1463
 1597SOL    HW214831   2.488   3.374   0.765  0.2446 -0.3802  0.3013
 1598SOL     OW14832   0.306   4.433   1.895  0.0107 -0.2274  0.9794
 1598SOL    HW114833   0.398   4.399   1.912 -0.0519 -0.6988  0.3958
 1598SOL    HW214834   0.311   4.528   1.863  0.3182 -0.3408  0.6809
 1599SOL     OW14835   2.063   3.823   2.489 -0.0131  0.2657 -0.4944
 1599SOL    HW114836   1.984   3.883   2.507  0.0227 -0.1371  1.0301
 1599SOL    HW214837   2.145   3.863   2.529  0.4154  0.2361 -1.3208
 1600SOL     OW14838   1.330   5.491   0.139 -0.0833  0.3331  0.3064
 1600SOL    HW114839   1.334   5.399   0.100  2.5162  0.3293  0.4797
 1600SOL    HW214840   1.318   5.557   0.065 -1.9708 -0.1251  0.1815
 1601SOL     OW14841   4.625   2.594   1.076 -0.2306 -0.5527  0.2145
 1601SOL    HW114842   4.705   2.636   1.034 -0.8046  0.9466  0.5966
 1601SOL    HW214843   4.554   2.663   1.089 -1.4051 -1.7660  0.3258
 1602SOL     OW14844   2.246   5.384   0.125  0.5642  0.6136 -0.1205
 1602SOL    HW114845   2.160   5.396   0.075  0.5380 -2.3365 -0.8342
 1602SOL    HW214846   2.226   5.360   0.220  0.6186  1.4453  0.1062
 1603SOL     OW14847   9.530   1.164   1.173  0.2666  0.8034 -0.5126
 1603SOL    HW114848   9.577   1.232   1.228 -0.1020  1.1177 -0.5793
 1603SOL    HW214849   9.540   1.186   1.076 -0.8014  1.4043 -0.4955
 1604SOL     OW14850   2.719   3.516   0.058  0.2742 -0.1861  0.1207
 1604SOL    HW114851   2.725   3.610   0.092  1.6286 -0.2933  0.2007
 1604SOL    HW214852   2.648   3.511  -0.013  0.2322  0.9018  0.0768
 1605SOL     OW14853   1.145   8.921   1.148 -0.0292 -0.9167  0.5931
 1605SOL    HW114854   1.206   8.971   1.209 -2.0752  1.1015  1.0782
 1605SOL    HW214855   1.081   8.866   1.203 -0.4758 -0.7913  0.2010
 1606SOL     OW14856   0.762   6.124   0.143  0.1382 -0.0160  0.7694
 1606SOL    HW114857   0.794   6.194   0.207  2.2133  1.0089 -1.3482
 1606SOL    HW214858   0.785   6.033   0.179  3.0078  0.6127  0.5887
 1607SOL     OW14859   9.185   0.925   0.528 -0.1254  0.1089  0.2108
 1607SOL    HW114860   9.146   0.924   0.620 -0.2849 -2.5397  0.1432
 1607SOL    HW214861   9.117   0.892   0.463  1.8111 -3.5226 -0.0512
 1608SOL     OW14862   1.660   4.543   0.260 -0.4577  0.2245  0.3851
 1608SOL    HW114863   1.586   4.611   0.254 -1.2050 -0.6574 -0.5522
 1608SOL    HW214864   1.620   4.452   0.274  0.3265 -0.5809 -2.2991
 1609SOL     OW14865   1.180   1.717   2.343  0.0090  0.5348 -0.3646
 1609SOL    HW114866   1.273   1.678   2.342 -0.3719 -0.3899 -0.4654
 1609SOL    HW214867   1.115   1.645   2.367 -0.6561  1.2483 -0.0272
 1610SOL     OW14868   1.270   5.702   0.829 -0.1421  1.0037 -0.5941
 1610SOL    HW114869   1.199   5.718   0.896  0.2281 -0.3096  0.1324
 1610SOL    HW214870   1.234   5.644   0.755  0.3758 -0.3208  0.1754
 1611SOL     OW14871   1.508   1.611   2.259 -0.5445  0.8609 -0.3933
 1611SOL    HW114872   1.425   1.561   2.235  1.1950 -2.1034 -0.3983
 1611SOL    HW214873   1.554   1.640   2.176  0.8463 -1.6196 -0.5164
 1612SOL     OW14874   8.434   3.756   0.449 -0.3753  0.6804 -0.2637
 1612SOL    HW114875   8.509   3.759   0.383 -0.4872  0.4605 -0.3987
 1612SOL    HW214876   8.399   3.849   0.463 -0.9160  0.6179 -1.1542
 1613SOL     OW14877   1.572   5.979   1.361  0.0113 -0.4349 -0.0058
 1613SOL    HW114878   1.572   5.882   1.385  0.3046  0.0243  1.9517
 1613SOL    HW214879   1.492   6.024   1.401  0.0770  0.2214 -0.5810
 1614SOL     OW14880   2.803   6.859   1.194  0.0482 -0.4627  0.1589
 1614SOL    HW114881   2.770   6.796   1.264 -0.2118 -0.3335  0.1548
 1614SOL    HW214882   2.799   6.814   1.105 -0.5850 -0.2853  0.0912
 1615SOL     OW14883   2.515   9.257   2.295  0.0316 -0.1346 -0.2818
 1615SOL    HW114884   2.606   9.285   2.263 -0.7130  2.8398  0.0348
 1615SOL    HW214885   2.459   9.229   2.218  0.4584  0.3479 -0.7681
 1616SOL     OW14886   8.702   4.384   2.520  0.3636  0.1725  0.3346
 1616SOL    HW114887   8.776   4.451   2.511  0.8514 -0.4665 -0.4640
 1616SOL    HW214888   8.631   4.404   2.453  1.0453 -0.7938 -0.6830
 1617SOL     OW14889   9.846   0.471   1.760  0.0862 -0.5916 -0.3234
 1617SOL    HW114890   9.883   0.402   1.698  1.3306 -0.7230  0.5520
 1617SOL    HW214891   9.919   0.531   1.792 -0.8776  0.7773 -0.5991
 1618SOL     OW14892   3.634   1.661   1.769 -1.1033  0.2025  0.0882
 1618SOL    HW114893   3.703   1.589   1.759 -0.9961  0.0931  1.5124
 1618SOL    HW214894   3.543   1.620   1.771 -0.9882  0.0078  1.8343
 1619SOL     OW14895   7.996   2.278   0.910 -0.5078 -0.1845 -0.8123
 1619SOL    HW114896   8.031   2.350   0.970  2.6446 -1.0211 -1.5783
 1619SOL    HW214897   7.896   2.278   0.913 -0.4866  2.2753  1.4657
 1620SOL     OW14898   0.220   3.511   2.565  0.3624 -0.0384  0.2189
 1620SOL    HW114899   0.198   3.608   2.577 -1.4236 -0.5427  1.1738
 1620SOL    HW214900   0.279   3.481   2.640  2.0888  0.6191 -0.8274
 1621SOL     OW14901   8.812   2.230   2.138 -0.4029  0.0104 -0.0860
 1621SOL    HW114902   8.912   2.227   2.128 -0.4253 -0.3558 -0.2097
 1621SOL    HW214903   8.784   2.324   2.157 -0.0749  0.1891 -0.4758
 1622SOL     OW14904   1.280   2.630   1.670  0.6204 -0.0801 -0.5289
 1622SOL    HW114905   1.211   2.621   1.742  0.9000 -0.0921 -0.2597
 1622SOL    HW214906   1.320   2.541   1.650  0.8079 -0.0189 -0.4334
 1623SOL     OW14907   9.578   5.011   0.807 -0.0255 -0.0174  0.2801
 1623SOL    HW114908   9.557   4.913   0.811 -1.5994  0.3369  1.2738
 1623SOL    HW214909   9.514   5.056   0.744 -0.2926  0.5905  0.9740
 1624SOL     OW14910   1.393   5.226   0.918  0.0808  0.3191 -0.0071
 1624SOL    HW114911   1.416   5.297   0.851  1.4849  1.3167  1.5051
 1624SOL    HW214912   1.476   5.196   0.965 -0.8359 -0.6702  1.0100
 1625SOL     OW14913   0.406   0.533   2.162  0.2411 -0.1055  0.4083
 1625SOL    HW114914   0.400   0.433   2.170  2.0985 -0.2649 -0.0117
 1625SOL    HW214915   0.440   0.571   2.248 -0.4165  0.1590  0.5504
 1626SOL     OW14916   1.568   6.582   0.130  0.4359 -0.3109  0.4905
 1626SOL    HW114917   1.530   6.492   0.151 -1.1919  0.3522  0.4915
 1626SOL    HW214918   1.655   6.594   0.179 -1.1281 -0.4841  3.4655
 1627SOL     OW14919   3.589   3.494   0.629  0.8750  0.2861  0.5617
 1627SOL    HW114920   3.645   3.462   0.705 -0.2044 -0.4825  1.0541
 1627SOL    HW214921   3.585   3.423   0.559 -0.2305 -0.0387  0.9433
 1628SOL     OW14922   3.768   9.583   0.536 -0.2767  0.1464  0.0263
 1628SOL    HW114923   3.692   9.619   0.590 -0.5928 -1.0314  0.3892
 1628SOL    HW214924   3.766   9.483   0.538  1.1216  0.1016 -0.1959
 1629SOL     OW14925   1.737   6.977   1.954  0.3026 -0.3514  0.7808
 1629SOL    HW114926   1.709   6.913   1.882  1.7051  0.1332 -0.2045
 1629SOL    HW214927   1.803   7.042   1.917 -1.5085  2.0212  1.6435
 1630SOL     OW14928   1.479   8.960   1.078 -0.1737 -0.2975  0.1297
 1630SOL    HW114929   1.395   8.983   1.028 -0.8103 -0.3112  1.1837
 1630SOL    HW214930   1.524   8.882   1.034 -1.3217 -1.0320  0.2459
 1631SOL     OW14931   1.257   8.404   1.596 -0.7288  0.1613  0.2632
 1631SOL    HW114932   1.275   8.315   1.639  1.3298  0.7040  0.5836
 1631SOL    HW214933   1.333   8.466   1.616 -1.3660  1.4798 -1.3366
 1632SOL     OW14934   3.828   8.792   2.074 -0.1698 -0.2294 -0.5522
 1632SOL    HW114935   3.784   8.847   2.003  1.9927 -2.0636 -3.4445
 1632SOL    HW214936   3.844   8.699   2.040  2.1805 -0.7700  1.8164
 1633SOL     OW14937   2.547   9.718   1.792 -0.0894  0.0042 -0.1163
 1633SOL    HW114938   2.518   9.634   1.838 -3.2742  0.6631 -0.8412
 1633SOL    HW214939   2.592   9.695   1.705  0.9912 -1.0112  0.6978
 1634SOL     OW14940   9.396   4.291   2.416  0.3830 -0.1625 -0.5715
 1634SOL    HW114941   9.382   4.207   2.467 -2.2298  0.1299 -0.6986
 1634SOL    HW214942   9.350   4.284   2.327  1.3237  0.8719 -1.1486
 1635SOL     OW14943   2.674   4.391   2.490  0.2305  0.2526 -0.2249
 1635SOL    HW114944   2.615   4.439   2.426  0.9579  0.6069 -0.6309
 1635SOL    HW214945   2.619   4.331   2.548 -0.4047 -0.2554 -1.3488
 1636SOL     OW14946   0.597   4.964   2.215  0.5253 -0.1164  0.1698
 1636SOL    HW114947   0.563   5.058   2.224 -0.0614 -0.3837  0.7354
 1636SOL    HW214948   0.531   4.909   2.164  0.5456 -0.4056  0.4555
 1637SOL     OW14949   1.996   6.794   0.767  0.3604  0.7168  0.2081
 1637SOL    HW114950   1.921   6.802   0.702 -0.4927 -2.6835  0.6774
 1637SOL    HW214951   2.081   6.773   0.719  0.5401  2.0830 -0.0995
 1638SOL     OW14952   2.635   7.531   1.314  0.3010  0.0985 -0.5485
 1638SOL    HW114953   2.692   7.463   1.269  0.4714  1.2281 -2.1163
 1638SOL    HW214954   2.692   7.591   1.371  0.6202  0.8207 -1.5997
 1639SOL     OW14955   3.877   8.347   1.052 -0.3387  0.0131  0.3098
 1639SOL    HW114956   3.882   8.444   1.072  0.0887 -0.1839  1.2058
 1639SOL    HW214957   3.833   8.333   0.963 -2.0865  0.9435  0.9964
 1640SOL     OW14958   7.883   1.790   0.313  0.3119 -0.5015 -0.1271
 1640SOL    HW114959   7.918   1.829   0.228  0.0455 -1.4042 -0.6686
 1640SOL    HW214960   7.958   1.751   0.365  0.1682 -2.4597 -1.2998
 1641SOL     OW14961   9.499   3.975   1.482 -0.2089 -0.5825  0.0126
 1641SOL    HW114962   9.507   4.073   1.500  0.5537 -0.6543  0.0652
 1641SOL    HW214963   9.527   3.955   1.388 -0.3286 -0.7585  0.0125
 1642SOL     OW14964   2.298   1.403   1.578  0.3172 -0.1406  0.1636
 1642SOL    HW114965   2.373   1.469   1.582  0.0067  0.2160  0.1040
 1642SOL    HW214966   2.317   1.336   1.506  0.0174  0.6383 -0.6406
 1643SOL     OW14967   1.780   8.236   0.199 -0.1984 -0.0475 -0.3469
 1643SOL    HW114968   1.692   8.251   0.244 -0.1217 -0.3844 -0.0835
 1643SOL    HW214969   1.845   8.306   0.229 -0.3382  0.1198 -0.4378
 1644SOL     OW14970   9.521   4.620   1.730  0.0700 -0.3232 -0.2823
 1644SOL    HW114971   9.497   4.532   1.771 -1.2693  0.3745  0.4765
 1644SOL    HW214972   9.503   4.693   1.796 -1.0826  0.7263 -1.7388
 1645SOL     OW14973   1.547   5.544   2.045  0.7437  0.0601  0.0906
 1645SOL    HW114974   1.575   5.609   1.975  0.3128  0.8309  0.6241
 1645SOL    HW214975   1.468   5.491   2.012  0.9052  0.0143 -0.2241
 1646SOL     OW14976   9.648   1.754   2.406  0.7614  0.7524  0.3227
 1646SOL    HW114977   9.739   1.789   2.382  0.6858  0.7452  0.0242
 1646SOL    HW214978   9.592   1.828   2.441  0.6464  0.9036 -0.1756
 1647SOL     OW14979   2.363   9.142   2.085 -0.6053 -0.3744  0.5935
 1647SOL    HW114980   2.296   9.216   2.096 -0.3801 -0.2183  0.9116
 1647SOL    HW214981   2.316   9.058   2.057 -0.6267  0.3906 -1.7461
 1648SOL     OW14982   0.807   7.058   1.971  0.0289 -0.4462 -0.3398
 1648SOL    HW114983   0.780   7.027   2.062 -1.0444  2.0177  0.2192
 1648SOL    HW214984   0.725   7.068   1.913  0.2638  1.8092 -0.3244
 1649SOL     OW14985   0.977   2.149   1.171 -0.1744  0.3958  0.0213
 1649SOL    HW114986   0.917   2.175   1.247  0.6865  2.9239 -0.1257
 1649SOL    HW214987   0.968   2.215   1.096  0.9209 -0.6000 -1.0223
 1650SOL     OW14988   2.445   3.188   1.106  0.4593  0.2788 -0.4515
 1650SOL    HW114989   2.435   3.104   1.159  1.4110  0.9421  0.8022
 1650SOL    HW214990   2.358   3.237   1.105 -0.2342 -0.9511 -1.5971
 1651SOL     OW14991   0.803   2.316   1.859  0.3650  0.8294  0.5616
 1651SOL    HW114992   0.704   2.320   1.872  0.3771 -0.1088  0.9480
 1651SOL    HW214993   0.832   2.221   1.852  1.0640  1.1275 -0.9019
 1652SOL     OW14994   3.533   2.514   2.068  0.0821 -0.0926  0.2070
 1652SOL    HW114995   3.549   2.455   1.989  3.1330  0.8436  0.0522
 1652SOL    HW214996   3.582   2.477   2.147 -0.9271  0.3138  1.0244
 1653SOL     OW14997   2.219   3.352   1.092  0.0199  0.6125  0.2323
 1653SOL    HW114998   2.178   3.351   1.183 -0.6102  2.1094 -0.0267
 1653SOL    HW214999   2.203   3.440   1.049  0.2202 -0.1146 -1.3804
 1654SOL     OW15000   1.528   7.478   2.627 -0.0662  0.3381  0.3888
 1654SOL    HW115001   1.510   7.442   2.719  0.8057  1.3425  0.9601
 1654SOL    HW215002   1.622   7.459   2.601  0.6347  2.7204  0.9807
 1655SOL     OW15003   3.366   4.324   0.239  0.1803  0.1513 -0.5537
 1655SOL    HW115004   3.298   4.345   0.169  0.8503  0.9653 -0.9718
 1655SOL    HW215005   3.323   4.329   0.330 -0.8162 -1.4537 -0.9309
 1656SOL     OW15006   2.492   5.573   0.279 -0.0658 -0.1353  0.3238
 1656SOL    HW115007   2.500   5.572   0.179 -1.7993 -1.1638  0.1879
 1656SOL    HW215008   2.523   5.486   0.316  1.2864  0.5109  0.7701
 1657SOL     OW15009   1.018   7.102   0.107 -0.2202 -0.4958 -0.1422
 1657SOL    HW115010   1.094   7.163   0.127  0.5392 -1.3232 -0.4543
 1657SOL    HW215011   0.986   7.058   0.191 -0.8934  0.4656  0.1099
 1658SOL     OW15012   2.339   1.987   0.041  0.8895  0.2019 -0.0555
 1658SOL    HW115013   2.240   1.974   0.051  1.2576 -2.1985  1.0094
 1658SOL    HW215014   2.367   1.957  -0.050  0.7585 -0.0624 -0.0124
 1659SOL     OW15015   4.094   0.784   2.395 -0.8108  0.1357 -0.3506
 1659SOL    HW115016   4.046   0.871   2.406 -1.8081 -0.2402 -1.6438
 1659SOL    HW215017   4.163   0.793   2.323 -1.3277 -0.3142 -0.9059
 1660SOL     OW15018   8.555   1.892   1.844 -0.0125  0.2352  0.2093
 1660SOL    HW115019   8.604   1.878   1.758 -0.3011  0.0945  0.0638
 1660SOL    HW215020   8.565   1.987   1.874  1.2326 -0.0593  0.7467
 1661SOL     OW15021   1.695   4.390   0.801 -0.0442 -0.1908 -0.1431
 1661SOL    HW115022   1.750   4.347   0.729  2.9043  1.5561  0.9583
 1661SOL    HW215023   1.742   4.381   0.889 -0.5635  2.9245  0.5279
 1662SOL     OW15024   8.628   0.702   2.070 -0.4001 -0.7062  0.0899
 1662SOL    HW115025   8.605   0.639   1.997 -3.0374 -1.0653  1.1606
 1662SOL    HW215026   8.671   0.652   2.146  0.5358 -0.6454 -0.3897
 1663SOL     OW15027   4.038   2.876   2.649  0.0567  0.2672 -0.2512
 1663SOL    HW115028   3.999   2.784   2.639 -0.3469  0.4891 -0.7455
 1663SOL    HW215029   4.138   2.871   2.640  0.2289 -0.4100  1.7648
 1664SOL     OW15030   2.251   9.614   2.496 -0.2044 -0.0065  0.2658
 1664SOL    HW115031   2.152   9.597   2.488 -0.0704 -0.3956 -0.7871
 1664SOL    HW215032   2.296   9.530   2.527 -0.2281  0.2303  0.9419
 1665SOL     OW15033   9.967   1.881   1.328 -0.6774  0.1143  0.1270
 1665SOL    HW115034   9.897   1.946   1.359 -0.9185  0.8206 -1.8233
 1665SOL    HW215035  10.053   1.930   1.313 -0.4680 -0.2826  0.0336
 1666SOL     OW15036   1.362   7.941   0.939  0.4232  0.0638  0.7168
 1666SOL    HW115037   1.377   7.847   0.967  0.9285  0.0069  0.2680
 1666SOL    HW215038   1.264   7.960   0.936  0.2179 -1.1998 -1.6647
 1667SOL     OW15039   9.710   2.648   1.258  0.1027  0.5743 -0.4196
 1667SOL    HW115040   9.719   2.670   1.161  1.0149 -0.5819 -0.6080
 1667SOL    HW215041   9.618   2.673   1.290 -1.3133 -1.8954 -2.3722
 1668SOL     OW15042   1.849   7.265   1.601 -0.0247 -0.3280  0.0396
 1668SOL    HW115043   1.756   7.297   1.618 -0.0548  0.2863 -1.1922
 1668SOL    HW215044   1.888   7.317   1.525  1.1922 -0.8398  0.3107
 1669SOL     OW15045   2.846   7.426   1.499 -0.3081 -0.1607  0.0573
 1669SOL    HW115046   2.924   7.365   1.488 -0.0511  0.3704 -1.1292
 1669SOL    HW215047   2.773   7.378   1.547  0.4747 -0.8914  0.5350
 1670SOL     OW15048   3.421   3.403   0.161  0.8672  0.3438  0.1596
 1670SOL    HW115049   3.399   3.326   0.100  0.6557  1.0826 -0.7047
 1670SOL    HW215050   3.365   3.398   0.243  1.4101 -0.8693  0.4710
 1671SOL     OW15051   0.839   1.958   2.763  0.6546  0.3720 -0.6388
 1671SOL    HW115052   0.755   1.954   2.710  1.4088  1.2871 -1.9394
 1671SOL    HW215053   0.882   1.868   2.765  1.4326  0.6734 -2.9405
 1672SOL     OW15054   0.666   9.832   0.060  0.1680 -0.3799  0.4765
 1672SOL    HW115055   0.747   9.790   0.019  0.7797  0.5720  0.6976
 1672SOL    HW215056   0.591   9.765   0.061  1.2017 -1.5654  1.0970
 1673SOL     OW15057   7.987   1.875   1.666 -0.6191 -0.6060  0.2152
 1673SOL    HW115058   8.057   1.943   1.686 -1.8092  1.1245 -1.3278
 1673SOL    HW215059   8.027   1.801   1.612 -0.2338  1.0611 -1.8509
 1674SOL     OW15060   1.682   1.895   1.062 -0.1940  0.1694 -0.0255
 1674SOL    HW115061   1.583   1.883   1.072 -0.1631  0.0705  0.1660
 1674SOL    HW215062   1.717   1.829   0.996  0.0384 -1.0918  1.3208
 1675SOL     OW15063   1.975   3.368   1.718  0.2550 -0.4247 -0.0209
 1675SOL    HW115064   2.059   3.350   1.666 -1.7270 -1.0252 -3.0964
 1675SOL    HW215065   1.955   3.289   1.777  2.5973  0.3233  1.8524
 1676SOL     OW15066   1.377   8.163   2.272  0.1605  0.1012  0.6851
 1676SOL    HW115067   1.304   8.174   2.339  0.1680 -0.5458  0.8067
 1676SOL    HW215068   1.441   8.093   2.304 -1.0723 -1.8742 -1.0574
 1677SOL     OW15069   8.381   3.423   2.372 -0.5694  0.5463  0.0166
 1677SOL    HW115070   8.466   3.388   2.333  0.4877  2.5099  0.4829
 1677SOL    HW215071   8.371   3.390   2.465  0.8346  2.1115  0.7423
 1678SOL     OW15072   9.373   2.396   1.309 -0.1332  0.8152  0.4450
 1678SOL    HW115073   9.327   2.398   1.220  0.0107  1.0148  0.3745
 1678SOL    HW215074   9.421   2.309   1.320  0.7582  1.2364 -0.1327
 1679SOL     OW15075   9.267   3.086   0.017 -0.7571  0.3155 -0.1309
 1679SOL    HW115076   9.261   3.045  -0.074 -0.7130 -0.3348  0.1535
 1679SOL    HW215077   9.345   3.047   0.066 -0.0891  1.4996 -0.2236
 1680SOL     OW15078   9.171   0.835   2.073  0.0501  0.6828 -0.0775
 1680SOL    HW115079   9.104   0.852   2.002  0.2032 -1.0877 -0.6625
 1680SOL    HW215080   9.129   0.785   2.148  0.3377  0.9597  0.2753
 1681SOL     OW15081   1.643   7.535   0.852 -0.4191  1.1145  0.6967
 1681SOL    HW115082   1.741   7.546   0.835 -0.3148  0.2363  0.7348
 1681SOL    HW215083   1.597   7.511   0.767 -0.6179  1.5972  0.6642
 1682SOL     OW15084   1.976   5.398   0.043 -0.3157  0.4146 -0.4509
 1682SOL    HW115085   1.883   5.368   0.021 -0.3810  0.9135 -0.8622
 1682SOL    HW215086   1.973   5.489   0.084  0.0881  0.9466 -1.5885
 1683SOL     OW15087   8.506   3.713   1.535  0.2450 -0.5613 -0.2875
 1683SOL    HW115088   8.576   3.642   1.538 -0.2040 -1.0953 -1.8426
 1683SOL    HW215089   8.431   3.683   1.476 -0.2430  0.9487 -0.4530
 1684SOL     OW15090   0.040   2.170   1.602 -0.4504  0.2114  0.1543
 1684SOL    HW115091   0.044   2.076   1.567 -0.0872  0.3296 -0.1287
 1684SOL    HW215092   0.100   2.228   1.547 -0.6406  0.6008  0.3572
 1685SOL     OW15093   2.541   8.900   2.223 -0.2749  0.4830 -0.1800
 1685SOL    HW115094   2.600   8.853   2.289 -0.9601 -0.5554 -0.2840
 1685SOL    HW215095   2.480   8.962   2.271 -0.4666  0.0607  0.1303
 1686SOL     OW15096   4.051   1.432   1.935  0.1967  0.4396 -0.0040
 1686SOL    HW115097   4.086   1.428   2.029 -0.3907  3.0010  0.3583
 1686SOL    HW215098   4.038   1.339   1.901  0.0991 -0.5442  2.5656
 1687SOL     OW15099   2.230   8.356   1.372  0.6570  0.8224 -0.2411
 1687SOL    HW115100   2.270   8.279   1.421  2.7882  2.1364  0.1980
 1687SOL    HW215101   2.161   8.324   1.308 -0.9619 -1.1005  2.3960
 1688SOL     OW15102   1.488   9.817   1.448  0.1095 -0.6521 -0.0489
 1688SOL    HW115103   1.472   9.795   1.544 -3.0606  0.2970 -0.3127
 1688SOL    HW215104   1.426   9.764   1.390 -0.3576  1.2637 -1.3453
 1689SOL     OW15105   0.262   5.311   2.109 -0.2120 -0.5353 -0.2659
 1689SOL    HW115106   0.199   5.389   2.110 -1.1227 -1.1688 -2.8707
 1689SOL    HW215107   0.209   5.226   2.115  0.4089 -1.0677 -2.0942
 1690SOL     OW15108   0.896   0.315   0.179 -0.1097  0.0486  0.2041
 1690SOL    HW115109   0.879   0.376   0.102 -0.9310 -1.3478 -0.7375
 1690SOL    HW215110   0.989   0.278   0.172 -0.8816 -1.7031 -1.3046
 1691SOL     OW15111   2.792   7.216   2.067 -0.7666 -0.1439  0.3037
 1691SOL    HW115112   2.782   7.308   2.030  1.4637  0.2397  0.5737
 1691SOL    HW215113   2.710   7.191   2.118 -1.3969  1.6841  0.2027
 1692SOL     OW15114   0.498   1.427   0.003  0.2312 -0.6861  0.1611
 1692SOL    HW115115   0.582   1.475  -0.019 -1.1502  1.3863 -0.7081
 1692SOL    HW215116   0.512   1.328  -0.007  3.0661 -0.5072  1.9116
 1693SOL     OW15117   0.576   4.896   1.644  0.8457  0.0109 -0.5991
 1693SOL    HW115118   0.535   4.977   1.684  1.1889 -0.5254  0.8462
 1693SOL    HW215119   0.516   4.861   1.572 -0.6309 -0.0331  0.6281
 1694SOL     OW15120   0.378   5.595   0.829  0.2468  0.1402  0.1507
 1694SOL    HW115121   0.363   5.543   0.913  1.4771  1.1149  0.9875
 1694SOL    HW215122   0.335   5.685   0.837 -2.8400 -1.0918 -1.7159
 1695SOL     OW15123   0.878   1.830   1.051  0.5085 -0.3879  0.1209
 1695SOL    HW115124   0.922   1.746   1.019  0.0013 -0.6606  0.1338
 1695SOL    HW215125   0.936   1.908   1.029  0.7586 -0.6958 -0.3267
 1696SOL     OW15126   1.750   2.557   2.601  0.9409  0.0781  0.2934
 1696SOL    HW115127   1.762   2.619   2.679 -0.7440  0.4339  0.3006
 1696SOL    HW215128   1.839   2.520   2.573  1.6360  0.4040  2.0073
 1697SOL     OW15129   2.118   1.693   0.689  0.3486  0.8660  0.1248
 1697SOL    HW115130   2.119   1.768   0.755 -0.4807 -0.0505  1.2039
 1697SOL    HW215131   2.204   1.693   0.638  1.0854  1.4850  1.3213
 1698SOL     OW15132   0.505   1.037   2.109 -0.5976  0.4450 -0.3041
 1698SOL    HW115133   0.600   1.020   2.135  0.0679  1.2446 -2.1102
 1698SOL    HW215134   0.480   1.130   2.133 -0.4311  0.7260 -1.1983
 1699SOL     OW15135   1.792   3.400   0.981 -0.0011  0.6494 -0.4868
 1699SOL    HW115136   1.718   3.463   1.004 -0.5340  0.6044 -1.9560
 1699SOL    HW215137   1.753   3.309   0.965  0.4694  0.4610 -0.5553
 1700SOL     OW15138   3.972   2.619   2.574 -0.1603 -0.0324  0.0292
 1700SOL    HW115139   3.880   2.581   2.580  0.0653 -0.5979 -0.0091
 1700SOL    HW215140   4.037   2.554   2.614  0.2218  0.3651  0.0604
 1701SOL     OW15141   8.468   2.373   2.027 -0.2924  0.0801 -0.1869
 1701SOL    HW115142   8.457   2.374   2.126  0.1205  0.7353 -0.1454
 1701SOL    HW215143   8.411   2.443   1.985  1.2552  1.3582 -0.2190
 1702SOL     OW15144   3.893   1.155   0.847 -0.1639 -0.3434 -0.2538
 1702SOL    HW115145   3.868   1.141   0.942 -1.1813  0.9976 -0.2996
 1702SOL    HW215146   3.915   1.068   0.804  1.7580 -0.7900  1.6015
 1703SOL     OW15147   2.806   2.535   1.052  0.0466  0.3886 -0.1153
 1703SOL    HW115148   2.892   2.485   1.046 -0.1843  0.1335 -1.3846
 1703SOL    HW215149   2.739   2.494   0.990 -0.8688  0.8419  0.5495
 1704SOL     OW15150   3.382   1.166   1.633 -0.1683  0.2684 -0.7170
 1704SOL    HW115151   3.361   1.073   1.604 -1.1118  0.1962  0.1716
 1704SOL    HW215152   3.480   1.183   1.623 -0.4673  0.2817 -4.0201
 1705SOL     OW15153   1.851   7.476   2.805  0.3838  0.1438 -0.1173
 1705SOL    HW115154   1.822   7.555   2.858 -0.7609  1.0594 -2.0213
 1705SOL    HW215155   1.941   7.494   2.764 -1.3482  1.9902 -3.3851
 1706SOL     OW15156   2.843   9.709   1.863 -0.6107 -0.9405 -0.8324
 1706SOL    HW115157   2.791   9.636   1.818 -3.6668  0.9621 -0.4839
 1706SOL    HW215158   2.840   9.792   1.807 -0.8003  0.1851  0.8181
 1707SOL     OW15159   0.440   5.894   1.776  0.0269 -0.0528  0.2052
 1707SOL    HW115160   0.414   5.979   1.822 -0.4489  1.3787 -2.6487
 1707SOL    HW215161   0.365   5.864   1.717  2.6833  1.1629 -3.9340
 1708SOL     OW15162   2.525   0.410   1.473 -0.1632 -0.2329 -0.7705
 1708SOL    HW115163   2.460   0.466   1.421 -1.2914  0.2745  1.1291
 1708SOL    HW215164   2.596   0.375   1.412 -2.2172 -0.7824 -2.8988
 1709SOL     OW15165   1.358   3.525   1.522  0.5137 -0.1137  0.1929
 1709SOL    HW115166   1.319   3.603   1.474 -2.0868 -0.5241  1.5683
 1709SOL    HW215167   1.458   3.527   1.513  0.4314  2.8291 -0.5671
 1710SOL     OW15168   3.846   3.520   0.873  0.3861  0.1427 -0.1926
 1710SOL    HW115169   3.796   3.490   0.954 -0.0745 -0.9085 -0.8586
 1710SOL    HW215170   3.934   3.472   0.868 -0.9440 -2.2021 -2.0053
 1711SOL     OW15171   1.031   6.608   1.724 -0.3899  0.3060  0.4487
 1711SOL    HW115172   1.012   6.526   1.670  1.5321  0.0333  0.1407
 1711SOL    HW215173   1.024   6.587   1.821 -1.6362  0.2225  0.3400
 1712SOL     OW15174   1.940   9.586   2.531  0.2818  0.0937 -0.3084
 1712SOL    HW115175   1.856   9.556   2.575  1.4464 -0.6967  1.4118
 1712SOL    HW215176   1.942   9.686   2.526 -0.6120  0.1225 -0.0779
 1713SOL     OW15177   1.209   6.266   1.854 -0.1608  0.2565  0.3357
 1713SOL    HW115178   1.174   6.208   1.779  0.7637 -1.8154  1.4633
 1713SOL    HW215179   1.280   6.326   1.818  1.4887 -1.9215 -0.1486
 1714SOL     OW15180   2.242   2.893   1.903 -0.1258 -0.2224 -0.4372
 1714SOL    HW115181   2.170   2.826   1.881  0.4064 -0.4329 -1.5967
 1714SOL    HW215182   2.276   2.877   1.995  1.1244 -2.6115 -1.2796
 1715SOL     OW15183   9.461   4.909   1.249 -0.0691 -0.0661  0.3232
 1715SOL    HW115184   9.417   4.985   1.201 -0.5773 -1.3478 -1.2922
 1715SOL    HW215185   9.561   4.918   1.240 -0.1640 -0.4685 -1.2932
 1716SOL     OW15186   1.823   8.935   2.525  0.0531 -0.0033  0.6253
 1716SOL    HW115187   1.825   8.840   2.495  0.2282  0.1271  0.2278
 1716SOL    HW215188   1.849   8.995   2.449  0.5752  0.3211  1.0561
 1717SOL     OW15189   3.041   8.870   0.483 -0.3886  0.1032 -0.6522
 1717SOL    HW115190   3.012   8.775   0.476 -1.7747  0.5432 -1.2221
 1717SOL    HW215191   3.033   8.914   0.393 -1.3211  1.1767 -0.0695
 1718SOL     OW15192   9.816   4.493   2.385  0.4978 -0.3300  0.0462
 1718SOL    HW115193   9.814   4.557   2.461  2.0434  0.0236 -0.1995
 1718SOL    HW215194   9.807   4.400   2.419 -2.0047  0.0029  0.3851
 1719SOL     OW15195   1.704   4.808   1.030 -0.3670 -0.2811  0.2162
 1719SOL    HW115196   1.663   4.776   1.115  0.9782 -0.8748  0.6528
 1719SOL    HW215197   1.655   4.769   0.952 -0.8401 -0.6948  0.7202
 1720SOL     OW15198   2.408   5.397   2.527 -0.0013 -0.2042  0.0843
 1720SOL    HW115199   2.475   5.328   2.556 -1.4775 -2.3897 -1.4977
 1720SOL    HW215200   2.451   5.461   2.464  0.8508 -1.0514 -0.2099
 1721SOL     OW15201   9.426   5.027   2.111 -0.8346  0.6086  0.1350
 1721SOL    HW115202   9.505   5.063   2.061 -1.0285  0.0368 -0.5828
 1721SOL    HW215203   9.412   4.931   2.088 -0.4340  0.1011  1.9132
 1722SOL     OW15204   0.352   0.656   0.677  0.5188  0.1787 -0.0002
 1722SOL    HW115205   0.305   0.732   0.632 -0.5598 -0.7673 -0.4934
 1722SOL    HW215206   0.323   0.650   0.772 -0.3681 -0.3926 -0.2995
 1723SOL     OW15207   1.256   6.842   0.756  0.0124 -0.3529 -0.4970
 1723SOL    HW115208   1.199   6.905   0.703 -0.3040 -1.2705 -1.2373
 1723SOL    HW215209   1.204   6.760   0.777  0.4302 -0.3746  0.4842
 1724SOL     OW15210   1.035   9.013   0.616  0.2858  0.6045  0.2473
 1724SOL    HW115211   1.030   9.103   0.573  2.6635  1.8899  2.5162
 1724SOL    HW215212   0.994   9.017   0.707 -1.6973 -1.2505 -0.5030
 1725SOL     OW15213   2.859   9.400   2.550  0.0377  0.7755  0.3622
 1725SOL    HW115214   2.924   9.328   2.577  0.3887  2.0584  3.0818
 1725SOL    HW215215   2.880   9.430   2.458  3.7039  1.5334  1.3749
 1726SOL     OW15216   1.312   6.064   1.480 -0.1545  0.1464 -0.2853
 1726SOL    HW115217   1.242   6.120   1.525  1.2002  0.7363  1.1238
 1726SOL    HW215218   1.301   5.968   1.507 -2.1045 -0.2247 -2.2321
 1727SOL     OW15219   1.071   5.005   1.729 -0.0730  0.3936  0.2039
 1727SOL    HW115220   1.132   4.967   1.799  0.5342  0.2885 -0.3687
 1727SOL    HW215221   0.977   4.979   1.749  0.0295  0.8255  1.2813
 1728SOL     OW15222   4.095   1.168   1.135  0.3341  0.3645  0.3966
 1728SOL    HW115223   4.008   1.121   1.120  0.8252 -0.7024  0.8278
 1728SOL    HW215224   4.170   1.111   1.102  0.9294  0.9002  0.8072
 1729SOL     OW15225   2.389   4.783   2.505  0.5148  0.0877 -0.3256
 1729SOL    HW115226   2.339   4.720   2.446  0.9465  0.9023 -1.5942
 1729SOL    HW215227   2.422   4.735   2.585  0.9866 -1.3382 -1.3592
 1730SOL     OW15228   3.159   9.618   2.459 -0.4090  0.2109  0.1543
 1730SOL    HW115229   3.208   9.641   2.543  1.4652  0.0973 -0.8788
 1730SOL    HW215230   3.217   9.640   2.380 -1.7428 -0.6236 -1.0683
 1731SOL     OW15231   8.745   4.555   1.821  0.3194  0.1099 -0.2341
 1731SOL    HW115232   8.779   4.515   1.736 -0.3956 -0.7127 -0.1385
 1731SOL    HW215233   8.651   4.526   1.837  0.4499  0.2394  0.8522
 1732SOL     OW15234   0.788   8.853   2.643  0.4186 -0.4418  0.5230
 1732SOL    HW115235   0.706   8.887   2.689  0.1712  1.0712 -0.9369
 1732SOL    HW215236   0.775   8.860   2.544  2.1078 -0.7071  0.2654
 1733SOL     OW15237   9.588   3.310   1.854 -0.6911  0.2250  0.3097
 1733SOL    HW115238   9.517   3.349   1.913 -0.9208 -1.7615  1.3938
 1733SOL    HW215239   9.553   3.306   1.760 -0.6831  2.4992  0.1808
 1734SOL     OW15240   9.220   1.767   0.948  0.6924 -0.4113  0.4098
 1734SOL    HW115241   9.266   1.692   0.901  1.3187 -0.1266  0.5518
 1734SOL    HW215242   9.275   1.793   1.028  0.0846 -0.3179  0.7959
 1735SOL     OW15243   9.266   3.961   0.127  0.0791 -0.6096 -0.1937
 1735SOL    HW115244   9.178   3.954   0.080  0.3283 -0.9301 -0.6208
 1735SOL    HW215245   9.331   3.897   0.085  0.5967 -0.1644 -0.0745
 1736SOL     OW15246   3.249   1.077   0.920  0.2122  0.1318  0.2981
 1736SOL    HW115247   3.307   1.147   0.877 -1.1768  2.4429  2.0464
 1736SOL    HW215248   3.299   1.035   0.996 -0.5170  2.5196  2.1623
 1737SOL     OW15249   9.183   2.573   0.140  0.3050 -0.6861  0.4150
 1737SOL    HW115250   9.137   2.485   0.152  0.0997 -0.4337  1.5002
 1737SOL    HW215251   9.215   2.607   0.228 -1.9384  1.5760  0.4302
 1738SOL     OW15252   3.724   9.822   0.143 -0.1611  0.0719  0.2408
 1738SOL    HW115253   3.650   9.820   0.210  1.0444 -2.1042  1.5927
 1738SOL    HW215254   3.752   9.728   0.122  2.7487  0.8516  0.3962
 1739SOL     OW15255   1.260   3.584   2.199 -0.4439  0.2207  0.1884
 1739SOL    HW115256   1.179   3.526   2.195  1.3608 -2.3255 -0.5159
 1739SOL    HW215257   1.332   3.538   2.251  0.6203  2.3897  0.7022
 1740SOL     OW15258   3.356   2.068   1.471  0.4220 -0.4211 -0.3049
 1740SOL    HW115259   3.438   2.068   1.528 -0.9546 -0.0752  1.7074
 1740SOL    HW215260   3.362   1.994   1.405  1.9914 -0.9038  0.3508
 1741SOL     OW15261   2.941   9.534   2.338  0.1742 -0.0342  0.3991
 1741SOL    HW115262   3.017   9.565   2.395  0.8477 -0.5769 -0.1881
 1741SOL    HW215263   2.966   9.543   2.242 -0.5453 -0.1235  0.2029
 1742SOL     OW15264   3.457   1.012   2.363 -0.3491  0.1624 -0.8231
 1742SOL    HW115265   3.358   1.013   2.354 -0.3260  1.0133 -1.0502
 1742SOL    HW215266   3.498   1.029   2.273  0.0047 -0.1640 -0.7250
 1743SOL     OW15267   9.934   3.598   0.090 -0.1987  0.5714 -0.2652
 1743SOL    HW115268  10.008   3.665   0.088  0.1542  0.2513  1.3400
 1743SOL    HW215269   9.849   3.644   0.119  0.4122  0.0377  2.5623
 1744SOL     OW15270   2.397   6.900   0.138  0.3152  0.5596 -0.7608
 1744SOL    HW115271   2.394   6.842   0.056 -1.0825 -1.1421  0.4530
 1744SOL    HW215272   2.345   6.984   0.122 -0.2125  0.0959 -1.5039
 1745SOL     OW15273   9.046   3.273   1.871  0.0540 -0.3408 -0.2674
 1745SOL    HW115274   9.032   3.331   1.951  0.9172  0.2083 -0.5063
 1745SOL    HW215275   9.045   3.330   1.788 -1.1039 -0.9355 -0.6740
 1746SOL     OW15276   1.188   7.505   1.054 -0.2801  0.1854 -0.4297
 1746SOL    HW115277   1.211   7.462   0.966 -0.8679 -2.4312  0.6592
 1746SOL    HW215278   1.134   7.587   1.037 -0.7066 -0.4808 -2.5155
 1747SOL     OW15279   4.405   2.784   1.183 -0.1957 -0.0087 -0.2394
 1747SOL    HW115280   4.421   2.704   1.240  0.3937  0.1250 -0.2126
 1747SOL    HW215281   4.427   2.867   1.235  1.0058  0.0826 -0.8792
 1748SOL     OW15282   1.187   1.849   2.115 -0.0859  0.5377 -0.0839
 1748SOL    HW115283   1.185   1.794   2.198 -4.6746 -0.9037 -1.0090
 1748SOL    HW215284   1.209   1.944   2.138  1.9645 -0.4697  2.2917
 1749SOL     OW15285   9.095   4.561   0.686  0.3261 -0.3260 -0.1038
 1749SOL    HW115286   9.143   4.496   0.745 -1.2424 -0.7485  0.7413
 1749SOL    HW215287   9.068   4.640   0.740 -0.9929 -0.6487 -0.2872
 1750SOL     OW15288   0.946   1.731   0.026  0.0079  0.0650  0.2640
 1750SOL    HW115289   1.031   1.689  -0.006  0.8595  1.3409  0.8008
 1750SOL    HW215290   0.949   1.738   0.126 -0.1102  1.3791  0.1863
 1751SOL     OW15291   0.372   2.939   2.212  0.2899  0.2813  0.5449
 1751SOL    HW115292   0.305   2.961   2.283  0.3667  1.5534  0.2220
 1751SOL    HW215293   0.434   3.016   2.200  1.6594 -0.7939  0.6546
 1752SOL     OW15294   3.560   9.616   0.685 -0.0170  0.2337 -0.8331
 1752SOL    HW115295   3.567   9.517   0.699  2.3289  0.7399  2.1109
 1752SOL    HW215296   3.464   9.643   0.685 -0.6134 -1.7829  0.4781
 1753SOL     OW15297   0.657   8.322   2.770 -0.6105 -0.5608 -0.5914
 1753SOL    HW115298   0.620   8.399   2.716 -0.4444 -1.3130 -1.8026
 1753SOL    HW215299   0.746   8.295   2.733 -0.4330 -1.0082  0.1505
 1754SOL     OW15300   1.990   9.844   0.171  0.2310  0.0109 -0.7227
 1754SOL    HW115301   2.078   9.870   0.211 -0.9444  1.3957  1.0187
 1754SOL    HW215302   1.997   9.845   0.072  3.0044 -2.7801 -0.6521
 1755SOL     OW15303   1.174   3.561   0.605  0.5016 -0.0973  0.4730
 1755SOL    HW115304   1.244   3.611   0.553 -1.0167  0.5716 -0.9773
 1755SOL    HW215305   1.190   3.463   0.597  0.7257  0.0246 -0.6502
 1756SOL     OW15306   0.621   6.792   2.405 -0.0829 -0.2206  0.0418
 1756SOL    HW115307   0.603   6.704   2.361  1.4815 -1.5743  1.9926
 1756SOL    HW215308   0.538   6.848   2.404 -1.1692 -1.8143 -1.0065
 1757SOL     OW15309   9.459   2.889   2.010  0.1340 -0.8718 -0.0726
 1757SOL    HW115310   9.405   2.947   2.072 -1.3579 -1.2205 -1.0192
 1757SOL    HW215311   9.539   2.940   1.979 -0.5031  0.2627  0.0949
 1758SOL     OW15312   1.736   9.575   1.754 -0.1993  0.3076 -0.6816
 1758SOL    HW115313   1.703   9.665   1.781  0.1145  0.0174  0.6631
 1758SOL    HW215314   1.809   9.585   1.685  0.7190  1.1238  0.4002
 1759SOL     OW15315   1.657   8.212   0.663 -0.1546  0.2512 -0.0375
 1759SOL    HW115316   1.613   8.170   0.742 -1.1804 -1.1884 -1.3706
 1759SOL    HW215317   1.616   8.178   0.578  0.9846  1.7108 -1.2159
 1760SOL     OW15318   9.024   4.080   1.023 -0.1055 -0.4659  0.2822
 1760SOL    HW115319   8.976   4.017   0.961  0.0597 -0.0364 -0.2811
 1760SOL    HW215320   9.122   4.067   1.013 -0.0422  0.6577 -0.6511
 1761SOL     OW15321   8.985   1.046   1.550  0.6693  0.1843 -0.0570
 1761SOL    HW115322   8.928   0.975   1.511 -1.3390  2.2663 -1.0410
 1761SOL    HW215323   9.082   1.025   1.532  0.1839 -2.7670  0.6009
 1762SOL     OW15324   8.177   1.413   1.856 -0.3458  0.6932 -0.5791
 1762SOL    HW115325   8.114   1.465   1.799 -0.8323  0.0681 -0.6118
 1762SOL    HW215326   8.144   1.319   1.866 -1.0868  1.1930  1.9776
 1763SOL     OW15327   2.147   6.509   2.132  1.2082  0.7758  0.0137
 1763SOL    HW115328   2.077   6.498   2.202 -0.5218 -1.6663 -1.9915
 1763SOL    HW215329   2.109   6.559   2.054  1.5026 -0.9105 -1.2617
 1764SOL     OW15330   0.169   2.369   0.708  0.4182  0.3271 -0.2346
 1764SOL    HW115331   0.148   2.459   0.746 -0.8141  0.4515 -1.1874
 1764SOL    HW215332   0.230   2.320   0.771 -0.6916  0.9470  1.3479
 1765SOL     OW15333   1.715   9.692   0.878  0.3465 -0.3988  0.1819
 1765SOL    HW115334   1.735   9.758   0.806  0.4167 -1.1954 -0.5369
 1765SOL    HW215335   1.622   9.657   0.866  0.2978 -0.4075  0.5735
 1766SOL     OW15336   3.560   9.406   1.127  0.7327  0.0011 -0.4026
 1766SOL    HW115337   3.651   9.394   1.166  0.8114  0.4323 -0.4523
 1766SOL    HW215338   3.545   9.503   1.105  0.2799 -0.0728 -0.4322
 1767SOL     OW15339   0.683   2.517   1.605  0.2741  0.5575 -0.6487
 1767SOL    HW115340   0.654   2.527   1.700 -1.5904 -1.1346 -0.9818
 1767SOL    HW215341   0.653   2.596   1.552  0.5106  1.0827  0.0094
 1768SOL     OW15342   8.930   1.747   1.450 -0.2941  0.3751 -0.1467
 1768SOL    HW115343   9.023   1.716   1.434  0.6258  1.6618  2.2839
 1768SOL    HW215344   8.887   1.688   1.518 -0.4260  1.1376  0.4411
 1769SOL     OW15345   1.333   4.038   0.729 -0.2510 -0.1353  0.0872
 1769SOL    HW115346   1.389   4.102   0.782  0.6178 -0.0895 -0.8773
 1769SOL    HW215347   1.256   4.007   0.785  0.7329 -0.2063  1.4246
 1770SOL     OW15348   3.222   1.731   2.234  0.5142  0.3598 -0.0051
 1770SOL    HW115349   3.165   1.694   2.161 -1.3561 -0.9969  2.0778
 1770SOL    HW215350   3.277   1.806   2.198 -2.5184  1.6903 -2.1337
 1771SOL     OW15351   2.756   8.757   1.649 -0.2949  0.0743 -0.0457
 1771SOL    HW115352   2.662   8.772   1.618 -1.0580  1.0041  2.6225
 1771SOL    HW215353   2.769   8.660   1.671  0.4193 -0.7118 -3.6272
 1772SOL     OW15354   0.392   1.871   0.227  0.6802 -0.2352  0.0715
 1772SOL    HW115355   0.348   1.807   0.165  1.1506 -0.6316  0.1366
 1772SOL    HW215356   0.361   1.964   0.208 -0.0539 -0.4905  0.0166
 1773SOL     OW15357   1.036   7.217   2.379  0.2646  0.4237 -0.1501
 1773SOL    HW115358   1.107   7.165   2.427 -2.1712 -2.0338  0.9342
 1773SOL    HW215359   1.045   7.202   2.281  1.1353 -0.0174 -0.0053
 1774SOL     OW15360   1.133   1.996   0.197  0.0411  0.5797 -0.6905
 1774SOL    HW115361   1.178   1.974   0.111  0.5303  1.6797 -0.7264
 1774SOL    HW215362   1.100   1.912   0.240  0.0282  0.0060 -1.8184
 1775SOL     OW15363   0.621   2.133   1.244  0.2231 -0.7196 -0.4646
 1775SOL    HW115364   0.621   2.045   1.197 -3.9243 -0.8718 -0.3671
 1775SOL    HW215365   0.604   2.120   1.341 -3.9618  0.2586 -0.9549
 1776SOL     OW15366   1.626   2.761   2.302  0.0528 -0.4398 -0.0360
 1776SOL    HW115367   1.576   2.729   2.383  2.2871 -2.2028  0.6879
 1776SOL    HW215368   1.700   2.697   2.281  0.9080  1.1905 -2.1591
 1777SOL     OW15369   4.738   2.300   1.750 -0.3130 -0.1312  0.3047
 1777SOL    HW115370   4.772   2.213   1.786  0.5376 -0.2875 -0.8278
 1777SOL    HW215371   4.737   2.296   1.650 -0.2511  1.1697  0.2436
 1778SOL     OW15372   1.245   7.223   0.743 -0.4849 -0.0435  0.2525
 1778SOL    HW115373   1.295   7.195   0.825  0.7058  0.5946 -0.2398
 1778SOL    HW215374   1.218   7.143   0.691  0.1280 -0.3976  0.4749
 1779SOL     OW15375   3.453   8.237   1.827  0.0891  0.0099  0.5037
 1779SOL    HW115376   3.507   8.254   1.910 -0.3273 -2.7475  1.3756
 1779SOL    HW215377   3.512   8.204   1.754  0.0288 -0.2698  0.5805
 1780SOL     OW15378   0.989   9.658   0.423  0.1575 -0.4668 -0.1089
 1780SOL    HW115379   1.070   9.603   0.443 -0.1063 -0.6936  0.3519
 1780SOL    HW215380   0.948   9.629   0.337 -0.8870 -2.0623  0.8863
 1781SOL     OW15381   2.515   2.496   0.194  0.1477 -0.5694  0.7901
 1781SOL    HW115382   2.514   2.503   0.293  2.9560  0.0641  0.7933
 1781SOL    HW215383   2.568   2.571   0.155  0.3754 -1.6720 -1.1213
 1782SOL     OW15384   0.914   9.913   0.496 -0.2261  0.7869  0.1705
 1782SOL    HW115385   0.815   9.924   0.498 -0.2547  0.6159 -0.3322
 1782SOL    HW215386   0.937   9.816   0.493 -0.0835  0.8700 -1.7947
 1783SOL     OW15387   0.226   1.923   1.476  0.2509  0.2900 -0.7244
 1783SOL    HW115388   0.185   1.882   1.557 -0.2224 -1.0594 -1.6371
 1783SOL    HW215389   0.306   1.977   1.504  1.6126 -2.2027  0.4001
 1784SOL     OW15390   0.259   1.283   0.488  0.2249  0.5405  0.2456
 1784SOL    HW115391   0.309   1.252   0.569  1.8675 -0.4117 -1.0978
 1784SOL    HW215392   0.318   1.343   0.434 -0.8395  1.1332 -0.2739
 1785SOL     OW15393   0.757   0.964   2.180  0.4794 -0.3637 -0.3551
 1785SOL    HW115394   0.814   0.883   2.174 -0.6520 -1.2322  0.3826
 1785SOL    HW215395   0.745   0.989   2.276  1.1527  0.9183 -0.5962
 1786SOL     OW15396   2.214   5.123   0.033 -0.2741 -0.2811  0.2454
 1786SOL    HW115397   2.125   5.098   0.072 -0.3941 -1.2134 -0.5927
 1786SOL    HW215398   2.250   5.203   0.080 -0.5371 -1.2122  2.0771
 1787SOL     OW15399   9.329   3.594   1.650  0.2131  0.2223 -0.0606
 1787SOL    HW115400   9.308   3.680   1.605  0.1424  0.6009  0.6818
 1787SOL    HW215401   9.262   3.577   1.723  0.2478 -0.4385 -0.1758
 1788SOL     OW15402   1.616   8.878   2.692 -0.2366  0.3868  0.4221
 1788SOL    HW115403   1.640   8.797   2.746  1.1185  0.2760 -0.3469
 1788SOL    HW215404   1.690   8.899   2.628 -1.7476  0.6330 -1.2737
 1789SOL     OW15405   3.894   8.466   2.735  0.3291  0.3379 -0.4980
 1789SOL    HW115406   3.813   8.486   2.678 -0.2474 -0.0457  0.1773
 1789SOL    HW215407   3.923   8.549   2.782 -0.2156  0.2750 -0.0494
 1790SOL     OW15408   1.154   6.160   0.597 -0.6707 -0.0866  0.5556
 1790SOL    HW115409   1.085   6.223   0.560  1.1555  0.4875 -1.9893
 1790SOL    HW215410   1.107   6.083   0.642 -2.9958  0.2084 -1.2314
 1791SOL     OW15411   4.454   2.643   0.693 -0.1718 -0.1414  0.2415
 1791SOL    HW115412   4.534   2.586   0.710 -0.0329  0.6510  2.4377
 1791SOL    HW215413   4.422   2.682   0.779 -3.0696 -0.6152 -0.5702
 1792SOL     OW15414   2.108   9.028   0.118  0.2647 -0.7395 -0.3327
 1792SOL    HW115415   2.130   9.126   0.125 -0.6863 -0.4691 -1.0848
 1792SOL    HW215416   2.013   9.014   0.144  0.2755 -1.4159 -0.6745
 1793SOL     OW15417   2.061   5.291   1.201 -0.1667 -0.1521 -0.1067
 1793SOL    HW115418   2.001   5.326   1.273 -0.9213 -0.4348 -0.5875
 1793SOL    HW215419   2.048   5.193   1.192 -1.1258  0.0931 -1.5799
 1794SOL     OW15420   9.343   1.650   2.210  0.3946  0.9692  0.1023
 1794SOL    HW115421   9.352   1.595   2.293  0.2728  0.4518 -0.2194
 1794SOL    HW215422   9.278   1.605   2.148  0.1756  1.5643 -0.0967
 1795SOL     OW15423   8.249   1.170   0.725 -0.6067  0.1978 -0.1372
 1795SOL    HW115424   8.159   1.213   0.719 -0.7163 -0.0951 -0.6147
 1795SOL    HW215425   8.277   1.139   0.635  0.6351  1.6199 -0.2692
 1796SOL     OW15426   1.831   8.403   2.002  0.0901 -0.0339 -0.4420
 1796SOL    HW115427   1.885   8.319   2.003 -1.8661 -1.3129  0.0178
 1796SOL    HW215428   1.824   8.437   1.909 -0.5718 -1.3571 -0.8814
 1797SOL     OW15429   2.178   0.039   2.214 -0.1291  0.5136 -0.3136
 1797SOL    HW115430   2.081   0.056   2.195  0.2791  0.2814 -2.8410
 1797SOL    HW215431   2.191  -0.057   2.240 -0.7886  0.9665  1.7520
 1798SOL     OW15432   3.328   3.582   0.587 -0.1851 -0.1004 -0.4132
 1798SOL    HW115433   3.305   3.657   0.649 -1.4121  0.0293 -1.0110
 1798SOL    HW215434   3.426   3.563   0.593 -0.2719 -0.0413  1.5020
 1799SOL     OW15435   1.077   6.277   1.212 -0.6233 -0.2041  0.2819
 1799SOL    HW115436   1.144   6.341   1.249 -1.1441  1.2428 -1.2395
 1799SOL    HW215437   1.115   6.231   1.132 -0.5561 -1.1990  0.8803
 1800SOL     OW15438   1.505   9.354   0.105  0.3046  0.0547  0.2495
 1800SOL    HW115439   1.503   9.432   0.168 -1.3210  1.4363 -1.4499
 1800SOL    HW215440   1.591   9.305   0.116  2.0827  3.0278  0.3049
 1801SOL     OW15441   3.002   1.139   0.177 -0.1147 -0.0441  0.6410
 1801SOL    HW115442   3.088   1.120   0.129  0.2225  1.4172  0.6471
 1801SOL    HW215443   2.926   1.130   0.114 -0.2409 -3.9353  1.2255
 1802SOL     OW15444   2.196   3.328   0.788 -0.3328  0.7976 -0.4787
 1802SOL    HW115445   2.139   3.372   0.857  0.1808 -1.2277  1.3034
 1802SOL    HW215446   2.282   3.378   0.779  2.2826 -2.2029  4.9589
 1803SOL     OW15447   1.212   6.253   0.264 -0.5597 -0.2287  0.7141
 1803SOL    HW115448   1.297   6.294   0.233 -1.7868 -0.2223 -2.8324
 1803SOL    HW215449   1.206   6.158   0.232 -3.2852  0.7675 -1.9527
 1804SOL     OW15450   2.401   6.194   1.656 -1.2124  0.0262 -0.1089
 1804SOL    HW115451   2.326   6.134   1.626 -1.3753  0.3226 -0.2916
 1804SOL    HW215452   2.363   6.276   1.698 -0.9875 -0.1150  0.3745
 1805SOL     OW15453   2.104   0.938   0.632  0.1920  0.3088  0.7488
 1805SOL    HW115454   2.138   0.929   0.726 -0.5150  0.5145  1.0350
 1805SOL    HW215455   2.148   0.872   0.573 -0.2275 -0.6309  1.4766
 1806SOL     OW15456   3.683   3.864   1.237 -0.1176  0.6855  0.5759
 1806SOL    HW115457   3.706   3.958   1.260 -3.6502  1.6807  0.2666
 1806SOL    HW215458   3.603   3.862   1.178  0.9583 -2.4737 -0.9233
 1807SOL     OW15459   2.144   9.578   1.703 -0.4072 -0.0415 -0.0831
 1807SOL    HW115460   2.067   9.578   1.639  0.3253  1.7992 -1.0031
 1807SOL    HW215461   2.230   9.584   1.652  0.2074  0.9513  1.0428
 1808SOL     OW15462   3.913   8.025   1.264  0.0180  0.1497  0.8135
 1808SOL    HW115463   3.883   8.002   1.357  0.7598 -0.8649  0.8031
 1808SOL    HW215464   3.840   8.003   1.200 -0.4631  0.7675  1.1359
 1809SOL     OW15465   4.058   2.672   1.076 -0.3038  0.0959  0.6631
 1809SOL    HW115466   4.046   2.623   0.989 -0.9292  0.3183  0.6245
 1809SOL    HW215467   4.088   2.607   1.146 -1.7331 -0.4856  0.7604
 1810SOL     OW15468   3.924   7.781   2.558  0.1732 -0.2592 -0.1607
 1810SOL    HW115469   3.956   7.703   2.505  0.1736 -0.9168  0.7843
 1810SOL    HW215470   3.943   7.865   2.509  3.0991 -0.6333  0.2358
 1811SOL     OW15471   0.594   1.701   0.317  0.5548  0.5107  0.1649
 1811SOL    HW115472   0.548   1.701   0.406 -0.2555 -0.8364 -0.2323
 1811SOL    HW215473   0.552   1.769   0.257 -2.7339 -2.4488 -1.0631
 1812SOL     OW15474   2.935   3.932   1.391  0.2007 -0.4663 -0.1875
 1812SOL    HW115475   3.000   3.938   1.315  1.0430 -1.0418  0.4757
 1812SOL    HW215476   2.909   3.837   1.406  1.0835 -0.5245  1.0938
 1813SOL     OW15477   9.836   4.326   2.087 -0.4833 -0.1223 -0.2328
 1813SOL    HW115478   9.746   4.287   2.070  0.1047 -1.0586 -1.3013
 1813SOL    HW215479   9.893   4.315   2.005  0.9558 -0.5721  0.7967
 1814SOL     OW15480   3.067   2.746   1.594 -0.4007  0.7083  0.2943
 1814SOL    HW115481   3.089   2.768   1.499 -0.6082  1.0459  0.3235
 1814SOL    HW215482   3.011   2.662   1.597 -3.8986  2.9318 -0.1923
 1815SOL     OW15483   3.019   4.134   2.303 -0.0795 -0.7557  0.3439
 1815SOL    HW115484   2.992   4.127   2.399 -0.2882  1.9524  0.5069
 1815SOL    HW215485   2.948   4.092   2.245  0.1537 -2.5843  1.3535
 1816SOL     OW15486   3.811   0.115   1.402 -0.8778 -0.5481 -0.1709
 1816SOL    HW115487   3.903   0.136   1.370 -0.3706 -1.8679  0.3705
 1816SOL    HW215488   3.744   0.152   1.338 -0.0065  1.5061  0.0925
 1817SOL     OW15489   9.244   4.419   0.524 -0.0236  0.4042  0.9161
 1817SOL    HW115490   9.190   4.366   0.458  1.8017  0.3689 -0.5665
 1817SOL    HW215491   9.182   4.478   0.577 -1.6166 -0.2348 -0.1860
 1818SOL     OW15492   2.348   3.734   0.991  0.7311  0.2675 -0.6165
 1818SOL    HW115493   2.434   3.695   0.960  0.0556 -0.1068 -2.0243
 1818SOL    HW215494   2.361   3.776   1.081  2.4092  0.3244 -0.8791
 1819SOL     OW15495   2.169   3.072   0.863  0.3920  0.0734  0.1253
 1819SOL    HW115496   2.098   3.036   0.803  1.3614  0.2257 -1.1465
 1819SOL    HW215497   2.203   3.159   0.826  0.5793  0.4750  1.2230
 1820SOL     OW15498   8.820   0.841   1.449 -0.1740 -0.2066  0.1998
 1820SOL    HW115499   8.827   0.756   1.397  2.8906  0.9302 -1.3583
 1820SOL    HW215500   8.757   0.903   1.403  0.4201 -0.2468 -0.6674
 1821SOL     OW15501   0.496   5.443   1.875  0.2813  0.0145 -0.0547
 1821SOL    HW115502   0.579   5.464   1.822  0.6851  0.4359  0.7396
 1821SOL    HW215503   0.488   5.508   1.950 -1.5307  0.8715 -0.9602
 1822SOL     OW15504   2.017   3.340   2.069  0.0853  0.3468  0.0428
 1822SOL    HW115505   2.090   3.362   2.004 -1.6889 -0.2036 -2.2096
 1822SOL    HW215506   1.963   3.264   2.034 -0.6010 -0.3222  2.4635
 1823SOL     OW15507   4.141   3.477   2.739  0.5372  0.4729 -0.2236
 1823SOL    HW115508   4.173   3.411   2.807  2.3030  1.1825 -0.3221
 1823SOL    HW215509   4.064   3.528   2.775 -0.3211 -1.0667  0.1664
 1824SOL     OW15510   3.610   9.899   2.709 -0.0810 -0.1818 -0.3053
 1824SOL    HW115511   3.618   9.821   2.647 -0.2835 -1.2853  1.0500
 1824SOL    HW215512   3.667   9.885   2.790 -1.2426  0.3888  0.6366
 1825SOL     OW15513   2.635   2.366   2.000 -0.0320 -0.4679 -0.0845
 1825SOL    HW115514   2.569   2.440   2.015 -0.4461 -1.0477  1.0360
 1825SOL    HW215515   2.607   2.311   1.922 -0.3998 -0.1797 -0.1554
 1826SOL     OW15516   2.255   8.077   0.570  0.2288 -0.3629 -0.3239
 1826SOL    HW115517   2.279   8.138   0.494 -1.2760 -1.3558 -1.6591
 1826SOL    HW215518   2.337   8.053   0.622  1.2549  0.5380 -1.4973
 1827SOL     OW15519   2.883   3.697   1.705  0.3542 -0.2972  0.0075
 1827SOL    HW115520   2.871   3.690   1.606  0.8470  0.2807 -0.0976
 1827SOL    HW215521   2.947   3.771   1.725 -0.5223  0.2442  0.8175
 1828SOL     OW15522   1.298   0.718   2.493 -0.0364  0.0758 -0.1437
 1828SOL    HW115523   1.355   0.754   2.566 -0.6365 -0.0134  0.3761
 1828SOL    HW215524   1.259   0.630   2.521 -1.1761  0.5787 -0.1085
 1829SOL     OW15525   1.488   3.591   0.580 -0.8601  0.3241  0.3675
 1829SOL    HW115526   1.487   3.568   0.678 -1.6403  1.2377  0.5808
 1829SOL    HW215527   1.471   3.689   0.569  1.2800  0.6249 -0.5852
 1830SOL     OW15528   3.180   8.114   1.788 -0.0928 -0.4229  0.4920
 1830SOL    HW115529   3.169   8.037   1.725  0.3218 -0.5901  0.6284
 1830SOL    HW215530   3.268   8.109   1.834 -0.6023 -0.5783  1.4718
 1831SOL     OW15531   0.752   9.810   2.291 -0.2310  0.4398 -0.0353
 1831SOL    HW115532   0.768   9.719   2.254 -0.8556  0.6776 -0.9213
 1831SOL    HW215533   0.654   9.823   2.305 -0.0979  0.7948  0.5482
 1832SOL     OW15534   1.913   9.584   1.519  0.0597  0.5175  0.0201
 1832SOL    HW115535   1.899   9.504   1.459 -0.9060  0.2395  0.5937
 1832SOL    HW215536   1.917   9.667   1.463  0.8895  0.0820 -0.5689
 1833SOL     OW15537   8.954   1.870   2.714 -0.6402 -0.3184 -0.3538
 1833SOL    HW115538   9.005   1.854   2.799 -1.2372  0.4883  0.1754
 1833SOL    HW215539   8.996   1.820   2.639 -0.0330 -0.9502  0.4028
 1834SOL     OW15540   1.458   0.516   1.261  0.0975 -0.3172  0.1754
 1834SOL    HW115541   1.536   0.520   1.199  0.5353 -2.5816  0.5095
 1834SOL    HW215542   1.384   0.464   1.218 -0.2557 -0.3626  0.8309
 1835SOL     OW15543   4.165   2.890   0.572  0.1904  0.8578 -0.5192
 1835SOL    HW115544   4.098   2.952   0.612  1.1354  1.1301  0.6344
 1835SOL    HW215545   4.148   2.797   0.605  0.0220  0.8324 -0.6783
 1836SOL     OW15546   1.255   6.715   1.185  0.6424 -0.6430  0.0339
 1836SOL    HW115547   1.187   6.778   1.221  0.8678  0.1044 -0.8143
 1836SOL    HW215548   1.286   6.747   1.095  2.2137 -0.8863  0.4703
 1837SOL     OW15549   1.858   1.091   0.246  0.1695 -0.2489 -0.2392
 1837SOL    HW115550   1.910   1.105   0.162  0.4455 -0.3795 -0.0897
 1837SOL    HW215551   1.841   1.180   0.289  0.2645 -0.2070 -0.2875
 1838SOL     OW15552   2.382   3.741   2.725 -0.6278 -0.3040  0.1302
 1838SOL    HW115553   2.447   3.665   2.723  0.4289  0.4677  2.8011
 1838SOL    HW215554   2.289   3.706   2.715  0.0140 -1.6701 -1.2306
 1839SOL     OW15555   9.259   0.769   0.859  0.0403  0.4171 -0.6250
 1839SOL    HW115556   9.316   0.804   0.933  1.3100  1.5773 -2.0904
 1839SOL    HW215557   9.191   0.837   0.834 -0.4212  0.0067 -0.4817
 1840SOL     OW15558   9.086   2.037   2.354  0.8647  0.1039  0.1514
 1840SOL    HW115559   9.068   2.065   2.260  1.0364 -0.3203 -0.0100
 1840SOL    HW215560   9.105   2.118   2.410 -0.1809  0.4374  0.0344
 1841SOL     OW15561   2.182   5.053   0.859  0.1603  0.0773  0.5803
 1841SOL    HW115562   2.232   5.011   0.935  1.1115  1.7516  0.9101
 1841SOL    HW215563   2.087   5.023   0.861  0.6102 -1.3780  1.2911
 1842SOL     OW15564   2.169   8.788   1.006  0.5279 -0.1432  0.0627
 1842SOL    HW115565   2.188   8.733   1.088 -1.7578  0.3953  0.9918
 1842SOL    HW215566   2.141   8.728   0.932  1.9367 -0.5711 -0.1446
 1843SOL     OW15567   3.773   9.706   1.558  0.2946 -0.0451 -0.2152
 1843SOL    HW115568   3.855   9.654   1.539  0.6001  0.3142  0.0995
 1843SOL    HW215569   3.692   9.648   1.547  0.6473 -0.6614  0.4200
 1844SOL     OW15570   2.255   1.006   0.366  0.2041  0.4151  0.6953
 1844SOL    HW115571   2.238   1.066   0.445 -1.4984  1.3524 -0.3683
 1844SOL    HW215572   2.311   0.928   0.396 -1.5913  0.0092  3.1532
 1845SOL     OW15573   0.973   4.098   0.323  0.3982 -0.0035  0.3259
 1845SOL    HW115574   0.967   4.058   0.231  0.1039 -0.7361  0.6610
 1845SOL    HW215575   0.894   4.068   0.377  0.4621  0.5971  0.7477
 1846SOL     OW15576   2.834   8.663   0.387 -0.1251  0.3749  0.4187
 1846SOL    HW115577   2.858   8.567   0.399 -0.7805  0.0275 -0.9623
 1846SOL    HW215578   2.758   8.687   0.447 -1.6126 -0.6322 -1.0435
 1847SOL     OW15579   9.604   2.304   1.470  0.1389 -0.4027 -0.1652
 1847SOL    HW115580   9.589   2.309   1.569 -1.6252  1.5629 -0.4863
 1847SOL    HW215581   9.690   2.351   1.447 -0.1027  0.2939  0.3177
 1848SOL     OW15582   8.788   3.140   1.797 -0.0896 -0.1088  0.0450
 1848SOL    HW115583   8.881   3.167   1.820 -0.1003  0.4154 -0.5239
 1848SOL    HW215584   8.727   3.164   1.872  0.4179 -1.5564  0.9439
 1849SOL     OW15585   0.509   0.357   1.888 -0.0074  0.3642 -0.6844
 1849SOL    HW115586   0.431   0.414   1.911 -1.2827 -0.4249 -2.9189
 1849SOL    HW215587   0.592   0.395   1.929 -1.2356  2.3614 -0.0194
 1850SOL     OW15588   1.564   3.492   1.919 -0.0854 -0.0545 -0.7210
 1850SOL    HW115589   1.625   3.558   1.876  0.3549  0.0256  0.0230
 1850SOL    HW215590   1.470   3.526   1.916 -0.1131 -0.2097 -1.9255
 1851SOL     OW15591   9.162   2.697   2.381 -0.2360  0.3446  0.1860
 1851SOL    HW115592   9.236   2.640   2.344  1.0328  1.4365  1.0143
 1851SOL    HW215593   9.083   2.691   2.320  0.2434 -1.4523 -0.3072
 1852SOL     OW15594   0.015   4.489   1.701  0.3188  0.3771  0.1855
 1852SOL    HW115595  -0.009   4.427   1.775 -1.7409  0.9357  0.0018
 1852SOL    HW215596   0.066   4.567   1.738  1.1466 -0.3959  0.6949
 1853SOL     OW15597   9.410   4.585   1.051  0.0216 -0.2308 -0.1848
 1853SOL    HW115598   9.442   4.553   1.140  0.2101 -0.0589 -0.1889
 1853SOL    HW215599   9.481   4.643   1.010 -0.9164  1.3941  0.4629
 1854SOL     OW15600   2.850   3.659   1.419  0.0419  0.2276 -0.0055
 1854SOL    HW115601   2.762   3.618   1.444 -1.0417  2.3964 -0.1760
 1854SOL    HW215602   2.893   3.603   1.348 -1.4110 -0.6289 -0.2409
 1855SOL     OW15603   2.820   9.829   0.597 -0.0614 -0.8238 -0.0101
 1855SOL    HW115604   2.864   9.876   0.521 -0.3555 -1.5816 -0.6554
 1855SOL    HW215605   2.736   9.785   0.565 -1.3195  0.6500  1.2314
 1856SOL     OW15606   3.697   3.274   0.455  0.3421  0.2287  0.1555
 1856SOL    HW115607   3.794   3.251   0.447  0.2380 -0.2810  0.3410
 1856SOL    HW215608   3.659   3.227   0.535  0.0140  0.6620  0.2518
 1857SOL     OW15609   1.700   6.881   0.223 -0.1683  0.2727 -0.0153
 1857SOL    HW115610   1.749   6.824   0.157  0.5218  0.1856  0.5652
 1857SOL    HW215611   1.626   6.829   0.263  0.5230 -0.2625  0.5853
 1858SOL     OW15612   0.871   9.651   2.540  0.4868 -0.2360  0.4733
 1858SOL    HW115613   0.809   9.699   2.478  0.4073 -1.8681 -0.7525
 1858SOL    HW215614   0.953   9.623   2.490  0.8280 -0.7796  1.3231
 1859SOL     OW15615   0.968   3.975   0.077 -0.3504 -0.5776  0.3735
 1859SOL    HW115616   0.982   4.000  -0.019  1.5510 -2.4036  0.1466
 1859SOL    HW215617   0.871   3.958   0.092 -0.5802 -1.0584 -1.4426
 1860SOL     OW15618   4.181   1.764   2.625 -0.3459  0.0857  0.2263
 1860SOL    HW115619   4.200   1.788   2.529 -0.4289  0.8752  0.4117
 1860SOL    HW215620   4.264   1.773   2.679 -0.0766 -1.2256  0.0633
 1861SOL     OW15621   1.649   9.187   1.120 -0.3820  0.7292 -0.0297
 1861SOL    HW115622   1.588   9.266   1.117 -0.2936  0.7400 -1.6714
 1861SOL    HW215623   1.603   9.107   1.080  0.2698  0.4668 -0.2625
 1862SOL     OW15624   9.908   3.474   1.069  0.8890 -0.2386 -0.0881
 1862SOL    HW115625   9.973   3.494   0.995  0.8456 -0.9080 -0.3109
 1862SOL    HW215626   9.958   3.457   1.154  0.8595  2.6801  0.5723
 1863SOL     OW15627   9.883   3.893   1.271 -0.3318  0.0793 -0.1252
 1863SOL    HW115628   9.880   3.810   1.328 -1.1942  0.1157 -0.1129
 1863SOL    HW215629   9.790   3.922   1.250 -0.0278  0.9144 -0.3277
 1864SOL     OW15630   0.521   4.326   2.047  0.5926 -0.1739  0.2278
 1864SOL    HW115631   0.480   4.375   2.124 -1.3144 -0.4613 -0.5793
 1864SOL    HW215632   0.599   4.272   2.080  0.7595  0.9190  1.6671
 1865SOL     OW15633   2.707   0.905   2.374  0.8098  0.5231 -0.4947
 1865SOL    HW115634   2.773   0.978   2.391 -1.8335  2.7340  0.7326
 1865SOL    HW215635   2.622   0.945   2.339  0.2783 -2.2967 -2.6086
 1866SOL     OW15636   1.805   7.419   0.488 -0.3045  0.0898  0.3293
 1866SOL    HW115637   1.871   7.426   0.413 -0.8076 -0.8279 -0.1968
 1866SOL    HW215638   1.841   7.469   0.568 -0.2413  1.9644 -0.8372
 1867SOL     OW15639   9.594   3.743   0.958 -0.4686  0.5620 -0.0754
 1867SOL    HW115640   9.581   3.719   1.054 -0.1237  0.7792  0.0275
 1867SOL    HW215641   9.561   3.836   0.942 -0.5289  0.5253 -0.1706
 1868SOL     OW15642   0.730   1.586   1.542 -0.6567  0.1377  0.4128
 1868SOL    HW115643   0.765   1.671   1.581  1.0965 -0.9330  1.2475
 1868SOL    HW215644   0.719   1.596   1.443  0.0440  1.1727  0.4368
 1869SOL     OW15645   3.172   2.208   1.652  0.2841 -0.5553  0.5588
 1869SOL    HW115646   3.178   2.279   1.722 -3.7513 -1.6775  2.2193
 1869SOL    HW215647   3.251   2.213   1.591  1.8935  2.9834  2.8219
 1870SOL     OW15648   1.439   5.804   1.054  0.0790 -0.1294  0.0276
 1870SOL    HW115649   1.525   5.853   1.043  0.2603 -0.3758  0.3140
 1870SOL    HW215650   1.409   5.768   0.966 -0.4831  1.1976 -0.3357
 1871SOL     OW15651   2.594   7.637   2.216 -0.5019 -0.3005 -0.0285
 1871SOL    HW115652   2.512   7.613   2.164 -1.1987  0.8540  0.5364
 1871SOL    HW215653   2.595   7.735   2.234  1.1272 -0.2676 -0.2318
 1872SOL     OW15654   9.846   3.736   0.842  0.5913 -0.2125  0.2208
 1872SOL    HW115655   9.755   3.752   0.880  0.6406  0.9599 -0.1354
 1872SOL    HW215656   9.890   3.661   0.892 -0.6912 -1.0109  0.1755
 1873SOL     OW15657   2.673   2.210   1.386 -0.5556 -0.1696  0.5713
 1873SOL    HW115658   2.620   2.142   1.438  1.7984 -0.7919  2.2255
 1873SOL    HW215659   2.749   2.166   1.340 -0.4243  0.9945 -0.3656
 1874SOL     OW15660   0.070   3.115   2.146  0.0864  0.4091 -0.2061
 1874SOL    HW115661  -0.015   3.157   2.177  0.9163  3.0071 -1.3333
 1874SOL    HW215662   0.147   3.172   2.173  1.4743 -1.7317  0.4677
 1875SOL     OW15663   1.289   9.273   1.679  0.2507  0.3985 -0.6721
 1875SOL    HW115664   1.379   9.248   1.716  0.5220 -0.9877 -2.2247
 1875SOL    HW215665   1.224   9.285   1.754  0.6990 -2.6836  0.2464
 1876SOL     OW15666   9.561   3.168   1.015  0.4262  0.4532  0.2573
 1876SOL    HW115667   9.548   3.070   1.029 -0.1421  0.3894 -0.6584
 1876SOL    HW215668   9.647   3.184   0.967  0.5299  0.4000  0.4255
 1877SOL     OW15669   0.718   6.191   0.770 -0.2374 -0.2061  0.4511
 1877SOL    HW115670   0.651   6.254   0.729 -0.0920  0.1308  0.7322
 1877SOL    HW215671   0.674   6.103   0.786  0.0563 -0.7563 -1.6428
 1878SOL     OW15672   1.956   0.788   1.592  0.1287 -0.2330 -0.6818
 1878SOL    HW115673   1.944   0.701   1.642  0.1490  0.2822  0.2384
 1878SOL    HW215674   2.036   0.781   1.532 -0.0770 -0.9741 -0.8690
 1879SOL     OW15675   2.567   1.838   0.463  0.4987  0.1798 -0.5508
 1879SOL    HW115676   2.630   1.768   0.429  0.6581  1.5401 -3.1738
 1879SOL    HW215677   2.619   1.912   0.505  0.4026 -0.4888  0.7972
 1880SOL     OW15678   2.785   5.983   2.383  0.5002  0.6058  0.3231
 1880SOL    HW115679   2.737   6.029   2.457  3.4133 -0.5117  3.0305
 1880SOL    HW215680   2.872   6.029   2.366  0.3808  0.1524 -1.6310
 1881SOL     OW15681   1.770   2.454   1.732 -0.8030  0.1106 -0.2864
 1881SOL    HW115682   1.809   2.535   1.688  0.1863  0.6595  1.5419
 1881SOL    HW215683   1.734   2.479   1.821 -1.0662 -1.3508  0.0304
 1882SOL     OW15684   8.947   2.510   0.947 -0.1661 -0.0718  0.1399
 1882SOL    HW115685   8.976   2.605   0.946  0.0517 -0.1214  0.9108
 1882SOL    HW215686   8.894   2.492   1.030  0.1033 -0.7085  0.1793
 1883SOL     OW15687   2.040   1.529   0.325 -0.2892  0.1528  0.5506
 1883SOL    HW115688   2.122   1.483   0.362 -1.5099 -0.3850  2.6451
 1883SOL    HW215689   2.005   1.594   0.392 -1.6568  0.2920 -0.2841
 1884SOL     OW15690   0.678   9.466   2.586 -0.3376  0.2821  0.3487
 1884SOL    HW115691   0.709   9.381   2.628  0.4039 -1.1295 -2.8248
 1884SOL    HW215692   0.746   9.537   2.600  2.0893 -1.4099 -2.1904
 1885SOL     OW15693   9.175   3.486   0.444  0.3857  0.3480 -0.3632
 1885SOL    HW115694   9.185   3.387   0.440  3.8615  0.7264 -3.9813
 1885SOL    HW215695   9.118   3.518   0.368  1.2136  1.2869 -0.6081
 1886SOL     OW15696   2.417   1.815   0.842 -0.3704 -0.0848 -0.1792
 1886SOL    HW115697   2.419   1.745   0.913 -1.2151 -0.0424 -0.0984
 1886SOL    HW215698   2.510   1.846   0.822  0.3105 -3.1514 -2.1385
 1887SOL     OW15699   0.332   4.841   1.426  0.0521 -0.2759 -0.5251
 1887SOL    HW115700   0.307   4.924   1.475 -1.8304 -0.7664 -0.5862
 1887SOL    HW215701   0.295   4.846   1.333  0.7679 -0.7587 -0.8347
 1888SOL     OW15702   9.770   1.326   2.112 -0.0593 -0.5435  0.1044
 1888SOL    HW115703   9.844   1.259   2.113 -0.8545 -1.4495  2.0985
 1888SOL    HW215704   9.711   1.310   2.033 -0.2806 -2.2681  0.5975
 1889SOL     OW15705   2.501   3.465   1.101 -0.3469 -0.0910 -0.2533
 1889SOL    HW115706   2.435   3.513   1.159  0.7574  0.6257  0.4332
 1889SOL    HW215707   2.468   3.373   1.082 -1.4376  0.1877  0.2669
 1890SOL     OW15708   0.212   5.009   1.592  0.7482 -0.1628 -0.6712
 1890SOL    HW115709   0.141   4.939   1.585  0.3663  0.0689  0.6236
 1890SOL    HW215710   0.241   5.017   1.688  0.8139  1.4115 -0.8031
 1891SOL     OW15711   1.883   8.106   1.693  0.3724  0.3545 -0.8379
 1891SOL    HW115712   1.824   8.080   1.617  0.5986  0.7354 -1.1424
 1891SOL    HW215713   1.878   8.205   1.708  0.5362  0.3194 -0.5350
 1892SOL     OW15714   2.907   2.292   2.044  0.1315 -0.2570  0.2806
 1892SOL    HW115715   2.814   2.327   2.041  0.2348 -0.0767 -1.1644
 1892SOL    HW215716   2.906   2.194   2.026  0.1490 -0.4020  1.0611
 1893SOL     OW15717   2.492   6.219   0.348  0.3969  0.6518 -0.7907
 1893SOL    HW115718   2.534   6.175   0.269 -0.5588 -0.4797 -0.6918
 1893SOL    HW215719   2.434   6.153   0.396  0.2162  1.5852  0.3110
 1894SOL     OW15720   0.564   8.978   2.771  0.0326 -0.0464  0.3536
 1894SOL    HW115721   0.559   8.932   2.860 -0.0032  0.7578  0.7706
 1894SOL    HW215722   0.471   9.003   2.742  0.0939  0.1895  0.3570
 1895SOL     OW15723   3.002   0.521   2.533  0.0179 -0.7071  0.9041
 1895SOL    HW115724   3.012   0.572   2.619  0.8827  0.5181  0.0954
 1895SOL    HW215725   3.077   0.456   2.524  1.4229  1.0071 -0.1358
 1896SOL     OW15726   0.779   8.594   0.186 -0.3207  0.6527  0.0244
 1896SOL    HW115727   0.746   8.669   0.129  0.1210  0.4174 -0.5504
 1896SOL    HW215728   0.763   8.615   0.282  2.4152  2.8206  0.0857
 1897SOL     OW15729   0.109   3.925   0.584 -0.5105 -0.1896 -0.0295
 1897SOL    HW115730   0.053   3.849   0.618  1.0429 -2.7998 -3.0175
 1897SOL    HW215731   0.190   3.934   0.642 -1.6218  0.4429  1.4516
 1898SOL     OW15732   0.664   1.158   2.396  0.3834 -0.1553  0.1516
 1898SOL    HW115733   0.576   1.187   2.358  0.7314  1.8966  0.8455
 1898SOL    HW215734   0.659   1.061   2.421 -1.5828 -0.1420 -0.0729
 1899SOL     OW15735   0.476   5.200   2.273 -0.5673 -0.0176 -0.0282
 1899SOL    HW115736   0.420   5.257   2.213  0.5270  0.7092 -0.3887
 1899SOL    HW215737   0.434   5.193   2.363 -0.8638  1.1240 -0.0746
 1900SOL     OW15738   9.725   3.111   2.223  0.0420  0.3003  0.4146
 1900SOL    HW115739   9.716   3.198   2.272 -1.0419  0.5315 -0.1708
 1900SOL    HW215740   9.668   3.042   2.266  1.2931 -0.2543  1.1752
 1901SOL     OW15741   9.562   3.532   2.264  0.3538  0.5373 -0.2559
 1901SOL    HW115742   9.483   3.502   2.209  1.9136 -3.8479 -0.3013
 1901SOL    HW215743   9.636   3.558   2.203  0.6736 -0.3728 -0.2739
 1902SOL     OW15744   1.247   9.115   0.957 -0.2651 -0.3490 -0.9027
 1902SOL    HW115745   1.189   9.169   0.896 -0.0987  1.8873  0.8583
 1902SOL    HW215746   1.190   9.059   1.017 -0.5370  0.2128 -0.6352
 1903SOL     OW15747   9.153   1.352   0.098 -0.3205 -0.6444  0.2716
 1903SOL    HW115748   9.244   1.354   0.054 -0.6424 -2.4934 -0.5400
 1903SOL    HW215749   9.128   1.444   0.127  1.6313 -0.0373  0.0963
 1904SOL     OW15750   9.130   0.869   0.084 -0.1231 -0.8133 -0.5087
 1904SOL    HW115751   9.050   0.815   0.056  0.9021 -1.8574 -1.4865
 1904SOL    HW215752   9.132   0.955   0.034 -0.1607 -1.1786 -1.1465
 1905SOL     OW15753   1.428   5.187   0.403 -0.3017 -0.2544  0.1127
 1905SOL    HW115754   1.528   5.175   0.404 -0.1652  0.7660 -0.1331
 1905SOL    HW215755   1.389   5.148   0.486  0.0565 -2.5769 -0.7875
 1906SOL     OW15756   1.520   7.160   1.987  0.5576 -0.1736 -0.0788
 1906SOL    HW115757   1.529   7.253   2.023  0.4790  0.1918 -0.9748
 1906SOL    HW215758   1.607   7.111   1.997  0.4862 -0.1327  0.7466
 1907SOL     OW15759   3.899   1.433   2.506 -0.3054  0.4233  0.1101
 1907SOL    HW115760   3.927   1.337   2.507  1.5441  0.9540  0.0978
 1907SOL    HW215761   3.878   1.463   2.600 -0.6742  0.0828  0.1393
 1908SOL     OW15762   1.782   6.766   0.602 -0.0613  0.0381  0.2775
 1908SOL    HW115763   1.685   6.787   0.585  0.2182 -0.0815 -1.5364
 1908SOL    HW215764   1.824   6.734   0.518  0.7257 -3.2474  1.8401
 1909SOL     OW15765   2.221   2.440   0.806 -0.3174  0.4692 -0.3910
 1909SOL    HW115766   2.185   2.354   0.841  0.4389 -0.6155 -2.2135
 1909SOL    HW215767   2.321   2.436   0.802 -0.2190  1.7701  0.3349
 1910SOL     OW15768   2.343   6.768   2.676 -0.1723  0.6958 -0.2947
 1910SOL    HW115769   2.363   6.717   2.593  2.7613 -0.1154  0.8247
 1910SOL    HW215770   2.295   6.709   2.741 -0.3403  0.5814 -0.5250
 1911SOL     OW15771   0.215   1.909   0.444  0.5664  0.1612  0.7608
 1911SOL    HW115772   0.302   1.869   0.416  0.1947  0.3850 -0.7684
 1911SOL    HW215773   0.188   1.980   0.379 -1.9172 -1.5480 -0.1883
 1912SOL     OW15774   1.038   2.924   2.103  0.4014  0.3044  0.5018
 1912SOL    HW115775   1.024   2.961   2.011  1.0775  0.9835  0.6704
 1912SOL    HW215776   0.979   2.844   2.116  1.1137 -0.4838 -0.9329
 1913SOL     OW15777   4.115   9.699   1.158 -0.3136 -0.0213 -0.3326
 1913SOL    HW115778   4.032   9.643   1.164 -0.9276  0.7837 -1.1899
 1913SOL    HW215779   4.097   9.789   1.198 -0.6717  1.0759 -2.8710
 1914SOL     OW15780   2.279   8.107   0.109 -0.2392 -0.0364  0.0008
 1914SOL    HW115781   2.326   8.036   0.057  0.4014  0.3795  0.0006
 1914SOL    HW215782   2.180   8.099   0.096 -0.1054 -0.1755 -0.9717
 1915SOL     OW15783   3.496   1.936   1.260  0.1680  0.4003  0.4543
 1915SOL    HW115784   3.514   2.030   1.232  0.6283 -0.2580 -1.4846
 1915SOL    HW215785   3.566   1.906   1.326  1.9236  0.3386 -1.4029
 1916SOL     OW15786   2.451   4.978   0.039 -0.6393  0.6120  0.0306
 1916SOL    HW115787   2.462   4.992   0.137 -1.3761  1.0617  0.0490
 1916SOL    HW215788   2.372   5.028   0.006  0.0439  1.0738 -0.9406
 1917SOL     OW15789   8.311   2.444   1.472 -0.0020  0.3809 -0.0212
 1917SOL    HW115790   8.230   2.402   1.430 -0.7080  1.1438  0.5527
 1917SOL    HW215791   8.327   2.401   1.561 -1.4661  2.1441  1.1239
 1918SOL     OW15792   2.049   5.619   1.596  0.4122  0.6191  0.2082
 1918SOL    HW115793   2.108   5.680   1.544  0.6741 -0.4317 -0.7569
 1918SOL    HW215794   2.091   5.598   1.684  1.1760  0.3957 -0.2087
 1919SOL     OW15795   2.379   6.524   2.265 -0.0716  0.6017  0.1287
 1919SOL    HW115796   2.443   6.582   2.214  0.6021 -1.0725 -0.9792
 1919SOL    HW215797   2.289   6.528   2.221 -0.1641  1.2340  0.3764
 1920SOL     OW15798   1.838   9.358   0.022 -0.4216 -0.5668  0.0867
 1920SOL    HW115799   1.817   9.420  -0.053 -0.8874 -0.7955  0.0312
 1920SOL    HW215800   1.840   9.264  -0.011  0.2101 -0.5933  0.1866
 1921SOL     OW15801   2.247   0.713   0.505  0.0645  0.3125 -0.0816
 1921SOL    HW115802   2.176   0.662   0.553 -0.7318  0.7820 -0.7614
 1921SOL    HW215803   2.264   0.671   0.416 -0.8103  1.3992 -0.7761
 1922SOL     OW15804   3.438   3.892   1.094  0.2003 -0.0540  0.0353
 1922SOL    HW115805   3.389   3.809   1.065 -0.3490 -0.0640  0.9628
 1922SOL    HW215806   3.385   3.937   1.166  0.9413  0.6258  0.1458
 1923SOL     OW15807   4.297   3.563   0.674  0.3806 -0.0867  0.2060
 1923SOL    HW115808   4.326   3.635   0.738  0.0783  0.2416 -0.0195
 1923SOL    HW215809   4.240   3.604   0.602  0.8055 -0.4321 -0.3334
 1924SOL     OW15810   1.688   0.678   2.454 -0.3512 -0.3856 -0.5970
 1924SOL    HW115811   1.744   0.636   2.381  0.2580  0.1968 -0.4633
 1924SOL    HW215812   1.737   0.756   2.493  0.1166 -1.7618  1.6686
 1925SOL     OW15813   0.546   2.658   0.062 -0.2310  0.0287 -0.3031
 1925SOL    HW115814   0.454   2.690   0.040  0.4604  2.1765 -0.1556
 1925SOL    HW215815   0.589   2.720   0.128  1.1916 -1.1502 -0.0779
 1926SOL     OW15816   3.702   8.947   2.256  0.2981 -0.3773  0.1860
 1926SOL    HW115817   3.765   8.910   2.188  1.2015  0.4445  0.5597
 1926SOL    HW215818   3.691   9.046   2.240 -0.5700 -0.4454  0.3741
 1927SOL     OW15819   2.080   2.663   0.860 -0.1638  0.3796 -0.0725
 1927SOL    HW115820   2.080   2.684   0.958 -0.0262 -0.1275  0.0410
 1927SOL    HW215821   2.144   2.587   0.843  1.0731  1.5758 -0.8018
 1928SOL     OW15822   3.774   1.051   1.923 -0.1161 -0.5325 -0.3424
 1928SOL    HW115823   3.677   1.032   1.932  0.1658 -1.5658  0.6526
 1928SOL    HW215824   3.787   1.139   1.877 -1.5151 -0.1713 -0.0666
 1929SOL     OW15825   3.249   8.196   0.430 -0.3903  0.4646 -0.2082
 1929SOL    HW115826   3.295   8.244   0.356 -0.8871  1.9135  0.4044
 1929SOL    HW215827   3.279   8.101   0.432  1.3816  1.0024 -0.8026
 1930SOL     OW15828   1.645   1.195   0.064 -0.3713 -0.0875  0.7693
 1930SOL    HW115829   1.674   1.290   0.077  1.4075 -0.7734  2.0743
 1930SOL    HW215830   1.630   1.152   0.153 -0.3078 -1.2727  0.2234
 1931SOL     OW15831   3.237   2.854   1.068 -0.3528  0.5847 -0.4904
 1931SOL    HW115832   3.139   2.840   1.075 -0.3308  0.3670 -0.6338
 1931SOL    HW215833   3.275   2.793   0.999  0.2072 -0.8207  1.0375
 1932SOL     OW15834   2.740   3.556   2.477 -0.2577 -0.1162 -0.1920
 1932SOL    HW115835   2.790   3.640   2.456  0.0908  0.3621  2.3744
 1932SOL    HW215836   2.798   3.477   2.457  0.6175  0.3601  0.4335
 1933SOL     OW15837   1.071   2.350   1.961 -0.3108  0.0782 -0.4168
 1933SOL    HW115838   0.972   2.356   1.972 -0.0818  2.1639  0.8452
 1933SOL    HW215839   1.093   2.337   1.864 -1.7730  0.9735 -0.8884
 1934SOL     OW15840   2.789   7.482   2.584 -1.2860 -0.7092 -0.1825
 1934SOL    HW115841   2.691   7.471   2.602 -1.1431 -1.8391  0.0043
 1934SOL    HW215842   2.823   7.561   2.634 -1.9849 -0.6746  0.2518
 1935SOL     OW15843   9.565   0.155   2.034  0.5598 -0.2933  0.0100
 1935SOL    HW115844   9.556   0.082   2.103  1.2682  0.9785  1.4854
 1935SOL    HW215845   9.482   0.211   2.035  0.5000 -0.3747 -0.3047
 1936SOL     OW15846   4.006   2.177   0.012  0.1373 -0.3533  0.5711
 1936SOL    HW115847   4.058   2.096   0.040  0.2683 -1.3270 -2.2358
 1936SOL    HW215848   3.929   2.148  -0.046  1.0238  1.5665 -1.6529
 1937SOL     OW15849   1.599   9.248   2.606  0.1228 -0.8053  0.0862
 1937SOL    HW115850   1.523   9.228   2.667  0.1773 -1.5347 -0.0899
 1937SOL    HW215851   1.685   9.240   2.656  0.1112 -0.4044  0.1726
 1938SOL     OW15852   8.471   3.146   0.789  0.0698  0.2797 -0.2915
 1938SOL    HW115853   8.436   3.217   0.850 -0.2299 -1.0287  1.0952
 1938SOL    HW215854   8.549   3.181   0.737 -0.0272  1.5882  0.4320
 1939SOL     OW15855   1.419   8.376   1.343 -0.5060  0.2799 -0.4442
 1939SOL    HW115856   1.363   8.355   1.263 -0.3100  1.0067 -0.7810
 1939SOL    HW215857   1.360   8.392   1.422 -0.6856 -0.7546 -0.3646
 1940SOL     OW15858   1.050   4.137   2.694 -0.1004  0.0461 -0.3618
 1940SOL    HW115859   1.011   4.185   2.772 -0.9405 -0.0417 -0.7198
 1940SOL    HW215860   1.079   4.203   2.625 -1.0197  0.0573 -0.7444
 1941SOL     OW15861   4.061   3.067   0.791  0.0921 -0.8651  0.0898
 1941SOL    HW115862   3.961   3.078   0.796 -0.0564 -2.1887  0.0789
 1941SOL    HW215863   4.090   2.996   0.855  0.7461 -2.2164 -1.6962
 1942SOL     OW15864   9.251   3.406   0.012 -0.2513  0.2669  0.2425
 1942SOL    HW115865   9.242   3.310   0.036  0.5212  0.3948  1.0767
 1942SOL    HW215866   9.308   3.416  -0.070  0.3201  0.0578  0.6122
 1943SOL     OW15867   1.121   6.916   1.369  0.1912  0.2781  0.1075
 1943SOL    HW115868   1.126   7.011   1.340  1.4344  0.2120  0.0789
 1943SOL    HW215869   1.153   6.909   1.464 -0.0364 -0.0945  0.1586
 1944SOL     OW15870   1.856   4.002   0.383  0.5474 -0.2863  0.0446
 1944SOL    HW115871   1.949   3.978   0.411 -0.0801 -1.9932  0.7556
 1944SOL    HW215872   1.790   3.951   0.439 -0.8129  0.5311 -0.7773
 1945SOL     OW15873   1.066   6.604   2.029 -1.2061 -1.2591 -0.2216
 1945SOL    HW115874   1.023   6.672   2.089 -2.1769 -1.4863 -0.6433
 1945SOL    HW215875   1.165   6.610   2.037 -1.3249 -1.8445  2.0320
 1946SOL     OW15876   0.881   3.560   2.631  0.4773 -0.4507  0.8929
 1946SOL    HW115877   0.942   3.522   2.701  0.7640  1.3486  1.6660
 1946SOL    HW215878   0.850   3.650   2.661  1.6943  0.9513 -1.9165
 1947SOL     OW15879   0.638   3.422   2.636 -0.1505 -0.0883  0.2766
 1947SOL    HW115880   0.724   3.470   2.618 -1.4782  2.5439  0.6828
 1947SOL    HW215881   0.594   3.398   2.550 -0.4545  1.3070  0.0226
 1948SOL     OW15882   2.503   2.307   1.756  0.0103  0.1445  0.0188
 1948SOL    HW115883   2.428   2.370   1.772 -0.7285 -0.8903  0.7180
 1948SOL    HW215884   2.557   2.337   1.677 -2.4095 -0.3058 -1.8393
 1949SOL     OW15885   0.320   5.222   2.498 -0.3031  0.2210 -0.2896
 1949SOL    HW115886   0.241   5.281   2.509 -1.0572 -0.7737 -0.2562
 1949SOL    HW215887   0.343   5.180   2.586  0.4824  0.7832 -0.2242
 1950SOL     OW15888   1.532   2.130   0.008 -0.2209  0.6230 -0.8093
 1950SOL    HW115889   1.439   2.140   0.042  0.4147  1.7547  0.6336
 1950SOL    HW215890   1.532   2.070  -0.072 -1.8520 -1.3138  0.6048
 1951SOL     OW15891   3.753   9.043   0.552  0.0736  0.0038  0.0397
 1951SOL    HW115892   3.838   9.091   0.531 -0.5096  1.1488  0.2366
 1951SOL    HW215893   3.677   9.109   0.552 -0.5858 -0.7510  1.3170
 1952SOL     OW15894   3.930   1.929   0.720 -0.4598 -0.3015  0.2562
 1952SOL    HW115895   3.954   1.938   0.817 -1.4616  2.2523  0.3162
 1952SOL    HW215896   3.950   2.016   0.673  0.0623 -1.5218 -1.8448
 1953SOL     OW15897   3.589   8.321   2.068  0.3110  0.3416  0.2651
 1953SOL    HW115898   3.649   8.260   2.120  0.1163 -0.5992 -0.6236
 1953SOL    HW215899   3.512   8.348   2.126 -0.8393 -2.0980 -0.0776
 1954SOL     OW15900   2.330   5.237   2.189  0.3688 -0.5390 -0.3166
 1954SOL    HW115901   2.372   5.149   2.211 -0.5144 -0.4219  1.9656
 1954SOL    HW215902   2.290   5.277   2.272 -2.3239  0.3622 -1.9848
 1955SOL     OW15903   0.171   2.891   0.803 -0.0766  0.0682 -0.1958
 1955SOL    HW115904   0.195   2.944   0.721 -2.5045  0.1751 -0.8766
 1955SOL    HW215905   0.113   2.947   0.862 -0.0377 -0.7318  0.5949
 1956SOL     OW15906   9.622   1.825   1.315  0.6581  0.3964 -0.2471
 1956SOL    HW115907   9.541   1.805   1.370  0.9659  0.7665  0.3496
 1956SOL    HW215908   9.692   1.867   1.373  0.7617  1.3570 -1.0673
 1957SOL     OW15909   8.483   3.331   1.021  0.3842  0.0096 -0.2316
 1957SOL    HW115910   8.437   3.285   1.096  1.2106 -0.5566 -0.0575
 1957SOL    HW215911   8.424   3.402   0.983 -0.7409 -0.9234 -0.2276
 1958SOL     OW15912   2.111   9.702   1.160 -0.0338 -0.0065  0.0552
 1958SOL    HW115913   2.054   9.740   1.233  0.1691  1.1644 -0.3711
 1958SOL    HW215914   2.052   9.661   1.090 -0.4406  2.0749 -0.8680
 1959SOL     OW15915   8.159   1.660   1.048  0.8211 -0.3758 -0.4965
 1959SOL    HW115916   8.222   1.587   1.023  0.4281 -1.3705  1.3128
 1959SOL    HW215917   8.070   1.621   1.070 -0.0980  0.9018 -1.8512
 1960SOL     OW15918   2.802   7.237   0.997 -0.0174  0.1232 -0.7502
 1960SOL    HW115919   2.876   7.174   0.973 -0.0091  0.2363 -1.0289
 1960SOL    HW215920   2.718   7.186   1.015  0.0832  0.0075 -0.6061
 1961SOL     OW15921   0.672   0.891   0.594 -0.5961 -0.2145 -0.7065
 1961SOL    HW115922   0.727   0.960   0.547 -0.6866  0.3557  0.0305
 1961SOL    HW215923   0.585   0.931   0.622 -0.7970 -0.7287 -0.5917
 1962SOL     OW15924   1.609   3.203   0.840 -0.1428  0.1503  0.3090
 1962SOL    HW115925   1.606   3.243   0.748  1.9398 -1.3053 -0.4384
 1962SOL    HW215926   1.524   3.152   0.856  0.0295 -0.7424 -1.4006
 1963SOL     OW15927   0.875   6.846   2.482  0.2045 -0.2545 -0.1742
 1963SOL    HW115928   0.885   6.941   2.512 -1.4367 -0.6987  1.9415
 1963SOL    HW215929   0.781   6.829   2.455  0.1252 -1.6475  0.9006
 1964SOL     OW15930   4.185   8.609   0.173  0.0236 -0.2091 -0.7770
 1964SOL    HW115931   4.159   8.526   0.124 -0.0939 -1.3196  1.1262
 1964SOL    HW215932   4.285   8.613   0.181 -0.0239 -0.8093  0.1981
 1965SOL     OW15933   9.084   1.900   1.730 -0.1430  0.6797  0.3377
 1965SOL    HW115934   9.087   1.865   1.636 -0.0777  0.7679  0.3064
 1965SOL    HW215935   9.163   1.960   1.745  2.4391 -2.9672  1.9026
 1966SOL     OW15936   3.720   1.873   1.405  0.3656  0.0595  0.5154
 1966SOL    HW115937   3.721   1.791   1.348  1.1757 -0.0539  0.6930
 1966SOL    HW215938   3.808   1.884   1.450 -0.6023 -0.4443  2.6144
 1967SOL     OW15939   3.441   9.167   1.034 -0.3946  0.1284  0.1407
 1967SOL    HW115940   3.444   9.256   1.078 -0.6745 -0.1016  0.6242
 1967SOL    HW215941   3.402   9.099   1.097 -2.6772  0.2023 -1.1348
 1968SOL     OW15942   0.981   2.287   0.514  0.0633  0.0436  0.0375
 1968SOL    HW115943   0.882   2.275   0.501  0.4395 -1.4637 -1.4676
 1968SOL    HW215944   1.021   2.203   0.550  0.6500  0.9943  1.6603
 1969SOL     OW15945   1.708   3.061   1.810  0.2101 -0.2338  0.3092
 1969SOL    HW115946   1.689   2.963   1.803  0.0952 -0.2505  0.8320
 1969SOL    HW215947   1.652   3.111   1.744  0.4123 -0.5373 -0.0953
 1970SOL     OW15948   3.714   8.636   2.571 -0.6001 -0.0709  0.1150
 1970SOL    HW115949   3.688   8.611   2.478  0.8275 -1.4112  0.0597
 1970SOL    HW215950   3.636   8.622   2.632 -1.6821  1.2538 -0.9402
 1971SOL     OW15951   3.341   0.705   1.448  0.1571  0.1659  0.1248
 1971SOL    HW115952   3.331   0.622   1.503 -1.0949  0.2078 -0.0163
 1971SOL    HW215953   3.322   0.683   1.352 -1.0923  0.7888  0.2178
 1972SOL     OW15954   0.270   2.413   2.075  0.3666  0.5849 -0.3172
 1972SOL    HW115955   0.226   2.475   2.140  1.1379 -1.0866  1.8523
 1972SOL    HW215956   0.223   2.324   2.077  2.9561 -0.8239  1.1141
 1973SOL     OW15957   4.325   2.399   2.555  0.3786  0.0519 -0.2944
 1973SOL    HW115958   4.400   2.446   2.602  0.2492 -1.7599  1.8038
 1973SOL    HW215959   4.361   2.350   2.476  0.7732  2.2441 -1.5205
 1974SOL     OW15960   1.679   6.166   1.208  0.1656  0.3974 -0.0033
 1974SOL    HW115961   1.645   6.249   1.253  3.0340  0.9743  1.2427
 1974SOL    HW215962   1.640   6.085   1.253  0.5890  1.0198  1.5229
 1975SOL     OW15963   2.342   6.913   1.062  0.2159 -0.3702 -0.1265
 1975SOL    HW115964   2.410   6.896   1.133 -0.9048  0.5723  1.1982
 1975SOL    HW215965   2.289   6.829   1.046  0.7575 -0.7068 -0.1545
 1976SOL     OW15966   3.370   3.217   1.066  0.3095  0.9307  0.2030
 1976SOL    HW115967   3.306   3.187   0.995  0.2146  2.1156 -0.2355
 1976SOL    HW215968   3.449   3.156   1.068 -0.9439 -0.6998  0.9189
 1977SOL     OW15969   1.761   2.303   0.417 -0.2820  0.2649  0.3526
 1977SOL    HW115970   1.844   2.292   0.471 -1.2815 -1.3358  1.6144
 1977SOL    HW215971   1.693   2.355   0.469 -0.0254  1.7238 -0.7406
 1978SOL     OW15972   2.897   1.335   0.883 -0.1829 -0.0152  0.7206
 1978SOL    HW115973   2.975   1.389   0.916  0.6731  0.5291 -2.0119
 1978SOL    HW215974   2.868   1.271   0.954  1.3211  1.3243  2.5956
 1979SOL     OW15975   3.156   9.787   1.514  0.7004 -0.0161 -0.6181
 1979SOL    HW115976   3.159   9.789   1.614 -0.4830 -0.5291 -0.5741
 1979SOL    HW215977   3.248   9.769   1.479  1.6675  2.7333  0.3049
 1980SOL     OW15978   0.338   3.551   2.313 -0.1862  0.3036 -0.1908
 1980SOL    HW115979   0.297   3.593   2.233  1.2101  1.6965 -0.1971
 1980SOL    HW215980   0.273   3.554   2.389  0.1040  3.1731  0.0171
 1981SOL     OW15981   3.883   3.452   0.071  0.0390  0.3274  0.1104
 1981SOL    HW115982   3.948   3.378   0.086  0.3749  0.2777 -1.4648
 1981SOL    HW215983   3.798   3.433   0.119  0.2275 -0.9402 -0.0587
 1982SOL     OW15984   4.024   1.490   1.269 -0.8232 -0.0087  0.0593
 1982SOL    HW115985   4.052   1.581   1.241  0.7745  0.2219  2.2789
 1982SOL    HW215986   4.035   1.427   1.192  0.4195  1.1939 -0.7770
 1983SOL     OW15987   2.928   4.610   1.893 -0.1635 -0.0089 -0.0416
 1983SOL    HW115988   2.980   4.578   1.972  0.7174  0.5839 -0.3721
 1983SOL    HW215989   2.917   4.709   1.898  0.5435  0.1216 -1.0426
 1984SOL     OW15990   3.898   1.522   1.733  0.1925 -0.6313 -0.5070
 1984SOL    HW115991   3.964   1.484   1.798 -1.1473 -0.0741  1.2087
 1984SOL    HW215992   3.946   1.577   1.665  1.8384 -2.8435 -1.2113
 1985SOL     OW15993   2.084   8.655   2.414 -0.0110  0.0501 -0.6313
 1985SOL    HW115994   2.083   8.594   2.334 -0.9482  0.0165 -0.5992
 1985SOL    HW215995   1.993   8.692   2.428 -0.1928 -1.1264  1.3507
 1986SOL     OW15996   1.761   3.895   2.566  0.8633 -0.6987 -1.0303
 1986SOL    HW115997   1.768   3.846   2.653 -0.1635 -1.0599 -1.1354
 1986SOL    HW215998   1.692   3.850   2.509 -0.1960  0.9389 -1.0707
 1987SOL     OW15999   7.762   2.087   1.970  0.4407 -0.0960  0.1360
 1987SOL    HW116000   7.693   2.071   1.899  0.6841 -1.6163  0.2195
 1987SOL    HW216001   7.853   2.072   1.931  0.6598  0.6710  0.3525
 1988SOL     OW16002   1.426   8.047   0.430  0.3298 -0.1737 -0.4293
 1988SOL    HW116003   1.435   7.986   0.509 -0.4935  0.2762  0.0223
 1988SOL    HW216004   1.329   8.058   0.407  0.4458  1.1749 -0.3370
 1989SOL     OW16005   1.672   2.331   1.126  0.5130  0.1005  0.0582
 1989SOL    HW116006   1.735   2.388   1.074 -0.2605 -1.4725 -2.6981
 1989SOL    HW216007   1.619   2.388   1.189  3.7081  1.6105  1.4836
 1990SOL     OW16008   0.905   1.741   1.353 -0.0239  0.2867  0.3469
 1990SOL    HW116009   0.823   1.686   1.334 -1.1800  2.0859 -0.0061
 1990SOL    HW216010   0.970   1.731   1.278  0.5434 -1.9140  1.0698
 1991SOL     OW16011   9.688   3.877   1.650  1.0985  0.2765 -0.1153
 1991SOL    HW116012   9.777   3.921   1.636  1.5667 -0.7919 -0.5786
 1991SOL    HW216013   9.618   3.928   1.600  1.7061  0.2253 -1.0333
 1992SOL     OW16014   2.383   1.386   1.888 -0.3950  0.0822 -0.0670
 1992SOL    HW116015   2.452   1.410   1.821 -0.9490  0.4222 -0.5167
 1992SOL    HW216016   2.326   1.312   1.853 -0.1522 -0.3183  0.3742
 1993SOL     OW16017   2.926   9.160   1.481 -0.3811 -0.2796  0.0156
 1993SOL    HW116018   2.976   9.215   1.413  0.5008 -1.4259 -0.2864
 1993SOL    HW216019   2.957   9.065   1.476 -2.2582 -0.9235  0.1788
 1994SOL     OW16020   1.485   5.235   2.450 -0.2258  0.4156  0.2384
 1994SOL    HW116021   1.581   5.244   2.424  0.2953 -3.8974  0.2814
 1994SOL    HW216022   1.427   5.262   2.372  1.1028 -0.2064 -0.9860
 1995SOL     OW16023   2.311   1.707   0.491  0.0141 -0.5264 -0.6553
 1995SOL    HW116024   2.240   1.768   0.455 -0.3967 -1.2009 -1.0059
 1995SOL    HW216025   2.398   1.755   0.494 -0.4420  0.2949 -0.2804
 1996SOL     OW16026   0.327   0.675   2.602  0.2647  0.6142 -0.2756
 1996SOL    HW116027   0.326   0.741   2.677 -0.0455 -0.7189  0.9140
 1996SOL    HW216028   0.233   0.654   2.575  0.3274 -0.1946  0.1203
 1997SOL     OW16029   1.704   6.488   2.103 -0.3086 -0.3444  0.2610
 1997SOL    HW116030   1.665   6.445   2.184 -0.6945 -0.1318  0.1860
 1997SOL    HW216031   1.665   6.447   2.021 -0.3923 -0.1139  0.1864
 1998SOL     OW16032   0.327   2.914   1.224  0.4720  0.3282  0.1682
 1998SOL    HW116033   0.282   2.864   1.299  0.6112 -0.9072 -0.5614
 1998SOL    HW216034   0.299   3.010   1.227 -2.3210 -0.4430 -0.3628
 1999SOL     OW16035   3.825   3.921   2.297 -0.5156  0.5418 -0.0986
 1999SOL    HW116036   3.792   4.013   2.317  0.5460  0.8750  0.1420
 1999SOL    HW216037   3.905   3.901   2.354 -0.8182 -0.5722 -0.0602
 2000SOL     OW16038   4.277   0.435   2.449  0.0754  0.0815  0.0514
 2000SOL    HW116039   4.348   0.419   2.518 -0.2000  0.3285  0.3946
 2000SOL    HW216040   4.196   0.473   2.493 -0.3241 -0.3406 -0.3197
 2001SOL     OW16041   9.399   2.547   2.724 -0.9043  0.2543 -0.5162
 2001SOL    HW116042   9.369   2.460   2.684 -3.0130  0.2135  1.0706
 2001SOL    HW216043   9.334   2.576   2.794  1.1491  1.8120  0.8215
 2002SOL     OW16044   3.363   9.981   2.775  0.1828  0.0371  0.6929
 2002SOL    HW116045   3.337   9.968   2.871 -0.0530  1.4457  0.8322
 2002SOL    HW216046   3.462   9.975   2.767  0.4164  2.1532  1.4359
 2003SOL     OW16047   1.658   8.295   2.178  0.4759  0.0683  0.1600
 2003SOL    HW116048   1.708   8.335   2.101  1.8742 -2.8532 -0.5233
 2003SOL    HW216049   1.572   8.345   2.190  0.3360  0.7859 -3.1424
 2004SOL     OW16050   1.002   5.306   0.748 -0.1376 -0.0955 -0.2258
 2004SOL    HW116051   0.908   5.329   0.773 -0.8641  0.5129 -3.2886
 2004SOL    HW216052   1.006   5.215   0.708  0.5536 -0.1362 -0.0776
 2005SOL     OW16053   2.597   6.517   1.551 -0.2006  0.7261  0.3017
 2005SOL    HW116054   2.654   6.595   1.526 -0.0518  0.2797 -0.7886
 2005SOL    HW216055   2.566   6.527   1.646 -0.4173  2.2326  0.0740
 2006SOL     OW16056   0.772   8.848   2.374 -0.7765 -0.5693 -0.1905
 2006SOL    HW116057   0.797   8.795   2.293  1.4338  0.2075 -0.0709
 2006SOL    HW216058   0.786   8.945   2.355  1.0820 -0.4519  1.5054
 2007SOL     OW16059   0.161   0.118   1.476 -0.1052 -0.6032 -0.6469
 2007SOL    HW116060   0.172   0.024   1.508 -1.0087 -0.8498 -1.0339
 2007SOL    HW216061   0.171   0.121   1.377 -0.0594 -0.2911 -0.6341
 2008SOL     OW16062   8.901   1.444   0.797  0.0312 -0.2143 -0.7425
 2008SOL    HW116063   8.992   1.402   0.804 -0.5895 -1.4095  0.6127
 2008SOL    HW216064   8.887   1.506   0.874 -0.5982 -0.6707 -0.4813
 2009SOL     OW16065   8.750   2.535   0.115  0.2893  0.0960 -0.9972
 2009SOL    HW116066   8.816   2.466   0.144 -1.5562 -0.8749  1.0331
 2009SOL    HW216067   8.676   2.492   0.064 -0.1912  0.7633 -0.8821
 2010SOL     OW16068   2.433   8.717   1.625 -0.3748  0.3272  0.0065
 2010SOL    HW116069   2.348   8.734   1.575 -0.7857 -0.5527  0.3956
 2010SOL    HW216070   2.425   8.753   1.718 -0.6489 -0.5163  0.3167
 2011SOL     OW16071   0.972   8.928   1.653 -0.3021  0.0531 -0.1349
 2011SOL    HW116072   1.062   8.945   1.612 -0.0554  1.5031  0.9918
 2011SOL    HW216073   0.918   9.012   1.652 -1.7336 -0.8498 -0.9624
 2012SOL     OW16074   1.493   0.864   1.097  0.2509 -0.3356 -0.7135
 2012SOL    HW116075   1.445   0.804   1.034  1.6325 -1.0538 -1.1159
 2012SOL    HW216076   1.449   0.953   1.099 -2.1396 -1.5169  0.2975
 2013SOL     OW16077   9.326   1.574   0.807 -0.9834  0.1085  0.7984
 2013SOL    HW116078   9.260   1.543   0.739  1.0110 -0.1648 -1.0768
 2013SOL    HW216079   9.378   1.496   0.841 -0.4773  0.5309  1.0112
 2014SOL     OW16080   8.961   1.856   0.905 -0.2677  0.1530 -0.3654
 2014SOL    HW116081   8.924   1.790   0.839 -1.4151  0.0414  0.3797
 2014SOL    HW216082   9.058   1.837   0.920  0.1102  0.4424 -2.3375
 2015SOL     OW16083   2.520   9.173   0.014  0.1793  0.6457 -0.3696
 2015SOL    HW116084   2.567   9.252   0.054  0.9669 -0.2988  0.6315
 2015SOL    HW216085   2.542   9.166  -0.083 -0.0093  1.7317 -0.4936
 2016SOL     OW16086   9.290   4.242   1.470 -0.0491  0.6792 -0.3031
 2016SOL    HW116087   9.338   4.275   1.551  0.1214 -0.9402  0.2721
 2016SOL    HW216088   9.331   4.281   1.388  0.3520  1.6217  0.3458
 2017SOL     OW16089   1.094   9.992   1.712 -0.4647 -0.5113 -0.0173
 2017SOL    HW116090   1.080   9.932   1.791 -1.6192 -0.3845 -0.1183
 2017SOL    HW216091   1.159  10.064   1.736  0.2159 -1.2618  0.3989
 2018SOL     OW16092   3.367   1.919   0.675 -0.2850  0.1809  0.4371
 2018SOL    HW116093   3.420   1.849   0.724 -0.4895  0.5423  1.1816
 2018SOL    HW216094   3.298   1.875   0.618  0.1108 -0.2554  0.2962
 2019SOL     OW16095   0.781   0.182   0.959  0.4481 -0.3745  0.7594
 2019SOL    HW116096   0.759   0.095   0.915  2.3480 -0.4750 -0.0492
 2019SOL    HW216097   0.702   0.215   1.010 -0.8588 -1.6949 -0.3840
 2020SOL     OW16098   0.877   8.359   0.106  0.4338  0.3812 -0.2902
 2020SOL    HW116099   0.829   8.430   0.157 -0.7929 -0.2228 -0.5734
 2020SOL    HW216100   0.858   8.370   0.008 -0.3305 -0.7300 -0.2788
 2021SOL     OW16101   9.870   0.728   0.842 -0.6675  0.5898  0.3284
 2021SOL    HW116102   9.836   0.777   0.761  0.5651 -0.0354 -0.5849
 2021SOL    HW216103   9.821   0.641   0.850 -0.2244  0.2872 -0.2177
 2022SOL     OW16104   4.088   8.214   1.162  0.0789  0.2106  0.6280
 2022SOL    HW116105   4.025   8.273   1.112 -1.0530 -0.3683  1.3650
 2022SOL    HW216106   4.040   8.133   1.195  1.2726 -0.3830  0.9438
 2023SOL     OW16107   2.604   8.796   1.235  0.4388  0.4487 -0.5492
 2023SOL    HW116108   2.654   8.733   1.295  0.2480 -0.0115 -0.8740
 2023SOL    HW216109   2.554   8.863   1.291  0.6188  0.2977 -0.2058
 2024SOL     OW16110   3.140   3.971   2.543  0.1708  0.0777 -0.2895
 2024SOL    HW116111   3.083   4.051   2.558  1.8642  1.0861  0.9811
 2024SOL    HW216112   3.093   3.890   2.579 -0.7626  0.7724  0.0964
 2025SOL     OW16113   0.185   0.329   2.115  0.3204  0.0264  0.3456
 2025SOL    HW116114   0.097   0.373   2.130  0.1755 -0.2479  0.2907
 2025SOL    HW216115   0.212   0.340   2.019 -1.5685 -3.4034 -0.6523
 2026SOL     OW16116   2.070   1.910   0.403 -0.0854  0.3090  0.9318
 2026SOL    HW116117   2.091   1.995   0.356  0.0095 -0.9957 -1.4665
 2026SOL    HW216118   1.982   1.874   0.371  0.1180 -0.7408  1.5168
 2027SOL     OW16119   3.733   9.035   0.218  0.1533 -0.3152  0.5513
 2027SOL    HW116120   3.724   9.010   0.121 -1.5584  0.6363  0.4310
 2027SOL    HW216121   3.715   8.954   0.275  1.5269 -0.9624  0.0735
 2028SOL     OW16122   2.435   6.563   0.862 -0.7616  0.2587 -0.6658
 2028SOL    HW116123   2.350   6.606   0.893 -1.2878 -1.5701  0.5362
 2028SOL    HW216124   2.457   6.595   0.771 -0.6014  3.8112  0.5501
 2029SOL     OW16125   0.243   0.913   1.918  0.2936  0.0127 -0.5274
 2029SOL    HW116126   0.300   0.903   1.838  0.1217 -1.5804 -0.4610
 2029SOL    HW216127   0.298   0.945   1.995  0.6023  0.8041 -1.0689
 2030SOL     OW16128   0.583   5.621   1.466 -0.2142 -0.0401  0.1507
 2030SOL    HW116129   0.529   5.537   1.462  0.1892 -0.3331  0.7895
 2030SOL    HW216130   0.677   5.599   1.491  0.2844  0.4365 -1.2320
 2031SOL     OW16131   9.175   2.604   1.531  0.4847 -0.9583  0.3168
 2031SOL    HW116132   9.140   2.632   1.620 -0.2291  3.0679 -1.1271
 2031SOL    HW216133   9.272   2.629   1.523 -0.0845  1.0063 -0.8774
 2032SOL     OW16134   2.686   5.628   1.053 -0.2428 -0.3200  0.0775
 2032SOL    HW116135   2.768   5.572   1.037  0.1494 -0.2255  1.6721
 2032SOL    HW216136   2.622   5.577   1.111 -1.4600 -0.5014 -1.3742
 2033SOL     OW16137   9.690   4.007   0.230 -0.2095  0.4355 -0.2600
 2033SOL    HW116138   9.785   3.981   0.247 -1.2657 -3.0862  0.6684
 2033SOL    HW216139   9.671   4.095   0.274  1.9228 -0.1161  1.8711
 2034SOL     OW16140   8.867   2.110   0.951 -1.0303  0.0753 -0.4498
 2034SOL    HW116141   8.948   2.163   0.976 -0.7689 -0.5963  0.1395
 2034SOL    HW216142   8.894   2.016   0.930 -1.5723  0.0106 -0.8731
 2035SOL     OW16143   0.254   4.414   1.547  0.2247  0.0708 -0.0313
 2035SOL    HW116144   0.200   4.486   1.592  1.6590  2.3400 -1.7867
 2035SOL    HW216145   0.347   4.446   1.533  0.8577 -2.1072 -0.9964
 2036SOL     OW16146   1.748   6.746   1.225 -0.1230  0.1022  0.0187
 2036SOL    HW116147   1.650   6.740   1.243  0.0472 -2.4524  0.3314
 2036SOL    HW216148   1.765   6.732   1.127 -0.0537  0.3261 -0.0017
 2037SOL     OW16149   2.171   9.170   1.246  1.1685 -0.7401  0.5973
 2037SOL    HW116150   2.121   9.204   1.167  0.8559 -1.6433  0.4015
 2037SOL    HW216151   2.107   9.131   1.312  1.4274  0.0229  1.3000
 2038SOL     OW16152   1.689   5.946   2.036  0.1382  0.1225 -0.2652
 2038SOL    HW116153   1.621   6.013   2.067 -0.0942 -0.4428  0.4551
 2038SOL    HW216154   1.743   5.986   1.961 -0.9891  0.5787 -0.8591
 2039SOL     OW16155   1.498   0.002   2.733 -0.5224  0.0417 -0.2487
 2039SOL    HW116156   1.569  -0.069   2.731 -0.9892 -0.4620  0.6343
 2039SOL    HW216157   1.535   0.084   2.776 -0.4525 -0.1995  0.1579
 2040SOL     OW16158   9.134   3.694   0.703 -0.1866 -0.6034  0.0509
 2040SOL    HW116159   9.119   3.627   0.630  0.9665 -2.4420  1.4476
 2040SOL    HW216160   9.144   3.785   0.663 -1.1985 -1.3241 -1.9402
 2041SOL     OW16161   1.403   4.456   0.601  0.0038 -0.3584  1.1005
 2041SOL    HW116162   1.352   4.475   0.517  0.3445 -0.6136  0.8385
 2041SOL    HW216163   1.381   4.526   0.670  4.4845  3.6799 -1.2402
 2042SOL     OW16164   0.168   1.031   0.147  0.6206  0.4809  0.7608
 2042SOL    HW116165   0.073   1.056   0.167  0.8542  1.0395  1.2137
 2042SOL    HW216166   0.229   1.103   0.182  1.1576  0.5487 -0.3115
 2043SOL     OW16167   1.636   0.415   0.003  0.0000 -0.0695  0.5411
 2043SOL    HW116168   1.613   0.325   0.039  1.0700 -0.6336 -0.1698
 2043SOL    HW216169   1.575   0.438  -0.073  1.2209 -1.2024 -0.7979
 2044SOL     OW16170   3.207   9.089   2.783 -0.0584 -0.0027  0.0738
 2044SOL    HW116171   3.212   8.991   2.801 -0.4595  0.2460  1.6626
 2044SOL    HW216172   3.216   9.139   2.870 -2.1086  1.2988 -0.4361
 2045SOL     OW16173   0.977   5.516   2.773 -0.1193 -0.3933  0.1576
 2045SOL    HW116174   0.927   5.439   2.813  1.0096 -0.6565  1.0671
 2045SOL    HW216175   0.966   5.597   2.831 -0.5279 -0.1077 -0.3088
 2046SOL     OW16176   2.914   1.800   2.692  0.5964  0.0089 -0.3252
 2046SOL    HW116177   3.008   1.782   2.664  0.2081 -0.3115 -1.4240
 2046SOL    HW216178   2.856   1.810   2.612 -0.6511 -1.6031  0.3437
 2047SOL     OW16179   7.657   1.744   1.242  0.3509  0.2876 -0.1672
 2047SOL    HW116180   7.595   1.712   1.170 -0.9531  0.3184  0.9252
 2047SOL    HW216181   7.730   1.798   1.201  0.1981 -0.5513 -1.5756
 2048SOL     OW16182   4.092   8.433   2.523 -0.4649  0.1669 -0.0218
 2048SOL    HW116183   4.016   8.430   2.588 -1.5714  1.7233 -1.1924
 2048SOL    HW216184   4.171   8.478   2.565 -0.1048 -1.6241  1.2644
 2049SOL     OW16185   3.100   3.154   2.285  0.6228 -0.2832  0.4281
 2049SOL    HW116186   3.072   3.248   2.304 -0.5063 -0.7168  0.9745
 2049SOL    HW216187   3.018   3.097   2.272  1.3038 -0.9940 -0.8763
 2050SOL     OW16188   9.841   5.086   2.709 -0.0160 -0.1270 -0.3318
 2050SOL    HW116189   9.856   5.080   2.610 -0.7398 -0.1107 -0.4391
 2050SOL    HW216190   9.752   5.049   2.732  0.2369 -0.3226  0.3469
 2051SOL     OW16191   1.148   1.306   0.216 -0.3383 -0.5315  0.6862
 2051SOL    HW116192   1.138   1.285   0.314 -0.8251 -1.9178  0.3421
 2051SOL    HW216193   1.239   1.281   0.185  0.4322  1.5800  1.1912
 2052SOL     OW16194   4.057   3.669   1.492  0.3538 -0.6887 -0.0800
 2052SOL    HW116195   4.129   3.605   1.464  0.6247 -0.3065 -0.2581
 2052SOL    HW216196   4.043   3.737   1.420  0.3550 -0.3033  0.2823
 2053SOL     OW16197   0.928   6.704   1.400 -0.2956 -0.1899  0.3535
 2053SOL    HW116198   0.860   6.715   1.328  0.6827 -0.1939 -0.5839
 2053SOL    HW216199   0.997   6.776   1.392  1.3444 -1.8013 -0.4418
 2054SOL     OW16200   8.733   3.091   1.533  0.3348  1.0914 -0.4732
 2054SOL    HW116201   8.748   3.102   1.631 -1.4419  1.6731 -0.2380
 2054SOL    HW216202   8.815   3.117   1.483  1.4111  0.3412  0.8757
 2055SOL     OW16203   9.420   3.184   1.323 -0.5109  0.3294 -0.2854
 2055SOL    HW116204   9.439   3.263   1.264 -2.0325 -0.5110 -1.9301
 2055SOL    HW216205   9.368   3.214   1.403  1.8135  1.5276  0.8233
 2056SOL     OW16206   3.410   0.356   2.047  0.2434  0.4645  0.0390
 2056SOL    HW116207   3.508   0.375   2.041  0.4443  0.0084  1.5146
 2056SOL    HW216208   3.396   0.258   2.062 -0.3992  0.6291  0.5273
 2057SOL     OW16209   0.316   3.168   1.525 -0.2177  0.3013 -0.0460
 2057SOL    HW116210   0.264   3.242   1.569  0.1840 -0.5042  1.8366
 2057SOL    HW216211   0.275   3.080   1.548  0.3984 -0.1783 -0.7597
 2058SOL     OW16212   2.964   8.893   1.520  0.6171 -0.1507  0.0497
 2058SOL    HW116213   3.034   8.847   1.574  1.8742  1.0071 -0.5561
 2058SOL    HW216214   2.875   8.854   1.541  1.0747  0.2093  2.9171
 2059SOL     OW16215   8.842   2.007   1.358  0.2400 -0.3174  0.3568
 2059SOL    HW116216   8.800   1.998   1.267 -0.7906 -0.5574  0.8527
 2059SOL    HW216217   8.872   1.917   1.390 -1.3018 -0.5755  1.1447
 2060SOL     OW16218   1.809   5.774   0.558 -0.2715 -0.1584 -0.1664
 2060SOL    HW116219   1.886   5.827   0.593  0.3621 -1.0503 -0.2106
 2060SOL    HW216220   1.733   5.779   0.623  0.3438 -0.5052  0.5807
 2061SOL     OW16221   1.285   4.566   0.008  0.1895 -0.2255  0.0002
 2061SOL    HW116222   1.368   4.516  -0.019  0.6535  1.1575 -1.1569
 2061SOL    HW216223   1.283   4.575   0.107  1.9094  0.5524 -0.0237
 2062SOL     OW16224   3.752   4.198   2.327 -0.2177  0.0024  0.6662
 2062SOL    HW116225   3.706   4.217   2.241  0.5982  0.6372  0.3562
 2062SOL    HW216226   3.783   4.284   2.368  0.0059 -0.3483  1.2490
 2063SOL     OW16227   3.782   7.708   0.846  0.6381 -0.3946 -0.6743
 2063SOL    HW116228   3.857   7.773   0.852  0.1861  0.1347 -0.7129
 2063SOL    HW216229   3.766   7.667   0.936 -0.4090  1.0688 -0.1606
 2064SOL     OW16230   2.849   3.299   2.458 -0.1797 -0.4308  0.0837
 2064SOL    HW116231   2.898   3.278   2.542  0.2931  0.0915 -0.0555
 2064SOL    HW216232   2.820   3.214   2.413  1.7491 -0.7766 -0.5152
 2065SOL     OW16233   9.876   1.865   0.153  0.6327 -0.6180  0.2266
 2065SOL    HW116234   9.831   1.782   0.120 -0.4667  0.1765 -0.3003
 2065SOL    HW216235   9.892   1.927   0.076  2.8472 -0.9730  0.3686
 2066SOL     OW16236   2.037   0.379   2.361 -0.1652 -0.2183  0.0344
 2066SOL    HW116237   2.118   0.347   2.311  0.0898  0.8824 -0.2639
 2066SOL    HW216238   2.065   0.412   2.451 -0.2449  0.4228 -0.1755
 2067SOL     OW16239   1.111   6.504   2.729 -0.0829  0.3486 -0.0036
 2067SOL    HW116240   1.091   6.541   2.639 -0.6113 -1.8861 -0.8255
 2067SOL    HW216241   1.198   6.541   2.762  1.3015 -0.6535 -2.4691
 2068SOL     OW16242   2.899   2.087   1.319 -0.3271  0.6432  0.2664
 2068SOL    HW116243   2.923   2.032   1.400  1.9249  0.0270 -0.7745
 2068SOL    HW216244   2.974   2.149   1.298 -0.8547  0.7124 -1.4443
 2069SOL     OW16245   3.535   8.082   0.486 -0.1835 -0.6357  0.3526
 2069SOL    HW116246   3.474   8.030   0.426  0.0158 -1.0579  0.5129
 2069SOL    HW216247   3.627   8.043   0.483 -0.2940 -1.0094  1.3376
 2070SOL     OW16248   9.752   4.617   2.151 -0.8528  0.4413 -0.0770
 2070SOL    HW116249   9.747   4.569   2.239  0.8038 -0.5184 -0.4743
 2070SOL    HW216250   9.787   4.555   2.081 -2.4210  1.1194 -1.4982
 2071SOL     OW16251   9.895   2.355   2.126 -0.3636 -0.2125 -0.1558
 2071SOL    HW116252   9.907   2.373   2.028 -0.8454 -1.1287 -0.3858
 2071SOL    HW216253   9.799   2.336   2.144 -0.7014  2.2406  0.8780
 2072SOL     OW16254   9.944   2.433   2.417 -0.2996  0.1640  0.2922
 2072SOL    HW116255   9.922   2.377   2.337 -0.1930  0.8098 -0.1929
 2072SOL    HW216256  10.026   2.396   2.461  0.1380  0.3103 -0.3907
 2073SOL     OW16257   3.014   0.398   1.466 -0.2837  0.2756 -0.7474
 2073SOL    HW116258   2.948   0.432   1.398 -0.5262  1.5975  0.1179
 2073SOL    HW216259   3.050   0.475   1.518  0.5720 -0.6365  0.0292
 2074SOL     OW16260   2.077   0.643   0.145 -0.0250 -0.0070  0.5722
 2074SOL    HW116261   2.004   0.617   0.081 -0.9928 -0.4165  1.8353
 2074SOL    HW216262   2.049   0.725   0.195  0.9590  0.6225  0.0950
 2075SOL     OW16263   3.776   8.515   0.229  0.1396 -0.1637  0.0809
 2075SOL    HW116264   3.732   8.438   0.182  0.2148 -0.5117  0.5760
 2075SOL    HW216265   3.791   8.590   0.165  1.9188 -1.3281 -0.8976
 2076SOL     OW16266   2.137   2.198   0.320 -0.0679 -0.3428 -0.5075
 2076SOL    HW116267   2.115   2.288   0.281  1.4820  0.3877  0.2813
 2076SOL    HW216268   2.225   2.166   0.284  0.6920 -0.3061  1.2631
 2077SOL     OW16269   2.174   3.082   0.292 -0.0510 -0.1819 -1.0788
 2077SOL    HW116270   2.196   3.032   0.208 -0.3889 -2.2220  0.0294
 2077SOL    HW216271   2.081   3.118   0.286  0.1807  0.2999 -1.8621
 2078SOL     OW16272   2.878   4.792   1.213  0.0588  0.0208  0.8155
 2078SOL    HW116273   2.822   4.718   1.250  2.3359 -1.4342  1.4715
 2078SOL    HW216274   2.958   4.806   1.272  1.1312  1.0922 -0.8351
 2079SOL     OW16275   1.358   6.511   1.766  0.6013  0.0410 -0.3677
 2079SOL    HW116276   1.290   6.559   1.711  1.0557  0.9148 -0.1816
 2079SOL    HW216277   1.360   6.551   1.858  0.1264 -1.1485  0.1599
 2080SOL     OW16278   3.327   3.659   1.039 -0.1208  0.6649 -0.0170
 2080SOL    HW116279   3.415   3.625   1.072 -0.4392 -1.0447 -0.8618
 2080SOL    HW216280   3.253   3.623   1.097 -0.4058  0.4929 -0.4811
 2081SOL     OW16281   2.767   1.381   2.537  0.4227 -0.0916  0.1163
 2081SOL    HW116282   2.716   1.335   2.464  0.9306 -2.4379  1.1963
 2081SOL    HW216283   2.721   1.365   2.625  1.0031  0.9061  0.6137
 2082SOL     OW16284   9.689   3.476   0.915  0.2724  0.3391  0.3786
 2082SOL    HW116285   9.607   3.516   0.957 -0.5418 -0.5510 -0.3469
 2082SOL    HW216286   9.766   3.485   0.978 -0.6592  0.1128  1.5713
 2083SOL     OW16287   9.016   0.773   0.366  0.2046  0.1372 -0.6940
 2083SOL    HW116288   9.082   0.756   0.292  1.2771  1.1293  0.0210
 2083SOL    HW216289   9.030   0.707   0.439  0.1931  0.1500 -0.6803
 2084SOL     OW16290   3.733   2.589   1.279  0.0842 -0.7560  0.7163
 2084SOL    HW116291   3.811   2.629   1.327  0.7358 -2.8023  1.4358
 2084SOL    HW216292   3.653   2.647   1.292  1.1333  0.5936  1.2463
 2085SOL     OW16293   2.449   3.899   0.776 -0.0674 -0.2076  0.0542
 2085SOL    HW116294   2.412   3.814   0.738  0.7093  0.0765 -1.3915
 2085SOL    HW216295   2.419   3.909   0.871 -0.2005 -2.0718  0.2340
 2086SOL     OW16296   2.717   1.458   0.229 -0.3465  0.6744 -0.8210
 2086SOL    HW116297   2.718   1.536   0.166 -0.2749  1.4048  0.0715
 2086SOL    HW216298   2.675   1.486   0.315  1.6382  0.3375  0.2857
 2087SOL     OW16299   1.791   9.924   1.027  0.3556 -0.5634 -0.1712
 2087SOL    HW116300   1.713   9.983   1.005  2.0065  0.9118 -2.2667
 2087SOL    HW216301   1.776   9.834   0.985  0.5143  0.2331 -1.9798
 2088SOL     OW16302   4.195   2.481   1.226 -0.4225 -0.2903  0.0264
 2088SOL    HW116303   4.283   2.527   1.219 -1.2908  1.3079 -0.7410
 2088SOL    HW216304   4.165   2.480   1.322  0.3917 -0.7790  0.2774
 2089SOL     OW16305   0.872   9.346   1.088  0.6062 -0.4851  0.3245
 2089SOL    HW116306   0.784   9.368   1.130 -0.3133 -0.9776 -1.2800
 2089SOL    HW216307   0.941   9.411   1.118 -0.5431  0.5189  0.8265
 2090SOL     OW16308   9.198   2.282   1.465  0.4104 -0.0234  0.1109
 2090SOL    HW116309   9.141   2.340   1.523  0.8531  0.4331  0.0934
 2090SOL    HW216310   9.278   2.333   1.435 -1.3499  0.7333 -3.4568
 2091SOL     OW16311   9.276   4.094   0.379  0.1463 -0.1636 -0.1953
 2091SOL    HW116312   9.194   4.152   0.378 -0.5727 -1.1809 -0.4076
 2091SOL    HW216313   9.291   4.056   0.288 -0.1917 -1.4317  0.2621
 2092SOL     OW16314   8.927   0.853   2.676 -0.5356 -0.4987 -0.0848
 2092SOL    HW116315   8.991   0.780   2.699 -0.1680  0.7714  3.0990
 2092SOL    HW216316   8.968   0.912   2.606  2.4290  1.1098  2.9001
 2093SOL     OW16317   3.134   7.285   1.304  0.3249  0.2055 -0.0999
 2093SOL    HW116318   3.078   7.335   1.239  0.3467  1.2864  0.7024
 2093SOL    HW216319   3.187   7.215   1.256 -1.4999 -0.6567 -0.9058
 2094SOL     OW16320   3.486   4.204   1.617 -0.0234 -0.5165  0.4756
 2094SOL    HW116321   3.567   4.218   1.673  0.7014 -2.9207  0.0949
 2094SOL    HW216322   3.464   4.106   1.614 -2.6378  0.0270  0.1444
 2095SOL     OW16323   1.913   3.324   0.278  0.1542 -0.2378 -0.0288
 2095SOL    HW116324   1.959   3.354   0.194  1.4032  0.3369  0.8521
 2095SOL    HW216325   1.879   3.404   0.327 -2.9681 -0.7172 -1.3019
 2096SOL     OW16326   1.694   0.801   1.614 -0.2536  0.0548 -0.1214
 2096SOL    HW116327   1.638   0.807   1.531  0.7523 -0.6659 -0.8726
 2096SOL    HW216328   1.791   0.804   1.588  0.1088 -2.8391  0.7896
 2097SOL     OW16329   1.750   1.722   2.367 -0.1939 -0.3922 -0.0773
 2097SOL    HW116330   1.744   1.820   2.351  1.3031 -0.3596 -0.4648
 2097SOL    HW216331   1.683   1.675   2.309 -2.0565  0.4909  1.3029
 2098SOL     OW16332   8.949   3.266   1.417 -0.3337  0.0340 -0.3128
 2098SOL    HW116333   8.925   3.314   1.332 -0.4394  0.2079 -0.1841
 2098SOL    HW216334   8.987   3.177   1.394  1.1726  0.7381 -0.6021
 2099SOL     OW16335   0.629   1.168   0.046  0.1059  0.9089 -0.4371
 2099SOL    HW116336   0.690   1.189   0.122 -0.5153 -0.9826  0.6091
 2099SOL    HW216337   0.653   1.079   0.008 -1.1284  0.7604 -0.8938
 2100SOL     OW16338   1.853   4.589   1.751  0.0152  0.4374 -0.3224
 2100SOL    HW116339   1.838   4.652   1.674  0.7374  0.0486 -0.7812
 2100SOL    HW216340   1.862   4.642   1.835  0.7598  0.9544 -0.7240
 2101SOL     OW16341   0.931   1.263   2.296  0.3763 -0.0479  0.0654
 2101SOL    HW116342   0.997   1.189   2.287 -0.3961 -0.3863 -3.8484
 2101SOL    HW216343   0.842   1.226   2.322  0.5827 -0.1823  0.5799
 2102SOL     OW16344   9.282   0.518   0.378 -0.2916  0.2837  0.0860
 2102SOL    HW116345   9.274   0.613   0.347 -1.8466 -0.4266 -1.8111
 2102SOL    HW216346   9.340   0.514   0.459 -0.4143  2.8875  0.3498
 2103SOL     OW16347   0.907   2.114   0.734  1.0682  0.3252  0.1004
 2103SOL    HW116348   0.990   2.160   0.764  1.2774  0.7366 -1.0886
 2103SOL    HW216349   0.829   2.147   0.787  1.0992  2.6333 -1.2460
 2104SOL     OW16350   0.707   3.947   0.256  0.2750  0.3348  0.7044
 2104SOL    HW116351   0.697   4.011   0.332  1.3425 -0.0141  1.1403
 2104SOL    HW216352   0.660   3.861   0.279 -1.0887  0.9193  0.1512
 2105SOL     OW16353   2.984   1.497   2.623  0.1872 -0.0845 -0.2325
 2105SOL    HW116354   2.886   1.481   2.615 -0.3675  2.2403  1.4838
 2105SOL    HW216355   3.016   1.550   2.544 -0.5633  1.8389  0.7325
 2106SOL     OW16356   3.182   1.474   1.231  0.1358  0.1870 -0.1862
 2106SOL    HW116357   3.260   1.535   1.236  0.3673 -0.0562 -0.8311
 2106SOL    HW216358   3.212   1.379   1.244 -0.0248  0.0763 -0.6203
 2107SOL     OW16359   2.416   4.295   2.094  0.6929  0.3616  0.3193
 2107SOL    HW116360   2.506   4.318   2.130  0.8629  0.0458  0.0964
 2107SOL    HW216361   2.393   4.356   2.019  0.6832  0.4957  0.4302
 2108SOL     OW16362   1.591   4.904   1.546 -0.2240 -0.0051 -0.3060
 2108SOL    HW116363   1.612   4.842   1.621 -0.9068  0.3720  0.2067
 2108SOL    HW216364   1.665   4.902   1.479  2.1839  2.3954  2.1307
 2109SOL     OW16365   9.863   3.043   1.763 -0.5947  0.2158 -0.2335
 2109SOL    HW116366   9.811   3.034   1.679  0.8071 -0.6695 -1.0310
 2109SOL    HW216367   9.800   3.047   1.841 -1.8560 -0.3112 -1.2075
 2110SOL     OW16368   2.126   0.577   1.961 -0.2792  0.1381 -0.1399
 2110SOL    HW116369   2.105   0.617   2.050  1.6960 -2.2012  1.4201
 2110SOL    HW216370   2.209   0.619   1.924  0.5660 -0.9453  0.5001
 2111SOL     OW16371   2.842   1.283   1.369  0.3076  0.0599  0.3043
 2111SOL    HW116372   2.894   1.247   1.291  0.8650  2.2260 -0.3728
 2111SOL    HW216373   2.745   1.270   1.354  0.5495 -4.0990  1.6013
 2112SOL     OW16374   8.699   2.768   2.713  0.3572  0.1107  0.4346
 2112SOL    HW116375   8.681   2.686   2.658 -0.4377  0.0251  0.8145
 2112SOL    HW216376   8.791   2.762   2.752  1.1407  0.4257 -1.3069
 2113SOL     OW16377   1.199   6.588   0.875 -0.3461  0.0835 -0.1917
 2113SOL    HW116378   1.179   6.577   0.973 -0.0687  2.6176  0.1804
 2113SOL    HW216379   1.229   6.500   0.838 -1.3576 -1.1477  1.7718
 2114SOL     OW16380   9.987   0.305   1.612 -0.5966 -0.1778 -0.3759
 2114SOL    HW116381   9.982   0.279   1.515 -1.9584  0.4669 -0.4823
 2114SOL    HW216382  10.053   0.246   1.659 -1.1400 -1.5694 -1.3413
 2115SOL     OW16383   2.602   8.953   1.011 -0.0767  0.0878 -0.7068
 2115SOL    HW116384   2.516   9.003   1.022  0.9546  1.5460  0.8313
 2115SOL    HW216385   2.625   8.907   1.097 -0.0620 -1.5518 -1.5544
 2116SOL     OW16386   1.547   3.926   0.066 -0.1863  0.2204  1.0780
 2116SOL    HW116387   1.622   3.883   0.116 -0.1753  0.8064  1.5811
 2116SOL    HW216388   1.461   3.883   0.093  0.0294 -0.9559 -0.0546
 2117SOL     OW16389   1.783   3.494   2.126 -0.1074  0.0158 -0.2182
 2117SOL    HW116390   1.864   3.437   2.117 -0.9757 -1.3861  0.7495
 2117SOL    HW216391   1.711   3.459   2.066 -0.7757 -0.1507  0.6789
 2118SOL     OW16392   2.615   9.972   1.884 -0.3337 -0.2026  0.0760
 2118SOL    HW116393   2.588   9.882   1.849 -2.3221 -0.4995  2.2875
 2118SOL    HW216394   2.567   9.991   1.969 -0.0212  3.0319 -0.4011
 2119SOL     OW16395   1.353   5.429   2.679  0.0901  0.0587 -0.2957
 2119SOL    HW116396   1.273   5.478   2.643  1.1592  1.6828 -0.5156
 2119SOL    HW216397   1.395   5.376   2.605  0.8076  1.3869 -0.8573
 2120SOL     OW16398   4.253   2.021   0.647  0.2314 -0.0882 -0.1173
 2120SOL    HW116399   4.254   1.922   0.631  1.6120 -0.2859  1.0807
 2120SOL    HW216400   4.159   2.054   0.645 -0.4328 -1.7684  1.3691
 2121SOL     OW16401   0.852   4.752   0.613 -0.2010  0.7506  0.4126
 2121SOL    HW116402   0.832   4.705   0.526  1.5042 -0.3312  0.5763
 2121SOL    HW216403   0.776   4.737   0.677 -0.4001 -0.4725 -0.0876
 2122SOL     OW16404   1.275   4.561   0.346  0.2033 -0.0575  0.0673
 2122SOL    HW116405   1.210   4.571   0.420 -1.0472 -3.1794 -0.5408
 2122SOL    HW216406   1.269   4.468   0.308  1.2085  1.2626 -3.5374
 2123SOL     OW16407   3.990   4.210   1.677 -0.0671 -0.0689 -0.3304
 2123SOL    HW116408   3.982   4.111   1.672  2.2459 -0.3122  0.3005
 2123SOL    HW216409   4.086   4.236   1.685 -0.8659  2.0183  3.6489
 2124SOL     OW16410   2.814   3.091   2.762  0.0094  0.5656 -0.0572
 2124SOL    HW116411   2.747   3.098   2.836  0.9934  3.8638  0.5912
 2124SOL    HW216412   2.850   2.998   2.758 -1.0705 -0.0078  2.7023
 2125SOL     OW16413   2.306   4.908   2.193  0.3480  0.1288 -0.2809
 2125SOL    HW116414   2.383   4.896   2.255  0.2010  0.9510  0.0660
 2125SOL    HW216415   2.220   4.891   2.242  0.2134  1.1597 -0.1578
 2126SOL     OW16416   9.004   2.382   1.663 -0.5831  0.0793  0.1793
 2126SOL    HW116417   8.949   2.315   1.613 -2.2244  1.5979 -0.1059
 2126SOL    HW216418   8.995   2.471   1.619  2.6236  0.2437 -0.2274
 2127SOL     OW16419   2.624   7.638   0.665  0.1357  0.2139 -0.2067
 2127SOL    HW116420   2.539   7.658   0.616  1.4637 -0.2841 -2.7876
 2127SOL    HW216421   2.679   7.721   0.672  0.7151 -0.0830 -1.1231
 2128SOL     OW16422   2.623   4.857   1.124 -0.0423  0.3532 -0.7320
 2128SOL    HW116423   2.712   4.835   1.163 -0.2266 -1.7067 -1.4357
 2128SOL    HW216424   2.622   4.835   1.027 -1.4290  0.0647 -0.6668
 2129SOL     OW16425   1.469   9.987   1.230 -0.4291 -0.6492 -0.1769
 2129SOL    HW116426   1.475  10.083   1.256 -1.6369 -0.6873  0.2684
 2129SOL    HW216427   1.477   9.930   1.311 -2.3489 -0.8265 -0.0744
 2130SOL     OW16428   3.052   0.518   2.136 -0.2885  0.7199 -0.0570
 2130SOL    HW116429   3.047   0.569   2.222 -0.8299  1.8219 -0.7305
 2130SOL    HW216430   2.968   0.531   2.085 -0.0174 -0.0372 -0.7128
 2131SOL     OW16431   2.370   2.979   1.666 -0.3284  0.2931  0.0469
 2131SOL    HW116432   2.451   3.030   1.694  0.5026 -0.1934 -1.4154
 2131SOL    HW216433   2.337   2.923   1.742  0.5417  0.6979  0.7254
 2132SOL     OW16434   1.107   1.967   0.994  0.1282  0.4592 -0.4107
 2132SOL    HW116435   1.065   2.038   1.051 -0.7248  0.2201 -0.7307
 2132SOL    HW216436   1.206   1.976   0.998  0.0268  2.5820 -1.5519
 2133SOL     OW16437   3.686   3.382   0.199  0.3013 -0.1845 -0.3943
 2133SOL    HW116438   3.586   3.381   0.199  0.3056 -1.0659 -1.2907
 2133SOL    HW216439   3.720   3.343   0.285 -0.1232  0.4391  0.0581
 2134SOL     OW16440   9.712   0.941   2.073  1.0095 -0.3244 -0.0674
 2134SOL    HW116441   9.648   0.864   2.074  1.0117 -0.3413 -0.6546
 2134SOL    HW216442   9.721   0.975   1.979 -0.3421  1.5386  0.4547
 2135SOL     OW16443   0.236   4.184   2.313 -0.8545  0.2081 -0.1562
 2135SOL    HW116444   0.278   4.222   2.230 -2.1662  0.6425 -0.6281
 2135SOL    HW216445   0.140   4.165   2.296 -0.8601 -0.7818  0.9290
 2136SOL     OW16446   1.767   7.380   2.558  0.2009  0.6830  0.1052
 2136SOL    HW116447   1.824   7.427   2.625  0.9184  1.0159 -0.7392
 2136SOL    HW216448   1.772   7.281   2.574  1.5550  0.6639 -0.3926
 2137SOL     OW16449   0.172   2.368   0.005  0.2854 -0.0523  0.1695
 2137SOL    HW116450   0.128   2.371  -0.084  1.2642  0.6616 -0.3053
 2137SOL    HW216451   0.227   2.451   0.017  0.4712 -0.3293  1.2739
 2138SOL     OW16452   9.721   5.448   0.851  0.7593  0.3338 -0.4109
 2138SOL    HW116453   9.728   5.363   0.798  2.8514  0.4968 -0.4310
 2138SOL    HW216454   9.776   5.519   0.808  3.1865  0.2339  2.3456
 2139SOL     OW16455   3.208   2.702   0.433 -0.1906  0.0152  0.1472
 2139SOL    HW116456   3.289   2.645   0.447 -0.8103 -0.9089 -0.0316
 2139SOL    HW216457   3.236   2.798   0.424  0.7526 -0.1268  1.4956
 2140SOL     OW16458   2.298   8.603   2.623 -0.4113  0.4606 -0.2270
 2140SOL    HW116459   2.230   8.632   2.556  1.3889 -0.9189 -2.7528
 2140SOL    HW216460   2.262   8.528   2.678 -1.9335  1.6642  0.4502
 2141SOL     OW16461   1.517   1.622   0.757  0.1577 -0.2803  0.6251
 2141SOL    HW116462   1.541   1.718   0.769  0.5716 -0.4405  1.1102
 2141SOL    HW216463   1.466   1.589   0.837  0.5538 -0.6265  0.7385
 2142SOL     OW16464   1.618   1.095   0.886 -0.4484 -0.1466  0.3069
 2142SOL    HW116465   1.639   1.101   0.788  1.2280 -0.5899  0.6285
 2142SOL    HW216466   1.569   1.010   0.905  0.3230 -0.6610  0.0315
 2143SOL     OW16467   1.386   6.863   2.810  0.0835 -0.6075  0.2258
 2143SOL    HW116468   1.362   6.772   2.777 -1.1800 -0.2863  0.2146
 2143SOL    HW216469   1.418   6.858   2.905  2.2049 -1.3338 -0.5081
 2144SOL     OW16470   0.815   4.608   1.136 -0.5360  0.4076  0.3170
 2144SOL    HW116471   0.864   4.633   1.220 -0.6849  0.3532  0.4222
 2144SOL    HW216472   0.760   4.686   1.106 -1.5564 -0.0103  1.0449
 2145SOL     OW16473   0.847   7.433   0.905  0.0342 -0.5624  0.0333
 2145SOL    HW116474   0.889   7.440   0.995  0.3177 -0.5446 -0.1004
 2145SOL    HW216475   0.763   7.488   0.903 -0.4746 -1.3073  0.5722
 2146SOL     OW16476   0.888   2.746   1.699 -0.0031  0.3345  0.1112
 2146SOL    HW116477   0.929   2.696   1.623  0.6832  0.4262  0.4144
 2146SOL    HW216478   0.902   2.695   1.784 -0.3163  0.4757  0.2463
 2147SOL     OW16479   1.983   4.266   0.055 -0.0696  0.1924 -0.1834
 2147SOL    HW116480   1.965   4.364   0.045 -1.4441 -0.0971 -0.7262
 2147SOL    HW216481   2.019   4.248   0.146 -0.9444  1.0568  0.3409
 2148SOL     OW16482   0.948   6.361   1.625  0.1063 -0.5061 -0.3947
 2148SOL    HW116483   0.862   6.342   1.577  0.3490 -2.2404 -0.2072
 2148SOL    HW216484   1.010   6.284   1.612  1.6885  0.8021 -0.6442
 2149SOL     OW16485   1.688   2.733   1.020 -0.3094  0.1344  0.1156
 2149SOL    HW116486   1.737   2.646   1.016 -1.2177 -0.4287  1.1256
 2149SOL    HW216487   1.742   2.804   0.974 -0.2654 -1.2724 -2.0170
 2150SOL     OW16488   3.349   1.914   1.007 -0.2989  0.5982 -0.7442
 2150SOL    HW116489   3.384   1.930   1.099  0.7007 -1.5116 -0.7281
 2150SOL    HW216490   3.256   1.877   1.013  0.1874 -0.6211 -0.5155
 2151SOL     OW16491   3.832   3.142   0.947 -0.2420 -0.6898  0.0082
 2151SOL    HW116492   3.799   3.049   0.960  0.0929 -0.6562  1.1870
 2151SOL    HW216493   3.878   3.173   1.030 -1.3054  0.9243  0.0183
 2152SOL     OW16494   1.830   6.104   0.983 -0.0382  0.0721 -0.2488
 2152SOL    HW116495   1.776   6.126   1.064  2.3452 -0.4646  1.5245
 2152SOL    HW216496   1.836   6.005   0.973  0.2308  0.1336 -0.7086
 2153SOL     OW16497   2.215   4.433   1.460  0.1460 -0.0604  0.4386
 2153SOL    HW116498   2.197   4.348   1.409  0.2102 -0.2554  0.7409
 2153SOL    HW216499   2.217   4.510   1.396 -0.9031 -0.1491  0.2921
 2154SOL     OW16500   0.112   4.842   2.170 -0.3313 -0.1596 -0.5915
 2154SOL    HW116501   0.103   4.763   2.110 -0.0666 -1.4250  0.9976
 2154SOL    HW216502   0.023   4.866   2.208 -0.4288  0.3747 -1.1537
 2155SOL     OW16503   1.719   0.229   1.063  0.1672  0.4657  0.3991
 2155SOL    HW116504   1.716   0.151   1.126 -0.9607  0.4692  0.3634
 2155SOL    HW216505   1.794   0.217   0.998 -0.2748 -0.8167  0.1113
 2156SOL     OW16506   4.475   2.582   1.327 -0.0889  0.6364 -0.3048
 2156SOL    HW116507   4.477   2.545   1.419 -1.1807  1.8523  0.2213
 2156SOL    HW216508   4.566   2.575   1.286  0.4378  0.2480  0.9214
 2157SOL     OW16509   0.919   4.098   0.980 -0.1703 -0.0262  0.1836
 2157SOL    HW116510   0.923   4.198   0.977  0.1136  0.0055  1.5081
 2157SOL    HW216511   0.823   4.069   0.987 -0.1893  0.1812  0.7809
 2158SOL     OW16512   2.329   3.109   0.532  0.1199 -0.2128 -0.7020
 2158SOL    HW116513   2.385   3.026   0.525 -1.3739 -1.1472 -2.0432
 2158SOL    HW216514   2.272   3.117   0.450 -0.5449  1.5674 -0.0815
 2159SOL     OW16515   0.743   6.457   1.879 -0.2442 -0.6815 -0.0668
 2159SOL    HW116516   0.734   6.541   1.932 -1.9477  0.0434 -1.4857
 2159SOL    HW216517   0.834   6.417   1.896 -0.2078  0.2924  2.2370
 2160SOL     OW16518   8.714   3.064   0.302  0.1591 -0.5336  0.0276
 2160SOL    HW116519   8.794   3.114   0.335 -0.0001 -0.2028 -0.0957
 2160SOL    HW216520   8.631   3.111   0.330  0.0259  0.0219 -1.2998
 2161SOL     OW16521   2.597   3.659   0.945 -0.1691  0.5542 -0.7323
 2161SOL    HW116522   2.558   3.576   0.986  1.7566 -0.4953 -0.9378
 2161SOL    HW216523   2.673   3.633   0.885  0.7815  2.5077 -0.4103
 2162SOL     OW16524   0.613   5.562   2.282 -0.0739  0.1874  0.1935
 2162SOL    HW116525   0.545   5.606   2.223 -0.6685  0.0285  0.7530
 2162SOL    HW216526   0.646   5.478   2.239 -1.2650 -0.4672  0.5609
 2163SOL     OW16527   1.717   3.990   1.477  0.3251 -0.2701 -0.4220
 2163SOL    HW116528   1.684   3.976   1.570 -0.2289 -1.2326 -0.7549
 2163SOL    HW216529   1.651   4.046   1.426  1.0247  0.9490 -0.0032
 2164SOL     OW16530   1.593   1.155   1.155 -0.5965  0.3205  0.2131
 2164SOL    HW116531   1.615   1.163   1.058 -1.1754 -0.0504  0.0497
 2164SOL    HW216532   1.678   1.143   1.207 -0.2420  1.0806 -0.1855
 2165SOL     OW16533   8.667   0.923   0.793  0.6191 -0.3315 -0.1300
 2165SOL    HW116534   8.624   0.912   0.883  0.4082 -0.7113 -0.2789
 2165SOL    HW216535   8.609   0.981   0.736  0.8127  0.0077  0.0145
 2166SOL     OW16536   2.506   4.333   1.030  0.0584 -0.8444 -0.4023
 2166SOL    HW116537   2.604   4.321   1.015 -0.0887 -1.6921 -0.7293
 2166SOL    HW216538   2.457   4.310   0.946 -0.6259 -3.3734  0.6478
 2167SOL     OW16539   1.725   8.642   0.587 -0.2543 -0.2535  0.1603
 2167SOL    HW116540   1.654   8.642   0.657 -0.8137 -0.3421 -0.4055
 2167SOL    HW216541   1.799   8.581   0.615 -0.6116 -0.5142  0.5422
 2168SOL     OW16542   9.317   2.052   0.068 -0.2158 -0.3090  0.3082
 2168SOL    HW116543   9.319   2.114  -0.010  0.7393 -1.8670 -0.9550
 2168SOL    HW216544   9.307   2.104   0.153  0.1609  1.5081 -0.7462
 2169SOL     OW16545   2.212   9.012   1.793 -0.0201 -0.3813  0.4446
 2169SOL    HW116546   2.275   9.082   1.759 -1.4074  0.6734 -0.0006
 2169SOL    HW216547   2.175   8.960   1.716  1.4487 -2.0127  0.8158
 2170SOL     OW16548   1.862   8.817   0.954 -0.8233 -0.2081 -0.3997
 2170SOL    HW116549   1.934   8.843   1.018 -0.8682  1.8893 -1.1563
 2170SOL    HW216550   1.903   8.767   0.877 -0.2474  0.5245 -0.5755
 2171SOL     OW16551   0.054   2.701   2.365 -0.6895 -0.3851 -0.8268
 2171SOL    HW116552   0.070   2.769   2.437 -0.2392 -0.5121 -0.8032
 2171SOL    HW216553   0.041   2.611   2.407  2.0837 -0.9140 -1.0037
 2172SOL     OW16554   2.583   0.155   1.562 -0.3938 -0.2110 -0.0910
 2172SOL    HW116555   2.579   0.107   1.649 -1.3121 -2.1406 -1.1731
 2172SOL    HW216556   2.541   0.245   1.572  0.6755  0.1254  1.7570
 2173SOL     OW16557   9.737   4.917   1.225  0.6149  0.4019 -0.1515
 2173SOL    HW116558   9.742   4.817   1.222  0.2427  0.3867 -0.2984
 2173SOL    HW216559   9.821   4.955   1.186  0.7885  0.1489 -0.0334
 2174SOL     OW16560   2.926   9.737   1.237 -0.5708 -0.0766  0.3045
 2174SOL    HW116561   2.933   9.666   1.307 -2.8018  1.3746  2.0824
 2174SOL    HW216562   2.956   9.824   1.275 -1.5798  0.6815 -0.6185
 2175SOL     OW16563   2.528   9.806   0.532 -1.2537  0.4624  0.5653
 2175SOL    HW116564   2.544   9.762   0.621 -0.0555  0.2876  0.2675
 2175SOL    HW216565   2.565   9.748   0.459 -3.3242  0.0194 -0.1642
 2176SOL     OW16566   1.814   1.752   1.835  0.3168  0.1171 -0.3442
 2176SOL    HW116567   1.885   1.695   1.877 -1.1989 -1.4747  0.1196
 2176SOL    HW216568   1.823   1.748   1.736 -0.1458 -1.4349 -0.3337
 2177SOL     OW16569   1.742   3.624   2.714 -0.1255 -0.3765 -0.4760
 2177SOL    HW116570   1.648   3.649   2.692  0.4795  0.6190 -1.9642
 2177SOL    HW216571   1.797   3.623   2.631  0.9003 -2.2439  0.1961
 2178SOL     OW16572   8.157   1.926   0.956  0.7994  0.3466  0.1735
 2178SOL    HW116573   8.180   1.924   0.859 -0.1057 -0.4124 -0.0269
 2178SOL    HW216574   8.186   1.841   0.999  1.2011  0.6837  0.5751
 2179SOL     OW16575   1.411   7.553   1.894  0.3052 -0.2714 -0.1879
 2179SOL    HW116576   1.459   7.640   1.879  0.5149 -0.0842  1.5205
 2179SOL    HW216577   1.313   7.571   1.903  0.3223 -0.2326 -0.0720
 2180SOL     OW16578   3.234   2.967   0.478 -0.1148  0.5923  0.1159
 2180SOL    HW116579   3.210   2.998   0.386  2.1889 -1.2075 -1.1588
 2180SOL    HW216580   3.286   3.038   0.525  1.0015  0.5302 -0.9876
 2181SOL     OW16581   1.984   8.163   1.937  0.1249  0.4435 -0.1617
 2181SOL    HW116582   1.940   8.117   1.860  1.3922 -0.2624 -0.4822
 2181SOL    HW216583   2.074   8.198   1.908  1.8986 -2.3601  1.7312
 2182SOL     OW16584   3.564   2.361   0.885 -0.3844  0.0251  0.2815
 2182SOL    HW116585   3.632   2.394   0.950  0.8747 -0.5645 -0.7356
 2182SOL    HW216586   3.524   2.438   0.835  1.2722  0.1706 -0.8370
 2183SOL     OW16587   2.371   0.675   1.878 -0.1018 -0.0065 -0.1805
 2183SOL    HW116588   2.424   0.625   1.946  0.4620 -1.3039 -1.5376
 2183SOL    HW216589   2.404   0.651   1.786 -0.0053  2.6665 -0.8718
 2184SOL     OW16590   3.112   1.796   1.470 -0.5609  0.2973  0.5292
 2184SOL    HW116591   3.047   1.762   1.403 -0.5957  1.4194 -0.0133
 2184SOL    HW216592   3.071   1.870   1.523 -0.1566  0.1605  1.0457
 2185SOL     OW16593   3.998   1.887   1.417  0.3972  0.3764  0.3818
 2185SOL    HW116594   3.996   1.854   1.322  0.4123  0.4083  0.3705
 2185SOL    HW216595   4.020   1.811   1.478  0.9195  0.4710  0.3115
 2186SOL     OW16596   9.455   5.331   2.819  0.6376 -0.1701  0.2448
 2186SOL    HW116597   9.494   5.420   2.795 -1.0918  0.6515  0.4051
 2186SOL    HW216598   9.402   5.296   2.742 -1.0824  0.3112  1.1759
 2187SOL     OW16599   0.679   2.928   2.514  0.6699 -0.4709 -0.4452
 2187SOL    HW116600   0.709   2.893   2.603  0.0804 -0.0836 -0.0948
 2187SOL    HW216601   0.644   2.852   2.459  0.9329 -0.6927 -0.3106
 2188SOL     OW16602   3.760   7.331   0.074 -0.0463  0.1990  0.3107
 2188SOL    HW116603   3.704   7.372   0.145  0.4570  1.5293 -0.0416
 2188SOL    HW216604   3.755   7.232   0.081 -1.9660  0.3001  0.6404
 2189SOL     OW16605   3.507   8.689   2.236 -0.1753  0.5474 -0.2345
 2189SOL    HW116606   3.436   8.622   2.259 -0.4664  0.4647 -1.3097
 2189SOL    HW216607   3.586   8.676   2.295 -0.3090 -0.6319 -0.3050
 2190SOL     OW16608   1.021   0.795   0.497  0.1173  0.2235 -0.3074
 2190SOL    HW116609   1.000   0.697   0.489  1.6618 -0.0197 -1.9887
 2190SOL    HW216610   1.121   0.806   0.503 -0.0369  1.7065 -0.4639
 2191SOL     OW16611   3.394   1.922   2.111 -0.5188  0.0642  0.0700
 2191SOL    HW116612   3.388   1.948   2.015  0.0501 -0.3539 -0.0853
 2191SOL    HW216613   3.464   1.851   2.122 -0.0929  0.5979  0.8939
 2192SOL     OW16614   2.183   8.240   0.786  0.5361  0.2884 -0.8599
 2192SOL    HW116615   2.113   8.188   0.835  2.0342 -1.3875 -0.4788
 2192SOL    HW216616   2.179   8.218   0.689  0.3663  0.3990 -0.8788
 2193SOL     OW16617   4.019   0.784   1.850  0.0929  0.1830 -0.3070
 2193SOL    HW116618   3.994   0.755   1.943  0.7155  1.2378  0.1973
 2193SOL    HW216619   4.064   0.708   1.803  0.3121 -0.1767  0.4625
 2194SOL     OW16620   4.250   3.721   0.205  0.2465 -0.0289 -0.2100
 2194SOL    HW116621   4.154   3.710   0.180  0.2145  0.5517 -0.3497
 2194SOL    HW216622   4.260   3.702   0.303 -0.4404  2.2254  0.3401
 2195SOL     OW16623   2.698   0.363   2.346 -0.1280  0.3263 -0.4287
 2195SOL    HW116624   2.603   0.334   2.336 -0.3246  1.0886 -0.7603
 2195SOL    HW216625   2.703   0.461   2.362  0.7147  0.7363 -2.9557
 2196SOL     OW16626   1.179   6.853   1.633  0.1305  0.7124 -0.1073
 2196SOL    HW116627   1.129   6.768   1.649  1.2102  0.5399  2.5804
 2196SOL    HW216628   1.135   6.928   1.682 -0.4360  1.6025 -1.9379
 2197SOL     OW16629   3.969   1.059   2.117 -0.1039 -0.5989 -0.1235
 2197SOL    HW116630   3.909   1.066   2.037 -0.6390 -0.6152  0.2760
 2197SOL    HW216631   3.915   1.072   2.200  0.7557  1.2154  0.1631
 2198SOL     OW16632   1.781   2.680   1.309 -0.3362 -0.3901 -0.0497
 2198SOL    HW116633   1.728   2.646   1.231 -1.5175  2.1682 -0.3950
 2198SOL    HW216634   1.830   2.762   1.282 -0.5698  0.3837  1.8368
 2199SOL     OW16635   9.884   0.429   2.714 -0.2933  0.0025  0.2063
 2199SOL    HW116636   9.886   0.355   2.781 -1.6617 -1.2783 -1.1148
 2199SOL    HW216637   9.858   0.393   2.625  1.5402  1.6709 -1.0585
 2200SOL     OW16638   2.713   0.413   0.362 -0.6410  0.2308 -0.5358
 2200SOL    HW116639   2.706   0.436   0.459 -0.1853 -2.3613  0.1581
 2200SOL    HW216640   2.649   0.469   0.310 -1.7653  0.8119  1.4175
 2201SOL     OW16641   1.268   2.548   0.799  0.3171 -0.6285  0.9076
 2201SOL    HW116642   1.181   2.595   0.783 -0.7320 -2.5312  0.8175
 2201SOL    HW216643   1.331   2.609   0.846 -1.4080  0.4698  1.8282
 2202SOL     OW16644   9.362   4.453   0.034  0.1358 -0.4786  0.0752
 2202SOL    HW116645   9.371   4.451  -0.066 -0.9878 -1.6081 -0.0042
 2202SOL    HW216646   9.452   4.441   0.076  0.5431 -0.4738 -0.7976
 2203SOL     OW16647   2.655   7.101   2.742  0.9831 -0.0500 -0.4142
 2203SOL    HW116648   2.711   7.174   2.782  0.0754  0.5344 -0.1792
 2203SOL    HW216649   2.699   7.013   2.756  2.2919  0.4983 -1.0558
 2204SOL     OW16650   1.375   5.162   0.097  0.0470 -0.3110 -0.3857
 2204SOL    HW116651   1.424   5.091   0.047 -2.2623 -1.0357 -1.6789
 2204SOL    HW216652   1.415   5.172   0.188  0.6531 -2.9928 -0.3184
 2205SOL     OW16653   1.979   2.263   2.811  0.4004 -0.0051 -0.3016
 2205SOL    HW116654   1.980   2.351   2.764  0.8461  1.2466  2.0124
 2205SOL    HW216655   1.902   2.259   2.874  2.0518 -0.1009  1.7695
 2206SOL     OW16656   9.507   4.046   0.526 -0.3781  0.3245  0.0335
 2206SOL    HW116657   9.511   3.946   0.513 -0.3276  0.3557 -0.1942
 2206SOL    HW216658   9.419   4.080   0.493 -1.0771  0.1352  1.6563
 2207SOL     OW16659   3.123   3.520   1.450  0.4531  0.4132  0.3576
 2207SOL    HW116660   3.143   3.616   1.431 -0.5064  0.4200 -0.6351
 2207SOL    HW216661   3.095   3.511   1.546  1.1059  1.0254  0.6174
 2208SOL     OW16662   3.966   3.881   0.478  0.0682  0.1256 -0.0863
 2208SOL    HW116663   3.879   3.861   0.524 -1.0516  1.5929 -1.5151
 2208SOL    HW216664   3.980   3.816   0.404 -0.8290  1.1156 -1.1483
 2209SOL     OW16665   0.345   0.134   1.798 -0.4169  0.0531  0.7562
 2209SOL    HW116666   0.373   0.071   1.726  0.5607  1.2239  0.0895
 2209SOL    HW216667   0.348   0.228   1.763  3.4073  1.0110  3.2586
 2210SOL     OW16668   3.128   7.981   1.056 -0.1024  0.0272 -0.6901
 2210SOL    HW116669   3.183   7.897   1.055  0.4949  0.4120 -0.4411
 2210SOL    HW216670   3.153   8.036   1.135  0.6030  1.1598 -1.6773
 2211SOL     OW16671   3.678   7.911   2.635 -0.6933 -0.0775  0.2248
 2211SOL    HW116672   3.758   7.853   2.619 -0.7851 -0.2363  0.3393
 2211SOL    HW216673   3.693   8.000   2.593 -2.6150 -1.8333 -4.5504
 2212SOL     OW16674   2.351   4.381   0.118 -0.4863 -0.3080  0.7660
 2212SOL    HW116675   2.419   4.433   0.170  0.9328  0.2110 -1.5176
 2212SOL    HW216676   2.280   4.443   0.085 -0.5045 -0.3515  0.7241
 2213SOL     OW16677   1.070   2.927   0.280  0.0988  0.1707  0.2610
 2213SOL    HW116678   1.022   3.008   0.313  0.5470  0.9903 -1.0780
 2213SOL    HW216679   1.108   2.945   0.189  1.2569 -1.1204  0.4691
 2214SOL     OW16680   1.012   1.746   0.301 -0.2914 -0.2823  0.0642
 2214SOL    HW116681   0.961   1.750   0.386 -2.4785 -1.2319 -1.1639
 2214SOL    HW216682   1.080   1.673   0.305 -0.8954 -0.8044  0.7122
 2215SOL     OW16683   0.033   0.290   1.122  0.2454  0.2702  0.0702
 2215SOL    HW116684   0.025   0.362   1.191  0.7883  0.7830 -0.3906
 2215SOL    HW216685   0.063   0.330   1.036 -2.8237  0.0078 -1.1737
 2216SOL     OW16686   8.234   2.014   2.306  0.7797  0.1793  0.1324
 2216SOL    HW116687   8.184   2.015   2.220  1.8698 -1.1067 -0.5350
 2216SOL    HW216688   8.331   1.998   2.289  0.9250 -0.6739  1.6325
 2217SOL     OW16689   2.260   6.199   0.042 -0.2835 -0.0439  0.4301
 2217SOL    HW116690   2.210   6.129   0.092  0.3794 -0.2423  0.8333
 2217SOL    HW216691   2.273   6.279   0.101  0.8169 -0.4190  0.7122
 2218SOL     OW16692   3.973   8.561   0.430 -0.7309 -0.3381 -0.4225
 2218SOL    HW116693   4.060   8.536   0.388 -0.5904  1.4491 -1.2462
 2218SOL    HW216694   3.898   8.538   0.367 -1.0521 -3.6362  1.0594
 2219SOL     OW16695   3.941   9.275   1.631 -0.4387  0.1202  0.1525
 2219SOL    HW116696   3.968   9.180   1.616 -2.6077 -0.4574 -0.2074
 2219SOL    HW216697   3.944   9.296   1.729  0.8792 -0.0523  0.1543
 2220SOL     OW16698   0.900   4.407   0.993 -0.1231 -0.2541  0.1932
 2220SOL    HW116699   0.998   4.384   0.994  0.0478  0.3932 -0.8160
 2220SOL    HW216700   0.886   4.491   1.045 -0.4629 -1.5341  2.1959
 2221SOL     OW16701   3.765   1.829   2.512  0.6767  0.2819  0.0449
 2221SOL    HW116702   3.859   1.850   2.486  0.5568  0.4095 -0.2862
 2221SOL    HW216703   3.707   1.908   2.493  0.3737 -0.0600 -0.4423
 2222SOL     OW16704   0.177   1.908   1.778  0.4075 -1.0106  0.2283
 2222SOL    HW116705   0.176   1.848   1.858 -0.3585  1.2883  2.0038
 2222SOL    HW216706   0.095   1.965   1.778  1.8643  1.1240 -0.5600
 2223SOL     OW16707   0.525   6.546   1.446  0.6370  0.1211 -0.4134
 2223SOL    HW116708   0.442   6.593   1.478 -0.3668 -0.9019 -1.4843
 2223SOL    HW216709   0.600   6.566   1.509 -0.8164 -0.2461  1.4878
 2224SOL     OW16710   2.354   4.405   1.696  0.1691  0.5732 -0.8859
 2224SOL    HW116711   2.382   4.492   1.736  0.4776  0.4490 -0.8254
 2224SOL    HW216712   2.300   4.421   1.614  1.5330  0.8174 -1.7539
 2225SOL     OW16713   1.336   3.755   0.170  0.5812 -0.3882 -0.3728
 2225SOL    HW116714   1.415   3.724   0.223 -0.9586 -0.1336  2.1803
 2225SOL    HW216715   1.301   3.840   0.210 -1.8745 -1.2993 -0.5070
 2226SOL     OW16716   4.181   3.696   0.472 -1.0592 -0.3656  0.5297
 2226SOL    HW116717   4.117   3.756   0.519 -1.9576 -0.0963 -1.0170
 2226SOL    HW216718   4.135   3.612   0.445 -0.3543 -0.8358  0.7710
 2227SOL     OW16719   2.173   6.587   2.817 -0.0510 -0.0927  0.2854
 2227SOL    HW116720   2.164   6.673   2.866  2.2445  0.2493  0.1531
 2227SOL    HW216721   2.182   6.512   2.882  0.3193  0.0482  0.3964
 2228SOL     OW16722   3.254   8.049   0.837 -0.1648  0.0593 -0.4245
 2228SOL    HW116723   3.235   8.031   0.933  0.5356 -0.3913 -0.3637
 2228SOL    HW216724   3.352   8.035   0.819  0.1920  2.5321 -0.6573
 2229SOL     OW16725   0.561   4.572   1.837 -0.1725  0.4323 -0.6412
 2229SOL    HW116726   0.586   4.573   1.934 -0.7208  0.5207 -0.5016
 2229SOL    HW216727   0.644   4.577   1.781  0.0901  1.1999 -0.1769
 2230SOL     OW16728   9.822   5.693   0.472  0.9055  0.4283 -0.2940
 2230SOL    HW116729   9.791   5.785   0.451  2.5090  0.8705 -0.7707
 2230SOL    HW216730   9.851   5.689   0.568 -1.1117 -0.1347  0.3178
 2231SOL     OW16731   8.555   0.933   1.585  0.0661 -0.3369  0.0722
 2231SOL    HW116732   8.581   0.952   1.490 -0.4729 -0.7026 -0.1500
 2231SOL    HW216733   8.636   0.907   1.637  0.5503  0.9504 -0.0166
 2232SOL     OW16734   3.783   1.807   2.024  0.6482  0.5299 -0.2853
 2232SOL    HW116735   3.849   1.737   1.996 -0.2653 -0.2595 -0.5227
 2232SOL    HW216736   3.701   1.762   2.060 -0.2536  1.4609 -1.1271
 2233SOL     OW16737   1.949   9.120   1.098  0.2867  0.5967 -0.1453
 2233SOL    HW116738   1.884   9.127   1.023 -1.1038 -1.3786  0.8204
 2233SOL    HW216739   1.918   9.050   1.162  2.3228  1.0587  1.3983
 2234SOL     OW16740   3.679   9.345   2.542 -0.0814  0.0289 -0.2064
 2234SOL    HW116741   3.599   9.296   2.577  0.1326  0.3862  0.7945
 2234SOL    HW216742   3.676   9.346   2.442 -1.0808 -0.3660 -0.1892
 2235SOL     OW16743   1.723   7.969   1.498 -0.4812  0.6725 -0.4855
 2235SOL    HW116744   1.675   8.042   1.449  0.0694  0.8917 -0.7087
 2235SOL    HW216745   1.811   7.952   1.453 -1.7246 -1.9497 -2.0256
 2236SOL     OW16746   2.850   4.300   1.906  0.1912 -0.3570  0.6039
 2236SOL    HW116747   2.868   4.397   1.888 -2.5412 -0.1815 -1.4448
 2236SOL    HW216748   2.822   4.289   2.002  0.8076  0.8262  0.9375
 2237SOL     OW16749   1.286   3.500   0.018  0.3312  0.3369 -0.8173
 2237SOL    HW116750   1.324   3.420   0.065 -1.9528  0.6166  1.6410
 2237SOL    HW216751   1.308   3.583   0.069  0.5664  1.0363 -2.0216
 2238SOL     OW16752   1.886   6.385   0.509  0.1470 -0.2047 -0.0843
 2238SOL    HW116753   1.946   6.314   0.473 -0.5518 -0.4376 -0.8033
 2238SOL    HW216754   1.918   6.414   0.599  0.0288 -1.9117  0.5120
 2239SOL     OW16755   0.208   5.498   1.825 -0.7206 -0.6313 -0.1288
 2239SOL    HW116756   0.183   5.416   1.772  0.8118 -0.1035 -1.7321
 2239SOL    HW216757   0.303   5.490   1.855 -1.0698 -0.1568  1.1308
 2240SOL     OW16758   1.490   6.607   2.489  0.0217 -0.5230 -0.5477
 2240SOL    HW116759   1.410   6.602   2.428 -1.7229 -0.5912  1.6659
 2240SOL    HW216760   1.564   6.655   2.443 -0.3659 -2.7274 -3.6332
 2241SOL     OW16761   2.171   5.164   1.651 -0.7963  0.3610  0.1151
 2241SOL    HW116762   2.198   5.207   1.565  0.6639  0.4685  0.6147
 2241SOL    HW216763   2.252   5.140   1.704 -1.5951 -2.4334  0.1555
 2242SOL     OW16764   9.519   4.484   1.283  0.3104  0.3894 -0.1142
 2242SOL    HW116765   9.606   4.509   1.243  1.8691 -0.6540  2.5088
 2242SOL    HW216766   9.491   4.553   1.349 -0.6164  0.4812 -0.5936
 2243SOL     OW16767   9.826   4.188   0.991  0.0573  0.1786  0.1202
 2243SOL    HW116768   9.920   4.157   0.978 -0.2631  0.2440 -2.6575
 2243SOL    HW216769   9.820   4.285   0.969 -0.4678  0.3912  1.2124
 2244SOL     OW16770   2.656   7.910   1.842 -0.7727 -0.4080 -0.2464
 2244SOL    HW116771   2.745   7.948   1.866 -0.0378 -0.8810 -2.1233
 2244SOL    HW216772   2.597   7.982   1.808 -1.2996 -0.0040  1.4733
 2245SOL     OW16773   2.153   5.377   2.378  0.9102 -0.1167 -0.4623
 2245SOL    HW116774   2.103   5.462   2.360  1.3518  0.0245 -1.0518
 2245SOL    HW216775   2.243   5.399   2.415  0.7621 -0.3530  0.0405
 2246SOL     OW16776   1.686   6.274   1.616  0.1522  0.1105  0.3385
 2246SOL    HW116777   1.713   6.180   1.597  0.6445  0.1109  1.0257
 2246SOL    HW216778   1.736   6.336   1.555 -0.0239 -0.0541  0.0248
 2247SOL     OW16779   0.429   4.990   0.268 -0.2142 -0.4150 -0.3768
 2247SOL    HW116780   0.485   4.926   0.320  0.2854  0.5772  0.3335
 2247SOL    HW216781   0.489   5.048   0.212 -0.6063 -0.1312 -0.5080
 2248SOL     OW16782   2.337   5.884   2.372  0.1749 -0.8016  0.6435
 2248SOL    HW116783   2.421   5.841   2.406  0.4444 -0.0599  0.9300
 2248SOL    HW216784   2.258   5.829   2.398  0.4968 -0.9983  1.2088
 2249SOL     OW16785   3.667   3.197   0.738 -0.0342 -0.5526  0.1699
 2249SOL    HW116786   3.724   3.184   0.818 -0.2634  1.3956  0.6604
 2249SOL    HW216787   3.586   3.251   0.762 -0.3136 -0.2989 -1.2704
 2250SOL     OW16788   2.682   4.620   1.325 -0.2229 -0.0205 -0.5959
 2250SOL    HW116789   2.642   4.684   1.391 -0.0944 -0.1636 -0.3743
 2250SOL    HW216790   2.640   4.530   1.337  0.8742 -0.4253  0.3324
 2251SOL     OW16791   3.024   8.671   2.118  0.6821  0.3450  0.4350
 2251SOL    HW116792   2.983   8.725   2.044  1.5876  0.8614  0.3022
 2251SOL    HW216793   3.032   8.729   2.199 -0.4481 -0.2628  0.9934
 2252SOL     OW16794   1.400   7.983   1.404  0.2299  0.1217 -0.1897
 2252SOL    HW116795   1.317   8.039   1.400 -0.7186 -1.3057 -0.8613
 2252SOL    HW216796   1.384   7.904   1.463  1.3963  0.2830  0.3524
 2253SOL     OW16797   8.786   3.819   1.136 -1.1767 -0.5103  0.0369
 2253SOL    HW116798   8.835   3.869   1.207  0.3811 -0.0589 -1.3334
 2253SOL    HW216799   8.848   3.799   1.060 -3.4009  1.2964 -2.3619
 2254SOL     OW16800   8.941   2.705   0.003 -0.5740  0.0458 -0.4260
 2254SOL    HW116801   8.885   2.642   0.055 -0.2569  0.2847  0.2086
 2254SOL    HW216802   9.038   2.679   0.011 -0.6033 -0.5239 -1.7268
 2255SOL     OW16803   2.401   1.314   0.063  0.0782  0.1306 -0.0362
 2255SOL    HW116804   2.391   1.387   0.130 -0.3048  1.4949 -1.5711
 2255SOL    HW216805   2.344   1.236   0.091  1.2057  0.0171  2.0797
 2256SOL     OW16806   3.374   1.120   0.319  0.0857 -0.5764  0.3841
 2256SOL    HW116807   3.333   1.136   0.229 -1.6548 -0.2724  1.2121
 2256SOL    HW216808   3.320   1.167   0.389  0.4795 -2.1648  1.7829
 2257SOL     OW16809   1.005   9.647   1.677  0.2914 -0.5429 -0.1316
 2257SOL    HW116810   1.090   9.617   1.722  1.0944  2.2469  0.3296
 2257SOL    HW216811   0.947   9.693   1.744 -0.0334  0.6053 -1.1866
 2258SOL     OW16812   3.109   7.634   2.695  0.3612  0.3767 -0.4674
 2258SOL    HW116813   3.121   7.624   2.596  1.9416 -0.0078 -0.2611
 2258SOL    HW216814   3.064   7.553   2.732 -1.6519  1.1886 -1.0740
 2259SOL     OW16815   8.055   2.300   0.644  0.0414 -0.0917 -0.7051
 2259SOL    HW116816   8.043   2.291   0.743 -0.5644 -3.6613 -1.0504
 2259SOL    HW216817   8.150   2.328   0.625  0.7592 -1.4274  0.8023
 2260SOL     OW16818   1.715   0.779   0.565  0.3813  0.3058  0.5860
 2260SOL    HW116819   1.767   0.717   0.507  1.2960  0.9887  0.6710
 2260SOL    HW216820   1.757   0.869   0.564 -1.2274  1.0756  0.0576
 2261SOL     OW16821   1.034   1.572   1.130  0.2363 -0.0921  0.3154
 2261SOL    HW116822   1.087   1.638   1.077  0.3860 -0.8189 -0.4578
 2261SOL    HW216823   1.074   1.481   1.119 -0.6499 -0.5056  0.4388
 2262SOL     OW16824   1.182   8.669   1.981 -0.3005  0.4390 -0.0800
 2262SOL    HW116825   1.139   8.664   1.891 -1.2650  2.0776  0.2718
 2262SOL    HW216826   1.134   8.737   2.037  2.5916  2.1503  0.4072
 2263SOL     OW16827   3.305   9.289   2.003  0.0129 -0.4338 -1.0754
 2263SOL    HW116828   3.340   9.216   1.944 -2.9110 -1.9205 -1.1110
 2263SOL    HW216829   3.224   9.329   1.960 -0.1789  0.7505  0.3830
 2264SOL     OW16830   2.325   5.351   1.045  0.2521  0.4947  0.5451
 2264SOL    HW116831   2.365   5.326   0.957 -0.5542 -0.0372  0.3284
 2264SOL    HW216832   2.232   5.315   1.051 -0.2299  1.7926  1.0208
 2265SOL     OW16833   0.851   4.761   2.246  0.2792 -0.7989  0.3191
 2265SOL    HW116834   0.872   4.855   2.274  1.9279 -1.1168  0.1872
 2265SOL    HW216835   0.829   4.707   2.327 -0.9654 -0.2418  0.3683
 2266SOL     OW16836   2.688   6.196   1.665  0.5206  0.5451  0.4764
 2266SOL    HW116837   2.592   6.189   1.637  0.0443  0.6494  2.0422
 2266SOL    HW216838   2.719   6.291   1.654 -0.2379  1.0072  2.0322
 2267SOL     OW16839   1.183   9.013   0.059 -0.6282  0.2654 -0.0845
 2267SOL    HW116840   1.117   8.958   0.007  0.5910 -1.2661 -0.0584
 2267SOL    HW216841   1.258   8.954   0.091 -0.1119  1.6482  1.3361
 2268SOL     OW16842   1.080   9.599   2.370  0.2614  0.1082 -0.5426
 2268SOL    HW116843   1.166   9.572   2.327 -0.6320 -0.3296 -2.0764
 2268SOL    HW216844   1.012   9.619   2.300 -0.6850  1.1462  0.6529
 2269SOL     OW16845   9.867   0.683   2.228 -0.3109 -0.0409  0.3936
 2269SOL    HW116846   9.922   0.742   2.288 -1.2871  0.4004  0.8709
 2269SOL    HW216847   9.770   0.701   2.244 -0.6090 -1.2658  0.0119
 2270SOL     OW16848   2.123   0.877   2.600  0.8446 -1.0278 -0.3890
 2270SOL    HW116849   2.170   0.965   2.603  0.1231 -0.6445 -0.2059
 2270SOL    HW216850   2.100   0.855   2.505 -1.9400  0.5879 -0.1443
 2271SOL     OW16851   0.725   9.376   0.484 -0.3479 -0.0014  0.1693
 2271SOL    HW116852   0.692   9.420   0.401  1.3918 -1.1751 -1.1727
 2271SOL    HW216853   0.752   9.447   0.550  0.5132  0.9794 -1.1859
 2272SOL     OW16854   0.901   6.084   2.727 -0.6443  0.0976  0.2255
 2272SOL    HW116855   0.865   6.132   2.807 -0.8464 -0.5718  0.5422
 2272SOL    HW216856   0.851   5.998   2.714 -0.0789 -0.1823 -0.1401
 2273SOL     OW16857   2.998   9.756   0.094 -0.1638 -0.2565  0.1510
 2273SOL    HW116858   2.947   9.780   0.011 -1.4499 -1.6033  0.5251
 2273SOL    HW216859   3.025   9.839   0.142 -2.0035  0.4801 -0.0608
 2274SOL     OW16860   8.880   0.583   1.358 -0.4383 -0.0570  0.2641
 2274SOL    HW116861   8.975   0.562   1.335 -0.6600  0.5718 -1.3069
 2274SOL    HW216862   8.821   0.507   1.330 -0.8155  1.0776 -2.1790
 2275SOL     OW16863   3.212   9.521   0.927  0.6811 -1.1190  0.4119
 2275SOL    HW116864   3.132   9.473   0.891  0.6050 -0.7891  0.1401
 2275SOL    HW216865   3.181   9.598   0.983  0.8220  0.2220 -1.3312
 2276SOL     OW16866   1.799   3.146   2.736  0.3257 -0.0118  0.3029
 2276SOL    HW116867   1.885   3.145   2.787  0.2318  2.8788  0.5989
 2276SOL    HW216868   1.813   3.187   2.646 -0.6573  0.1064  0.1952
 2277SOL     OW16869   3.087   3.142   1.150 -0.0963 -0.8949  0.4022
 2277SOL    HW116870   3.184   3.164   1.152  0.1391 -1.6890 -1.1428
 2277SOL    HW216871   3.075   3.043   1.145 -0.9036 -0.7250 -1.5451
 2278SOL     OW16872   9.280   4.444   0.852  0.0289 -0.3839 -0.2747
 2278SOL    HW116873   9.340   4.391   0.792 -1.6505 -3.3320  0.5466
 2278SOL    HW216874   9.328   4.466   0.937 -0.0198 -2.7309  0.3839
 2279SOL     OW16875   2.054   7.228   2.605 -0.1144  0.7888 -0.4399
 2279SOL    HW116876   1.976   7.181   2.646  0.3845  0.0909 -0.2891
 2279SOL    HW216877   2.074   7.311   2.657  0.6726 -0.2234  0.8965
 2280SOL     OW16878   1.108   1.709   0.898 -0.2022  0.2764 -0.1488
 2280SOL    HW116879   1.119   1.689   0.800 -1.9315  1.7104 -0.6662
 2280SOL    HW216880   1.111   1.808   0.913  1.5854 -0.0048  1.4754
 2281SOL     OW16881   3.033   7.388   1.075 -0.0046  0.2493 -0.0515
 2281SOL    HW116882   3.020   7.486   1.088  2.2147  0.7679 -1.3539
 2281SOL    HW216883   2.955   7.350   1.025  1.1719  2.2742 -3.5897
 2282SOL     OW16884   1.168   2.477   0.380 -0.6515  0.0713 -0.0318
 2282SOL    HW116885   1.104   2.411   0.418  1.1007 -0.6734  1.6966
 2282SOL    HW216886   1.261   2.440   0.383  0.3938  2.6277  1.1173
 2283SOL     OW16887   3.011   0.992   1.405  0.4182 -0.4187  0.5159
 2283SOL    HW116888   3.025   0.993   1.306 -1.7166 -0.0078  0.2018
 2283SOL    HW216889   3.045   1.078   1.444 -1.3106  0.6253 -0.2434
 2284SOL     OW16890   0.467   1.468   2.126 -0.5283 -0.0681  0.5964
 2284SOL    HW116891   0.479   1.517   2.039  1.8942  2.1267  2.0682
 2284SOL    HW216892   0.502   1.375   2.116 -0.2853  0.1484 -0.7832
 2285SOL     OW16893   3.242   1.249   1.836  0.7060 -0.5912  0.3169
 2285SOL    HW116894   3.295   1.209   1.761  1.6113  2.0143 -0.5123
 2285SOL    HW216895   3.177   1.316   1.799 -2.5269 -2.9912  1.4186
 2286SOL     OW16896   2.124   6.818   0.112 -0.1645  0.7441  0.0598
 2286SOL    HW116897   2.179   6.895   0.145 -0.1882  0.3885  0.9208
 2286SOL    HW216898   2.038   6.814   0.163 -0.0230 -0.0509  0.2384
 2287SOL     OW16899   2.988   1.009   0.440  0.0485  0.3804  0.0162
 2287SOL    HW116900   3.025   0.916   0.429 -2.4498 -0.8739  1.6133
 2287SOL    HW216901   2.992   1.057   0.353 -1.7238 -2.4589 -1.7098
 2288SOL     OW16902   3.690   3.802   0.840 -0.2526  0.0411  0.2979
 2288SOL    HW116903   3.733   3.730   0.894 -1.7798 -0.4025  0.9371
 2288SOL    HW216904   3.653   3.872   0.902  0.2797  0.8393 -0.2762
 2289SOL     OW16905   2.553   1.729   2.137 -0.0712  0.2744 -0.7277
 2289SOL    HW116906   2.506   1.711   2.050  0.6286  1.8309 -1.4439
 2289SOL    HW216907   2.605   1.814   2.130  1.2870 -0.4134  0.6957
 2290SOL     OW16908   1.986   1.069   1.591  0.3007 -0.0231 -0.2324
 2290SOL    HW116909   2.005   0.971   1.593  0.1311 -0.0497  0.3072
 2290SOL    HW216910   1.944   1.096   1.678  2.2611  0.9216  0.4418
 2291SOL     OW16911   2.509   7.370   2.353 -0.4296 -0.0245  0.0009
 2291SOL    HW116912   2.485   7.440   2.285  1.9272  1.9592  1.1368
 2291SOL    HW216913   2.545   7.289   2.307  1.0483  1.2586 -1.1510
 2292SOL     OW16914   1.360   7.469   1.301 -0.7771  0.1388  0.2802
 2292SOL    HW116915   1.345   7.484   1.203  0.3152 -1.0547 -0.0702
 2292SOL    HW216916   1.419   7.390   1.314 -1.3452 -0.0192  1.9307
 2293SOL     OW16917   9.145   0.526   0.843 -0.1868  0.4193 -0.0129
 2293SOL    HW116918   9.190   0.616   0.842  0.1584  0.2535  0.7601
 2293SOL    HW216919   9.070   0.526   0.777  0.9004  0.7278 -1.2731
 2294SOL     OW16920   2.871   5.128   1.628  0.0435 -0.5177 -0.2996
 2294SOL    HW116921   2.881   5.192   1.552  0.2167 -1.7672 -1.3632
 2294SOL    HW216922   2.859   5.178   1.713 -1.8974  0.9295 -1.3753
 2295SOL     OW16923   2.614   3.569   1.527 -0.2559  0.0302  0.3472
 2295SOL    HW116924   2.575   3.598   1.615 -1.8789 -0.2543 -0.2627
 2295SOL    HW216925   2.575   3.481   1.501 -2.3818  1.6712 -2.2731
 2296SOL     OW16926   2.538   0.608   1.655 -0.4491  0.3140  0.4331
 2296SOL    HW116927   2.534   0.544   1.579  2.9196 -1.2256  1.4546
 2296SOL    HW216928   2.621   0.662   1.649 -1.5071  2.1010  1.5390
 2297SOL     OW16929   3.750   9.611   2.011  0.4750 -0.1484  0.8126
 2297SOL    HW116930   3.788   9.699   2.039  0.5510 -0.0632  0.4437
 2297SOL    HW216931   3.670   9.627   1.953 -0.5935 -0.3231  2.2220
 2298SOL     OW16932   9.571   1.763   1.709  0.2960  0.0773  0.3915
 2298SOL    HW116933   9.648   1.777   1.648 -0.7137 -0.9117 -1.1414
 2298SOL    HW216934   9.500   1.831   1.690  0.8096  1.0425  1.8570
 2299SOL     OW16935   3.099   2.477   0.285 -0.4293  0.4035 -0.0860
 2299SOL    HW116936   3.159   2.555   0.304  0.1276 -0.0821  0.1627
 2299SOL    HW216937   3.099   2.415   0.363 -0.7175  0.0545 -0.3635
 2300SOL     OW16938   2.595   5.228   2.579  0.2980  0.5579  0.1343
 2300SOL    HW116939   2.615   5.173   2.660 -0.8880 -0.3660 -0.1982
 2300SOL    HW216940   2.674   5.225   2.517 -0.0448 -1.4146 -0.2385
 2301SOL     OW16941   1.131   5.533   1.294 -0.5531 -0.0447  0.9214
 2301SOL    HW116942   1.051   5.486   1.259  0.6726 -0.1817 -1.8120
 2301SOL    HW216943   1.121   5.632   1.279 -0.7565  0.0612  1.7317
 2302SOL     OW16944   1.433   0.260   1.341 -0.0146  0.3091  0.5158
 2302SOL    HW116945   1.444   0.357   1.317 -1.2661 -0.0363 -1.5440
 2302SOL    HW216946   1.377   0.253   1.423 -1.3207  1.3041 -0.2520
 2303SOL     OW16947   9.868   4.285   1.588  0.5206  0.1828  0.0385
 2303SOL    HW116948   9.937   4.348   1.623  0.7265  0.3070 -0.5799
 2303SOL    HW216949   9.912   4.216   1.530  0.2220 -0.1775  0.2408
 2304SOL     OW16950   3.233   8.483   2.019 -0.4348 -0.3403  0.3328
 2304SOL    HW116951   3.177   8.554   2.061 -1.1748  0.1021 -1.3734
 2304SOL    HW216952   3.190   8.394   2.035 -1.5288 -0.0206 -0.8123
 2305SOL     OW16953   9.750   4.221   2.485  0.0030  0.0948  0.1035
 2305SOL    HW116954   9.716   4.243   2.576  2.3813  1.5662  0.6620
 2305SOL    HW216955   9.674   4.226   2.420 -1.4509  0.3180  1.7810
 2306SOL     OW16956   2.320   1.058   0.112 -0.3470 -0.0587  0.0190
 2306SOL    HW116957   2.314   1.044   0.211 -0.9713 -2.1607 -0.2893
 2306SOL    HW216958   2.409   1.028   0.079 -0.1581  0.5905 -0.0622
 2307SOL     OW16959   8.577   4.411   1.460  0.5104 -0.3355 -0.2434
 2307SOL    HW116960   8.508   4.434   1.391 -0.1054  0.2123  0.5386
 2307SOL    HW216961   8.610   4.318   1.444 -1.6978 -1.2633  0.3890
 2308SOL     OW16962   1.832   9.836   0.636  0.3384 -0.1053 -0.4343
 2308SOL    HW116963   1.906   9.900   0.657 -0.4785 -0.0666  2.5171
 2308SOL    HW216964   1.850   9.792   0.548  2.9127  1.2712 -0.6384
 2309SOL     OW16965   2.027   1.356   0.766  0.6512  0.0540 -0.4704
 2309SOL    HW116966   2.031   1.308   0.854  1.2906  0.9620  0.0103
 2309SOL    HW216967   1.932   1.376   0.743  0.3561 -1.6884 -0.8218
 2310SOL     OW16968   2.116   2.867   1.412 -0.2011  0.1282 -0.2287
 2310SOL    HW116969   2.086   2.883   1.506 -0.5885  1.5896 -0.5941
 2310SOL    HW216970   2.206   2.824   1.413 -0.3882 -0.2604  0.8130
 2311SOL     OW16971   1.533   5.536   0.721  0.4655  0.1248  0.2283
 2311SOL    HW116972   1.435   5.520   0.708  0.3770  0.7085  0.1549
 2311SOL    HW216973   1.552   5.634   0.713  1.0817 -0.0046  0.0590
 2312SOL     OW16974   0.284   4.966   1.883  0.0234  0.2775 -0.6194
 2312SOL    HW116975   0.346   5.045   1.883  0.1108  0.2269  0.9349
 2312SOL    HW216976   0.195   4.994   1.920  0.0693 -0.3619 -0.0267
 2313SOL     OW16977   1.621   1.536   1.252  0.4456 -0.0881  0.1985
 2313SOL    HW116978   1.646   1.621   1.298  0.8241  0.5192 -1.1077
 2313SOL    HW216979   1.524   1.538   1.228  0.7022  0.4704 -0.8358
 2314SOL     OW16980   1.537   8.588   1.217  0.1110  0.2526  0.1884
 2314SOL    HW116981   1.508   8.502   1.259  0.5773 -0.6736 -1.3565
 2314SOL    HW216982   1.469   8.618   1.151  1.1872 -0.3174 -1.1963
 2315SOL     OW16983   0.618   5.949   0.782 -0.1213  0.2178  0.3448
 2315SOL    HW116984   0.556   5.929   0.705  0.9598  0.1210 -0.5075
 2315SOL    HW216985   0.652   5.863   0.820 -0.5242  0.2718  0.8464
 2316SOL     OW16986   1.989   2.287   0.569 -0.4993  0.4540  0.5374
 2316SOL    HW116987   2.078   2.284   0.523 -1.8804  1.3831 -2.2930
 2316SOL    HW216988   1.973   2.200   0.616  1.3166 -0.2211 -0.0645
 2317SOL     OW16989   1.749   3.724   0.781  0.3166 -0.4416  0.1686
 2317SOL    HW116990   1.700   3.698   0.864  1.2789 -0.8578  0.6218
 2317SOL    HW216991   1.838   3.677   0.779  0.0881 -0.8449 -1.3590
 2318SOL     OW16992   2.620   8.215   0.334  0.5497 -0.1986  0.2717
 2318SOL    HW116993   2.704   8.172   0.301  0.4151 -1.2371  1.2595
 2318SOL    HW216994   2.629   8.236   0.432  0.1251  0.8360  0.1002
 2319SOL     OW16995   2.634   9.074   1.556 -0.1192  0.6763 -0.2685
 2319SOL    HW116996   2.706   9.137   1.528 -0.3691  0.8030 -0.6364
 2319SOL    HW216997   2.649   9.046   1.651  1.9843 -1.4906 -1.1807
 2320SOL     OW16998   0.773   4.350   0.308 -0.8439  0.1558  0.9675
 2320SOL    HW116999   0.821   4.339   0.395 -1.2379  2.2014  1.4664
 2320SOL    HW217000   0.820   4.296   0.238  2.5229  2.4525  1.3223
 2321SOL     OW17001   0.998   0.188   1.997 -0.3175  0.2421  0.9044
 2321SOL    HW117002   1.076   0.239   1.962  1.1967 -1.5977  1.5164
 2321SOL    HW217003   1.030   0.117   2.060 -2.4349 -0.9134  0.7184
 2322SOL     OW17004   8.846   3.426   0.768 -0.0186 -0.2507  0.2335
 2322SOL    HW117005   8.798   3.495   0.822 -0.2538 -0.7065  0.6064
 2322SOL    HW217006   8.942   3.425   0.795  0.2560  0.8118 -0.6644
 2323SOL     OW17007   0.942   8.097   2.358 -0.4178 -0.6847 -0.4769
 2323SOL    HW117008   0.905   8.160   2.290  0.6030  0.7574  0.2685
 2323SOL    HW217009   0.867   8.055   2.410 -1.0669  0.8146 -0.1890
 2324SOL     OW17010   3.576   2.029   0.442  0.0328 -0.0785  0.1625
 2324SOL    HW117011   3.604   2.112   0.491 -2.5040  0.7365  0.2853
 2324SOL    HW217012   3.571   1.952   0.507 -1.0039  0.4687  0.7460
 2325SOL     OW17013   0.486   9.758   2.447  0.1201 -0.2060  0.1858
 2325SOL    HW117014   0.430   9.678   2.429 -0.1715  0.2940 -1.1687
 2325SOL    HW217015   0.428   9.834   2.476  0.1809  0.0606 -0.3821
 2326SOL     OW17016   0.705   4.147   2.523  0.1665  0.2014  0.0197
 2326SOL    HW117017   0.623   4.095   2.501  1.1880 -1.3523 -0.1532
 2326SOL    HW217018   0.688   4.203   2.604 -0.8622 -0.5848  0.3541
 2327SOL     OW17019   2.344   9.579   1.233  0.2337 -0.2897 -0.1865
 2327SOL    HW117020   2.319   9.520   1.310  0.3898  0.1279  0.1908
 2327SOL    HW217021   2.266   9.636   1.208  0.4838  0.2675  0.3030
 2328SOL     OW17022   1.719   3.834   0.535  0.4782 -0.2944  0.8182
 2328SOL    HW117023   1.757   3.805   0.622  1.1647 -1.5256  0.1203
 2328SOL    HW217024   1.620   3.844   0.542  0.7230  1.2371  2.1839
 2329SOL     OW17025   2.356   1.507   0.254  0.1951  0.3218  0.0231
 2329SOL    HW117026   2.330   1.517   0.350 -0.1384  0.1431 -0.0450
 2329SOL    HW217027   2.337   1.592   0.205  1.0198  0.6419  0.2639
 2330SOL     OW17028   2.175   6.700   0.974  0.5361  0.6491 -0.8701
 2330SOL    HW117029   2.102   6.673   1.037 -0.2884 -1.2268 -2.5720
 2330SOL    HW217030   2.135   6.736   0.890  1.6207  1.8606 -0.8881
 2331SOL     OW17031   2.520   0.841   1.314  0.1823  0.0488 -0.4433
 2331SOL    HW117032   2.482   0.874   1.400 -0.8268  0.4108 -1.0268
 2331SOL    HW217033   2.505   0.743   1.307  2.1952 -0.3774  0.7782
 2332SOL     OW17034   0.234   2.122   0.283 -0.3405 -0.0197  0.1572
 2332SOL    HW117035   0.150   2.170   0.310 -0.2111  0.2266  0.1198
 2332SOL    HW217036   0.303   2.189   0.256  0.1487 -0.1822  0.9873
 2333SOL     OW17037   4.108   2.669   1.666 -0.2250  0.4955 -0.7078
 2333SOL    HW117038   4.021   2.652   1.713  0.7635 -1.3667  0.5227
 2333SOL    HW217039   4.175   2.704   1.731  0.3489  0.5908 -1.3415
 2334SOL     OW17040   0.380   5.208   1.783 -0.2014 -0.1168 -0.0639
 2334SOL    HW117041   0.335   5.243   1.701  0.1100  0.7462  0.1260
 2334SOL    HW217042   0.415   5.285   1.837  0.1047 -0.7060  0.5839
 2335SOL     OW17043   2.757   2.882   0.902 -0.3182 -0.5127 -0.2230
 2335SOL    HW117044   2.734   2.935   0.821  1.6183  0.0178 -0.4363
 2335SOL    HW217045   2.739   2.937   0.984  1.5577  0.4543 -0.4400
 2336SOL     OW17046   0.802   0.003   1.947 -0.1695 -0.1487  0.2383
 2336SOL    HW117047   0.708   0.023   1.975  0.7708 -0.7663  4.1532
 2336SOL    HW217048   0.861   0.080   1.972  0.2330  0.7309 -3.2380
 2337SOL     OW17049   1.181   3.674   0.882 -0.4873 -0.0660 -0.0443
 2337SOL    HW117050   1.183   3.620   0.798 -1.0071 -1.4462  0.8086
 2337SOL    HW217051   1.096   3.655   0.932  0.6709 -0.7364  1.7289
 2338SOL     OW17052   1.537   4.296   0.212  0.3724 -0.8502  0.4789
 2338SOL    HW117053   1.528   4.274   0.309  0.0422 -0.1797  0.6022
 2338SOL    HW217054   1.553   4.212   0.161  0.0535 -1.2705  1.0547
 2339SOL     OW17055   0.091   5.748   2.361 -0.1724 -0.0540  0.1365
 2339SOL    HW117056   0.036   5.758   2.443  1.8710 -0.0963  1.5560
 2339SOL    HW217057   0.147   5.830   2.347  0.6812 -0.6882 -0.2845
 2340SOL     OW17058   1.713   3.488   0.137  0.4670  0.2951 -0.0202
 2340SOL    HW117059   1.785   3.511   0.203  1.3042 -0.1188 -0.7793
 2340SOL    HW217060   1.719   3.550   0.059 -0.4706  0.7295  0.2537
 2341SOL     OW17061   1.602   0.164   0.121  0.1396  0.1338 -0.7001
 2341SOL    HW117062   1.549   0.111   0.189  0.0876  1.8301  0.6238
 2341SOL    HW217063   1.698   0.164   0.148  0.1669  0.5476 -0.8096
 2342SOL     OW17064   3.787   7.956   0.433 -0.7303  0.0635  0.3964
 2342SOL    HW117065   3.812   7.951   0.336  1.5037  1.2333  0.8894
 2342SOL    HW217066   3.808   7.870   0.477 -1.4533 -0.3632 -0.0770
 2343SOL     OW17067   1.777   0.884   1.155  0.5015 -0.0899 -0.2574
 2343SOL    HW117068   1.681   0.857   1.141 -0.8731  3.8705  1.0089
 2343SOL    HW217069   1.789   0.916   1.249  2.9988 -0.0909 -0.5625
 2344SOL     OW17070   1.378   7.237   2.286 -0.3958 -0.2704 -0.2182
 2344SOL    HW117071   1.395   7.273   2.195 -1.4230 -0.7265 -0.6077
 2344SOL    HW217072   1.368   7.313   2.351 -1.7600  0.1449 -0.8842
 2345SOL     OW17073   1.489   2.774   1.796 -0.1509 -0.0298 -1.0542
 2345SOL    HW117074   1.418   2.717   1.756  0.2319 -0.7897 -0.6533
 2345SOL    HW217075   1.459   2.806   1.886  0.5509 -1.4346 -0.3094
 2346SOL     OW17076   3.218   8.443   1.180 -0.0379  0.1315 -1.0460
 2346SOL    HW117077   3.286   8.451   1.254 -2.3737 -1.2350  1.3571
 2346SOL    HW217078   3.258   8.391   1.104  2.0807  0.6225 -0.3116
 2347SOL     OW17079   3.169   2.772   1.352  0.2102 -0.5227  0.1184
 2347SOL    HW117080   3.233   2.849   1.362  0.3187 -0.5113 -0.6292
 2347SOL    HW217081   3.113   2.786   1.270  0.8418 -1.6821 -0.5225
 2348SOL     OW17082   8.784   2.020   2.295 -0.2116 -0.5404 -0.2523
 2348SOL    HW117083   8.775   2.101   2.237 -0.4835  1.8149  2.8941
 2348SOL    HW217084   8.872   2.024   2.343 -0.7072 -1.5361  0.7652
 2349SOL     OW17085   3.137   7.955   1.536 -0.2395 -0.3966 -0.3766
 2349SOL    HW117086   3.147   7.897   1.456 -1.5594 -0.9643 -0.1434
 2349SOL    HW217087   3.041   7.981   1.547  0.3323  1.8652 -0.4977
 2350SOL     OW17088   3.122   8.026   0.171 -0.2384 -0.5019  0.3530
 2350SOL    HW117089   3.036   8.034   0.221  0.0283 -0.0198  0.7353
 2350SOL    HW217090   3.152   8.117   0.143 -0.3244 -0.7541 -0.5758
 2351SOL     OW17091   2.421   3.113   2.195  0.2666  0.1540  0.4312
 2351SOL    HW117092   2.474   3.154   2.120  1.0149 -0.2092  0.7560
 2351SOL    HW217093   2.462   3.137   2.282 -0.8675  0.9462  0.7595
 2352SOL     OW17094   0.001   0.430   0.346 -0.1595 -0.1787 -0.1334
 2352SOL    HW117095  -0.043   0.405   0.432  0.5057 -0.3183  0.1716
 2352SOL    HW217096  -0.062   0.486   0.291 -0.3667  0.4345  0.7144
 2353SOL     OW17097   1.994   6.640   1.168 -0.3606  0.0062 -0.3900
 2353SOL    HW117098   1.915   6.686   1.209 -0.7260 -0.3136 -0.7487
 2353SOL    HW217099   2.056   6.611   1.241 -1.6851 -1.8229  0.0439
 2354SOL     OW17100   3.005   9.969   1.370 -0.0972  0.1488 -0.0589
 2354SOL    HW117101   3.058   9.909   1.430  0.7239  2.6373  1.7610
 2354SOL    HW217102   3.044  10.061   1.371 -2.3023  1.1455 -1.5193
 2355SOL     OW17103   0.127   2.673   0.116  0.4628 -0.0748  0.2764
 2355SOL    HW117104   0.202   2.700   0.055 -0.0446 -0.4210 -0.5052
 2355SOL    HW217105   0.163   2.615   0.189  1.0997  0.4589  0.3980
 2356SOL     OW17106   2.620   0.637   0.930 -0.0175 -0.4547 -0.3578
 2356SOL    HW117107   2.620   0.699   0.851  0.4773  0.4233  0.3111
 2356SOL    HW217108   2.707   0.588   0.934 -0.2549 -0.9050 -0.6627
 2357SOL     OW17109   3.766   8.345   0.806  0.5425 -1.0950  0.4934
 2357SOL    HW117110   3.721   8.426   0.767  0.1157 -0.7427  1.7036
 2357SOL    HW217111   3.732   8.264   0.759  0.9811 -0.5960 -0.7423
 2358SOL     OW17112   2.840   7.757   2.683  0.3232  0.2084  0.7850
 2358SOL    HW117113   2.925   7.803   2.706  0.0876  1.3884 -0.6314
 2358SOL    HW217114   2.788   7.813   2.619 -1.0641 -0.9536  0.8640
 2359SOL     OW17115   2.098   8.986   2.103 -0.1309  0.4799 -0.8091
 2359SOL    HW117116   2.092   9.050   2.026 -0.7056  0.3890 -0.8391
 2359SOL    HW217117   2.016   8.930   2.106  0.5354 -0.5251 -1.0097
 2360SOL     OW17118   1.139   1.438   1.404 -0.0829  0.0874  0.8467
 2360SOL    HW117119   1.136   1.386   1.489 -0.2758 -0.2618  0.6243
 2360SOL    HW217120   1.069   1.510   1.406  0.9210  1.0569  1.6174
 2361SOL     OW17121   0.404   5.949   0.176 -0.4815 -0.2345  0.0288
 2361SOL    HW117122   0.486   5.918   0.129 -0.6849  1.1465 -1.2958
 2361SOL    HW217123   0.368   5.875   0.233  1.1937 -1.1196 -0.0282
 2362SOL     OW17124   3.473   9.548   0.107 -0.2587 -0.0917 -0.5870
 2362SOL    HW117125   3.446   9.452   0.099  1.8953 -0.8601  1.0150
 2362SOL    HW217126   3.429   9.600   0.034 -0.8777 -2.4161 -1.9552
 2363SOL     OW17127   3.594   7.503   1.522  0.8887 -0.3006 -0.4092
 2363SOL    HW117128   3.629   7.436   1.457  0.4064  0.5311 -1.5437
 2363SOL    HW217129   3.494   7.506   1.518  0.7628 -1.2393  1.3849
 2364SOL     OW17130   1.323   1.739   1.490 -0.7340  0.3543  0.0683
 2364SOL    HW117131   1.226   1.725   1.512 -0.9631  0.3194 -0.9523
 2364SOL    HW217132   1.353   1.826   1.529 -1.2009  0.4053  0.3220
 2365SOL     OW17133   0.099   0.103   2.487 -0.0187 -0.2452 -0.2255
 2365SOL    HW117134   0.156   0.045   2.429 -0.3043 -0.3545 -0.3956
 2365SOL    HW217135   0.121   0.199   2.469 -0.2482 -0.2731 -0.6602
 2366SOL     OW17136   2.991   9.066   2.083 -0.5514 -0.0389  0.2938
 2366SOL    HW117137   3.068   9.045   2.022 -0.4533  0.8881  0.0890
 2366SOL    HW217138   3.015   9.145   2.139 -0.8390 -0.5876  1.1837
 2367SOL     OW17139   1.725   0.048   2.514 -0.2943  0.4369 -0.7161
 2367SOL    HW117140   1.731  -0.013   2.593 -1.3088 -0.5031 -1.3492
 2367SOL    HW217141   1.730   0.143   2.545  1.3461  0.0484  0.2785
 2368SOL     OW17142   3.016   0.867   0.099 -0.5891  0.0593  0.2818
 2368SOL    HW117143   2.975   0.845   0.010  0.9248  1.1345 -0.7204
 2368SOL    HW217144   3.007   0.966   0.115 -0.0522  0.0055  0.9089
 2369SOL     OW17145   9.330   2.215   2.650 -0.3049  0.5220  0.1093
 2369SOL    HW117146   9.428   2.228   2.634 -0.6501  1.7897 -0.9664
 2369SOL    HW217147   9.279   2.232   2.566 -1.6088  1.5243  1.0782
 2370SOL     OW17148   3.482   3.348   1.811 -0.0543 -0.9590 -0.7730
 2370SOL    HW117149   3.488   3.441   1.847  1.5860 -0.5828 -1.9591
 2370SOL    HW217150   3.387   3.316   1.816 -0.7048  0.9375 -0.7448
 2371SOL     OW17151   2.364   7.629   0.505 -0.1781  0.5320  0.3071
 2371SOL    HW117152   2.337   7.716   0.464 -0.1692  0.0738 -0.6667
 2371SOL    HW217153   2.396   7.566   0.434  2.0308  0.5327  1.2664
 2372SOL     OW17154   9.587   0.931   0.255  0.1047 -0.0798  0.2794
 2372SOL    HW117155   9.615   1.009   0.199  2.2071 -0.1308  1.2084
 2372SOL    HW217156   9.573   0.962   0.349  1.1164 -0.8437  0.6858
 2373SOL     OW17157   9.826   1.745   0.935  0.3293 -0.4572 -0.8699
 2373SOL    HW117158   9.776   1.681   0.877 -0.6514 -0.3828 -0.1198
 2373SOL    HW217159   9.922   1.718   0.940 -0.3055 -2.5146  0.3401
 2374SOL     OW17160   1.939   5.250   2.598  0.5419 -0.2547  0.1372
 2374SOL    HW117161   1.942   5.347   2.620 -0.4348  0.3972 -2.3664
 2374SOL    HW217162   2.023   5.223   2.550  0.4938 -0.4606  0.1646
 2375SOL     OW17163   9.614   4.378   0.136 -0.2542  0.0619 -0.0095
 2375SOL    HW117164   9.663   4.335   0.061 -1.3709 -2.9077  0.9172
 2375SOL    HW217165   9.632   4.329   0.221 -1.1148  1.7571  1.1969
 2376SOL     OW17166   0.589   5.703   2.568 -0.0512  0.3197 -0.3446
 2376SOL    HW117167   0.595   5.678   2.472  0.4084  1.5557 -0.6428
 2376SOL    HW217168   0.508   5.661   2.609  0.1889 -0.8533 -1.0687
 2377SOL     OW17169   3.716   8.499   1.923 -0.1676  0.1097  0.2960
 2377SOL    HW117170   3.650   8.435   1.962  0.0634 -0.8079 -0.8173
 2377SOL    HW217171   3.669   8.564   1.864 -0.2811  0.4509  0.7545
 2378SOL     OW17172   3.322   4.191   1.173 -0.1383 -0.0786  0.0722
 2378SOL    HW117173   3.366   4.174   1.085  0.7998 -1.2463  0.7508
 2378SOL    HW217174   3.275   4.279   1.171  0.3072  0.1315 -1.4217
 2379SOL     OW17175   2.301   8.153   2.285  0.1704 -0.2782 -0.3098
 2379SOL    HW117176   2.318   8.226   2.352 -2.3371  0.8468 -0.8463
 2379SOL    HW217177   2.210   8.114   2.302  0.6128 -1.8121 -1.4107
 2380SOL     OW17178   1.613   4.645   2.611  0.0450 -0.2823 -0.2910
 2380SOL    HW117179   1.538   4.675   2.552 -0.7857  1.3287  1.5032
 2380SOL    HW217180   1.576   4.614   2.699  1.4196 -0.3923  0.2663
 2381SOL     OW17181   1.181   8.207   2.443  0.1889  0.7580 -0.2199
 2381SOL    HW117182   1.095   8.159   2.428  0.9045 -0.5515 -0.2568
 2381SOL    HW217183   1.196   8.218   2.541 -0.7587  2.3824 -0.2420
 2382SOL     OW17184   3.299   2.831   1.686  0.9855  0.2213  0.0371
 2382SOL    HW117185   3.308   2.927   1.662  3.1473  0.1351  0.4060
 2382SOL    HW217186   3.205   2.801   1.669  0.3831  2.2891 -0.4081
 2383SOL     OW17187   0.321   1.759   1.251 -0.4366 -0.5008  0.1136
 2383SOL    HW117188   0.394   1.819   1.219 -0.3138 -0.8114 -0.1994
 2383SOL    HW217189   0.289   1.790   1.340 -0.4396  0.0807 -0.0863
 2384SOL     OW17190   0.120   4.890   2.751 -0.3409  0.0517  1.0075
 2384SOL    HW117191   0.151   4.984   2.768 -0.9140  0.3401  0.4511
 2384SOL    HW217192   0.081   4.883   2.659  0.3933 -0.9147  0.7569
 2385SOL     OW17193   1.844   7.896   1.998  0.0164  0.1901  0.5732
 2385SOL    HW117194   1.754   7.940   1.991 -0.3984 -0.3043  2.4189
 2385SOL    HW217195   1.912   7.964   2.025  0.1387  0.4844 -0.4407
 2386SOL     OW17196   0.590   9.177   2.094 -0.2085  0.5240  0.5045
 2386SOL    HW117197   0.633   9.187   2.184  0.8605 -0.5766  0.1430
 2386SOL    HW217198   0.574   9.080   2.076 -0.7013  0.7574 -0.3544
 2387SOL     OW17199   1.429   0.122   0.988  0.0930  0.3026  0.1432
 2387SOL    HW117200   1.384   0.209   1.010  0.7774  0.5730  0.4926
 2387SOL    HW217201   1.453   0.075   1.072  1.1263  0.5078 -0.0272
 2388SOL     OW17202   0.476   0.972   1.457 -0.0265  0.0991 -0.2731
 2388SOL    HW117203   0.569   0.937   1.456 -0.1329 -0.2637  0.8639
 2388SOL    HW217204   0.448   0.998   1.365  0.3735 -2.0004 -1.0179
 2389SOL     OW17205   9.956   4.824   1.856  0.3906  0.6486  0.5741
 2389SOL    HW117206   9.942   4.920   1.877 -2.1056  0.3678  0.3973
 2389SOL    HW217207   9.924   4.805   1.763  1.9760 -0.1113  0.1735
 2390SOL     OW17208   1.348   4.100   2.201  0.1445 -0.4998 -0.0861
 2390SOL    HW117209   1.316   4.029   2.263  0.1844 -0.9030 -0.5310
 2390SOL    HW217210   1.402   4.167   2.252 -0.8513 -0.1679  0.5494
 2391SOL     OW17211   3.698   4.229   1.779  0.0582 -0.5928 -0.2559
 2391SOL    HW117212   3.691   4.235   1.879  0.6179  0.0664 -0.2463
 2391SOL    HW217213   3.795   4.219   1.754 -0.1414 -1.4279 -0.7018
 2392SOL     OW17214   3.575   1.337   1.242  0.2525 -0.0745  0.1160
 2392SOL    HW117215   3.525   1.395   1.306  0.2670 -0.4660  0.4836
 2392SOL    HW217216   3.671   1.331   1.270  0.1536 -0.6464  0.3451
 2393SOL     OW17217   4.317   0.775   0.006 -0.3558 -0.1221 -0.0456
 2393SOL    HW117218   4.395   0.804  -0.050  0.5498  1.6210  2.0284
 2393SOL    HW217219   4.296   0.847   0.072 -1.4589 -2.0894  1.7801
 2394SOL     OW17220   3.465   7.641   2.746  0.4194 -0.3321  0.8213
 2394SOL    HW117221   3.560   7.665   2.729  0.4268 -0.3106  0.8930
 2394SOL    HW217222   3.415   7.723   2.776  0.2351 -0.2106  0.1776
 2395SOL     OW17223   1.173   9.483   2.146 -0.5871 -0.6554 -0.3280
 2395SOL    HW117224   1.182   9.429   2.062 -0.9773  1.1523 -1.5473
 2395SOL    HW217225   1.263   9.514   2.175 -0.6900  0.6987 -1.4124
 2396SOL     OW17226   2.116   1.937   2.171 -0.3695 -0.7078  0.4154
 2396SOL    HW117227   2.178   1.883   2.227 -1.4899 -1.5791  0.8483
 2396SOL    HW217228   2.028   1.947   2.218 -1.4883 -1.8329 -1.3400
 2397SOL     OW17229   0.797   5.231   2.777  0.0570  0.6253 -0.8923
 2397SOL    HW117230   0.857   5.212   2.854 -1.5623 -1.9314 -0.1873
 2397SOL    HW217231   0.821   5.172   2.700 -0.9524  0.2054 -0.8981
 2398SOL     OW17232   9.871   3.664   1.415 -0.1168  0.4173 -0.1241
 2398SOL    HW117233   9.916   3.674   1.504 -0.8857  0.8494  0.2243
 2398SOL    HW217234   9.904   3.581   1.370  0.3601  0.2555  0.5190
 2399SOL     OW17235   1.425   9.847   1.726  0.1341  0.6121 -0.0761
 2399SOL    HW117236   1.351   9.779   1.726  0.3895  0.3364  1.2213
 2399SOL    HW217237   1.389   9.934   1.759  0.8678 -0.0547  2.5678
 2400SOL     OW17238   0.257   4.138   1.475 -0.2762 -0.4066 -0.6105
 2400SOL    HW117239   0.327   4.081   1.517 -0.1554 -0.7222 -1.2319
 2400SOL    HW217240   0.255   4.227   1.521 -1.7388 -1.5469  1.5741
 2401SOL     OW17241   3.057   3.134   2.590  0.4035  0.1690 -0.3803
 2401SOL    HW117242   3.137   3.086   2.552 -0.3214 -1.1292 -0.2968
 2401SOL    HW217243   3.044   3.106   2.685  0.4724  1.2011 -0.0572
 2402SOL     OW17244   0.187   2.683   1.815 -0.5933  0.2508 -0.2868
 2402SOL    HW117245   0.227   2.764   1.857 -2.1129  1.0667 -0.3901
 2402SOL    HW217246   0.121   2.642   1.877 -1.1326  0.1130 -0.9427
 2403SOL     OW17247   1.854   7.852   2.787  0.8623  0.1885  0.0251
 2403SOL    HW117248   1.874   7.934   2.841  0.7779 -0.2487  0.7337
 2403SOL    HW217249   1.874   7.770   2.842  0.1417 -0.2590 -0.3671
 2404SOL     OW17250   1.421   1.829   1.092 -0.2245 -0.3897 -0.6568
 2404SOL    HW117251   1.337   1.821   1.146  0.1683 -0.2692 -0.0234
 2404SOL    HW217252   1.401   1.877   1.006 -1.2574 -2.3411 -1.5350
 2405SOL     OW17253   8.902   2.781   1.515  1.3357  0.1101  0.1634
 2405SOL    HW117254   8.922   2.766   1.612 -0.3047 -0.4962  0.4334
 2405SOL    HW217255   8.826   2.721   1.488  2.9712 -1.0406 -1.9637
 2406SOL     OW17256   2.541   2.534   0.479 -0.2734  0.1130  0.5185
 2406SOL    HW117257   2.593   2.455   0.511  2.8442  1.6492 -0.5147
 2406SOL    HW217258   2.490   2.573   0.555 -0.6809 -2.0112  1.3704
 2407SOL     OW17259   9.312   4.648   2.157 -0.6496  0.5027  1.1424
 2407SOL    HW117260   9.276   4.730   2.201 -0.6998  0.7626  0.6304
 2407SOL    HW217261   9.259   4.628   2.075 -0.8923 -0.2832  1.4918
 2408SOL     OW17262   3.548   4.310   1.360 -0.4600  0.0831  0.0463
 2408SOL    HW117263   3.513   4.294   1.452 -0.1728 -1.3202 -0.0814
 2408SOL    HW217264   3.472   4.311   1.295 -0.4251 -1.4919 -0.0343
 2409SOL     OW17265   3.144   2.279   0.491  0.3417  0.3937 -0.3300
 2409SOL    HW117266   3.120   2.221   0.413 -0.5419 -0.9539  0.9153
 2409SOL    HW217267   3.236   2.256   0.523 -0.0639 -0.4410  0.2522
 2410SOL     OW17268   2.765   3.254   1.359  0.5712 -0.3762  0.1400
 2410SOL    HW117269   2.858   3.225   1.377  0.9549 -0.2353 -1.5387
 2410SOL    HW217270   2.766   3.332   1.296 -0.7419 -1.7215 -1.5914
 2411SOL     OW17271   0.824   4.472   1.511 -0.0978  0.7779 -0.1753
 2411SOL    HW117272   0.793   4.521   1.592  1.5330  0.5867  0.5727
 2411SOL    HW217273   0.887   4.529   1.459  0.1751  0.2722 -0.4057
 2412SOL     OW17274   3.967   0.691   1.492  0.0568  0.3135 -0.3227
 2412SOL    HW117275   3.890   0.640   1.530 -0.0546  0.7835  0.0840
 2412SOL    HW217276   4.053   0.650   1.522 -0.0352  0.2311 -0.1746
 2413SOL     OW17277   1.887   7.432   1.980  0.2596 -0.2848 -0.2325
 2413SOL    HW117278   1.828   7.514   1.976 -1.0923 -1.2409 -0.2443
 2413SOL    HW217279   1.967   7.451   2.037 -1.1964  0.3348  1.6556
 2414SOL     OW17280   1.999   2.495   1.299 -0.0767 -0.3781 -0.8829
 2414SOL    HW117281   2.082   2.547   1.322  0.7607 -1.5278 -1.2617
 2414SOL    HW217282   1.918   2.552   1.316  0.8434  1.2872 -1.8616
 2415SOL     OW17283   1.676   7.137   0.553 -0.2162 -0.3769 -0.1001
 2415SOL    HW117284   1.720   7.216   0.511 -0.7677 -0.3091 -0.5586
 2415SOL    HW217285   1.681   7.145   0.652 -0.7514  0.5078 -0.1387
 2416SOL     OW17286   1.855   0.511   1.290 -0.2713  0.3207 -0.4317
 2416SOL    HW117287   1.784   0.512   1.220 -1.0710  0.5179  0.3766
 2416SOL    HW217288   1.913   0.430   1.277 -1.9265 -0.9808  0.1820
 2417SOL     OW17289   3.864   4.429   2.457 -0.3294 -0.3009 -0.1725
 2417SOL    HW117290   3.780   4.451   2.505  0.3401  2.6225 -0.2391
 2417SOL    HW217291   3.933   4.396   2.522 -0.5399  0.2772  0.3396
 2418SOL     OW17292   2.889   2.325   2.621 -0.1656 -0.0727 -0.1762
 2418SOL    HW117293   2.957   2.349   2.551 -0.9281  0.8257 -0.6050
 2418SOL    HW217294   2.814   2.390   2.619 -0.0039  0.2108  1.7674
 2419SOL     OW17295   0.071   4.308   0.236 -0.5564 -0.1978 -0.0177
 2419SOL    HW117296  -0.018   4.337   0.271 -0.2221  0.5282  0.2265
 2419SOL    HW217297   0.123   4.265   0.310  0.1073  1.2395  0.3508
 2420SOL     OW17298   2.329   3.693   0.671 -0.8681 -0.1165 -0.9219
 2420SOL    HW117299   2.254   3.655   0.617 -0.0985 -0.3053 -1.8862
 2420SOL    HW217300   2.395   3.621   0.692 -1.3379 -0.1207  0.5970
 2421SOL     OW17301   0.592   4.957   1.317  0.5214  0.0231 -0.3329
 2421SOL    HW117302   0.679   4.913   1.338  1.0414  1.1996 -0.0059
 2421SOL    HW217303   0.519   4.888   1.318  1.4366 -0.9597 -0.5857
 2422SOL     OW17304   1.915   8.740   1.842  0.7194 -0.3140  0.1614
 2422SOL    HW117305   1.923   8.643   1.820 -1.5625 -0.5005  0.0427
 2422SOL    HW217306   1.869   8.751   1.930  0.9777  0.6595  0.1828
 2423SOL     OW17307   3.757   7.481   0.388 -0.2804 -0.1271 -0.4717
 2423SOL    HW117308   3.752   7.536   0.472  1.2564 -0.6770 -0.0063
 2423SOL    HW217309   3.713   7.392   0.404 -2.1366  0.6568 -1.0109
 2424SOL     OW17310   1.247   2.872   1.060 -0.0596  0.5650 -0.0226
 2424SOL    HW117311   1.265   2.813   0.981 -1.4590 -0.5669  0.4777
 2424SOL    HW217312   1.169   2.931   1.040  0.3803  1.1665  0.0420
 2425SOL     OW17313   3.013   3.763   0.921  0.1683  0.4565  0.2039
 2425SOL    HW117314   3.009   3.731   1.016  0.4177 -0.6353 -0.1394
 2425SOL    HW217315   3.109   3.767   0.891  0.0771  0.5178 -0.0869
 2426SOL     OW17316   9.830   4.448   0.947 -0.4336 -0.3890 -0.1499
 2426SOL    HW117317   9.916   4.450   0.896 -0.3668  0.2775 -0.0272
 2426SOL    HW217318   9.753   4.461   0.885 -0.4045 -0.3978 -0.1868
 2427SOL     OW17319   2.780   9.359   0.450  0.1722 -0.4084  0.6398
 2427SOL    HW117320   2.763   9.284   0.514  0.5782  0.6662  2.0318
 2427SOL    HW217321   2.878   9.368   0.433  0.0582 -0.7572 -0.2239
 2428SOL     OW17322   0.634   4.091   0.767  0.4629 -0.4372 -0.2303
 2428SOL    HW117323   0.691   4.018   0.806  1.7970  1.3459  1.2588
 2428SOL    HW217324   0.610   4.156   0.839  0.1229  1.1252 -1.7346
 2429SOL     OW17325   3.503   9.643   1.827  0.0850  0.7749  0.5838
 2429SOL    HW117326   3.523   9.646   1.729 -1.2800 -1.2204  0.2027
 2429SOL    HW217327   3.404   9.648   1.840  0.2078  0.1257  1.8175
 2430SOL     OW17328   2.525   1.044   2.253  0.1540  0.2875  0.5355
 2430SOL    HW117329   2.562   1.030   2.161  0.6811  0.1533  0.7660
 2430SOL    HW217330   2.440   0.992   2.262  0.9296 -0.9929  0.6424
 2431SOL     OW17331   3.478   0.223   0.217  0.1109  0.1568  0.0449
 2431SOL    HW117332   3.439   0.303   0.263 -0.8404  1.0622 -2.2608
 2431SOL    HW217333   3.411   0.150   0.215 -1.5426  1.6195 -3.6733
 2432SOL     OW17334   2.661   2.159   2.651 -0.1280  0.6328  0.3338
 2432SOL    HW117335   2.741   2.215   2.676  0.2680 -0.3780  1.3523
 2432SOL    HW217336   2.578   2.214   2.664  0.2684  1.0614  1.1465
 2433SOL     OW17337   0.495   1.605   1.854 -0.1105 -0.8438 -0.5626
 2433SOL    HW117338   0.507   1.540   1.779  1.6167  0.1174 -1.1578
 2433SOL    HW217339   0.556   1.683   1.840 -1.3522  0.3847  0.7171
 2434SOL     OW17340   1.180   2.123   2.398  0.1773 -0.6037  0.1110
 2434SOL    HW117341   1.125   2.115   2.481  3.2273  1.3637  2.3922
 2434SOL    HW217342   1.143   2.198   2.342  0.5836  0.8061  1.6941
 2435SOL     OW17343   8.406   1.359   2.163 -0.2948  0.4431  0.1267
 2435SOL    HW117344   8.462   1.409   2.229  0.3457 -0.1531  0.0467
 2435SOL    HW217345   8.323   1.326   2.208  0.1921 -0.0600  0.6729
 2436SOL     OW17346   2.558   9.758   1.098 -0.3159  0.2104 -0.3163
 2436SOL    HW117347   2.538   9.663   1.073 -2.2087  0.1256  1.3455
 2436SOL    HW217348   2.507   9.782   1.181  0.3395  2.6066 -0.5596
 2437SOL     OW17349   2.774   5.073   0.273  0.7084 -0.6204 -0.0770
 2437SOL    HW117350   2.849   5.090   0.337 -0.1839  0.1282  0.7904
 2437SOL    HW217351   2.773   5.144   0.202  0.5252 -0.3577  0.1892
 2438SOL     OW17352   4.039   0.581   0.427  0.2620  0.1944 -0.1333
 2438SOL    HW117353   4.042   0.506   0.361 -0.1534 -0.4143  0.5315
 2438SOL    HW217354   4.112   0.570   0.494 -1.3124 -0.9936  1.4262
 2439SOL     OW17355   0.394   0.649   1.282 -0.0297 -0.2312  0.0070
 2439SOL    HW117356   0.328   0.626   1.354  0.7187  1.2740  1.1918
 2439SOL    HW217357   0.479   0.599   1.298  1.0714  2.1005  1.7272
 2440SOL     OW17358   9.569   1.013   2.401  0.2349  0.1209  0.3112
 2440SOL    HW117359   9.499   0.982   2.338  0.5975 -1.0010  0.4474
 2440SOL    HW217360   9.633   1.074   2.353  1.0720 -1.5070 -0.6645
 2441SOL     OW17361   0.752   3.162   1.581 -0.0998 -0.2595  0.3391
 2441SOL    HW117362   0.845   3.131   1.603  0.0166  0.2887  0.6123
 2441SOL    HW217363   0.742   3.257   1.607  0.0962  0.4653 -2.1279
 2442SOL     OW17364   9.534   0.572   2.483 -0.3870 -0.3744 -0.4434
 2442SOL    HW117365   9.519   0.605   2.390  0.6572  0.3416 -0.3655
 2442SOL    HW217366   9.446   0.560   2.529 -0.9128 -0.8564 -1.5589
 2443SOL     OW17367   9.677   3.071   1.961 -0.1518  0.0012 -0.2312
 2443SOL    HW117368   9.638   3.156   1.925  0.0689 -0.5315 -1.7767
 2443SOL    HW217369   9.718   3.088   2.050  0.1370  1.5885 -0.6496
 2444SOL     OW17370   2.711   6.367   2.344 -0.5809 -0.1110  0.3218
 2444SOL    HW117371   2.692   6.291   2.406 -1.2176 -0.6348 -0.4930
 2444SOL    HW217372   2.715   6.332   2.250  0.2270  0.6930  0.0617
 2445SOL     OW17373   1.752   5.652   1.628 -0.2320 -0.1440  0.1574
 2445SOL    HW117374   1.720   5.660   1.722 -1.5079 -0.5064 -0.2391
 2445SOL    HW217375   1.848   5.624   1.628  0.0678  0.8406  1.3547
 2446SOL     OW17376   3.457   0.934   1.519  0.4654 -0.3398  0.1218
 2446SOL    HW117377   3.506   0.959   1.435  0.1301 -1.3932 -0.3852
 2446SOL    HW217378   3.408   0.849   1.506  1.1899 -1.0304  1.7039
 2447SOL     OW17379   2.581   6.456   2.668  0.0972 -0.6895 -0.4808
 2447SOL    HW117380   2.575   6.356   2.663 -1.1723 -0.7056  1.1123
 2447SOL    HW217381   2.503   6.496   2.620  0.5451 -0.4612 -1.0190
 2448SOL     OW17382   1.940   2.695   2.126  0.1542 -0.2202 -0.0579
 2448SOL    HW117383   1.962   2.741   2.211 -1.7225  2.8231 -1.1304
 2448SOL    HW217384   1.863   2.634   2.140  1.7170 -2.0083  1.0378
 2449SOL     OW17385   4.566   3.140   2.351  0.1875 -0.1063 -0.2492
 2449SOL    HW117386   4.626   3.071   2.309  0.7915  0.8557 -0.9999
 2449SOL    HW217387   4.482   3.149   2.298 -1.2997 -2.4917  1.6153
 2450SOL     OW17388   9.385   2.347   0.377 -0.0780  0.6770  0.6996
 2450SOL    HW117389   9.445   2.274   0.409 -0.8619  0.3793  1.5029
 2450SOL    HW217390   9.354   2.402   0.455 -0.8490  0.8316  0.2936
 2451SOL     OW17391   2.474   9.491   1.023 -0.2042  0.5825  0.1864
 2451SOL    HW117392   2.411   9.524   1.094 -2.2388  0.3342 -1.4278
 2451SOL    HW217393   2.437   9.407   0.983  2.6525 -1.2172  1.1541
 2452SOL     OW17394   1.085   2.728   0.467  0.1168 -0.6528 -0.0270
 2452SOL    HW117395   1.113   2.642   0.422 -0.8229 -0.4888 -0.9476
 2452SOL    HW217396   1.082   2.801   0.399  1.3466  0.2216  0.8458
 2453SOL     OW17397   2.600   1.280   2.357  0.0171  0.2627 -0.5901
 2453SOL    HW117398   2.533   1.338   2.311 -0.0367 -0.3565 -1.2913
 2453SOL    HW217399   2.577   1.184   2.344  0.2258  0.0709  0.4002
 2454SOL     OW17400   4.275   2.165   1.886 -0.1787  0.4445  0.2986
 2454SOL    HW117401   4.209   2.239   1.895  0.1721  0.9477 -1.1601
 2454SOL    HW217402   4.347   2.176   1.955 -0.9465  0.5919  1.0765
 2455SOL     OW17403   1.648   2.106   2.438  0.9686 -0.3873  0.2247
 2455SOL    HW117404   1.667   2.171   2.512 -0.8676  0.0813  0.2979
 2455SOL    HW217405   1.570   2.138   2.384 -0.6975 -3.0805  0.9334
 2456SOL     OW17406   9.574   0.687   2.235 -0.5748 -0.5246  0.3537
 2456SOL    HW117407   9.498   0.745   2.207  0.1525  0.1342 -0.2784
 2456SOL    HW217408   9.592   0.619   2.165 -1.9963 -2.1104  1.4820
 2457SOL     OW17409   2.919   0.910   2.625  0.1431 -0.2693  0.5709
 2457SOL    HW117410   2.842   0.853   2.595 -0.1269 -1.3608  3.2028
 2457SOL    HW217411   2.884   0.988   2.677  0.7475 -0.0793  0.6847
 2458SOL     OW17412   2.542   7.640   0.033 -0.5031 -0.3007 -0.3888
 2458SOL    HW117413   2.454   7.648   0.081  0.5663  0.5822  1.4647
 2458SOL    HW217414   2.528   7.593  -0.055 -2.4338 -2.3005  0.9505
 2459SOL     OW17415   4.216   0.333   0.895 -0.3155 -0.0570 -0.3064
 2459SOL    HW117416   4.210   0.244   0.850 -0.6824  1.3720 -3.2136
 2459SOL    HW217417   4.131   0.352   0.943 -0.1921 -1.2979  0.4257
 2460SOL     OW17418   1.006   3.639   1.069 -0.9048  0.3707 -0.0305
 2460SOL    HW117419   1.026   3.716   1.129 -1.1837  0.2756  0.1840
 2460SOL    HW217420   1.043   3.555   1.109 -2.5896  0.0402  0.8526
 2461SOL     OW17421   1.283   4.829   2.643  0.3880  0.2709 -0.0203
 2461SOL    HW117422   1.328   4.828   2.732  0.4705  1.8371 -0.0278
 2461SOL    HW217423   1.276   4.923   2.611  2.2612 -0.4232 -2.6474
 2462SOL     OW17424   1.523   2.714   2.578 -0.6775 -0.1498 -0.6307
 2462SOL    HW117425   1.607   2.665   2.559 -1.2302 -0.8146 -1.4059
 2462SOL    HW217426   1.544   2.800   2.623  0.4813  0.1721 -1.7555
 2463SOL     OW17427   1.930   8.837   0.431 -0.0160 -0.1777 -0.0670
 2463SOL    HW117428   1.904   8.901   0.358 -0.0424 -1.4711 -1.2056
 2463SOL    HW217429   1.849   8.791   0.466  0.1907 -0.7563 -0.3474
 2464SOL     OW17430   9.713   2.991   1.266  0.4917 -0.0703  0.3464
 2464SOL    HW117431   9.795   2.954   1.222 -0.2212  1.0348 -1.9813
 2464SOL    HW217432   9.632   2.954   1.220 -0.3591 -1.3110  2.7571
 2465SOL     OW17433   8.955   3.041   0.062  0.0070  0.4613  0.5263
 2465SOL    HW117434   8.933   2.948   0.091 -0.6656  0.3251 -0.3960
 2465SOL    HW217435   9.054   3.053   0.060  0.1161 -0.5508 -0.3095
 2466SOL     OW17436   0.148   2.859   2.584 -0.3815  0.4513  0.5618
 2466SOL    HW117437   0.082   2.917   2.632 -2.1560  0.2067 -1.4994
 2466SOL    HW217438   0.190   2.910   2.509 -0.3916 -0.2608  0.0562
 2467SOL     OW17439   0.505   0.677   2.408  0.6086  0.0008  0.5405
 2467SOL    HW117440   0.442   0.651   2.482  1.2844  1.9024  1.8150
 2467SOL    HW217441   0.466   0.752   2.356  0.8927 -0.2103  0.0278
 2468SOL     OW17442   1.610   1.226   1.960 -0.4266  0.6337  0.1810
 2468SOL    HW117443   1.640   1.289   1.889  1.0971  0.7951  0.9396
 2468SOL    HW217444   1.511   1.231   1.970 -0.3792  2.4679 -0.1926
 2469SOL     OW17445   0.852   1.371   1.177  0.2049 -0.6493  0.5439
 2469SOL    HW117446   0.885   1.465   1.186 -2.1500  0.3004 -0.5102
 2469SOL    HW217447   0.814   1.340   1.264 -3.3895  1.1044 -0.3339
 2470SOL     OW17448   1.403   4.639   2.033 -0.4909 -0.2766 -0.5123
 2470SOL    HW117449   1.332   4.674   2.094  0.5770 -0.2267  0.7369
 2470SOL    HW217450   1.471   4.710   2.016 -0.2301 -0.6176 -0.9084
 2471SOL     OW17451   1.322   4.695   0.720  0.6867 -0.6109  0.2834
 2471SOL    HW117452   1.304   4.772   0.781 -1.3206 -0.0005 -1.0385
 2471SOL    HW217453   1.240   4.674   0.667  2.3899 -1.0517 -2.2904
 2472SOL     OW17454   2.634   8.347   2.132 -0.3235  0.4323 -0.4335
 2472SOL    HW117455   2.695   8.402   2.075  0.6212  1.7102  1.7562
 2472SOL    HW217456   2.688   8.296   2.199 -1.4076 -1.1928 -0.7611
 2473SOL     OW17457   2.575   1.525   1.699 -0.3235 -0.0609 -0.1661
 2473SOL    HW117458   2.670   1.494   1.712 -0.2171  0.1577 -0.4292
 2473SOL    HW217459   2.574   1.624   1.689 -0.7028  0.0779  1.0732
 2474SOL     OW17460   3.880   0.948   0.647 -0.2961 -0.0999  0.2116
 2474SOL    HW117461   3.923   0.921   0.561 -0.5366 -1.8653  0.6131
 2474SOL    HW217462   3.798   1.002   0.628 -0.6649 -0.9574 -0.7002
 2475SOL     OW17463   9.309   2.474   0.588  0.9703  0.0031  0.4388
 2475SOL    HW117464   9.212   2.472   0.611  0.8055  0.3729 -0.2245
 2475SOL    HW217465   9.363   2.492   0.670  0.3021  2.8627  0.3023
 2476SOL     OW17466   3.821   1.291   2.740 -0.5382 -0.5656  0.4394
 2476SOL    HW117467   3.754   1.255   2.676 -0.3552  0.4706 -0.3561
 2476SOL    HW217468   3.912   1.257   2.715 -0.6046 -1.0150  0.7995
 2477SOL     OW17469   2.634   3.049   0.214 -0.0553 -0.2123 -0.3044
 2477SOL    HW117470   2.604   3.134   0.258  2.0515  0.6837 -0.5618
 2477SOL    HW217471   2.638   2.976   0.282  3.9995  1.3607  1.2891
 2478SOL     OW17472   3.987   1.460   2.227 -0.5312 -0.3692  0.1395
 2478SOL    HW117473   3.969   1.556   2.202 -1.9755 -0.6371  0.1195
 2478SOL    HW217474   3.992   1.452   2.326  1.1866 -0.0119  0.1056
 2479SOL     OW17475   7.970   1.975   2.642  0.1955 -0.3148  0.1711
 2479SOL    HW117476   7.999   1.898   2.585  0.2749 -0.6371  0.6469
 2479SOL    HW217477   8.018   2.057   2.613 -1.2970 -0.0198 -1.6137
 2480SOL     OW17478   2.848   0.344   1.923 -0.0566 -0.1277  0.4464
 2480SOL    HW117479   2.819   0.341   1.827 -0.9746 -1.4880  0.7466
 2480SOL    HW217480   2.815   0.428   1.965  2.5401  1.7054 -1.0889
 2481SOL     OW17481   2.470   0.696   2.392  0.3262  0.7262 -0.3238
 2481SOL    HW117482   2.569   0.684   2.381  0.1255 -1.0066 -0.3952
 2481SOL    HW217483   2.445   0.679   2.488 -0.0460 -0.0012 -0.5438
 2482SOL     OW17484   9.489   2.137   1.296 -0.0470  1.2818  0.2617
 2482SOL    HW117485   9.554   2.150   1.220 -0.1024  1.6547  0.2769
 2482SOL    HW217486   9.524   2.184   1.377  1.4021 -1.4109  1.2709
 2483SOL     OW17487   1.626   9.280   0.791  0.1416  0.1476  0.9326
 2483SOL    HW117488   1.642   9.182   0.792 -1.1492 -0.2227 -3.1591
 2483SOL    HW217489   1.575   9.307   0.873  0.8171 -2.5200  2.2657
 2484SOL     OW17490   0.541   1.426   1.661  0.3085 -0.3581  0.4814
 2484SOL    HW117491   0.603   1.486   1.610 -0.9311  0.1939 -0.4030
 2484SOL    HW217492   0.536   1.337   1.615  1.3076 -0.7871  1.1868
 2485SOL     OW17493   2.584   8.148   2.403 -0.2794  0.2022  0.0387
 2485SOL    HW117494   2.679   8.161   2.375 -0.1364 -1.4875 -0.3359
 2485SOL    HW217495   2.546   8.235   2.433  1.1641  1.0412 -0.4977
 2486SOL     OW17496   4.262   1.801   2.334 -0.6677  0.8108  0.5602
 2486SOL    HW117497   4.171   1.772   2.303 -0.3258 -0.3446  0.6047
 2486SOL    HW217498   4.329   1.781   2.263 -0.3649  1.1051  0.7648
 2487SOL     OW17499   3.090   8.864   1.297 -0.1729  0.3165  0.2661
 2487SOL    HW117500   3.186   8.861   1.323  0.3097  2.2776 -1.2226
 2487SOL    HW217501   3.034   8.878   1.379  0.7707 -0.9561  1.1578
 2488SOL     OW17502   3.398   0.371   0.782 -0.3462 -0.0205  0.4323
 2488SOL    HW117503   3.372   0.407   0.692 -0.6903  0.8826  0.8884
 2488SOL    HW217504   3.494   0.342   0.780 -0.7039 -1.1877 -0.5834
 2489SOL     OW17505   1.558   4.243   2.355 -0.2584 -0.4649  0.3344
 2489SOL    HW117506   1.639   4.193   2.385 -1.2825 -2.2488  0.1850
 2489SOL    HW217507   1.519   4.294   2.432  1.6595  1.3812  0.1332
 2490SOL     OW17508   4.145   2.145   2.201  0.2283 -0.5993  0.4745
 2490SOL    HW117509   4.106   2.110   2.116 -0.5272  0.1289  0.5089
 2490SOL    HW217510   4.236   2.181   2.184  0.2347 -0.8204  0.0501
 2491SOL     OW17511   8.601   1.164   0.608  0.1148  0.2717  0.0628
 2491SOL    HW117512   8.666   1.211   0.547 -0.3088 -0.6724 -1.1343
 2491SOL    HW217513   8.514   1.151   0.561 -0.2322 -0.4522  0.8905
 2492SOL     OW17514   2.436   8.574   2.259 -0.4694  0.4102  0.4412
 2492SOL    HW117515   2.473   8.665   2.272  2.0908 -0.5341  0.0523
 2492SOL    HW217516   2.505   8.515   2.218 -1.8375 -1.8821  1.2967
 2493SOL     OW17517   3.742   8.109   0.022 -0.3744 -0.4991 -0.2017
 2493SOL    HW117518   3.713   8.061  -0.061 -2.8054 -0.6448  0.6991
 2493SOL    HW217519   3.683   8.187   0.039  0.4066 -0.1734  1.1390
 2494SOL     OW17520   1.379   6.599   2.737 -0.2962  0.1157 -1.1020
 2494SOL    HW117521   1.405   6.592   2.641  0.0127 -0.0508 -1.0060
 2494SOL    HW217522   1.459   6.581   2.795 -0.5114  0.0798 -0.8150
 2495SOL     OW17523   1.415   9.741   2.506  0.2862 -0.1988  0.4981
 2495SOL    HW117524   1.381   9.660   2.553 -0.5661 -0.1212  0.0285
 2495SOL    HW217525   1.375   9.823   2.547 -1.2708 -0.1817 -1.0119
 2496SOL     OW17526   1.748   5.264   2.342  0.2297  0.3185  0.5526
 2496SOL    HW117527   1.828   5.241   2.287  0.0771  1.0078  0.0237
 2496SOL    HW217528   1.759   5.356   2.381 -0.4476  0.5641  0.1788
 2497SOL     OW17529   2.732   7.639   1.835 -0.0242 -0.1403  0.3211
 2497SOL    HW117530   2.827   7.621   1.857 -0.1725  0.4551  1.4754
 2497SOL    HW217531   2.706   7.729   1.871 -0.7237  0.1556 -0.8905
 2498SOL     OW17532   1.349   1.183   2.277 -0.1753 -0.3867 -0.4230
 2498SOL    HW117533   1.383   1.233   2.357  0.6540  0.2199 -1.1542
 2498SOL    HW217534   1.391   1.092   2.275 -0.1440 -0.3786 -0.2138
 2499SOL     OW17535   3.559   2.134   2.197 -0.3533 -0.3119 -0.8278
 2499SOL    HW117536   3.478   2.081   2.170  0.9076 -2.1864 -1.0150
 2499SOL    HW217537   3.616   2.149   2.116  0.7367 -1.2069 -0.2327
 2500SOL     OW17538   3.005   1.337   2.365  0.5638 -0.2663 -0.0379
 2500SOL    HW117539   2.957   1.393   2.432  1.2185 -0.6401  0.7518
 2500SOL    HW217540   2.956   1.252   2.351  0.2036 -0.0065 -0.3427
 2501SOL     OW17541   3.119   9.829   1.796  0.0690  0.4981 -0.2287
 2501SOL    HW117542   3.142   9.775   1.877  1.0066  0.4274 -0.5324
 2501SOL    HW217543   3.124   9.926   1.820  0.9810  0.4906 -0.3594
 2502SOL     OW17544   1.402   9.561   2.239  0.7739  0.7719  0.0021
 2502SOL    HW117545   1.427   9.618   2.317  2.6668 -0.1896  0.1195
 2502SOL    HW217546   1.475   9.496   2.220 -1.1214 -1.3247 -0.4317
 2503SOL     OW17547   0.845   5.191   0.487 -0.0694  0.7384 -0.1063
 2503SOL    HW117548   0.859   5.125   0.413 -2.3685  0.9826 -0.8110
 2503SOL    HW217549   0.844   5.283   0.450  2.2240  1.1342  0.7532
 2504SOL     OW17550   3.226   1.309   0.453  0.0755 -0.2478  0.5045
 2504SOL    HW117551   3.148   1.325   0.392 -0.2321 -0.4666  0.8413
 2504SOL    HW217552   3.197   1.317   0.548  0.1163 -1.8811  0.6661
 2505SOL     OW17553   1.987   6.749   0.386  0.0478 -0.2905 -0.1298
 2505SOL    HW117554   1.987   6.849   0.384 -1.7301 -0.2628  0.0659
 2505SOL    HW217555   2.064   6.716   0.440  0.7510  0.9711 -0.3519
 2506SOL     OW17556   4.007   2.183   0.675 -0.5267  0.3932  0.2348
 2506SOL    HW117557   3.940   2.256   0.664 -0.5353  0.6319  1.7761
 2506SOL    HW217558   4.010   2.154   0.771  2.5110  1.3051  0.4855
 2507SOL     OW17559   3.565   9.604   2.662  0.3425  0.2464  0.1440
 2507SOL    HW117560   3.584   9.577   2.756 -0.9019  1.2433  0.6871
 2507SOL    HW217561   3.606   9.537   2.600  2.2946  0.2622  1.3491
 2508SOL     OW17562   2.959   7.604   0.235 -0.3252  0.5911  0.2544
 2508SOL    HW117563   2.977   7.644   0.325 -1.7009  2.8127 -0.4241
 2508SOL    HW217564   2.908   7.669   0.179  0.3096 -0.8527 -2.0713
 2509SOL     OW17565   8.389   2.815   1.792  0.0405  0.3814  0.3585
 2509SOL    HW117566   8.413   2.778   1.702  0.0088 -0.7772  0.8115
 2509SOL    HW217567   8.394   2.915   1.790  0.4234  0.3444 -0.8189
 2510SOL     OW17568   0.514   3.388   1.373  0.4964  0.7667  0.6581
 2510SOL    HW117569   0.530   3.289   1.383 -2.2144  0.3577  1.2477
 2510SOL    HW217570   0.482   3.426   1.459 -1.2555  1.5880 -0.3192
 2511SOL     OW17571   3.343   7.986   2.574  0.3449  0.2895 -0.4919
 2511SOL    HW117572   3.428   7.934   2.580  1.2917  1.8799  0.1970
 2511SOL    HW217573   3.282   7.960   2.649 -0.3458 -1.7932 -1.7237
 2512SOL     OW17574   1.567   8.018   2.738  0.3384  0.4092 -0.1661
 2512SOL    HW117575   1.614   7.973   2.814  0.4305  1.7457  0.5718
 2512SOL    HW217576   1.504   8.087   2.773  1.7050  2.3102 -1.3556
 2513SOL     OW17577   1.171   1.826   1.257 -0.3890  0.2900 -0.1390
 2513SOL    HW117578   1.203   1.849   1.349  1.3506  0.1616 -0.6913
 2513SOL    HW217579   1.108   1.896   1.225 -0.4514  0.7056  0.8673
 2514SOL     OW17580   1.801   4.127   2.383 -0.0714 -0.2285 -0.0131
 2514SOL    HW117581   1.852   4.107   2.300  0.5895 -0.8285  0.5406
 2514SOL    HW217582   1.782   4.043   2.432  0.0330  0.1788  0.7345
 2515SOL     OW17583   2.394   4.769   0.863 -0.9539 -0.7388  0.2629
 2515SOL    HW117584   2.381   4.833   0.939  1.8829  0.3207 -0.0886
 2515SOL    HW217585   2.438   4.686   0.897 -1.5444 -1.1202  0.1078
 2516SOL     OW17586   3.053   5.039   0.917  0.1412 -0.6093  0.0972
 2516SOL    HW117587   2.979   5.005   0.859  1.9357 -2.2846 -1.3004
 2516SOL    HW217588   3.133   5.060   0.860  1.3202 -0.5122  1.7559
 2517SOL     OW17589   1.682   9.207   2.360 -0.2009  0.0407 -0.3972
 2517SOL    HW117590   1.773   9.170   2.341  0.1812 -0.2979  1.9518
 2517SOL    HW217591   1.665   9.205   2.459 -2.5787  0.5429 -0.7660
 2518SOL     OW17592   8.459   1.819   1.526 -0.4238 -0.3284  0.3027
 2518SOL    HW117593   8.387   1.773   1.577 -1.4656  0.0656 -0.7954
 2518SOL    HW217594   8.528   1.854   1.590 -1.6304  0.0319  1.4273
 2519SOL     OW17595   9.750   3.604   2.073 -0.2570 -0.2937 -0.0639
 2519SOL    HW117596   9.757   3.696   2.035 -1.3190  0.2974  1.0975
 2519SOL    HW217597   9.795   3.538   2.013  1.2895  1.1089 -0.4700
 2520SOL     OW17598   4.100   0.261   1.323  0.1401 -0.2053 -0.1932
 2520SOL    HW117599   4.123   0.286   1.417  0.1917  2.0073 -0.7737
 2520SOL    HW217600   4.071   0.342   1.273  0.4200 -1.3031 -2.1919
 2521SOL     OW17601   3.208   7.769   1.334 -0.2317 -0.7908  0.3141
 2521SOL    HW117602   3.145   7.692   1.348  1.1675 -1.8438  0.9792
 2521SOL    HW217603   3.238   7.771   1.239 -3.5767  1.5575 -0.7866
 2522SOL     OW17604   9.154   2.318   2.417  0.0945 -0.2917 -0.1864
 2522SOL    HW117605   9.192   2.404   2.384  0.2767  0.6688  2.4539
 2522SOL    HW217606   9.055   2.327   2.427  0.1132 -0.4104  0.0820
 2523SOL     OW17607   3.903   9.558   1.279 -0.2468 -0.4928 -0.3413
 2523SOL    HW117608   3.928   9.570   1.375  0.3974  0.2312 -0.5925
 2523SOL    HW217609   3.859   9.470   1.267 -0.7867 -0.3753  0.7130
 2524SOL     OW17610   1.067   5.230   0.071  0.2595 -0.1815  0.0703
 2524SOL    HW117611   1.085   5.303   0.138  1.0419  1.0714 -1.4580
 2524SOL    HW217612   1.151   5.210   0.021 -0.7869  0.4317 -2.0135
 2525SOL     OW17613   1.113   3.962   0.853 -0.3694 -0.0259 -0.2388
 2525SOL    HW117614   1.118   3.869   0.889 -0.7821 -0.2666 -0.7960
 2525SOL    HW217615   1.046   4.014   0.905 -0.6610 -0.2525 -0.3840
 2526SOL     OW17616   1.728   0.853   2.738 -0.4993  0.2887 -0.2177
 2526SOL    HW117617   1.768   0.934   2.695  0.5314 -0.6021 -0.9536
 2526SOL    HW217618   1.721   0.868   2.837  0.6807  0.8821 -0.2090
 2527SOL     OW17619   3.091   7.545   2.446  0.2891  0.3739 -0.4979
 2527SOL    HW117620   3.172   7.540   2.387  0.6910  1.3450 -0.0222
 2527SOL    HW217621   3.012   7.506   2.397  0.4802  1.7389 -1.9165
 2528SOL     OW17622   9.689   2.989   1.552 -0.3230  0.1575  0.1229
 2528SOL    HW117623   9.595   2.978   1.585 -0.3572 -0.0746 -0.0549
 2528SOL    HW217624   9.691   2.982   1.453 -0.2339  0.9866  0.0593
 2529SOL     OW17625   2.003   7.438   1.440  0.1574 -0.0321 -0.2900
 2529SOL    HW117626   2.093   7.406   1.472  0.4752  0.8344 -0.2904
 2529SOL    HW217627   2.013   7.530   1.401 -0.6754 -0.0730 -0.5965
 2530SOL     OW17628   2.748   5.694   2.334  0.0925  0.3544 -0.1852
 2530SOL    HW117629   2.819   5.624   2.340 -1.5751 -1.2993  0.5903
 2530SOL    HW217630   2.791   5.785   2.338  2.0387 -0.6045  1.8819
 2531SOL     OW17631   9.466   5.111   0.187  0.6057 -0.0391 -0.8454
 2531SOL    HW117632   9.460   5.028   0.131 -0.3882 -1.3849  1.2039
 2531SOL    HW217633   9.449   5.191   0.129  0.1848 -1.3472 -2.5813
 2532SOL     OW17634   7.359   6.413   1.012 -0.4738  0.2133  0.2481
 2532SOL    HW117635   7.368   6.492   0.951  0.1037 -0.1032 -0.0805
 2532SOL    HW217636   7.441   6.406   1.069 -0.4987 -0.1834  0.2331
 2533SOL     OW17637   4.879   2.568   1.524  0.3948  0.1662  0.1353
 2533SOL    HW117638   4.837   2.480   1.502 -0.9310  0.1960  2.3953
 2533SOL    HW217639   4.898   2.618   1.440 -2.3822 -0.6674 -1.0495
 2534SOL     OW17640   0.685   5.316   1.146 -0.3292 -0.5145  0.7556
 2534SOL    HW117641   0.599   5.290   1.191  0.1598 -0.8372  1.5200
 2534SOL    HW217642   0.665   5.360   1.058 -1.2556 -1.3301  0.5440
 2535SOL     OW17643   1.485   4.209   0.887 -0.3437  0.2066  0.1198
 2535SOL    HW117644   1.566   4.261   0.860  0.8762 -0.8663  1.6212
 2535SOL    HW217645   1.420   4.270   0.931  0.5244  0.7219  0.7157
 2536SOL     OW17646   2.909   3.366   2.760  0.4589 -0.2801 -0.2494
 2536SOL    HW117647   2.844   3.425   2.808  0.0449 -1.5916  0.8622
 2536SOL    HW217648   2.872   3.273   2.754  0.3211 -0.0848 -3.5190
 2537SOL     OW17649   3.133   1.125   2.033  0.0691 -0.2110  0.7730
 2537SOL    HW117650   3.189   1.169   1.963  1.1689 -0.4166  1.5044
 2537SOL    HW217651   3.103   1.195   2.099 -1.9413  0.1796 -0.5299
 2538SOL     OW17652   8.908   4.407   0.538  0.3954  0.1533  0.2040
 2538SOL    HW117653   8.975   4.467   0.582 -0.0941 -0.0716  1.2700
 2538SOL    HW217654   8.817   4.428   0.573 -0.0479  0.2175 -0.9811
 2539SOL     OW17655   2.561   4.123   0.418  0.3506 -0.3709 -0.5773
 2539SOL    HW117656   2.506   4.050   0.377  0.3829 -1.4633  1.3084
 2539SOL    HW217657   2.657   4.096   0.420  0.4237 -0.0910 -0.2600
 2540SOL     OW17658   1.261   3.536   2.562 -0.1955  0.1974  0.0753
 2540SOL    HW117659   1.186   3.589   2.522  1.1954  2.7762  0.7561
 2540SOL    HW217660   1.247   3.527   2.661 -0.1761 -0.2567  0.0365
 2541SOL     OW17661   9.720   0.508   0.935 -0.0813 -0.0565  0.4284
 2541SOL    HW117662   9.755   0.415   0.947 -1.9918 -0.9165 -0.5395
 2541SOL    HW217663   9.666   0.534   1.014 -0.7004 -0.3053  0.0925
 2542SOL     OW17664   0.887   5.145   1.559 -0.0643  0.5751  0.4555
 2542SOL    HW117665   0.961   5.191   1.608 -1.1801  0.2358  2.5310
 2542SOL    HW217666   0.800   5.186   1.585 -0.7963 -0.4990 -0.2706
 2543SOL     OW17667   0.964   8.948   0.918 -0.2438  0.2163 -0.1690
 2543SOL    HW117668   0.939   9.045   0.916 -2.6997 -0.4010 -1.0876
 2543SOL    HW217669   1.004   8.926   1.007 -2.0214  1.5073  0.9720
 2544SOL     OW17670   2.208   6.144   2.555  0.4311 -0.0536  0.7155
 2544SOL    HW117671   2.287   6.165   2.498 -0.1402  0.7167  0.2024
 2544SOL    HW217672   2.223   6.179   2.647 -0.3105  2.1995 -0.0050
 2545SOL     OW17673   0.665   6.236   1.725  0.1178 -0.4595  0.0180
 2545SOL    HW117674   0.693   6.325   1.761  1.1254 -0.5481 -0.5325
 2545SOL    HW217675   0.719   6.164   1.769 -1.5500 -0.9230  1.3768
 2546SOL     OW17676   3.565   3.598   1.150  0.9371 -0.1433  0.0195
 2546SOL    HW117677   3.646   3.539   1.152  0.1128 -1.2584  0.4943
 2546SOL    HW217678   3.531   3.610   1.243  0.3716  0.0890 -0.2181
 2547SOL     OW17679   2.640   4.545   2.017 -0.4884 -0.7827  0.4417
 2547SOL    HW117680   2.683   4.531   1.928 -0.9962 -1.3301  0.2847
 2547SOL    HW217681   2.689   4.492   2.086 -0.6503 -1.0639  0.3379
 2548SOL     OW17682   1.639   1.443   1.764 -0.2594 -0.1162  0.1902
 2548SOL    HW117683   1.582   1.430   1.683  2.0112  0.0157 -1.4905
 2548SOL    HW217684   1.597   1.511   1.824 -1.9080 -0.1073 -0.9483
 2549SOL     OW17685   9.894   1.851   2.345 -0.5791 -0.0489  0.3336
 2549SOL    HW117686   9.961   1.777   2.336 -2.5342 -2.1142  2.1028
 2549SOL    HW217687   9.910   1.919   2.273  1.8921 -1.6659 -0.7366
 2550SOL     OW17688   4.000   7.856   1.476 -0.1049 -0.0367 -0.7908
 2550SOL    HW117689   4.007   7.898   1.566 -3.3916 -0.0218 -0.4919
 2550SOL    HW217690   4.011   7.926   1.405 -0.0046  0.3674 -0.3750
 2551SOL     OW17691   1.437   6.146   0.541  0.6514  0.5279  0.1148
 2551SOL    HW117692   1.342   6.159   0.569  1.1762 -0.1751  2.3189
 2551SOL    HW217693   1.489   6.229   0.559  0.8429  0.3096  0.5681
 2552SOL     OW17694   2.238   8.372   2.805 -0.4573 -0.5290  1.2422
 2552SOL    HW117695   2.207   8.296   2.747 -1.2145 -0.0807  1.0541
 2552SOL    HW217696   2.325   8.347   2.848  0.0133 -0.9570  0.0870
 2553SOL     OW17697   1.286   1.468   2.207  0.4432 -0.3503 -0.3094
 2553SOL    HW117698   1.212   1.507   2.152 -0.2983 -0.9252  0.2629
 2553SOL    HW217699   1.286   1.369   2.198  0.4103 -0.4375  0.5949
 2554SOL     OW17700   1.875   3.587   0.376 -0.0298  0.4119  0.4386
 2554SOL    HW117701   1.927   3.672   0.378  1.2130 -0.2969 -1.2775
 2554SOL    HW217702   1.818   3.581   0.458  1.9690  1.5834  1.9559
 2555SOL     OW17703   0.873   3.304   0.529 -0.1424  0.1522 -0.5258
 2555SOL    HW117704   0.919   3.278   0.614  1.8893 -1.7476 -2.1533
 2555SOL    HW217705   0.864   3.403   0.525  1.6455  0.3995  0.9401
 2556SOL     OW17706   2.783   3.209   0.896 -0.0058  0.3166  0.0364
 2556SOL    HW117707   2.853   3.182   0.830  0.1892  0.6840  0.0910
 2556SOL    HW217708   2.693   3.189   0.858  0.1439 -4.7578  1.9072
 2557SOL     OW17709   3.992   9.529   1.541  0.5249  0.7125 -0.8461
 2557SOL    HW117710   3.982   9.434   1.570  0.4620  1.2510  1.0151
 2557SOL    HW217711   4.088   9.548   1.522  0.8610  0.7853  0.7853
 2558SOL     OW17712   2.520   1.809   1.370  0.3318 -0.2775 -0.3499
 2558SOL    HW117713   2.540   1.812   1.272  1.0843  2.0048 -0.1368
 2558SOL    HW217714   2.434   1.761   1.385  0.2807 -0.7562 -2.1170
 2559SOL     OW17715   1.031   3.443   0.019 -0.1602  0.0638  0.3788
 2559SOL    HW117716   1.004   3.347   0.017  2.2967 -0.6619 -0.8975
 2559SOL    HW217717   1.129   3.449   0.039 -0.1663  2.2567 -0.1317
 2560SOL     OW17718   0.851   1.124   0.780 -0.3938 -0.3090  0.0844
 2560SOL    HW117719   0.794   1.206   0.779  0.0821  0.0694  1.6750
 2560SOL    HW217720   0.872   1.097   0.686 -1.2467  0.9054 -0.4739
 2561SOL     OW17721   1.410   7.164   0.432 -0.6507 -0.1312  0.2646
 2561SOL    HW117722   1.490   7.154   0.492 -0.0606 -1.6466 -0.7357
 2561SOL    HW217723   1.348   7.087   0.448 -0.5282 -0.5029 -0.9833
 2562SOL     OW17724   0.664   9.670   0.374 -0.3771 -0.0572 -0.2937
 2562SOL    HW117725   0.742   9.669   0.311 -0.0398  1.0833  0.0920
 2562SOL    HW217726   0.697   9.657   0.468 -0.6565  0.4262 -0.1288
 2563SOL     OW17727   9.034   1.861   0.419 -0.3364  0.3375  0.2029
 2563SOL    HW117728   8.956   1.904   0.464 -0.3014  0.4051  0.1981
 2563SOL    HW217729   9.012   1.766   0.398 -0.9139  0.7351 -1.0155
 2564SOL     OW17730   2.520   3.288   1.954 -0.4444 -0.3262  0.3704
 2564SOL    HW117731   2.436   3.341   1.947  0.3493  0.6240 -3.6047
 2564SOL    HW217732   2.594   3.347   1.985 -0.1834  0.2204 -1.2240
 2565SOL     OW17733   0.876   0.836   2.718  0.2740 -0.6855 -0.0780
 2565SOL    HW117734   0.876   0.739   2.744  1.0954 -0.6682  0.0217
 2565SOL    HW217735   0.786   0.876   2.735  0.7113 -0.7201  2.6076
 2566SOL     OW17736   1.482   9.968   0.274  0.4783 -0.7763  0.2540
 2566SOL    HW117737   1.400   9.918   0.303  0.6317 -0.0400  2.0293
 2566SOL    HW217738   1.561   9.908   0.277 -0.0594 -1.6210 -1.9178
 2567SOL     OW17739   8.793   1.503   0.111 -0.5731  0.1585 -0.7122
 2567SOL    HW117740   8.781   1.580   0.048 -0.8778 -0.8997 -1.9646
 2567SOL    HW217741   8.739   1.519   0.194  1.0707  2.3041 -0.0019
 2568SOL     OW17742   8.704   3.597   2.195  0.0110  0.7801  1.1994
 2568SOL    HW117743   8.803   3.588   2.205 -0.2674 -1.6714  2.0735
 2568SOL    HW217744   8.659   3.523   2.244 -2.1509  0.0218 -1.7705
 2569SOL     OW17745   1.299   0.828   0.852 -0.0788  0.1727 -0.0306
 2569SOL    HW117746   1.368   0.818   0.780 -2.6766  0.0998 -2.6171
 2569SOL    HW217747   1.255   0.918   0.843 -0.7368 -0.0228  1.1862
 2570SOL     OW17748   2.717   5.505   1.424  0.6418  0.5645 -0.0849
 2570SOL    HW117749   2.803   5.455   1.435  0.8479  1.2626  1.6237
 2570SOL    HW217750   2.672   5.475   1.340  2.4490  0.0397 -0.8992
 2571SOL     OW17751   2.036   2.672   1.853 -0.2258 -0.3032  0.2840
 2571SOL    HW117752   2.030   2.576   1.828  0.8752 -0.5782  1.0520
 2571SOL    HW217753   1.986   2.686   1.939  0.7515 -0.4566  0.8823
 2572SOL     OW17754   2.022   1.173   0.029 -0.1465 -0.4300  0.5530
 2572SOL    HW117755   2.113   1.132   0.029  0.2428  0.4049 -0.6016
 2572SOL    HW217756   2.031   1.272   0.043 -0.6248  0.1288 -2.7962
 2573SOL     OW17757   3.692   3.784   2.079 -0.6662  0.3628 -0.1742
 2573SOL    HW117758   3.750   3.834   2.143  0.5580  0.6153 -1.4777
 2573SOL    HW217759   3.714   3.686   2.083 -1.1565  0.2709  0.3718
 2574SOL     OW17760   0.522   0.322   1.068  0.7384  0.1889  0.0274
 2574SOL    HW117761   0.535   0.387   0.993 -1.6915  2.8313  1.7855
 2574SOL    HW217762   0.551   0.365   1.154  0.1253 -1.4854  1.0961
 2575SOL     OW17763   2.571   6.019   1.404 -0.1774 -0.4783 -0.2797
 2575SOL    HW117764   2.602   6.099   1.455 -1.6171  0.7654 -1.3204
 2575SOL    HW217765   2.650   5.968   1.371  0.7906 -0.8958  2.5259
 2576SOL     OW17766   2.838   0.003   0.370  0.1443 -0.1601  0.0675
 2576SOL    HW117767   2.751   0.050   0.356 -0.1356 -0.7153 -0.0830
 2576SOL    HW217768   2.903   0.032   0.299 -0.6338 -1.4383 -1.2056
 2577SOL     OW17769   2.136   5.549   1.849 -0.1071 -0.4698 -0.4883
 2577SOL    HW117770   2.038   5.528   1.852 -0.3730  0.8437  0.5034
 2577SOL    HW217771   2.188   5.464   1.846 -1.2654 -1.1884 -0.7673
 2578SOL     OW17772   3.067   1.235   1.525 -0.1643 -0.3664  0.0739
 2578SOL    HW117773   2.976   1.262   1.495  0.1246  0.9868  0.4017
 2578SOL    HW217774   3.134   1.305   1.497  0.4536 -0.2759  1.7589
 2579SOL     OW17775   2.812   7.379   0.367  0.4839  0.1054 -0.4700
 2579SOL    HW117776   2.794   7.282   0.350  3.9124 -0.4923 -1.0385
 2579SOL    HW217777   2.825   7.426   0.280  2.2770  0.3199 -0.1093
 2580SOL     OW17778   9.705   3.351   2.407  0.8249  0.7542  0.2815
 2580SOL    HW117779   9.625   3.407   2.383  0.6537  0.5278  0.3172
 2580SOL    HW217780   9.721   3.358   2.505 -1.6509 -2.4207  1.0187
 2581SOL     OW17781   2.010   5.194   0.247 -0.2053  0.3739 -0.1600
 2581SOL    HW117782   1.934   5.259   0.242  0.1044  0.6304 -1.8127
 2581SOL    HW217783   1.975   5.101   0.240 -0.5344  0.3986  1.0201
 2582SOL     OW17784   2.285   5.737   0.639  0.1071  0.1002 -0.6971
 2582SOL    HW117785   2.256   5.644   0.618  0.9430 -0.4537  0.5108
 2582SOL    HW217786   2.375   5.754   0.599 -0.1744  0.4872 -1.1650
 2583SOL     OW17787   2.830   0.689   1.703  0.2181 -0.4575 -0.3209
 2583SOL    HW117788   2.903   0.674   1.637  0.6600  1.9043 -0.4299
 2583SOL    HW217789   2.834   0.619   1.774  2.4502 -0.4840 -0.4367
 2584SOL     OW17790   2.745   6.631   2.366 -0.1616  0.2315  0.7642
 2584SOL    HW117791   2.798   6.672   2.441 -0.7857  2.1265  0.2018
 2584SOL    HW217792   2.756   6.532   2.369  1.9568  0.4468  1.7647
 2585SOL     OW17793   2.223   5.068   2.570 -0.0765 -0.1211 -0.2573
 2585SOL    HW117794   2.209   5.111   2.660  2.5033  1.4608 -0.5846
 2585SOL    HW217795   2.314   5.026   2.567 -0.3886 -0.6901 -1.9510
 2586SOL     OW17796   3.297   4.111   2.246  0.0007 -0.5424 -0.1010
 2586SOL    HW117797   3.206   4.110   2.288 -0.0099 -1.8869 -0.1228
 2586SOL    HW217798   3.342   4.023   2.263 -0.0754 -1.2126 -3.0855
 2587SOL     OW17799   9.595   0.518   2.010  0.0242 -0.1295  0.1683
 2587SOL    HW117800   9.666   0.451   1.989  0.7466  0.9625 -0.9629
 2587SOL    HW217801   9.506   0.482   1.985  0.4930 -0.3736 -1.1628
 2588SOL     OW17802   0.946   2.848   2.451  0.0659 -0.3225  0.0762
 2588SOL    HW117803   0.863   2.843   2.395  0.0966 -0.9237  0.0876
 2588SOL    HW217804   0.925   2.818   2.544 -0.2558  1.7353  0.7013
 2589SOL     OW17805   8.666   1.267   2.096  0.3006  0.4510 -0.2244
 2589SOL    HW117806   8.582   1.212   2.096 -0.3884  1.4581  0.6473
 2589SOL    HW217807   8.704   1.268   2.189  0.4405  1.2372 -0.2905
 2590SOL     OW17808   1.958   3.550   0.836 -0.1481 -0.2688 -0.2667
 2590SOL    HW117809   2.025   3.596   0.893  1.5221 -0.6544 -1.8870
 2590SOL    HW217810   1.904   3.488   0.893  0.8714  0.0206  1.0520
 2591SOL     OW17811   3.568   8.882   1.645 -0.1394  0.4276  0.1312
 2591SOL    HW117812   3.585   8.832   1.559 -0.2219  2.0192 -0.8250
 2591SOL    HW217813   3.530   8.819   1.713  0.1067 -0.8962 -0.9276
 2592SOL     OW17814   0.503   3.362   2.397 -0.1505  0.7130  0.0252
 2592SOL    HW117815   0.554   3.324   2.319  0.6302 -0.8041  1.2270
 2592SOL    HW217816   0.464   3.450   2.372  1.4700  1.0135 -1.5560
 2593SOL     OW17817   4.299   3.371   2.262 -0.3626 -0.4492  0.2115
 2593SOL    HW117818   4.349   3.432   2.325  1.7679  0.0356 -1.8739
 2593SOL    HW217819   4.207   3.407   2.248 -0.9997 -0.7128  3.2161
 2594SOL     OW17820   3.744   2.695   2.000  0.1751 -0.1621 -0.0030
 2594SOL    HW117821   3.688   2.739   1.929  0.6620  1.1556  0.4158
 2594SOL    HW217822   3.684   2.646   2.064 -0.6168  2.2178  1.1128
 2595SOL     OW17823   0.849   1.892   0.590  0.1782 -0.0066 -0.3489
 2595SOL    HW117824   0.851   1.984   0.628 -0.4102  0.3988 -1.2606
 2595SOL    HW217825   0.942   1.856   0.585  0.4157  0.5494 -0.0158
 2596SOL     OW17826   9.985   4.128   1.399 -0.1434 -0.0619 -0.2134
 2596SOL    HW117827  10.074   4.167   1.375  0.2203 -0.4638  0.4568
 2596SOL    HW217828   9.971   4.043   1.348 -0.5977  0.5364 -1.0933
 2597SOL     OW17829   9.482   2.630   1.957  0.0630 -0.1300 -0.1959
 2597SOL    HW117830   9.577   2.617   1.930 -0.1120 -0.2483 -0.7578
 2597SOL    HW217831   9.460   2.728   1.955  0.1488 -0.1093 -0.1388
 2598SOL     OW17832   3.032   0.702   2.339 -0.5331 -0.5997 -0.2062
 2598SOL    HW117833   3.025   0.642   2.419 -0.3515  0.6182  0.7416
 2598SOL    HW217834   3.089   0.781   2.362 -2.7445  1.1919 -0.6265
 2599SOL     OW17835   4.259   3.545   1.366 -0.2229 -0.4274 -0.0472
 2599SOL    HW117836   4.227   3.497   1.284 -0.0931 -0.0138 -0.3381
 2599SOL    HW217837   4.355   3.569   1.356 -0.6144  1.0351 -0.4425
 2600SOL     OW17838   8.817   1.095   2.805  0.4986  0.6920 -0.3141
 2600SOL    HW117839   8.736   1.041   2.780 -0.5830  1.0672  2.1747
 2600SOL    HW217840   8.897   1.059   2.757 -0.5251 -1.9571 -0.1547
 2601SOL     OW17841   3.776   3.320   2.251  0.1323 -0.1057 -0.3232
 2601SOL    HW117842   3.746   3.308   2.346  0.8762 -1.3766 -0.2338
 2601SOL    HW217843   3.737   3.247   2.194  0.3850  0.1449 -0.8254
 2602SOL     OW17844   9.989   3.223   1.587 -0.1627  0.0781 -0.3530
 2602SOL    HW117845   9.912   3.284   1.566 -0.3245 -0.2343 -0.6534
 2602SOL    HW217846   9.963   3.159   1.659 -0.0770  0.1826 -0.2275
 2603SOL     OW17847   2.596   5.393   1.200 -0.0966 -0.0171 -0.0300
 2603SOL    HW117848   2.663   5.360   1.133  1.6842 -0.1129  1.7342
 2603SOL    HW217849   2.506   5.356   1.179  1.1052 -2.8491 -0.3999
 2604SOL     OW17850   8.011   1.288   0.695  0.1551 -0.4783  0.3840
 2604SOL    HW117851   8.004   1.372   0.749 -0.6065 -1.2636  1.5333
 2604SOL    HW217852   7.942   1.288   0.623 -0.1329 -0.3109  0.6591
 2605SOL     OW17853   9.183   1.456   2.393  0.2636  0.7185 -0.5255
 2605SOL    HW117854   9.202   1.362   2.422  1.4009  0.9991 -0.3191
 2605SOL    HW217855   9.165   1.513   2.473 -3.6859  0.0162 -0.8429
 2606SOL     OW17856   0.858   7.436   2.413 -0.1596  0.2188 -0.1054
 2606SOL    HW117857   0.903   7.349   2.397  0.2488  0.7558 -2.0684
 2606SOL    HW217858   0.885   7.472   2.503 -1.7882 -2.5110  1.5178
 2607SOL     OW17859   9.075   4.283   0.357 -0.4430  1.0378 -0.5192
 2607SOL    HW117860   9.024   4.231   0.288 -0.2195  2.0579 -1.4587
 2607SOL    HW217861   9.012   4.335   0.414 -0.6450  0.0082  0.2166
 2608SOL     OW17862   1.110   2.331   2.213 -0.0280 -0.1858 -0.8020
 2608SOL    HW117863   1.106   2.334   2.113 -1.1125 -0.3349 -0.7739
 2608SOL    HW217864   1.088   2.421   2.249 -2.2656 -0.7478 -0.6545
 2609SOL     OW17865   3.969   3.827   1.283 -0.1788 -0.4750  0.0701
 2609SOL    HW117866   4.000   3.889   1.210 -0.9108 -1.8864 -1.4845
 2609SOL    HW217867   3.869   3.832   1.290 -0.0404  0.3224  1.6100
 2610SOL     OW17868   0.084   1.688   1.157 -0.4797  0.3004 -0.5133
 2610SOL    HW117869   0.177   1.696   1.192 -0.0834 -0.2391 -1.4411
 2610SOL    HW217870   0.023   1.745   1.212  0.5372  1.3205 -0.4264
 2611SOL     OW17871   2.338   7.395   1.025  0.0230  0.0762  0.6279
 2611SOL    HW117872   2.347   7.350   1.114 -0.0477  1.3656  1.2941
 2611SOL    HW217873   2.264   7.352   0.974 -1.6498  0.9601  2.2266
 2612SOL     OW17874   0.303   0.520   1.918 -0.2902  0.9840 -0.4091
 2612SOL    HW117875   0.226   0.568   1.876 -0.5726  0.3389 -0.6415
 2612SOL    HW217876   0.315   0.551   2.012 -1.1085  0.7768 -0.2336
 2613SOL     OW17877   0.474   9.351   1.870 -0.9503  0.4035 -0.6387
 2613SOL    HW117878   0.479   9.284   1.945 -0.3008  0.1221 -0.9324
 2613SOL    HW217879   0.382   9.391   1.868 -0.5263  1.5291  1.2624
 2614SOL     OW17880   1.296   0.409   0.099 -0.1236  0.2817 -0.6050
 2614SOL    HW117881   1.319   0.382   0.192 -2.7186 -0.4376 -0.1075
 2614SOL    HW217882   1.377   0.443   0.052  0.8118  2.6763  2.6003
 2615SOL     OW17883   1.043   8.840   2.723 -0.3685  1.0105 -0.0433
 2615SOL    HW117884   0.944   8.843   2.704 -0.0012  1.3132 -2.0340
 2615SOL    HW217885   1.062   8.767   2.788 -1.8879  0.7772  0.1548
 2616SOL     OW17886   2.367   2.210   0.208  0.2512 -0.3570  0.1977
 2616SOL    HW117887   2.451   2.205   0.262 -0.3883 -2.3941  1.0732
 2616SOL    HW217888   2.373   2.144   0.132 -1.5499 -2.4209  1.7765
 2617SOL     OW17889   3.371   7.954   0.295  0.5396  0.0819 -0.6015
 2617SOL    HW117890   3.437   7.966   0.221  0.6390 -2.4269 -0.9679
 2617SOL    HW217891   3.279   7.967   0.260  0.4663 -2.9743 -1.6518
 2618SOL     OW17892   2.528   3.519   2.654  0.3867  0.1659  0.1273
 2618SOL    HW117893   2.604   3.518   2.589  0.1462  0.0074 -0.1499
 2618SOL    HW217894   2.442   3.508   2.605  0.3263 -1.7800  0.6456
 2619SOL     OW17895   1.088   9.913   0.059 -0.5351  0.5510 -0.6292
 2619SOL    HW117896   1.072   9.963   0.144  1.0209  0.6588 -0.3918
 2619SOL    HW217897   1.087   9.977  -0.018 -0.0833  0.7233 -0.4919
 2620SOL     OW17898   0.606   9.918   0.979 -0.0490 -0.5932  0.1563
 2620SOL    HW117899   0.606   9.864   0.894 -0.3716  1.3339 -1.0848
 2620SOL    HW217900   0.515   9.956   0.994  0.8438  1.8519 -0.4438
 2621SOL     OW17901   3.260   3.878   0.197  0.5584  0.1998  0.4973
 2621SOL    HW117902   3.197   3.833   0.133  0.6485 -1.1033  1.3089
 2621SOL    HW217903   3.302   3.957   0.152 -1.5589  1.0182 -0.0882
 2622SOL     OW17904   2.722   6.332   1.239  0.3448  0.5122 -0.8884
 2622SOL    HW117905   2.811   6.375   1.257 -0.2184  0.7023  1.5915
 2622SOL    HW217906   2.672   6.387   1.172  0.9958  1.9088 -0.2586
 2623SOL     OW17907   1.904   8.507   2.659  0.7123  0.2216  0.6500
 2623SOL    HW117908   1.952   8.544   2.739 -0.8961  2.6023  0.5768
 2623SOL    HW217909   1.937   8.552   2.576  1.6246 -1.4804  0.0729
 2624SOL     OW17910   0.780   2.760   2.063 -0.7287  0.4862 -0.5359
 2624SOL    HW117911   0.736   2.692   2.121 -0.6749  1.3941  0.5855
 2624SOL    HW217912   0.762   2.739   1.967 -2.0888 -0.1658 -0.1465
 2625SOL     OW17913   2.903   4.874   1.604  0.6180  0.2791 -0.8861
 2625SOL    HW117914   2.899   4.972   1.624  1.5432 -0.2208  2.0366
 2625SOL    HW217915   2.811   4.835   1.608  0.5735  0.5286  0.8623
 2626SOL     OW17916   2.976   3.414   2.105 -0.0343 -0.1496  0.3127
 2626SOL    HW117917   3.039   3.349   2.062 -2.2458 -2.1991  0.0333
 2626SOL    HW217918   3.008   3.437   2.197  1.1611 -1.0964  0.1374
 2627SOL     OW17919   2.706   4.101   1.776  0.7839 -0.0055 -0.1428
 2627SOL    HW117920   2.741   4.171   1.839 -0.4636  0.6381 -0.1583
 2627SOL    HW217921   2.772   4.088   1.702  0.5115  1.9910 -0.7744
 2628SOL     OW17922   0.368   4.948   0.900  0.4239 -0.5345 -0.1512
 2628SOL    HW117923   0.394   5.040   0.869 -1.7615  0.4058  0.6717
 2628SOL    HW217924   0.342   4.893   0.820  2.8055 -0.8365 -0.7648
 2629SOL     OW17925   3.664   2.799   1.488 -0.6477 -0.4111 -0.0224
 2629SOL    HW117926   3.574   2.756   1.493 -1.3671  1.1305  0.4971
 2629SOL    HW217927   3.668   2.876   1.551  0.6780  0.1998 -0.8295
 2630SOL     OW17928   2.704   9.572   2.672 -0.7891 -0.4114 -0.2251
 2630SOL    HW117929   2.661   9.629   2.602 -0.6033 -0.4791 -0.3935
 2630SOL    HW217930   2.751   9.496   2.628  0.7657  0.4859 -0.1412
 2631SOL     OW17931   2.971   9.999   0.877 -0.1069 -0.7325 -0.6185
 2631SOL    HW117932   3.053  10.030   0.925 -0.7806 -1.7027  1.2129
 2631SOL    HW217933   2.979   9.901   0.858 -0.6185 -0.7204 -0.8943
 2632SOL     OW17934   3.919   1.594   0.951 -0.4674  0.5261  0.2927
 2632SOL    HW117935   3.848   1.613   0.883  0.6020  1.6716 -0.5261
 2632SOL    HW217936   3.973   1.515   0.921 -1.1001 -0.0619  0.6902
 2633SOL     OW17937   0.046   0.835   1.563  0.6484 -0.0402  0.6865
 2633SOL    HW117938   0.010   0.882   1.483  0.4286 -0.7770  0.3408
 2633SOL    HW217939   0.070   0.741   1.537  2.0067  0.1751  1.1106
 2634SOL     OW17940   9.657   1.481   0.394 -0.2200  0.1315  0.0849
 2634SOL    HW117941   9.635   1.578   0.382 -1.6172  0.0094  1.5010
 2634SOL    HW217942   9.753   1.472   0.419  0.6362  0.9376 -2.7226
 2635SOL     OW17943   2.706   8.205   1.052  0.4190 -0.0927 -0.1565
 2635SOL    HW117944   2.753   8.288   1.023  0.4857  0.2615  0.9257
 2635SOL    HW217945   2.647   8.173   0.978 -0.0900  1.2830 -0.3728
 2636SOL     OW17946   0.016   2.761   0.492  0.2698  0.4736  0.7368
 2636SOL    HW117947  -0.080   2.734   0.502  0.2696 -0.0769 -0.6208
 2636SOL    HW217948   0.050   2.797   0.579 -1.6801  2.3257  0.7869
 2637SOL     OW17949   3.790   8.923   2.515  0.0645  0.2571 -0.0673
 2637SOL    HW117950   3.774   8.938   2.418 -1.6214 -1.5380 -0.0956
 2637SOL    HW217951   3.772   8.827   2.538 -1.9652  1.1887  2.4660
 2638SOL     OW17952   2.714   3.442   2.043 -1.0853  0.0575  0.4374
 2638SOL    HW117953   2.801   3.417   2.086 -1.8490 -2.3029  0.6568
 2638SOL    HW217954   2.721   3.535   2.005  1.0685  0.4191  1.6463
 2639SOL     OW17955   2.102   7.529   2.703 -0.1673 -0.2982 -0.3484
 2639SOL    HW117956   2.086   7.524   2.604 -0.8197 -2.1768 -0.1554
 2639SOL    HW217957   2.141   7.618   2.725  0.7352 -0.1554 -2.4046
 2640SOL     OW17958   2.198   5.308   0.381 -0.3255  0.0358 -0.3994
 2640SOL    HW117959   2.131   5.242   0.346 -0.7615  1.8753 -3.2318
 2640SOL    HW217960   2.151   5.389   0.415  0.3766  0.4284 -0.3593
 2641SOL     OW17961   1.249   5.085   2.516  0.4291 -0.6249  0.7058
 2641SOL    HW117962   1.239   5.050   2.422  1.3487  0.3458  0.2392
 2641SOL    HW217963   1.327   5.146   2.520  0.1622 -0.3697  2.0400
 2642SOL     OW17964   1.402   6.322   2.228 -0.2789 -0.1169 -0.4490
 2642SOL    HW117965   1.462   6.312   2.307  0.5508 -0.9706 -1.1736
 2642SOL    HW217966   1.307   6.315   2.257  0.0651 -2.2623  0.2355
 2643SOL     OW17967   0.428   0.302   1.518  0.7288 -0.4715 -0.8097
 2643SOL    HW117968   0.498   0.251   1.568  1.1011  0.5774 -0.2493
 2643SOL    HW217969   0.373   0.239   1.463  0.8112 -1.5370  0.3284
 2644SOL     OW17970   3.577   2.758   1.798 -0.1093 -0.3483 -0.0951
 2644SOL    HW117971   3.605   2.717   1.711 -0.3814 -0.6949 -0.0210
 2644SOL    HW217972   3.478   2.776   1.795 -0.0460  0.0222 -0.0120
 2645SOL     OW17973   3.529   9.613   1.486  0.3051  0.0680 -0.1743
 2645SOL    HW117974   3.496   9.677   1.416 -0.2015  0.6679  0.6082
 2645SOL    HW217975   3.487   9.523   1.471  0.6327  0.0387 -0.9750
 2646SOL     OW17976   3.255   8.659   2.712  0.6155 -0.1535 -0.7084
 2646SOL    HW117977   3.304   8.706   2.639 -1.7514  0.6508 -1.8316
 2646SOL    HW217978   3.210   8.726   2.771 -0.9811 -0.9088 -1.0259
 2647SOL     OW17979   0.667   1.214   1.322 -0.0859  0.0065  0.8368
 2647SOL    HW117980   0.633   1.136   1.269 -0.1070  0.0672  0.7603
 2647SOL    HW217981   0.724   1.181   1.397 -1.4574 -0.1707  1.8291
 2648SOL     OW17982   0.943   1.233   2.005 -0.0749  0.0365 -0.6632
 2648SOL    HW117983   0.942   1.258   2.102 -1.4360 -3.2210  0.2379
 2648SOL    HW217984   1.010   1.160   1.990 -1.1366 -0.7310 -1.7994
 2649SOL     OW17985   3.831   9.834   2.172  0.3839 -0.7399 -0.0085
 2649SOL    HW117986   3.753   9.858   2.229 -0.8202 -0.8698 -1.5883
 2649SOL    HW217987   3.846   9.905   2.104 -0.9067 -2.6622 -2.3402
 2650SOL     OW17988   2.374   5.004   0.627 -0.7416  0.4301 -0.3592
 2650SOL    HW117989   2.393   4.907   0.647  0.6009  0.5905 -0.8228
 2650SOL    HW217990   2.321   5.043   0.702 -0.8924 -0.5524  0.0549
 2651SOL     OW17991   2.037   5.495   0.588  0.0390  0.7137  0.0547
 2651SOL    HW117992   2.025   5.555   0.509 -1.1596 -1.1398 -1.2200
 2651SOL    HW217993   1.948   5.476   0.630  0.5355  0.7622  1.1676
 2652SOL     OW17994   2.392   6.908   2.105 -0.5552 -0.0364 -0.2767
 2652SOL    HW117995   2.332   6.880   2.030 -0.1485 -0.2287 -0.5266
 2652SOL    HW217996   2.340   6.905   2.191 -0.6760 -1.0003 -0.3752
 2653SOL     OW17997   2.514   3.633   1.780 -0.1893  0.1475 -0.1005
 2653SOL    HW117998   2.452   3.692   1.832  0.3476  0.2118  0.4696
 2653SOL    HW217999   2.601   3.626   1.828 -0.5916 -1.9599  0.3700
 2654SOL     OW18000   8.836   4.598   0.313  0.8765 -0.1884 -0.1477
 2654SOL    HW118001   8.852   4.546   0.229  1.4342  0.4437 -0.4378
 2654SOL    HW218002   8.904   4.573   0.381 -0.6193 -1.9952  0.7463
 2655SOL     OW18003   3.428   2.649   1.529  0.1061  0.1750 -0.7553
 2655SOL    HW118004   3.405   2.553   1.512  0.3299  0.0710 -0.4728
 2655SOL    HW218005   3.365   2.687   1.597  0.8585 -0.1500  0.1258
 2656SOL     OW18006   9.922   1.493   0.470 -0.6846  0.3396 -0.2961
 2656SOL    HW118007   9.977   1.442   0.404 -0.3448  0.8427 -0.3975
 2656SOL    HW218008   9.953   1.588   0.474 -0.6299  0.2858  0.6698
 2657SOL     OW18009   1.656   1.315   0.582  0.5575 -0.9728  0.0117
 2657SOL    HW118010   1.674   1.374   0.661 -2.4186  0.9961 -0.7086
 2657SOL    HW218011   1.599   1.238   0.611  1.1952 -1.3875  0.1763
 2658SOL     OW18012   2.650   1.551   0.473 -0.2818  0.4560  0.5109
 2658SOL    HW118013   2.569   1.538   0.530  0.0707 -0.7981  0.7355
 2658SOL    HW218014   2.728   1.506   0.516  0.2618  0.6036 -0.3253
 2659SOL     OW18015   9.491   2.985   0.122  0.0301 -0.1326  0.0309
 2659SOL    HW118016   9.574   2.994   0.178 -0.3605 -1.0760  0.7876
 2659SOL    HW218017   9.517   2.960   0.028  0.5762 -1.6003  0.5487
 2660SOL     OW18018   4.060   8.118   0.363  0.5748  0.2725  0.1435
 2660SOL    HW118019   4.046   8.028   0.406 -0.2469 -0.4350 -1.5495
 2660SOL    HW218020   3.972   8.152   0.329  1.2007  0.8482 -0.8959
 2661SOL     OW18021   2.317   6.137   0.836  0.0186 -0.9461 -0.1854
 2661SOL    HW118022   2.334   6.083   0.753 -2.1405 -1.5564 -0.2491
 2661SOL    HW218023   2.241   6.097   0.887  0.8097 -0.1029  1.6879
 2662SOL     OW18024   3.927   0.777   2.123 -0.0418 -0.0967  0.6507
 2662SOL    HW118025   3.984   0.857   2.101 -2.1110  0.7524 -1.7297
 2662SOL    HW218026   3.873   0.797   2.205 -1.4181  1.4095 -0.6073
 2663SOL     OW18027   4.442   1.198   2.289 -0.0968 -0.0317 -0.0014
 2663SOL    HW118028   4.405   1.114   2.328 -0.0596  0.3516  0.8718
 2663SOL    HW218029   4.408   1.276   2.340  0.1270  0.4664 -0.6105
 2664SOL     OW18030   9.083   0.628   2.726  0.2825  0.0251 -0.3890
 2664SOL    HW118031   9.122   0.609   2.636 -0.3312 -0.8633 -0.4694
 2664SOL    HW218032   9.085   0.544   2.781  0.4951  0.5211  0.3624
 2665SOL     OW18033   0.650   0.626   2.030 -0.0015  0.0438 -0.4543
 2665SOL    HW118034   0.664   0.705   1.969 -0.5849 -0.5152 -1.3249
 2665SOL    HW218035   0.553   0.602   2.031  0.1994 -0.7601 -0.3088
 2666SOL     OW18036   9.832   1.056   0.819  0.0891 -0.3036  0.1738
 2666SOL    HW118037   9.896   1.023   0.888  1.1040  0.7848 -0.2363
 2666SOL    HW218038   9.880   1.069   0.732 -0.9303 -0.5388 -0.4356
 2667SOL     OW18039   9.168   1.873   1.225  0.2188  0.4324 -0.2543
 2667SOL    HW118040   9.089   1.893   1.168  0.3323  0.0206 -0.5515
 2667SOL    HW218041   9.232   1.950   1.221 -1.1421  1.7366  1.6742
 2668SOL     OW18042   3.772   4.140   1.297 -0.0402 -0.5424 -0.5769
 2668SOL    HW118043   3.821   4.173   1.215  0.8668  1.4626  0.7305
 2668SOL    HW218044   3.698   4.204   1.319  2.9102  1.8017  3.0928
 2669SOL     OW18045   1.027   0.867   2.483  0.3304  0.3912 -0.1393
 2669SOL    HW118046   0.981   0.842   2.568  1.9187  2.1073  1.2747
 2669SOL    HW218047   1.102   0.803   2.466  0.0416  0.0740 -0.2170
 2670SOL     OW18048   1.483   7.285   0.205 -0.4560  0.3874 -0.5441
 2670SOL    HW118049   1.433   7.243   0.281 -1.5683  1.8012 -0.4815
 2670SOL    HW218050   1.517   7.375   0.232  1.5761 -0.2755 -0.8085
 2671SOL     OW18051   1.014   3.101   1.661 -0.3674 -0.1547 -0.0878
 2671SOL    HW118052   1.078   3.026   1.646  0.2305  0.5193 -0.9782
 2671SOL    HW218053   1.064   3.188   1.660 -1.2641  0.3586 -0.5836
 2672SOL     OW18054   3.733   2.421   1.580 -0.0149  0.5160  0.4012
 2672SOL    HW118055   3.674   2.469   1.515  0.4560  1.3276  0.5530
 2672SOL    HW218056   3.726   2.323   1.566 -2.8149  0.4863  1.6506
 2673SOL     OW18057   9.930   0.966   1.362  0.7499  0.0225  0.2827
 2673SOL    HW118058   9.869   1.045   1.373  0.1407 -0.5228  0.9201
 2673SOL    HW218059  10.008   0.991   1.306  0.1989  0.8841 -0.1082
 2674SOL     OW18060   0.716   0.900   2.455 -0.4230 -0.0054  0.2281
 2674SOL    HW118061   0.699   0.811   2.414  0.0301 -0.9277  1.9941
 2674SOL    HW218062   0.777   0.889   2.534  0.7138  2.0245 -0.3234
 2675SOL     OW18063   0.550   9.399   2.339 -0.6382 -0.5658  0.0588
 2675SOL    HW118064   0.577   9.454   2.418 -2.9119 -1.0857  1.2481
 2675SOL    HW218065   0.541   9.458   2.259 -0.3700  0.3219  0.6794
 2676SOL     OW18066   9.635   3.615   0.190 -0.4480  0.5264  0.0531
 2676SOL    HW118067   9.663   3.538   0.248  0.7499  1.3196  0.5356
 2676SOL    HW218068   9.536   3.627   0.197 -0.8215 -1.7050 -0.9422
 2677SOL     OW18069   0.766   7.721   2.404  0.1659  0.1735 -0.0964
 2677SOL    HW118070   0.778   7.623   2.388  2.8279  0.4819 -0.1846
 2677SOL    HW218071   0.683   7.752   2.357 -1.0270 -2.1391  0.4359
 2678SOL     OW18072   1.625   6.130   0.155  0.1938 -0.3438 -0.0829
 2678SOL    HW118073   1.586   6.052   0.205 -0.1452 -0.3482 -0.3552
 2678SOL    HW218074   1.590   6.131   0.062 -0.1204  0.3659  0.0390
 2679SOL     OW18075   3.676   9.103   1.352  0.0451  0.2729  0.2991
 2679SOL    HW118076   3.709   9.021   1.306 -0.8280 -1.1763  2.1775
 2679SOL    HW218077   3.576   9.109   1.343  0.3037  2.1447 -1.4291
 2680SOL     OW18078   9.719   2.681   1.010 -0.2536 -0.6476  0.3252
 2680SOL    HW118079   9.807   2.656   0.968  0.3131  0.6895  0.6905
 2680SOL    HW218080   9.657   2.713   0.939 -0.2447 -1.0339  0.1426
 2681SOL     OW18081   1.447   2.704   0.916 -0.3327 -0.3769  0.0533
 2681SOL    HW118082   1.473   2.782   0.859 -0.8772  0.5120  1.0150
 2681SOL    HW218083   1.526   2.675   0.971  0.2346 -1.3275 -1.2410
 2682SOL     OW18084   3.862   8.372   2.389  0.3731 -0.4490  0.5119
 2682SOL    HW118085   3.820   8.453   2.347 -3.1185 -0.2079  4.1801
 2682SOL    HW218086   3.955   8.394   2.416 -0.0520  1.9218  0.1785
 2683SOL     OW18087   9.780   0.896   0.026  0.4147 -0.2326  0.4372
 2683SOL    HW118088   9.817   0.989   0.021 -2.0622  0.7714  0.0378
 2683SOL    HW218089   9.746   0.879   0.119  0.2189 -0.4633  0.3231
 2684SOL     OW18090   1.029   5.042   2.700 -0.2499  0.6939 -0.6864
 2684SOL    HW118091   1.032   5.111   2.773 -0.5570 -0.5705  0.5535
 2684SOL    HW218092   1.104   5.058   2.636  0.2593  1.6161  0.1224
 2685SOL     OW18093   1.396   5.117   1.451 -0.5866 -0.0038  0.6325
 2685SOL    HW118094   1.318   5.054   1.450  0.3949 -1.2625 -1.5479
 2685SOL    HW218095   1.474   5.072   1.495 -0.9875  1.1542  2.5694
 2686SOL     OW18096   2.735   3.671   1.915  0.2843 -0.8466  0.6842
 2686SOL    HW118097   2.783   3.677   1.827  0.2208 -0.6935  0.6592
 2686SOL    HW218098   2.730   3.763   1.956 -0.8776 -0.7047  0.2201
 2687SOL     OW18099   1.045   4.749   2.801 -0.5354  0.3426  0.0485
 2687SOL    HW118100   1.057   4.839   2.759 -2.2473  1.2214  1.3655
 2687SOL    HW218101   1.117   4.687   2.769 -0.4156  1.6404 -2.2973
 2688SOL     OW18102   8.768   2.503   2.220 -0.9887  0.3867 -0.1816
 2688SOL    HW118103   8.679   2.543   2.201 -1.7938 -0.2854  1.9573
 2688SOL    HW218104   8.783   2.500   2.319  0.9453 -0.4913 -0.4639
 2689SOL     OW18105   9.421   0.453   1.459 -0.3870 -0.5324  0.1178
 2689SOL    HW118106   9.485   0.439   1.384 -1.4417 -1.2300 -0.6498
 2689SOL    HW218107   9.465   0.509   1.530 -0.7797  3.9203 -2.9315
 2690SOL     OW18108   2.625   7.148   1.290  0.2603 -0.0353  0.0759
 2690SOL    HW118109   2.595   7.180   1.200 -2.3752  0.5568  1.1434
 2690SOL    HW218110   2.599   7.052   1.302 -0.9652  0.3911  0.8855
 2691SOL     OW18111   8.528   1.894   0.769  0.1025  0.1911  0.1617
 2691SOL    HW118112   8.443   1.942   0.788  0.2931 -0.3119  2.4564
 2691SOL    HW218113   8.510   1.796   0.756  0.1611  0.3044 -0.8120
 2692SOL     OW18114   3.403   8.244   1.105  0.2327 -0.2392 -0.0006
 2692SOL    HW118115   3.472   8.178   1.136 -0.5498 -1.1272 -0.0962
 2692SOL    HW218116   3.430   8.282   1.017  0.6606 -0.5002  0.0167
 2693SOL     OW18117   2.813   1.996   2.463 -0.0937  0.3235 -0.2734
 2693SOL    HW118118   2.729   2.045   2.486  0.9595  2.7674 -1.4167
 2693SOL    HW218119   2.891   2.044   2.502  1.1759  0.8954 -3.3956
 2694SOL     OW18120   1.524   4.457   2.817  0.6362  0.7681  0.8711
 2694SOL    HW118121   1.531   4.393   2.741 -1.6654  0.1684  1.1429
 2694SOL    HW218122   1.530   4.407   2.904 -0.5684  0.9856  1.0846
 2695SOL     OW18123   2.640   3.006   0.701 -0.3714 -0.2176 -0.7794
 2695SOL    HW118124   2.579   2.959   0.637 -0.4097 -0.2972 -0.6833
 2695SOL    HW218125   2.705   3.062   0.649 -1.1457  0.6270 -0.8596
 2696SOL     OW18126   1.876   4.554   2.602  0.1392  0.1490 -0.2790
 2696SOL    HW118127   1.902   4.483   2.537  0.6024  1.0560 -1.1009
 2696SOL    HW218128   1.777   4.571   2.597  0.4064  1.3485 -1.9285
 2697SOL     OW18129   2.516   2.046   1.840  0.3488  0.1196  0.4416
 2697SOL    HW118130   2.486   2.072   1.748 -3.5149  1.9007  2.0783
 2697SOL    HW218131   2.502   2.124   1.902  0.3768 -1.9062  3.0591
 2698SOL     OW18132   2.132   3.580   2.717  0.4324  0.3072  0.4662
 2698SOL    HW118133   2.039   3.605   2.689  0.6435  1.3265  0.6636
 2698SOL    HW218134   2.177   3.530   2.642 -0.1334  0.1505  0.2267
 2699SOL     OW18135   3.398   4.618   2.033  0.9027 -0.6690  0.5101
 2699SOL    HW118136   3.334   4.638   1.959  0.4143 -3.4319  0.1204
 2699SOL    HW218137   3.376   4.529   2.073  2.0688  0.1122  3.0193
 2700SOL     OW18138   3.417   8.385   0.296 -0.5693 -0.4256 -0.4148
 2700SOL    HW118139   3.467   8.386   0.383 -1.3553 -0.6564  0.0407
 2700SOL    HW218140   3.350   8.458   0.294 -1.9936 -1.7017  0.0265
 2701SOL     OW18141   8.589   1.294   0.171  0.1066 -0.3758 -0.5960
 2701SOL    HW118142   8.498   1.255   0.188 -0.5337  1.9578  1.7040
 2701SOL    HW218143   8.585   1.359   0.095  0.0143 -0.8006 -0.9549
 2702SOL     OW18144   9.390   3.072   2.190 -0.1277  0.2874  0.0538
 2702SOL    HW118145   9.437   3.015   2.256  0.4840 -0.4852 -1.0347
 2702SOL    HW218146   9.453   3.141   2.155  0.4104 -1.1437 -1.8728
 2703SOL     OW18147   3.633   0.797   0.241 -0.7357 -0.4479 -0.0129
 2703SOL    HW118148   3.691   0.757   0.171 -0.8138 -1.7775  0.6594
 2703SOL    HW218149   3.651   0.752   0.329 -0.7521  1.0737  0.7925
 2704SOL     OW18150   0.627   1.178   0.485 -0.0514 -0.8963 -0.3223
 2704SOL    HW118151   0.683   1.173   0.402  0.5660 -1.5975  0.1385
 2704SOL    HW218152   0.550   1.115   0.478  0.3656 -1.4342 -0.0899
 2705SOL     OW18153   0.265   1.816   2.317  0.3178  0.0570 -0.5443
 2705SOL    HW118154   0.354   1.772   2.308  1.0678  0.9843  1.7704
 2705SOL    HW218155   0.196   1.749   2.344  0.8443 -0.2236  0.1002
 2706SOL     OW18156   2.410   8.876   0.675 -0.6477  0.0548  0.6723
 2706SOL    HW118157   2.375   8.790   0.639 -0.1112  0.1265 -0.0394
 2706SOL    HW218158   2.334   8.934   0.703 -1.0030 -0.7134  1.3020
 2707SOL     OW18159   2.559   8.446   0.893  0.0553  0.1318 -0.5062
 2707SOL    HW118160   2.543   8.530   0.945  1.1744  0.3589 -0.5110
 2707SOL    HW218161   2.649   8.408   0.917 -0.1172 -0.6439 -1.0644
 2708SOL     OW18162   2.516   0.179   2.250 -0.0704 -0.1606  0.1962
 2708SOL    HW118163   2.476   0.092   2.219 -0.0172 -1.3003  3.2087
 2708SOL    HW218164   2.590   0.205   2.188 -0.3352 -2.0498 -0.9646
 2709SOL     OW18165   4.153   3.971   0.222 -0.1455 -0.6640  0.1318
 2709SOL    HW118166   4.139   4.000   0.317 -1.2459  1.0433 -0.5301
 2709SOL    HW218167   4.198   3.882   0.221 -0.8109 -1.0620  2.2761
 2710SOL     OW18168   1.458   7.724   0.079  0.4807  0.5527 -0.5525
 2710SOL    HW118169   1.452   7.626   0.100  1.5075  0.5010 -0.4773
 2710SOL    HW218170   1.383   7.749   0.019  0.2658 -0.3116 -0.6552
 2711SOL     OW18171   2.468   7.501   1.871  0.2912 -0.7805  0.5135
 2711SOL    HW118172   2.399   7.536   1.807 -1.5901  2.6432  4.1847
 2711SOL    HW218173   2.558   7.537   1.846 -0.3539  0.2364 -0.4001
 2712SOL     OW18174   4.029   1.553   0.413  0.2949  0.1582 -0.1369
 2712SOL    HW118175   4.016   1.487   0.487  0.8235  1.4179  1.0980
 2712SOL    HW218176   3.970   1.632   0.429  0.3658  0.4162 -1.1164
 2713SOL     OW18177   3.450   1.784   2.487 -0.0705  0.0862 -0.0518
 2713SOL    HW118178   3.467   1.694   2.448 -1.8789 -0.3037 -0.0192
 2713SOL    HW218179   3.400   1.841   2.421  0.6289  0.9025  0.1086
 2714SOL     OW18180   2.502   3.230   0.835 -0.0511 -0.5791  0.4245
 2714SOL    HW118181   2.470   3.163   0.768  0.9549 -0.1744 -0.4651
 2714SOL    HW218182   2.498   3.190   0.926  0.1967 -1.7265 -0.0591
 2715SOL     OW18183   1.876   8.804   2.115 -0.2570 -0.1789  0.1364
 2715SOL    HW118184   1.914   8.722   2.158 -0.2074  0.4882  1.3705
 2715SOL    HW218185   1.779   8.811   2.136 -0.0239  0.6632  0.9484
 2716SOL     OW18186   1.771   4.342   1.072  0.0883  0.2015 -0.1409
 2716SOL    HW118187   1.683   4.379   1.103  0.3890  0.7600  0.0542
 2716SOL    HW218188   1.765   4.243   1.067 -0.1838  0.1567  1.0089
 2717SOL     OW18189   1.333   6.644   0.229  0.1500 -0.1157 -0.4711
 2717SOL    HW118190   1.248   6.596   0.208 -0.3604  0.3085  0.6092
 2717SOL    HW218191   1.408   6.603   0.177 -0.9517  0.4458 -2.5642
 2718SOL     OW18192   1.203   4.296   0.287 -0.1472  0.2405  0.1454
 2718SOL    HW118193   1.205   4.260   0.194  3.0250 -3.9484  1.6404
 2718SOL    HW218194   1.129   4.254   0.338  0.7084 -0.7087  0.6269
 2719SOL     OW18195   1.505   3.691   2.609 -0.4437  0.3921 -0.6753
 2719SOL    HW118196   1.429   3.626   2.610  0.1280 -0.3024  1.1796
 2719SOL    HW218197   1.472   3.781   2.638 -0.9351  0.5795 -1.7872
 2720SOL     OW18198   2.415   6.130   2.381  0.1752 -0.3381 -0.0837
 2720SOL    HW118199   2.384   6.035   2.382 -0.0625 -0.2601  0.0754
 2720SOL    HW218200   2.388   6.173   2.295 -2.3171  0.4325  1.0431
 2721SOL     OW18201   3.956   3.196   0.412 -0.2535 -0.3972  0.3745
 2721SOL    HW118202   4.028   3.195   0.480 -0.5270 -1.4286  0.6579
 2721SOL    HW218203   3.992   3.162   0.325  0.6091  2.7097 -0.5592
 2722SOL     OW18204   9.671   3.392   1.536 -0.1974 -0.2706 -0.0663
 2722SOL    HW118205   9.671   3.486   1.571  2.2177 -0.0096 -0.6401
 2722SOL    HW218206   9.577   3.359   1.527 -0.9902  1.1678  2.5661
 2723SOL     OW18207   4.015   0.409   0.220  0.1842 -0.3735 -0.3442
 2723SOL    HW118208   4.054   0.463   0.146 -0.3987 -0.6035 -0.8170
 2723SOL    HW218209   4.003   0.314   0.190  1.5404 -0.8710  0.5930
 2724SOL     OW18210   2.580   4.102   2.260  0.2616  0.3764 -0.1521
 2724SOL    HW118211   2.521   4.148   2.326 -0.3480  0.1546 -0.5461
 2724SOL    HW218212   2.525   4.054   2.192  0.8818 -2.1846  1.0964
 2725SOL     OW18213   1.360   1.593   0.507 -1.0236  0.8163 -0.0803
 2725SOL    HW118214   1.420   1.561   0.581 -0.3195  1.6525 -0.2809
 2725SOL    HW218215   1.410   1.659   0.450 -2.3012  1.9146  0.0550
 2726SOL     OW18216   1.038   2.830   1.332 -0.1048 -0.6628  0.1566
 2726SOL    HW118217   1.088   2.846   1.417 -0.7545 -3.0403  1.0293
 2726SOL    HW218218   1.077   2.750   1.285 -2.2383 -1.8006  0.2393
 2727SOL     OW18219   9.561   0.691   0.148 -0.3829 -0.3498  0.0283
 2727SOL    HW118220   9.605   0.689   0.058  0.8296  0.3517  0.5977
 2727SOL    HW218221   9.599   0.765   0.202 -0.9885 -0.8737  1.1869
 2728SOL     OW18222   0.261   9.495   1.928  0.7899  0.3595 -0.5046
 2728SOL    HW118223   0.202   9.436   1.983  2.3258 -0.5292  0.2481
 2728SOL    HW218224   0.257   9.589   1.962 -0.5821  0.4223 -0.8064
 2729SOL     OW18225   1.342   5.040   2.216 -0.1723 -0.2969  0.0829
 2729SOL    HW118226   1.424   4.987   2.238 -0.8058 -0.5137  2.0380
 2729SOL    HW218227   1.363   5.137   2.220 -0.7024 -0.2578  3.7619
 2730SOL     OW18228   4.741   3.257   0.806 -0.2782 -0.4608  0.2828
 2730SOL    HW118229   4.781   3.348   0.814 -2.0344  0.1802  2.4787
 2730SOL    HW218230   4.656   3.262   0.753  0.0851 -0.9822 -0.3554
 2731SOL     OW18231   2.664   9.614   0.411 -0.2463  0.4080 -0.1955
 2731SOL    HW118232   2.709   9.617   0.321 -0.9177 -0.7760 -0.5724
 2731SOL    HW218233   2.688   9.530   0.458  0.9124  1.4815  1.1762
 2732SOL     OW18234   3.030   3.494   2.375  0.0107 -0.6278 -0.3836
 2732SOL    HW118235   2.996   3.417   2.429  0.0169 -1.4116 -1.4805
 2732SOL    HW218236   3.036   3.576   2.433 -0.2640 -1.3798  0.7148
 2733SOL     OW18237   9.703   5.465   2.774  0.0323  0.5582 -0.1724
 2733SOL    HW118238   9.666   5.400   2.841 -0.2257 -0.7212 -1.5160
 2733SOL    HW218239   9.751   5.539   2.821 -0.6823  0.0094  1.4362
 2734SOL     OW18240   2.578   6.679   2.103  0.2918  0.4308 -0.6486
 2734SOL    HW118241   2.521   6.761   2.115 -1.2546 -0.7857  0.4098
 2734SOL    HW218242   2.636   6.666   2.183 -0.1943 -0.0921 -0.3871
 2735SOL     OW18243   3.125   2.232   2.763  0.5153 -0.1376 -0.2512
 2735SOL    HW118244   3.033   2.245   2.724  0.0900  0.6235  0.9720
 2735SOL    HW218245   3.120   2.164   2.836  0.7905  0.3543  0.2349
 2736SOL     OW18246   0.348   1.953   0.685  0.5985  0.1491 -0.4383
 2736SOL    HW118247   0.424   2.017   0.672  0.0068  0.9496  0.0435
 2736SOL    HW218248   0.299   1.941   0.598  0.9025  0.1000 -0.6042
 2737SOL     OW18249   1.088   5.334   2.343 -0.1613  0.1441 -0.3594
 2737SOL    HW118250   0.993   5.302   2.343 -0.1030 -0.0714 -1.8932
 2737SOL    HW218251   1.105   5.387   2.426 -1.7790  0.6506 -0.3361
 2738SOL     OW18252   0.541   0.076   1.990  0.2223 -0.6407 -0.1882
 2738SOL    HW118253   0.480   0.093   1.913 -2.6356 -2.1204  1.6288
 2738SOL    HW218254   0.504   0.120   2.072  0.9431 -2.5343  1.2096
 2739SOL     OW18255   2.200   0.367   1.391  0.2658 -0.3612 -0.3489
 2739SOL    HW118256   2.200   0.465   1.370 -0.2289 -0.1769  0.4978
 2739SOL    HW218257   2.294   0.333   1.392  0.4642  0.1925 -0.2205
 2740SOL     OW18258   3.586   8.357   0.096 -0.6297 -0.6284 -0.1159
 2740SOL    HW118259   3.556   8.435   0.041  1.1726  2.0703  2.5732
 2740SOL    HW218260   3.525   8.346   0.174  0.3792 -0.5532  0.6830
 2741SOL     OW18261   3.891   9.021   1.561  0.5469  0.6531  0.6261
 2741SOL    HW118262   3.812   8.973   1.599  0.4213 -0.5143 -1.0410
 2741SOL    HW218263   3.860   9.089   1.494  0.9383  0.3118  0.0945
 2742SOL     OW18264   4.095   4.126   0.852  0.0294  0.0998  0.6246
 2742SOL    HW118265   4.047   4.184   0.787 -0.1226  0.1060  0.7424
 2742SOL    HW218266   4.190   4.156   0.860 -0.0594  0.3536  0.7133
 2743SOL     OW18267   2.870   7.795   0.763  0.1061 -0.8843  0.0024
 2743SOL    HW118268   2.876   7.872   0.826  1.9609 -0.9541 -0.0827
 2743SOL    HW218269   2.916   7.817   0.678 -1.8994 -1.0072 -1.1408
 2744SOL     OW18270   0.882   5.726   0.114  0.1372 -0.3490 -0.4322
 2744SOL    HW118271   0.827   5.786   0.057  0.4893  0.1004 -0.3079
 2744SOL    HW218272   0.823   5.666   0.167 -0.2285  0.1575 -0.2709
 2745SOL     OW18273   0.275   6.120   0.864  0.3512  0.1571  0.4161
 2745SOL    HW118274   0.365   6.156   0.838  1.1834 -2.1177  0.0127
 2745SOL    HW218275   0.265   6.127   0.964  1.3597 -0.3713  0.5685
 2746SOL     OW18276   1.508   6.767   0.559 -0.4525  0.3101  0.0104
 2746SOL    HW118277   1.448   6.764   0.639  1.5926  0.8953  1.5999
 2746SOL    HW218278   1.456   6.801   0.480 -1.9570  1.7398  1.5702
 2747SOL     OW18279   1.246   0.379   1.081 -1.0202  0.1775 -0.0168
 2747SOL    HW118280   1.226   0.469   1.042  1.3849  0.0732 -1.5986
 2747SOL    HW218281   1.178   0.313   1.048 -0.3043  0.5441 -2.3143
 2748SOL     OW18282   2.983   9.119   2.637 -0.3892 -0.9528 -0.2138
 2748SOL    HW118283   3.066   9.115   2.693 -0.2370 -2.2118 -0.5151
 2748SOL    HW218284   2.908   9.076   2.687 -1.0705  0.8623  0.3801
 2749SOL     OW18285   3.075   2.590   2.653  1.2574  0.5347  0.6479
 2749SOL    HW118286   3.094   2.551   2.563 -2.0109 -0.4692  0.3264
 2749SOL    HW218287   3.129   2.541   2.722 -1.8748 -4.0320  0.1207
 2750SOL     OW18288   1.221   4.897   1.502 -0.3525  0.3045  0.4458
 2750SOL    HW118289   1.279   4.830   1.547  0.4022 -0.3216 -1.3846
 2750SOL    HW218290   1.145   4.921   1.562 -0.1141 -1.4773  1.5079
 2751SOL     OW18291   4.414   1.606   2.449 -0.3340 -0.2175 -0.4745
 2751SOL    HW118292   4.363   1.689   2.426 -0.0847 -0.1016 -0.6126
 2751SOL    HW218293   4.364   1.526   2.417 -0.2780 -0.0883 -0.8842
 2752SOL     OW18294   0.753   6.343   2.348 -0.2485 -0.2111 -0.2284
 2752SOL    HW118295   0.827   6.330   2.415 -0.1185 -0.2977 -0.3891
 2752SOL    HW218296   0.791   6.338   2.255 -0.1604  1.3632 -0.3064
 2753SOL     OW18297   2.198   1.963   0.790  0.8034 -0.4290 -1.0022
 2753SOL    HW118298   2.163   1.997   0.877 -0.1037  0.5816 -1.7378
 2753SOL    HW218299   2.283   1.912   0.805 -0.2490 -1.7319  0.6524
 2754SOL     OW18300   2.656   8.299   2.657 -0.0155  0.0329 -0.2490
 2754SOL    HW118301   2.738   8.315   2.603  0.2026 -0.9682 -0.2093
 2754SOL    HW218302   2.658   8.357   2.739  0.9514 -0.4612  0.0809
 2755SOL     OW18303   2.333   2.844   2.182 -0.3687 -0.1243  0.1724
 2755SOL    HW118304   2.365   2.934   2.210  1.4411 -0.7116  0.0650
 2755SOL    HW218305   2.253   2.819   2.236 -1.1710  1.7341 -0.1209
 2756SOL     OW18306   2.708   1.687   0.071  0.1699 -0.2205  0.3766
 2756SOL    HW118307   2.771   1.738   0.014 -0.5533  0.3252  0.0592
 2756SOL    HW218308   2.637   1.748   0.107  0.4340 -0.6089  1.6109
 2757SOL     OW18309   1.530   6.750   2.128  0.6396  0.0077 -0.2307
 2757SOL    HW118310   1.510   6.822   2.195  0.1086 -0.1261 -0.2437
 2757SOL    HW218311   1.556   6.792   2.041  2.3503  0.1852  0.3514
 2758SOL     OW18312   1.426   0.802   0.632  0.0036 -0.0767 -0.3383
 2758SOL    HW118313   1.367   0.761   0.562 -0.3884 -0.2804  0.1053
 2758SOL    HW218314   1.521   0.779   0.613 -0.1180 -0.3115 -0.6807
 2759SOL     OW18315   8.716   2.552   1.538  0.0389  0.1829  0.4503
 2759SOL    HW118316   8.741   2.462   1.504  1.8500  0.8570 -0.0434
 2759SOL    HW218317   8.695   2.547   1.635  1.8449 -0.4585  0.8171
 2760SOL     OW18318   2.423   7.207   0.761 -0.5391 -0.1495  0.0972
 2760SOL    HW118319   2.517   7.232   0.737 -0.8152 -0.3158 -1.2077
 2760SOL    HW218320   2.359   7.273   0.721 -0.9145  1.0316  2.5187
 2761SOL     OW18321   4.425   2.895   0.508 -0.3811  0.4039 -0.3042
 2761SOL    HW118322   4.468   2.819   0.557 -0.7750  0.5732  0.2975
 2761SOL    HW218323   4.327   2.894   0.524 -0.2168  1.8972  0.8574
 2762SOL     OW18324   2.747   0.147   2.527  0.0591 -0.8408 -0.0735
 2762SOL    HW118325   2.753   0.197   2.441  1.7203 -0.1711  0.3925
 2762SOL    HW218326   2.758   0.049   2.510 -2.0277 -0.9548 -0.8642
 2763SOL     OW18327   3.277   1.584   0.449 -0.1108 -0.2121  0.0528
 2763SOL    HW118328   3.248   1.490   0.467 -3.0310  0.4149 -1.0222
 2763SOL    HW218329   3.355   1.607   0.508 -0.5830 -2.6738  1.7178
 2764SOL     OW18330   2.065   0.010   0.875 -0.1849  0.2806  0.5564
 2764SOL    HW118331   2.142  -0.048   0.847 -1.7315 -0.6080 -2.0051
 2764SOL    HW218332   2.024  -0.028   0.957  0.3662 -0.8466  0.3275
 2765SOL     OW18333   2.235   8.237   1.853 -0.0123  0.1421 -0.3783
 2765SOL    HW118334   2.260   8.330   1.829  0.7299  0.3663  1.1613
 2765SOL    HW218335   2.300   8.201   1.920 -0.9621 -1.0549 -0.0686
 2766SOL     OW18336   3.778   2.197   0.180  0.6719  0.3964 -0.3727
 2766SOL    HW118337   3.793   2.140   0.261  0.0845  0.7042 -0.0467
 2766SOL    HW218338   3.863   2.204   0.129  1.1937  0.6636  0.5165
 2767SOL     OW18339   3.556   1.259   0.037 -0.2857  0.0763  0.5668
 2767SOL    HW118340   3.549   1.161   0.019 -2.7199 -0.2436  2.9135
 2767SOL    HW218341   3.466   1.301   0.030  0.5149  1.8919  0.9022
 2768SOL     OW18342   7.574   6.394   1.203  0.0047  0.3055  0.4357
 2768SOL    HW118343   7.654   6.419   1.257 -1.7307  1.0700  2.7444
 2768SOL    HW218344   7.535   6.309   1.239 -0.5335  0.2212 -0.3323
 2769SOL     OW18345   2.430   7.739   1.355 -0.1241 -0.8911 -0.1566
 2769SOL    HW118346   2.471   7.765   1.443  0.0545 -0.7741 -0.2748
 2769SOL    HW218347   2.487   7.669   1.312  0.1904 -0.4115 -0.5267
 2770SOL     OW18348   0.436   2.036   1.865  0.4337  0.2565  1.1094
 2770SOL    HW118349   0.450   2.133   1.887 -1.5246  0.9498 -0.5434
 2770SOL    HW218350   0.349   2.025   1.816  1.9535 -1.9257 -1.2368
 2771SOL     OW18351   1.874   1.348   2.057 -0.0751 -0.2608  0.0910
 2771SOL    HW118352   1.865   1.361   1.958 -0.7165 -2.4120 -0.1683
 2771SOL    HW218353   1.804   1.284   2.088  1.2927 -1.0446  1.6295
 2772SOL     OW18354   1.803   4.913   1.377  0.3164  0.0152  0.2278
 2772SOL    HW118355   1.865   4.867   1.314 -0.2882  0.3366 -0.6042
 2772SOL    HW218356   1.768   4.996   1.335 -1.5632 -0.7366  0.2260
 2773SOL     OW18357   3.417   8.898   0.672 -0.4161  0.1766 -0.1801
 2773SOL    HW118358   3.372   8.907   0.761  1.1217  0.1975  0.5965
 2773SOL    HW218359   3.515   8.887   0.685 -0.2090 -0.0347 -1.8738
 2774SOL     OW18360   9.211   1.713   1.465  0.2814  0.0343 -0.2397
 2774SOL    HW118361   9.213   1.740   1.368 -1.0864  1.6359  0.1597
 2774SOL    HW218362   9.302   1.681   1.492  1.0345  0.8599 -1.7168
 2775SOL     OW18363   8.513   1.712   2.037 -0.0430 -0.2704  0.3677
 2775SOL    HW118364   8.519   1.780   1.964 -2.5067  0.0331  0.4290
 2775SOL    HW218365   8.526   1.621   1.998  2.7830  0.1445  0.2158
 2776SOL     OW18366   1.477   9.572   0.929  0.1464 -0.0736  0.2039
 2776SOL    HW118367   1.439   9.485   0.961 -0.2657  1.0474  2.8955
 2776SOL    HW218368   1.441   9.647   0.984  2.2789  1.5860 -0.5724
 2777SOL     OW18369   2.776   4.256   0.100  0.2371 -0.1807 -0.2686
 2777SOL    HW118370   2.677   4.247   0.113 -0.0426  1.1172 -1.3984
 2777SOL    HW218371   2.818   4.165   0.100 -1.2115 -0.8637 -1.6436
 2778SOL     OW18372   2.016   3.681   1.318 -0.1170 -0.5603 -0.6121
 2778SOL    HW118373   2.041   3.665   1.413  1.1177  0.5033 -0.7542
 2778SOL    HW218374   1.976   3.597   1.280 -0.8635 -0.9121  0.9012
 2779SOL     OW18375   2.926   4.500   0.075 -0.1206  0.0324  0.6966
 2779SOL    HW118376   2.852   4.433   0.077  0.3269 -0.5343 -0.5803
 2779SOL    HW218377   2.942   4.529  -0.020 -0.7387  2.4529  1.2944
 2780SOL     OW18378   3.608   2.074   2.476 -0.6298  0.0615 -0.3002
 2780SOL    HW118379   3.597   2.113   2.384  1.7356  4.0803  1.0158
 2780SOL    HW218380   3.540   2.115   2.537  1.0413  1.2711  0.8044
 2781SOL     OW18381   3.442   9.128   2.643 -0.3232 -0.4859 -0.5717
 2781SOL    HW118382   3.456   9.065   2.567 -1.5072  0.2320 -1.4186
 2781SOL    HW218383   3.348   9.120   2.676 -0.2732  0.3207 -0.2162
 2782SOL     OW18384   3.168   2.077   0.879 -0.0954  0.2108 -0.4464
 2782SOL    HW118385   3.248   2.021   0.856 -0.7246 -0.6146 -0.6458
 2782SOL    HW218386   3.108   2.025   0.940 -1.6635 -0.1151 -2.1998
 2783SOL     OW18387   3.247   1.441   2.304  0.8263  0.6344  0.1130
 2783SOL    HW118388   3.158   1.406   2.335  1.5931  0.7958  2.6572
 2783SOL    HW218389   3.243   1.541   2.298  1.1629  0.7448  1.4587
 2784SOL     OW18390   2.071   1.701   1.994  0.2623  0.8228 -0.4298
 2784SOL    HW118391   2.011   1.651   2.057 -1.6280  0.9855 -2.0719
 2784SOL    HW218392   2.091   1.791   2.033 -1.4149  1.1698 -0.3055
 2785SOL     OW18393   1.975   2.881   1.672 -0.0483 -0.2654  0.5046
 2785SOL    HW118394   2.005   2.971   1.705  0.4831  0.1378 -1.0416
 2785SOL    HW218395   1.981   2.815   1.747  2.8837  0.2284  0.7752
 2786SOL     OW18396   0.211   3.626   2.075 -0.2917 -0.8230 -0.2062
 2786SOL    HW118397   0.290   3.653   2.020 -1.1326  0.2906 -0.8806
 2786SOL    HW218398   0.141   3.697   2.071 -1.6130 -2.0826 -0.1585
 2787SOL     OW18399   4.025   1.480   0.139  0.3757  0.3013  0.2718
 2787SOL    HW118400   3.977   1.393   0.141 -2.5037  1.8208  0.4088
 2787SOL    HW218401   4.030   1.518   0.231  1.0915  0.5615  0.1319
 2788SOL     OW18402   2.526   2.591   2.405  0.2380 -0.2995  0.0727
 2788SOL    HW118403   2.491   2.521   2.343 -1.9987  1.1034 -0.3188
 2788SOL    HW218404   2.562   2.668   2.351 -4.2634  2.1719  0.4020
 2789SOL     OW18405   0.146   2.757   1.445  0.9235  0.2996 -0.0888
 2789SOL    HW118406   0.046   2.762   1.437  0.8568 -0.5901  0.2118
 2789SOL    HW218407   0.181   2.693   1.377  1.1588 -0.4812  0.7613
 2790SOL     OW18408   2.000   1.463   1.513 -0.7021 -0.6148  0.3263
 2790SOL    HW118409   2.098   1.457   1.530 -0.6554 -2.1517 -0.3831
 2790SOL    HW218410   1.974   1.559   1.500  1.0491 -0.3373 -1.4561
 2791SOL     OW18411   3.365   1.539   1.730  0.3320 -0.8209  0.1951
 2791SOL    HW118412   3.282   1.595   1.736  0.2416 -0.9701  0.3278
 2791SOL    HW218413   3.347   1.448   1.766  0.6833 -0.7137  0.6517
 2792SOL     OW18414   3.882   2.388   0.552 -0.1303 -0.4564  0.4394
 2792SOL    HW118415   3.932   2.397   0.466  2.1874  0.9086  1.8629
 2792SOL    HW218416   3.869   2.479   0.592 -2.7374 -0.9047  0.7067
 2793SOL     OW18417   2.864   1.124   2.228 -0.6551  0.0395 -0.1520
 2793SOL    HW118418   2.790   1.190   2.215  0.0108  0.8048 -0.0257
 2793SOL    HW218419   2.934   1.138   2.158  0.6996  1.1240  1.3995
 2794SOL     OW18420   2.532   4.193   0.127 -0.0861  0.0211  0.0855
 2794SOL    HW118421   2.502   4.099   0.114 -1.7965  0.3938  1.1811
 2794SOL    HW218422   2.458   4.255   0.102  0.3374  1.0131  1.2358
 2795SOL     OW18423   3.511   3.384   0.873  0.2874 -0.8045 -0.1666
 2795SOL    HW118424   3.513   3.483   0.864 -0.0422 -0.9839 -2.4860
 2795SOL    HW218425   3.460   3.359   0.956 -0.8435  0.9177 -0.3128
 2796SOL     OW18426   2.398   3.931   0.335 -0.3255 -0.2090  0.1849
 2796SOL    HW118427   2.401   3.880   0.421 -0.7671  2.4052  1.8291
 2796SOL    HW218428   2.338   3.884   0.271 -0.5504 -1.8644  1.5668
 2797SOL     OW18429   0.991   9.270   0.529 -0.2008  0.3582 -0.3984
 2797SOL    HW118430   0.904   9.304   0.495 -0.1992  0.0653 -0.6910
 2797SOL    HW218431   1.064   9.332   0.500 -0.4373  1.1908  0.7569
 2798SOL     OW18432   3.330   8.496   1.762 -0.0567  0.1236  0.3382
 2798SOL    HW118433   3.274   8.506   1.844 -0.2886 -1.9999  0.4810
 2798SOL    HW218434   3.396   8.421   1.775  0.2585  0.1004 -1.2128
 2799SOL     OW18435   0.531   6.073   2.121 -0.5044  0.8073  0.2204
 2799SOL    HW118436   0.608   6.126   2.084  0.5303  0.3497  1.6660
 2799SOL    HW218437   0.558   5.977   2.129 -0.8850  0.8047  1.6394
 2800SOL     OW18438   8.708   0.552   2.266  0.0507  0.0832 -0.4149
 2800SOL    HW118439   8.614   0.520   2.279  0.8032 -1.0159  2.5411
 2800SOL    HW218440   8.741   0.595   2.350  2.3022  0.2134 -1.3301
 2801SOL     OW18441   8.389   1.391   0.822 -0.2442 -0.0979  0.1925
 2801SOL    HW118442   8.315   1.329   0.794 -0.6030  0.3197  0.2196
 2801SOL    HW218443   8.460   1.338   0.868 -0.2589 -0.5864 -0.3374
 2802SOL     OW18444   0.428   4.176   0.554  0.0212  0.3116 -0.1181
 2802SOL    HW118445   0.395   4.161   0.648  0.3482 -0.9482 -0.2037
 2802SOL    HW218446   0.515   4.130   0.542  0.0091  0.5305 -1.0334
 2803SOL     OW18447   2.505   2.056   2.394 -0.1354 -0.6859 -0.1654
 2803SOL    HW118448   2.543   2.023   2.307 -0.5760  0.1974 -0.7057
 2803SOL    HW218449   2.452   2.139   2.377 -0.2226 -0.5069  0.9562
 2804SOL     OW18450   1.547   7.301   0.985  0.1906  0.0768  0.2896
 2804SOL    HW118451   1.586   7.282   1.076 -2.6727 -0.7857  1.3916
 2804SOL    HW218452   1.580   7.390   0.953  0.2634  0.9910  2.7627
 2805SOL     OW18453   1.847   9.209   0.398  0.8723  0.0605  0.3263
 2805SOL    HW118454   1.875   9.293   0.351 -1.3072 -0.6737 -2.4348
 2805SOL    HW218455   1.922   9.177   0.455  2.9325  2.1057 -1.1068
 2806SOL     OW18456   0.961   9.573   1.200 -0.1222  0.4311  0.0858
 2806SOL    HW118457   0.907   9.638   1.147 -1.6124 -2.6545 -2.3453
 2806SOL    HW218458   0.928   9.572   1.295 -1.5162  1.5961 -0.3640
 2807SOL     OW18459   3.077   0.892   0.788  0.7149 -0.0686  0.0319
 2807SOL    HW118460   3.136   0.836   0.731 -0.6998 -2.5637  0.9198
 2807SOL    HW218461   3.133   0.949   0.848  2.1950 -0.4327 -0.9660
 2808SOL     OW18462   3.406   0.015   1.177 -0.0983 -0.3216  0.1384
 2808SOL    HW118463   3.409   0.114   1.191  0.5706 -0.4005  0.5769
 2808SOL    HW218464   3.414  -0.004   1.079 -2.1997  0.1244 -0.1510
 2809SOL     OW18465   1.663   3.635   1.036  0.2887 -0.7329  0.2835
 2809SOL    HW118466   1.689   3.685   1.119  2.6771  0.9771 -1.4196
 2809SOL    HW218467   1.574   3.667   1.004 -0.0748 -0.5223  1.4620
 2810SOL     OW18468   4.050   1.201   2.502  0.9214 -0.1672 -0.0146
 2810SOL    HW118469   3.981   1.149   2.451 -1.3719  0.4940  2.2669
 2810SOL    HW218470   4.120   1.138   2.535  0.4118 -1.1773 -0.8117
 2811SOL     OW18471   2.211   4.170   0.271  0.2283  0.4568 -0.2268
 2811SOL    HW118472   2.271   4.110   0.324 -0.1492  1.6591  1.6131
 2811SOL    HW218473   2.266   4.244   0.230  0.3968 -0.0009 -0.8335
 2812SOL     OW18474   8.499   1.509   2.814  0.3180  0.0426  0.7310
 2812SOL    HW118475   8.547   1.585   2.772  0.7960  0.0550  1.2928
 2812SOL    HW218476   8.451   1.456   2.744  0.0572  0.8064  0.3319
 2813SOL     OW18477   0.440   2.308   1.889 -0.3798 -0.8107 -0.5202
 2813SOL    HW118478   0.374   2.334   1.960 -0.5266 -2.4041 -0.0542
 2813SOL    HW218479   0.438   2.376   1.815 -1.6487 -0.1980  0.0585
 2814SOL     OW18480   1.361   4.042   1.948 -0.2383 -0.3920  0.1438
 2814SOL    HW118481   1.449   3.994   1.943 -1.2969 -2.2910 -0.7767
 2814SOL    HW218482   1.349   4.082   2.039  0.8848 -1.4441  0.7623
 2815SOL     OW18483   3.394   9.902   2.401  0.1432  0.1357 -0.1258
 2815SOL    HW118484   3.298   9.901   2.429  0.4545  1.1552  1.0212
 2815SOL    HW218485   3.410   9.976   2.336 -0.2775 -1.3431 -1.9426
 2816SOL     OW18486   2.177   7.732   1.225 -0.5387 -0.4163  0.2038
 2816SOL    HW118487   2.189   7.685   1.137  0.2752 -0.6503  0.4411
 2816SOL    HW218488   2.253   7.710   1.286 -1.0906 -0.2299  0.9638
 2817SOL     OW18489   3.107   4.834   1.390  0.6180 -0.0571  0.6533
 2817SOL    HW118490   3.167   4.758   1.414  0.8343  0.2987  1.2732
 2817SOL    HW218491   3.045   4.852   1.467  1.7268  1.5031  1.2175
 2818SOL     OW18492   1.231   0.341   1.968  0.8079  0.3809 -0.3413
 2818SOL    HW118493   1.325   0.374   1.972 -0.1446  3.0117  2.1002
 2818SOL    HW218494   1.168   0.418   1.969 -1.4186 -1.3717 -0.0181
 2819SOL     OW18495   1.628   8.207   1.408  0.3216 -0.3035 -0.2609
 2819SOL    HW118496   1.708   8.258   1.375  0.1722 -0.3349 -0.6814
 2819SOL    HW218497   1.545   8.253   1.375  0.1726 -0.3760  0.0210
 2820SOL     OW18498   3.618   3.039   2.180 -0.3604  0.8552  0.2133
 2820SOL    HW118499   3.663   2.971   2.238 -0.9304  1.0690  0.9032
 2820SOL    HW218500   3.519   3.035   2.194 -0.4424  1.4409 -0.1701
 2821SOL     OW18501   1.774   4.822   2.448 -0.4559 -0.2345 -0.4136
 2821SOL    HW118502   1.728   4.758   2.510 -0.4380  1.1134  1.0324
 2821SOL    HW218503   1.843   4.874   2.499 -0.4879  0.9421 -1.5352
 2822SOL     OW18504   3.778   1.885   0.043 -0.0493  0.5007  0.2987
 2822SOL    HW118505   3.855   1.823   0.027 -0.5980  0.1502 -1.1020
 2822SOL    HW218506   3.724   1.854   0.121 -0.7592 -1.2402 -0.8545
 2823SOL     OW18507   1.876   1.094   1.840 -0.1364  0.1838 -0.2117
 2823SOL    HW118508   1.867   1.193   1.849  1.1314  0.1871  1.4100
 2823SOL    HW218509   1.918   1.057   1.923  0.2588 -1.5955 -1.1733
 2824SOL     OW18510   3.675   0.394   0.733 -0.4434  0.2726  0.2098
 2824SOL    HW118511   3.713   0.372   0.643 -0.7601 -2.7599  0.7663
 2824SOL    HW218512   3.718   0.337   0.803 -3.3207 -0.5619  1.3687
 2825SOL     OW18513   0.804   4.611   0.385  0.5270 -0.5713  0.7074
 2825SOL    HW118514   0.887   4.617   0.330  0.1546 -0.9444  0.1017
 2825SOL    HW218515   0.761   4.521   0.373 -1.4814  0.5802 -1.1989
 2826SOL     OW18516   2.950   9.741   2.641  0.3932  0.5548  0.2669
 2826SOL    HW118517   3.009   9.708   2.567  2.2266 -2.4864  2.9114
 2826SOL    HW218518   2.866   9.688   2.643 -0.1129  1.3349 -0.2710
 2827SOL     OW18519   1.162   7.951   2.163 -0.2165 -0.2525 -0.1694
 2827SOL    HW118520   1.129   8.006   2.240  1.2047 -0.0204  0.2894
 2827SOL    HW218521   1.261   7.941   2.170 -0.1489 -0.6941 -1.6832
 2828SOL     OW18522   1.773   6.016   1.543 -0.0015 -0.6935  0.0506
 2828SOL    HW118523   1.873   6.012   1.534 -0.0822 -1.9672 -0.3010
 2828SOL    HW218524   1.731   6.012   1.453 -0.3604  0.9949  0.1109
 2829SOL     OW18525   9.908   0.954   0.417  0.4845  0.0058 -0.1380
 2829SOL    HW118526   9.975   1.008   0.468  1.3720 -0.5566 -0.6854
 2829SOL    HW218527   9.956   0.891   0.356 -0.5699  0.9922 -2.0132
 2830SOL     OW18528   3.764   4.441   0.521 -0.1506  0.0371 -0.1648
 2830SOL    HW118529   3.684   4.456   0.579 -0.7121 -1.4006 -0.5555
 2830SOL    HW218530   3.735   4.399   0.435  0.8186  1.0992 -1.0264
 2831SOL     OW18531   3.224   3.310   2.017  0.2447  0.1753  0.0460
 2831SOL    HW118532   3.285   3.285   2.092 -0.5122 -0.5106  0.4463
 2831SOL    HW218533   3.244   3.403   1.986  1.5698 -0.0908  0.0880
 2832SOL     OW18534   9.437   1.024   2.637 -0.2902 -0.0750  0.1381
 2832SOL    HW118535   9.493   1.023   2.555 -3.0615  0.8645 -1.8476
 2832SOL    HW218536   9.422   0.930   2.668  1.1882 -0.4069 -0.1246
 2833SOL     OW18537   2.334   4.757   1.418 -0.5765  0.5612 -0.2808
 2833SOL    HW118538   2.327   4.842   1.367  0.3276  0.8069  0.0088
 2833SOL    HW218539   2.247   4.739   1.464 -0.6152  1.5523  0.0295
 2834SOL     OW18540   1.018   9.244   0.842 -0.0907  0.2257  0.0379
 2834SOL    HW118541   0.987   9.302   0.917  0.0016  0.3954 -0.0536
 2834SOL    HW218542   1.056   9.301   0.769 -0.4151  0.0757 -0.2463
 2835SOL     OW18543   0.977   0.941   0.129  0.7576  0.0165  0.2407
 2835SOL    HW118544   1.028   0.871   0.179  0.0879  0.5307  1.6732
 2835SOL    HW218545   0.952   0.906   0.039  1.1934 -1.2697  0.6051
 2836SOL     OW18546   3.705   8.958   2.764  0.2148 -0.0309  0.2786
 2836SOL    HW118547   3.737   8.951   2.669  0.5049 -0.0698  0.3800
 2836SOL    HW218548   3.605   8.954   2.765  0.0421  2.8615 -0.2868
 2837SOL     OW18549   9.059   0.724   1.630 -0.2297  0.1026 -0.7657
 2837SOL    HW118550   8.963   0.705   1.609 -0.1393 -0.6161 -0.5528
 2837SOL    HW218551   9.101   0.774   1.554  0.1674 -2.6876 -2.4481
 2838SOL     OW18552   0.368   9.821   2.734  0.0508  0.3668 -0.6770
 2838SOL    HW118553   0.304   9.897   2.753  0.5761  1.0303 -1.5362
 2838SOL    HW218554   0.457   9.858   2.708  0.8274 -0.5608  0.5940
 2839SOL     OW18555   4.240   2.498   0.447 -0.2328  0.0954  0.5349
 2839SOL    HW118556   4.185   2.571   0.488  1.1331  1.7975 -0.5487
 2839SOL    HW218557   4.305   2.463   0.514 -2.7375 -2.0901  1.8873
 2840SOL     OW18558   1.944   4.281   2.575 -0.3741 -0.0014  0.6176
 2840SOL    HW118559   1.900   4.278   2.665  0.4115  0.3304  1.0168
 2840SOL    HW218560   1.895   4.222   2.512 -0.9859 -0.1645  1.2435
 2841SOL     OW18561   2.774   6.738   0.914 -0.0089 -0.4750  0.2842
 2841SOL    HW118562   2.686   6.778   0.889  0.3912  0.9218  1.0578
 2841SOL    HW218563   2.843   6.763   0.846  0.6959  1.9033  1.8049
 2842SOL     OW18564   9.079   3.850   2.742 -0.2537  0.4122 -0.0460
 2842SOL    HW118565   9.104   3.756   2.717  2.6906  1.3542 -0.8275
 2842SOL    HW218566   9.012   3.885   2.677 -2.0392 -1.4263  0.7570
 2843SOL     OW18567   8.907   3.318   0.014 -0.4956  0.6862  0.2239
 2843SOL    HW118568   8.858   3.348  -0.067 -0.5321  0.3051  0.1015
 2843SOL    HW218569   8.909   3.218   0.016  0.0145  0.6992  0.3836
 2844SOL     OW18570   1.649   5.130   2.650 -0.5326 -0.3126  0.2151
 2844SOL    HW118571   1.724   5.170   2.598 -0.7526  0.7964  0.7357
 2844SOL    HW218572   1.569   5.121   2.591  0.1301 -1.9634 -0.4818
 2845SOL     OW18573   4.431   1.215   2.031  0.1189  0.7774  0.0665
 2845SOL    HW118574   4.337   1.195   2.004  0.4257 -1.8778  0.8798
 2845SOL    HW218575   4.437   1.220   2.130  1.0858 -0.4639  0.0860
 2846SOL     OW18576   8.352   1.123   0.465 -0.0256 -0.4110  0.1969
 2846SOL    HW118577   8.366   1.038   0.414 -0.5441 -0.3970  0.0257
 2846SOL    HW218578   8.336   1.198   0.400  0.6995 -0.1294  0.3363
 2847SOL     OW18579   3.142   3.211   0.032  0.3138  0.6141  0.5942
 2847SOL    HW118580   3.063   3.269   0.012  0.6105  1.2363  1.1880
 2847SOL    HW218581   3.213   3.228  -0.037 -0.5481 -0.8985 -0.7009
 2848SOL     OW18582   2.727   4.308   2.184  0.2736 -0.1906 -0.1081
 2848SOL    HW118583   2.680   4.221   2.198 -1.8961  0.9229 -0.2198
 2848SOL    HW218584   2.725   4.361   2.269  3.1772 -0.9635  0.4856
 2849SOL     OW18585   8.354   3.357   1.725  0.5696 -1.1653 -0.1551
 2849SOL    HW118586   8.444   3.367   1.683  0.4315 -1.9665 -0.6564
 2849SOL    HW218587   8.318   3.448   1.749  1.0277 -0.7609 -0.9661
 2850SOL     OW18588   1.411   6.463   1.023  0.4781 -0.1396 -0.3544
 2850SOL    HW118589   1.355   6.397   0.972  1.4288 -1.6879  0.5675
 2850SOL    HW218590   1.462   6.520   0.960  1.5039 -1.9194 -1.1639
 2851SOL     OW18591   3.013   0.019   0.157  0.3751 -0.3685  0.1045
 2851SOL    HW118592   3.083   0.074   0.202  2.0551 -1.6268 -0.9034
 2851SOL    HW218593   2.995   0.054   0.066 -1.3849  0.8193  0.8866
 2852SOL     OW18594   2.355   2.541   1.869 -0.1269  0.0795 -0.4875
 2852SOL    HW118595   2.407   2.574   1.947 -0.8630  0.2283 -0.0530
 2852SOL    HW218596   2.258   2.535   1.893  0.0665 -3.2993 -0.2220
 2853SOL     OW18597   2.006   8.124   0.075  0.2205 -0.2312 -0.0588
 2853SOL    HW118598   1.993   8.144  -0.022  1.6383 -1.2981 -0.4911
 2853SOL    HW218599   1.931   8.163   0.128  1.9275  4.6169 -1.0024
 2854SOL     OW18600   1.398   1.783   0.324 -0.3563  0.1807 -0.1715
 2854SOL    HW118601   1.334   1.801   0.250 -1.0114  2.3010  0.8472
 2854SOL    HW218602   1.441   1.869   0.352  0.8520 -0.7918  1.0263
 2855SOL     OW18603   8.071   2.181   2.463 -0.1888  0.6081 -0.2135
 2855SOL    HW118604   7.985   2.207   2.420 -2.1729 -1.9866  2.0032
 2855SOL    HW218605   8.111   2.104   2.414  1.6813  2.7106 -2.1036
 2856SOL     OW18606   0.819   4.941   1.801 -0.6833  1.0394 -0.4509
 2856SOL    HW118607   0.735   4.915   1.754 -0.7636  0.7220 -0.1355
 2856SOL    HW218608   0.840   4.873   1.871 -0.8419  1.7728  0.3203
 2857SOL     OW18609   0.497   4.424   0.228  0.7956  0.3805 -0.0743
 2857SOL    HW118610   0.484   4.478   0.311 -1.7898  0.3198 -0.4075
 2857SOL    HW218611   0.544   4.339   0.250  0.4494  0.5313  1.2625
 2858SOL     OW18612   3.634   1.623   2.391  0.8583 -0.2415 -0.2016
 2858SOL    HW118613   3.702   1.554   2.417 -0.1815 -1.3104 -0.2836
 2858SOL    HW218614   3.643   1.703   2.450  0.4769 -1.4351  1.4998
 2859SOL     OW18615   9.745   2.778   2.174 -0.1637  0.0316 -0.1823
 2859SOL    HW118616   9.834   2.818   2.198 -0.4861  0.2216  0.7064
 2859SOL    HW218617   9.730   2.789   2.076 -0.5202  2.6837  0.1212
 2860SOL     OW18618   1.290   9.518   0.726 -0.5110 -0.4492 -0.1615
 2860SOL    HW118619   1.373   9.556   0.767  0.1293 -2.7037  0.6748
 2860SOL    HW218620   1.217   9.514   0.795 -0.8040 -0.0836 -0.4438
 2861SOL     OW18621   3.445   4.943   2.468 -0.3192  0.1081 -0.3811
 2861SOL    HW118622   3.428   4.937   2.370  1.1276  0.7093 -0.6703
 2861SOL    HW218623   3.541   4.924   2.487 -0.5319  0.2698  0.8952
 2862SOL     OW18624   2.102   8.579   0.069  0.0417  0.2671 -0.5452
 2862SOL    HW118625   2.150   8.492   0.053 -0.0016 -0.0516  0.9393
 2862SOL    HW218626   2.160   8.655   0.041  0.5153 -0.2016 -0.8476
 2863SOL     OW18627   0.594   5.431   0.828 -0.1493 -0.9582  0.5462
 2863SOL    HW118628   0.674   5.473   0.786 -0.9070 -1.6858 -1.6647
 2863SOL    HW218629   0.517   5.495   0.825 -0.2485 -1.0713  0.6670
 2864SOL     OW18630   9.225   4.757   0.073 -0.0117  0.1384  0.2324
 2864SOL    HW118631   9.213   4.679   0.135  1.2191 -1.2650 -1.2430
 2864SOL    HW218632   9.316   4.796   0.085 -0.2080  0.6178  0.1603
 2865SOL     OW18633   1.532   0.579   1.640  0.0517 -0.0068  0.7710
 2865SOL    HW118634   1.574   0.489   1.626 -1.6531 -0.7543  0.3768
 2865SOL    HW218635   1.596   0.650   1.611  1.0672 -1.1297  0.2256
 2866SOL     OW18636   1.468   7.122   1.440  0.0363 -0.0132 -0.3408
 2866SOL    HW118637   1.523   7.047   1.404 -0.0249  0.8508 -2.2868
 2866SOL    HW218638   1.521   7.172   1.509  0.7056 -0.7711 -0.2941
 2867SOL     OW18639   0.623   2.295   2.587  0.5397 -0.1173 -0.6823
 2867SOL    HW118640   0.660   2.310   2.679 -2.0187 -1.2028  0.5837
 2867SOL    HW218641   0.585   2.203   2.582 -1.0690  0.6052 -2.2241
 2868SOL     OW18642   9.512   2.886   1.127  0.3120 -0.5327 -0.3763
 2868SOL    HW118643   9.424   2.869   1.170  0.6386 -1.2631  0.0083
 2868SOL    HW218644   9.511   2.850   1.034  0.7674 -2.0751  0.2011
 2869SOL     OW18645   0.877   8.314   1.493  0.1900 -0.6639  0.7672
 2869SOL    HW118646   0.920   8.228   1.520 -2.2610 -2.5092 -0.8776
 2869SOL    HW218647   0.791   8.326   1.543 -1.8362 -1.6054 -2.2987
 2870SOL     OW18648   9.435   2.053   0.839 -0.1315  0.3111 -0.4449
 2870SOL    HW118649   9.523   2.015   0.813  0.2332  0.8613 -0.0159
 2870SOL    HW218650   9.366   2.029   0.770  0.3493 -0.1051 -0.7832
 2871SOL     OW18651   3.424   0.776   2.663  0.1069 -0.5358  0.3039
 2871SOL    HW118652   3.385   0.827   2.587 -1.1668  0.8693  1.8421
 2871SOL    HW218653   3.446   0.683   2.634 -0.5461 -0.0753 -1.7099
 2872SOL     OW18654   0.828   9.587   0.629  0.1259 -0.4387  0.3070
 2872SOL    HW118655   0.889   9.624   0.559 -0.5153  0.4054  0.1907
 2872SOL    HW218656   0.878   9.579   0.715  0.5397 -0.2102  0.0923
 2873SOL     OW18657   1.420   1.481   1.571  0.1361 -0.0590  0.0354
 2873SOL    HW118658   1.372   1.554   1.523  0.5854  0.2538  0.0595
 2873SOL    HW218659   1.353   1.418   1.611 -0.2630  0.6445  0.4980
 2874SOL     OW18660   9.141   4.224   2.239 -0.4361  0.0224 -0.0188
 2874SOL    HW118661   9.098   4.314   2.235 -0.2734  0.2404  2.0872
 2874SOL    HW218662   9.182   4.202   2.151 -1.6645  1.4166 -0.9551
 2875SOL     OW18663   0.977   2.548   2.360  0.1235 -0.3426 -0.3434
 2875SOL    HW118664   1.017   2.633   2.396  0.7717 -0.6812 -0.2668
 2875SOL    HW218665   0.888   2.533   2.403  0.2608  0.0023  0.0718
 2876SOL     OW18666   0.458   4.606   1.576 -0.3045 -0.0530  0.2162
 2876SOL    HW118667   0.476   4.589   1.673 -0.6246  0.2817  0.3352
 2876SOL    HW218668   0.408   4.692   1.566 -1.2369 -0.6427 -0.1736
 2877SOL     OW18669   9.984   3.040   0.911  0.1775 -0.5265  0.3923
 2877SOL    HW118670   9.928   3.051   0.828 -0.9062  0.3872  1.2294
 2877SOL    HW218671   9.948   2.965   0.966  1.1656 -1.4271 -0.1489
 2878SOL     OW18672   2.373   7.630   0.888 -0.3946 -0.1520  0.0042
 2878SOL    HW118673   2.364   7.551   0.948  0.3421  0.2247  0.6261
 2878SOL    HW218674   2.466   7.633   0.849 -0.3871  0.4440  0.0510
 2879SOL     OW18675   1.943   1.748   2.590 -0.0218 -0.3322  0.5103
 2879SOL    HW118676   1.885   1.718   2.514 -1.0262  0.4061  0.9655
 2879SOL    HW218677   1.951   1.848   2.587 -0.6008 -0.2434  1.7471
 2880SOL     OW18678   0.553   5.181   0.133 -0.2868 -0.3974 -0.4300
 2880SOL    HW118679   0.504   5.268   0.138 -0.0416 -0.3169  0.7161
 2880SOL    HW218680   0.638   5.194   0.080  1.1139  0.7387  1.9938
 2881SOL     OW18681   3.408   3.284   2.702 -0.1084 -0.4240 -0.0059
 2881SOL    HW118682   3.498   3.285   2.745 -0.1536 -0.4933  0.0902
 2881SOL    HW218683   3.417   3.315   2.607 -0.1620  0.6551  0.3404
 2882SOL     OW18684   3.380   8.811   1.281  0.0002 -0.2497  0.5526
 2882SOL    HW118685   3.424   8.752   1.349 -0.4390  0.0101  1.0608
 2882SOL    HW218686   3.411   8.784   1.189 -0.7515 -1.7354  0.7244
 2883SOL     OW18687   2.599   0.872   0.685  0.3697  0.2736 -0.1624
 2883SOL    HW118688   2.568   0.779   0.663 -0.0886  0.7221 -1.4424
 2883SOL    HW218689   2.642   0.913   0.605  2.0305  0.5940  0.8670
 2884SOL     OW18690   1.958   8.560   2.201  0.2560 -0.4566 -0.2547
 2884SOL    HW118691   2.041   8.520   2.163  1.1913  0.5039  0.7767
 2884SOL    HW218692   1.880   8.500   2.179  1.3152 -1.7644 -0.5426
 2885SOL     OW18693   1.950   2.907   0.755 -0.7027  0.9578  0.9059
 2885SOL    HW118694   1.933   2.923   0.658  1.2685  2.1945  0.7280
 2885SOL    HW218695   1.987   2.815   0.767  0.3859  1.3115  0.3027
 2886SOL     OW18696   9.546   2.154   2.057  0.0319 -0.3742 -0.0095
 2886SOL    HW118697   9.601   2.176   2.138  1.2322  0.0404 -0.9299
 2886SOL    HW218698   9.457   2.197   2.065  0.9450  1.5289  0.0648
 2887SOL     OW18699   0.344   2.486   1.647 -0.4816 -0.1456  0.0982
 2887SOL    HW118700   0.291   2.521   1.724 -1.4990 -0.4542 -0.4623
 2887SOL    HW218701   0.372   2.562   1.589  1.6801  0.2843  1.6131
 2888SOL     OW18702   2.432   3.120   0.037 -0.0733 -0.2948 -0.5028
 2888SOL    HW118703   2.431   3.219   0.048  0.1989 -0.2982 -0.4438
 2888SOL    HW218704   2.508   3.081   0.089 -0.6609 -0.6167  0.1284
 2889SOL     OW18705   1.530   8.163   0.914  0.7493 -0.0475 -0.3674
 2889SOL    HW118706   1.459   8.094   0.926  0.5592 -0.0648 -1.5635
 2889SOL    HW218707   1.619   8.123   0.935  0.7263 -0.8958 -1.7891
 2890SOL     OW18708   0.194   5.285   1.580 -0.2552  0.2838 -0.3007
 2890SOL    HW118709   0.103   5.326   1.569 -0.4933  0.0392  0.7258
 2890SOL    HW218710   0.187   5.186   1.573 -0.2947  0.1707  1.2314
 2891SOL     OW18711   0.572   6.227   1.218 -0.0723  0.0987 -0.1554
 2891SOL    HW118712   0.554   6.223   1.316 -0.9789  1.4193 -0.2505
 2891SOL    HW218713   0.502   6.176   1.168 -0.6118  0.8684 -0.2047
 2892SOL     OW18714   1.649   5.731   1.861  0.1973  0.5784  0.0709
 2892SOL    HW118715   1.566   5.769   1.819 -0.8382 -1.1311  0.5128
 2892SOL    HW218716   1.676   5.789   1.938 -0.3130  1.4122 -0.3606
 2893SOL     OW18717   1.955   7.535   2.422  0.2144 -0.2249 -0.1419
 2893SOL    HW118718   1.944   7.634   2.435 -0.8533 -0.1538 -1.5215
 2893SOL    HW218719   1.867   7.490   2.434  0.6681 -0.9846  0.2963
 2894SOL     OW18720   9.792   3.299   1.325 -0.4266 -0.1426 -0.4827
 2894SOL    HW118721   9.771   3.209   1.287 -2.4016 -0.2455  0.7844
 2894SOL    HW218722   9.728   3.320   1.399  0.2700  2.1224 -0.4808
 2895SOL     OW18723   3.757   3.331   1.739  0.2708  0.0384  0.2011
 2895SOL    HW118724   3.823   3.386   1.789 -0.7609  1.0374  0.4969
 2895SOL    HW218725   3.666   3.341   1.781 -0.2450 -0.5863 -0.7366
 2896SOL     OW18726   7.929   1.537   1.106  0.3336 -0.5754 -0.0870
 2896SOL    HW118727   7.834   1.557   1.128  0.5918  0.2088  0.3347
 2896SOL    HW218728   7.948   1.441   1.124 -0.3627 -0.7226 -0.1239
 2897SOL     OW18729   1.059   3.396   2.201  0.0836  0.5286  0.8014
 2897SOL    HW118730   1.063   3.297   2.187  1.2461  0.5364  1.0243
 2897SOL    HW218731   0.979   3.419   2.257  1.0063 -0.5124  2.5806
 2898SOL     OW18732   1.535   2.916   0.790 -0.4011  0.1070  0.2431
 2898SOL    HW118733   1.595   2.884   0.716  0.4890  0.5525  0.7669
 2898SOL    HW218734   1.474   2.987   0.755 -0.8081 -0.5278 -0.3574
 2899SOL     OW18735   9.072   2.179   1.259  0.0472 -0.4579  0.1734
 2899SOL    HW118736   9.108   2.216   1.345 -0.1090  0.3072 -0.0828
 2899SOL    HW218737   9.008   2.105   1.278  1.6129 -1.7049  0.6438
 2900SOL     OW18738   1.600   8.767   0.952 -0.0425 -0.2148 -0.4923
 2900SOL    HW118739   1.700   8.766   0.951 -0.0462 -1.7626  0.2583
 2900SOL    HW218740   1.565   8.697   0.890 -0.6615 -0.0081 -0.3843
 2901SOL     OW18741   1.971   2.017   0.656  0.1971 -0.2327 -0.3597
 2901SOL    HW118742   1.990   1.978   0.565  3.0613 -0.5358  0.3260
 2901SOL    HW218743   2.046   1.997   0.717 -1.1485  1.0534  1.7820
 2902SOL     OW18744   1.412   0.407   0.408 -0.1780  0.6119 -0.8367
 2902SOL    HW118745   1.511   0.410   0.416 -0.1504 -0.7465 -0.5554
 2902SOL    HW218746   1.370   0.451   0.488  0.1939  0.3067 -0.4725
 2903SOL     OW18747   0.052   3.827   1.955 -0.1098 -0.2174  0.4933
 2903SOL    HW118748   0.064   3.903   1.891 -2.1018  0.5194  0.9629
 2903SOL    HW218749   0.096   3.849   2.042  0.9010 -0.3898  0.0332
 2904SOL     OW18750   2.401   5.724   1.543  0.2010 -0.0054 -0.1035
 2904SOL    HW118751   2.460   5.644   1.535  0.3353 -0.2562  2.9932
 2904SOL    HW218752   2.456   5.804   1.568 -0.6096 -0.0924  2.0911
 2905SOL     OW18753   0.137   3.794   2.590 -0.0773 -0.0310  0.5399
 2905SOL    HW118754   0.184   3.873   2.629 -0.4259 -0.4925  1.9091
 2905SOL    HW218755   0.058   3.825   2.537  0.4387  0.5997  0.1280
 2906SOL     OW18756   3.519   0.964   0.011  0.1750 -0.7753 -0.5340
 2906SOL    HW118757   3.541   0.909   0.091  3.3382 -0.6339 -1.2543
 2906SOL    HW218758   3.493   0.903  -0.065  1.3722 -1.1478 -0.6475
 2907SOL     OW18759   4.099   3.281   0.123  0.5995  0.1075 -0.3279
 2907SOL    HW118760   4.055   3.204   0.079 -0.1669 -0.1414  0.8457
 2907SOL    HW218761   4.170   3.248   0.185  0.6153  0.3624 -0.2079
 2908SOL     OW18762   3.510   8.676   1.799 -0.1784 -0.2922 -0.0718
 2908SOL    HW118763   3.436   8.613   1.777  1.2169 -2.3007  0.7772
 2908SOL    HW218764   3.487   8.726   1.883 -2.2969  2.0721 -1.9887
 2909SOL     OW18765   2.339   0.928   1.989 -0.1013  0.2217 -0.0393
 2909SOL    HW118766   2.310   0.918   2.085  2.6759 -1.6758  0.6690
 2909SOL    HW218767   2.321   0.842   1.940  0.0405  0.6189 -0.7844
 2910SOL     OW18768   2.717   2.725   0.366  0.2099 -0.2932  0.2184
 2910SOL    HW118769   2.660   2.656   0.409  0.7502 -0.0468  1.3644
 2910SOL    HW218770   2.771   2.772   0.436 -1.1078  2.1972 -0.3722
 2911SOL     OW18771   0.912   9.215   2.000  0.6571  0.1324 -1.0575
 2911SOL    HW118772   0.829   9.256   1.962  0.8403 -0.8329 -2.5530
 2911SOL    HW218773   0.891   9.124   2.035  0.8574  0.3196 -0.4556
 2912SOL     OW18774   2.873   0.530   0.935 -0.5269 -0.4069  0.1026
 2912SOL    HW118775   2.914   0.467   1.001 -2.4328 -1.7860  0.0295
 2912SOL    HW218776   2.912   0.513   0.844 -2.2981 -2.7683 -0.2613
 2913SOL     OW18777   3.468   3.910   1.607  0.2456 -0.2434  0.5145
 2913SOL    HW118778   3.491   3.840   1.675 -0.3428 -1.8741 -0.9626
 2913SOL    HW218779   3.541   3.914   1.538  0.4358  0.8393  0.7710
 2914SOL     OW18780   2.022   6.503   0.768  0.4172 -0.0386 -0.0162
 2914SOL    HW118781   1.983   6.591   0.797  3.2881  1.1631  0.3523
 2914SOL    HW218782   2.032   6.444   0.848 -3.6457 -1.6850 -0.5666
 2915SOL     OW18783   8.455   2.992   1.474 -0.3860  0.3348  0.0566
 2915SOL    HW118784   8.419   2.899   1.486  0.1917  0.1832  0.6117
 2915SOL    HW218785   8.551   2.987   1.449 -0.4813  0.7770 -0.4248
 2916SOL     OW18786   1.465   1.298   2.482 -0.0197 -0.4308 -0.0380
 2916SOL    HW118787   1.518   1.373   2.442 -0.5688 -0.3897 -0.6976
 2916SOL    HW218788   1.526   1.237   2.533  0.4830  0.2556  0.1852
 2917SOL     OW18789   2.566   7.955   2.191 -0.1294  0.5215 -0.4867
 2917SOL    HW118790   2.570   8.020   2.266  1.4927  1.8965 -1.7310
 2917SOL    HW218791   2.535   8.002   2.108 -0.0789 -0.5507 -1.1217
 2918SOL     OW18792   2.760   0.568   2.050 -0.0302  0.2609 -0.1540
 2918SOL    HW118793   2.673   0.562   2.100 -0.9513 -0.9565 -1.8721
 2918SOL    HW218794   2.811   0.648   2.082 -0.1933 -0.9517  3.3584
 2919SOL     OW18795   3.321   0.444   0.295  0.2536  0.1826 -0.0125
 2919SOL    HW118796   3.312   0.533   0.249 -1.1437 -0.3644 -0.7992
 2919SOL    HW218797   3.342   0.459   0.392  0.8578  1.3531 -0.3096
 2920SOL     OW18798   2.169   2.072   2.492 -0.7287  0.3146 -0.2788
 2920SOL    HW118799   2.083   2.038   2.529 -0.9125 -0.5889 -1.4608
 2920SOL    HW218800   2.244   2.012   2.522 -0.8309 -0.2120 -1.0459
 2921SOL     OW18801   8.965   4.535   2.002 -0.5280  0.3053  0.1628
 2921SOL    HW118802   9.044   4.551   1.944  0.6047  2.6500  2.2498
 2921SOL    HW218803   8.881   4.562   1.954  0.1686  0.2874 -1.0736
 2922SOL     OW18804   2.247   1.142   2.478 -0.1804 -0.1539  0.3218
 2922SOL    HW118805   2.164   1.141   2.423 -0.1042  0.7257  0.1826
 2922SOL    HW218806   2.257   1.231   2.523 -1.2053 -1.4517  3.2475
 2923SOL     OW18807   2.806   1.095   2.815 -0.2670 -0.2362  0.5324
 2923SOL    HW118808   2.725   1.037   2.823  0.1430 -0.8609  0.2681
 2923SOL    HW218809   2.779   1.186   2.785 -0.5262 -1.5093 -3.4193
 2924SOL     OW18810   9.753   4.587   1.175 -0.6440 -0.4635  0.2213
 2924SOL    HW118811   9.823   4.592   1.246 -1.6684 -0.6846  1.2730
 2924SOL    HW218812   9.785   4.529   1.100  1.1994  1.2844 -0.3903
 2925SOL     OW18813   3.699   0.326   0.399 -0.4358 -0.2366 -0.0114
 2925SOL    HW118814   3.628   0.262   0.369 -0.6190 -0.0444  0.0191
 2925SOL    HW218815   3.783   0.308   0.348 -0.9827  0.6246 -1.2123
 2926SOL     OW18816   1.343   0.831   0.110  0.8050 -0.0585  0.5908
 2926SOL    HW118817   1.352   0.887   0.192  1.0514 -1.3469  1.4631
 2926SOL    HW218818   1.267   0.767   0.122  1.7491 -1.2379  0.4226
 2927SOL     OW18819   2.748   3.862   1.106  0.3464  0.0369  0.0865
 2927SOL    HW118820   2.720   3.862   1.202  0.1737 -0.3431  0.0353
 2927SOL    HW218821   2.692   3.797   1.055  2.7829 -2.4222  0.4140
 2928SOL     OW18822   2.404   1.444   2.231  0.2468 -0.4646  0.3137
 2928SOL    HW118823   2.439   1.537   2.240 -0.6949 -0.0468 -0.2357
 2928SOL    HW218824   2.321   1.445   2.175 -1.6317 -1.1924  2.9896
 2929SOL     OW18825   9.205   3.804   0.359  0.6316 -0.1590  0.5669
 2929SOL    HW118826   9.211   3.709   0.328  1.1626 -0.2061  0.7988
 2929SOL    HW218827   9.235   3.865   0.286  1.4109 -0.2408  0.8163
 2930SOL     OW18828   3.619   1.040   1.339 -0.5825  0.0616  0.1110
 2930SOL    HW118829   3.606   1.119   1.280  1.8697 -0.3864 -1.1038
 2930SOL    HW218830   3.660   1.069   1.426  1.7227  0.0055 -0.9143
 2931SOL     OW18831   3.145   8.833   0.063  0.4114  0.0926  0.2615
 2931SOL    HW118832   3.163   8.830   0.161  1.4751  1.4300  0.1217
 2931SOL    HW218833   3.050   8.809   0.046 -0.4061  2.0160  1.8348
 2932SOL     OW18834   3.421   0.496   1.012 -0.5725  0.5059 -0.7566
 2932SOL    HW118835   3.409   0.426   1.083  0.5763  0.7170 -0.3451
 2932SOL    HW218836   3.400   0.457   0.923 -0.4976 -0.2048 -0.4693
 2933SOL     OW18837   1.268   5.721   0.519 -0.3977 -0.0245 -0.2791
 2933SOL    HW118838   1.306   5.748   0.608 -1.1939  1.5323 -0.3826
 2933SOL    HW218839   1.314   5.639   0.486  0.8886  0.2008  0.9111
 2934SOL     OW18840   1.289   0.390   1.545 -0.6968 -0.0325  0.0624
 2934SOL    HW118841   1.236   0.438   1.475 -1.2304  2.1303  1.8611
 2934SOL    HW218842   1.354   0.454   1.586  0.9187 -1.7694  0.2362
 2935SOL     OW18843   2.864   0.030   1.742  0.1820 -0.2754  0.2499
 2935SOL    HW118844   2.795   0.009   1.811  0.7779 -3.6433 -0.0620
 2935SOL    HW218845   2.954   0.031   1.784  0.3008  0.2709 -0.0165
 2936SOL     OW18846   0.086   1.947   2.113 -0.3318 -0.2542 -0.1959
 2936SOL    HW118847   0.162   1.910   2.166  2.1441 -0.5317 -3.8166
 2936SOL    HW218848   0.041   1.872   2.063 -1.0563  0.3714 -0.4891
 2937SOL     OW18849   1.686   5.681   1.196  0.2900 -1.0804  0.0722
 2937SOL    HW118850   1.618   5.709   1.263  0.9005 -1.1588  0.7304
 2937SOL    HW218851   1.775   5.671   1.240  0.8817 -0.3031 -0.9142
 2938SOL     OW18852   9.502   3.938   0.785  1.0885  0.4422  0.1351
 2938SOL    HW118853   9.489   4.012   0.719 -1.3511  0.7080  0.8525
 2938SOL    HW218854   9.530   3.855   0.737  0.0210  0.8147 -1.1640
 2939SOL     OW18855   1.098   1.248   0.480 -0.2458  0.5266 -0.4223
 2939SOL    HW118856   1.078   1.152   0.500  0.3385  0.6094  0.6565
 2939SOL    HW218857   1.083   1.302   0.563 -0.5925  1.3637 -1.0371
 2940SOL     OW18858   4.284   3.137   0.255  0.0793  0.6055  0.5083
 2940SOL    HW118859   4.317   3.129   0.349  0.2244 -0.1437  0.3995
 2940SOL    HW218860   4.238   3.052   0.229  1.0263  0.3814 -0.4740
 2941SOL     OW18861   2.859   4.418   1.123 -0.2439 -0.3139  0.1714
 2941SOL    HW118862   2.887   4.356   1.196  1.7533  0.6189  0.2287
 2941SOL    HW218863   2.854   4.368   1.036 -2.6868 -1.4403  0.9175
 2942SOL     OW18864   2.101   2.377   1.832  0.0897  0.1943  0.7715
 2942SOL    HW118865   2.103   2.278   1.845  0.5938  0.2943  1.5332
 2942SOL    HW218866   2.154   2.401   1.751 -0.5509 -0.2071  0.2302
 2943SOL     OW18867   0.431   2.906   0.412  0.1161  0.4690  0.1200
 2943SOL    HW118868   0.363   2.848   0.368 -0.6485  0.4732  1.2500
 2943SOL    HW218869   0.514   2.909   0.357 -0.8100  0.4779 -1.2839
 2944SOL     OW18870   9.539   4.117   1.009  0.0090 -0.9781  0.0452
 2944SOL    HW118871   9.635   4.145   1.001 -0.3056 -0.2990 -1.4190
 2944SOL    HW218872   9.513   4.062   0.930 -0.7188 -1.4610  0.6091
 2945SOL     OW18873   1.382   5.749   2.760 -0.3027  0.6775  0.9354
 2945SOL    HW118874   1.287   5.771   2.782 -0.8189  0.1287 -0.6395
 2945SOL    HW218875   1.387   5.716   2.666  1.5115  1.1087  0.8582
 2946SOL     OW18876   0.062   9.667   2.235 -0.4763 -0.8472  0.0435
 2946SOL    HW118877   0.019   9.754   2.213  1.2579  0.3885  1.4427
 2946SOL    HW218878   0.023   9.631   2.320  0.3109 -0.3605  0.6189
 2947SOL     OW18879   8.690   3.221   0.649 -0.5309 -0.4144 -0.4551
 2947SOL    HW118880   8.763   3.283   0.679 -1.5831  0.8489 -0.4822
 2947SOL    HW218881   8.728   3.129   0.634  0.6468 -0.2556  1.4863
 2948SOL     OW18882   0.833   9.734   1.880  0.2852 -0.3461  0.3279
 2948SOL    HW118883   0.781   9.666   1.932 -0.1809 -0.6677 -0.5563
 2948SOL    HW218884   0.802   9.826   1.906 -0.6780 -0.5328 -0.1281
 2949SOL     OW18885   9.989   3.688   0.585 -0.7911 -0.3840  0.8224
 2949SOL    HW118886   9.919   3.672   0.654  0.2724 -1.9326  1.5603
 2949SOL    HW218887   9.979   3.621   0.512 -2.9330  2.2308 -1.4118
 2950SOL     OW18888   0.477   4.012   1.653 -0.8225  0.6609  0.3888
 2950SOL    HW118889   0.505   4.102   1.686  0.7339  0.0032  0.8788
 2950SOL    HW218890   0.555   3.950   1.654 -2.2239 -1.1326  1.5443
 2951SOL     OW18891   9.561   1.572   2.019 -0.1992 -0.4542  0.3270
 2951SOL    HW118892   9.534   1.635   1.946  1.8406  0.0071 -0.0529
 2951SOL    HW218893   9.492   1.575   2.092 -0.5283  1.6681 -0.0230
 2952SOL     OW18894   1.235   1.080   1.772 -0.1387  0.0761  0.3345
 2952SOL    HW118895   1.179   1.048   1.848  0.5088 -0.7687  0.4670
 2952SOL    HW218896   1.319   1.025   1.768  0.0608  0.4557 -0.6754
 2953SOL     OW18897   2.730   9.113   1.807 -0.0923  0.0732 -0.3765
 2953SOL    HW118898   2.749   9.045   1.877  0.0029  1.6704  1.1961
 2953SOL    HW218899   2.813   9.163   1.785 -0.7504  1.6910  0.6962
 2954SOL     OW18900   1.048   7.364   1.247  0.2920 -0.2800 -0.5489
 2954SOL    HW118901   1.097   7.277   1.250  0.0528 -0.3945 -0.0427
 2954SOL    HW218902   1.099   7.428   1.189  1.3989 -0.1913  0.4927
 2955SOL     OW18903   0.715   2.080   0.401  0.7005  0.3300  0.8685
 2955SOL    HW118904   0.741   2.070   0.305  2.9092  2.8641  1.1688
 2955SOL    HW218905   0.727   1.992   0.447 -0.4570 -0.9401 -1.1618
 2956SOL     OW18906   2.240   9.288   2.654  0.4906 -0.2522  0.2763
 2956SOL    HW118907   2.193   9.307   2.741 -0.0070  1.6519 -0.3772
 2956SOL    HW218908   2.338   9.295   2.668  0.3943  0.6467  0.5707
 2957SOL     OW18909   1.141   4.705   1.905 -0.1984 -0.2827 -0.0937
 2957SOL    HW118910   1.160   4.634   1.836 -0.1179  0.6747 -1.0662
 2957SOL    HW218911   1.222   4.761   1.918  0.3233 -1.5029  2.0395
 2958SOL     OW18912   3.347   0.845   0.312 -0.0676 -0.4647  0.6457
 2958SOL    HW118913   3.358   0.944   0.312  1.2541 -0.5595  4.0141
 2958SOL    HW218914   3.429   0.802   0.275  0.1614 -0.3588  1.0303
 2959SOL     OW18915   4.076   2.461   0.889 -0.0142 -0.4712 -0.0630
 2959SOL    HW118916   4.022   2.379   0.909 -0.5441 -0.6984 -2.2836
 2959SOL    HW218917   4.169   2.450   0.926  0.1301 -2.3815 -0.9173
 2960SOL     OW18918   3.804   8.558   1.239 -0.1123  0.1177  0.2859
 2960SOL    HW118919   3.709   8.533   1.217 -0.2037  0.1401  0.6635
 2960SOL    HW218920   3.827   8.523   1.329  1.6072 -3.6886 -1.4954
 2961SOL     OW18921   4.028   2.467   1.483 -0.4926 -0.1391  0.7817
 2961SOL    HW118922   3.941   2.444   1.526 -2.1170  2.9430 -0.6595
 2961SOL    HW218923   4.081   2.526   1.543  0.7342 -2.1519  1.7297
 2962SOL     OW18924   8.707   3.751   0.728 -0.2379 -0.6679 -0.1259
 2962SOL    HW118925   8.711   3.711   0.636 -0.7286 -0.2802 -0.3236
 2962SOL    HW218926   8.680   3.848   0.721  0.3552 -0.4665  0.3833
 2963SOL     OW18927   1.499   6.694   1.281  0.3012  0.5315  1.0514
 2963SOL    HW118928   1.484   6.643   1.365  0.3065  1.5873  1.7015
 2963SOL    HW218929   1.411   6.709   1.235  0.3296 -0.2740  0.7266
 2964SOL     OW18930   2.238   7.360   1.541  0.0542  0.4895 -0.2562
 2964SOL    HW118931   2.287   7.336   1.625 -0.3667  0.2905 -0.0697
 2964SOL    HW218932   2.298   7.346   1.463 -0.3384 -1.6461 -0.2044
 2965SOL     OW18933   2.005   9.170   1.916 -0.7270  0.1601  0.0864
 2965SOL    HW118934   1.978   9.110   1.841  1.0045  0.5108 -0.8455
 2965SOL    HW218935   2.073   9.235   1.884 -1.6617  1.8230  1.4037
 2966SOL     OW18936   1.905   5.748   2.128  0.5383  0.2138  0.1946
 2966SOL    HW118937   1.937   5.750   2.033 -2.9486 -1.9695 -1.1241
 2966SOL    HW218938   1.817   5.795   2.135  0.6448  0.1697  2.3070
 2967SOL     OW18939   2.870   4.726   0.724 -0.2669  0.4858 -0.1530
 2967SOL    HW118940   2.809   4.654   0.757  0.5374  0.0223  0.3363
 2967SOL    HW218941   2.829   4.815   0.743 -0.7186  0.1828  0.3274
 2968SOL     OW18942   1.294   0.145   0.427 -0.0567  0.4963  0.4805
 2968SOL    HW118943   1.332   0.237   0.428  1.3670 -0.0550 -0.6640
 2968SOL    HW218944   1.363   0.081   0.394 -1.3426 -0.8371  0.3155
 2969SOL     OW18945   3.195   8.991   1.908  0.0141 -0.3257  0.2196
 2969SOL    HW118946   3.127   8.924   1.878 -0.1067 -0.2862  0.4091
 2969SOL    HW218947   3.285   8.947   1.913 -0.6444 -1.4166  3.8215
 2970SOL     OW18948   0.289   4.317   0.057  0.1229 -0.5274  0.6442
 2970SOL    HW118949   0.355   4.370   0.110 -0.0119  1.3090 -0.9479
 2970SOL    HW218950   0.202   4.312   0.105  0.9208 -1.5509  1.9993
 2971SOL     OW18951   3.657   0.633   0.937  0.0105 -0.4972  0.2362
 2971SOL    HW118952   3.672   0.582   0.853 -0.7592  0.5723 -0.5659
 2971SOL    HW218953   3.578   0.596   0.986 -1.4540  0.8024 -1.0777
 2972SOL     OW18954   3.942   2.232   1.178  0.1351  0.4649  0.4481
 2972SOL    HW118955   4.018   2.280   1.222  1.0517 -1.3310  0.8720
 2972SOL    HW218956   3.882   2.194   1.248 -0.0148  0.1166  0.1323
 2973SOL     OW18957   2.172   8.569   1.191 -0.5382 -0.1535  0.6215
 2973SOL    HW118958   2.244   8.545   1.256 -1.2218  0.0035  1.4499
 2973SOL    HW218959   2.178   8.510   1.111 -0.3137 -1.0254  1.2768
 2974SOL     OW18960   3.577   4.511   2.529  0.2461  0.4387 -0.0364
 2974SOL    HW118961   3.535   4.447   2.464  0.3144  0.2406  0.1124
 2974SOL    HW218962   3.510   4.579   2.558  0.1376  0.3574 -0.0970
 2975SOL     OW18963   3.652   9.234   1.923 -0.7474 -0.3068 -0.0500
 2975SOL    HW118964   3.741   9.273   1.898 -0.4019 -0.2756  1.1688
 2975SOL    HW218965   3.582   9.268   1.861 -0.5134  2.5523  1.1947
 2976SOL     OW18966   2.953   7.503   0.611  0.2477  0.0826 -0.0402
 2976SOL    HW118967   2.892   7.489   0.533 -0.7945  1.0901  0.5663
 2976SOL    HW218968   2.970   7.601   0.622  0.5159 -0.0694  0.8895
 2977SOL     OW18969   3.831   1.010   0.257 -0.4854 -0.3205 -0.3522
 2977SOL    HW118970   3.783   0.933   0.300  0.1020 -0.1903  0.5640
 2977SOL    HW218971   3.925   1.014   0.292 -0.2307  0.2481 -1.0975
 2978SOL     OW18972   9.910   1.117   0.209  0.6551 -0.0892 -0.5889
 2978SOL    HW118973   9.860   1.074   0.284 -0.4001  0.0267 -1.2293
 2978SOL    HW218974   9.932   1.212   0.234  1.4422 -0.4480  0.1003
 2979SOL     OW18975   9.796   4.479   0.472  0.5007  0.0250  0.2773
 2979SOL    HW118976   9.879   4.429   0.497  1.1612  1.1888  0.4398
 2979SOL    HW218977   9.820   4.573   0.446 -0.7684  0.3865  0.3802
 2980SOL     OW18978   2.651   2.651   2.819  0.6719 -0.7011 -0.6702
 2980SOL    HW118979   2.683   2.602   2.737  2.3371 -0.8627  0.0635
 2980SOL    HW218980   2.712   2.728   2.837 -1.1466  0.8429 -1.0108
 2981SOL     OW18981   9.033   2.600   1.273 -0.1390 -0.7085  0.7245
 2981SOL    HW118982   9.069   2.600   1.367 -0.4140  0.7981  0.8434
 2981SOL    HW218983   8.948   2.547   1.270 -0.9187  0.4450  1.6632
 2982SOL     OW18984   0.512   2.831   1.669 -0.2826  0.3405  0.8595
 2982SOL    HW118985   0.429   2.866   1.623  0.7616  0.4638 -0.9908
 2982SOL    HW218986   0.584   2.900   1.663  1.0953 -1.2109 -0.8229
 2983SOL     OW18987   7.710   2.277   0.929  0.4329 -0.2967 -0.3576
 2983SOL    HW118988   7.690   2.179   0.935  1.1383 -0.4688 -0.7150
 2983SOL    HW218989   7.635   2.329   0.970 -0.2077 -0.9623 -0.6611
 2984SOL     OW18990   2.065   7.540   2.171  0.4637 -0.3630 -0.2642
 2984SOL    HW118991   2.154   7.499   2.154  0.5575 -1.2548  2.0792
 2984SOL    HW218992   2.034   7.514   2.263 -1.3628  1.4441 -0.3311
 2985SOL     OW18993   3.800   1.320   1.406  0.4624  0.0264  0.1711
 2985SOL    HW118994   3.790   1.253   1.479  2.0991  0.2651  0.6341
 2985SOL    HW218995   3.858   1.396   1.438 -0.2693  1.0068 -0.7830
 2986SOL     OW18996   3.742   1.611   2.710 -0.5371 -0.3049  0.3058
 2986SOL    HW118997   3.751   1.685   2.644 -1.7681  0.7883  1.3394
 2986SOL    HW218998   3.799   1.631   2.790  0.2645 -1.2025 -0.0210
 2987SOL     OW18999   2.243   7.771   2.281  0.0507 -0.1362 -0.2181
 2987SOL    HW119000   2.153   7.736   2.253  0.1190  0.0328 -0.6486
 2987SOL    HW219001   2.269   7.847   2.222 -0.1220  0.6928  0.7435
 2988SOL     OW19002   4.258   0.980   0.157  0.4609 -0.8360 -0.6599
 2988SOL    HW119003   4.194   0.997   0.231 -0.5178 -0.8695 -1.4899
 2988SOL    HW219004   4.338   1.039   0.168  1.5269 -2.6352  1.8307
 2989SOL     OW19005   1.454   2.684   0.523  0.2696 -0.5982  0.5128
 2989SOL    HW119006   1.515   2.740   0.578 -1.6206  1.2870  0.7695
 2989SOL    HW219007   1.372   2.662   0.576 -0.9691  0.1066 -1.0634
 2990SOL     OW19008   8.682   1.046   1.363 -0.0302  0.1158  0.4383
 2990SOL    HW119009   8.677   1.124   1.425 -1.4017  1.4472 -1.2703
 2990SOL    HW219010   8.684   1.079   1.268  1.7916 -1.8722 -0.2450
 2991SOL     OW19011   1.697   0.864   0.196 -0.1527 -0.5663  0.4696
 2991SOL    HW119012   1.749   0.949   0.186 -2.2986  0.5430 -2.2963
 2991SOL    HW219013   1.754   0.793   0.236  3.4621  0.6024 -2.3198
 2992SOL     OW19014   1.339   3.606   1.176  0.8496 -0.0018  0.3082
 2992SOL    HW119015   1.318   3.668   1.101 -1.0211  0.2499  0.9886
 2992SOL    HW219016   1.264   3.540   1.186  1.6587 -0.8103  1.1530
 2993SOL     OW19017   9.193   0.823   1.425  0.4082 -0.8389  0.6370
 2993SOL    HW119018   9.272   0.830   1.487 -0.1815 -0.2549  1.3388
 2993SOL    HW219019   9.196   0.897   1.359  1.2473 -1.6866 -0.2894
 2994SOL     OW19020   0.364   4.866   0.594  0.0560 -0.3938 -0.5302
 2994SOL    HW119021   0.387   4.800   0.522 -0.3493 -1.3123  0.1735
 2994SOL    HW219022   0.291   4.829   0.651  0.3367  0.3577  0.3281
 2995SOL     OW19023   2.484   5.205   1.723  0.1104  0.2334  0.1905
 2995SOL    HW119024   2.515   5.144   1.650  0.9210 -0.7618  1.3450
 2995SOL    HW219025   2.507   5.166   1.812 -1.3469  1.1593  1.0163
 2996SOL     OW19026   2.649   1.332   2.779 -0.6295 -0.4230  0.3488
 2996SOL    HW119027   2.552   1.319   2.800 -0.3265 -1.0751  1.4297
 2996SOL    HW219028   2.688   1.397   2.844 -0.3071 -0.3000  0.0297
 2997SOL     OW19029   2.379   2.719   2.755 -0.1017  0.0723  0.1584
 2997SOL    HW119030   2.317   2.654   2.799  0.2237 -1.4539 -1.6128
 2997SOL    HW219031   2.472   2.684   2.757 -0.4951 -1.4332 -4.3151
 2998SOL     OW19032   2.685   0.967   0.437  0.4492 -0.9839 -0.4292
 2998SOL    HW119033   2.784   0.958   0.440  0.5844  0.4566 -0.2472
 2998SOL    HW219034   2.659   1.033   0.367 -0.2214  0.6193  1.2867
 2999SOL     OW19035   8.646   1.572   1.393 -0.2740 -0.6820 -0.3185
 2999SOL    HW119036   8.583   1.642   1.359  0.7981 -0.5220 -2.0598
 2999SOL    HW219037   8.722   1.563   1.329 -0.0095 -2.9092  0.2746
 3000SOL     OW19038   3.636   4.266   2.085  0.6561  0.1277  0.3568
 3000SOL    HW119039   3.717   4.323   2.071  0.6170 -0.4824 -2.9226
 3000SOL    HW219040   3.554   4.323   2.078  0.6967  0.0921 -0.5419
 3001SOL     OW19041   1.426   3.863   0.542 -0.2409  0.4779  0.8022
 3001SOL    HW119042   1.383   3.908   0.620 -0.9552 -1.3571  1.4782
 3001SOL    HW219043   1.382   3.894   0.457 -2.5774 -0.9753  1.4454
 3002SOL     OW19044   2.568   9.111   2.557 -1.2127 -0.4688  0.2159
 3002SOL    HW119045   2.537   9.164   2.478  0.8084  0.0843 -0.2287
 3002SOL    HW219046   2.501   9.039   2.578 -1.9904 -0.3160 -1.6864
 3003SOL     OW19047   2.513   2.351   2.769  1.3914  0.3408 -0.2762
 3003SOL    HW119048   2.417   2.329   2.750  1.9399 -1.3335 -1.2452
 3003SOL    HW219049   2.531   2.343   2.867  0.2125  2.0178  0.0766
 3004SOL     OW19050   9.628   1.110   0.502  0.0646  0.0440  0.3702
 3004SOL    HW119051   9.727   1.092   0.505 -0.5070 -3.1018  3.2267
 3004SOL    HW219052   9.604   1.173   0.575 -0.2927 -0.7383  0.9360
 3005SOL     OW19053   1.707   6.746   0.939  0.2131  0.2725  0.4742
 3005SOL    HW119054   1.777   6.798   0.889  0.4425 -0.4306  0.0596
 3005SOL    HW219055   1.657   6.687   0.876  1.4820 -1.7267  1.2692
 3006SOL     OW19056   2.886   7.877   1.423  0.2985  0.4013 -0.5558
 3006SOL    HW119057   2.949   7.802   1.402  1.2470  1.2009 -0.5679
 3006SOL    HW219058   2.879   7.938   1.344 -0.8985  0.0375 -0.7458
 3007SOL     OW19059   0.375   2.272   0.880  0.2816  0.2794 -0.1021
 3007SOL    HW119060   0.475   2.266   0.881  0.2200 -0.7560  1.1499
 3007SOL    HW219061   0.342   2.306   0.968 -0.4888  0.4264 -0.4380
 3008SOL     OW19062   3.417   0.310   2.488  0.1237 -0.3182 -0.2615
 3008SOL    HW119063   3.398   0.380   2.420 -0.0724  0.3989  0.5271
 3008SOL    HW219064   3.420   0.220   2.443 -0.3581  0.1036 -1.1490
 3009SOL     OW19065   1.080   5.878   1.525  0.5550 -0.0713  0.1622
 3009SOL    HW119066   1.039   5.837   1.444 -2.6655 -1.4426  2.3654
 3009SOL    HW219067   1.107   5.806   1.589  1.7112  1.0210  0.9318
 3010SOL     OW19068   3.784   1.302   1.826  0.1191  0.3668  0.4196
 3010SOL    HW119069   3.762   1.325   1.920 -0.4013  3.4707 -0.4006
 3010SOL    HW219070   3.795   1.386   1.772  1.7970 -1.3038 -1.9831
 3011SOL     OW19071   1.375   2.944   2.473  0.0016  0.0419  0.0999
 3011SOL    HW119072   1.407   2.855   2.441  1.2882  0.5083  0.0760
 3011SOL    HW219073   1.431   3.017   2.432  1.0378  0.6997  2.6066
 3012SOL     OW19074   1.656   0.453   0.538  0.1505 -0.0875  0.0152
 3012SOL    HW119075   1.622   0.515   0.610 -0.8914  0.6799 -1.1061
 3012SOL    HW219076   1.733   0.496   0.491 -0.5715  0.3727 -0.7617
 3013SOL     OW19077   1.901   3.868   1.924 -0.1663  0.3367 -0.0708
 3013SOL    HW119078   1.870   3.834   2.012  0.9002  0.4957  0.3706
 3013SOL    HW219079   1.868   3.961   1.910 -1.1168 -0.0217 -0.2540
 3014SOL     OW19080   3.040   0.711   1.149 -0.5514  0.7823 -0.0136
 3014SOL    HW119081   2.949   0.692   1.186 -0.3582 -1.2996 -0.5613
 3014SOL    HW219082   3.034   0.720   1.050 -0.0171 -0.2601 -0.1414
 3015SOL     OW19083   0.862   8.336   2.214 -0.0014 -0.1606  0.2445
 3015SOL    HW119084   0.941   8.390   2.187  0.6321 -0.5320  1.3397
 3015SOL    HW219085   0.785   8.396   2.235  0.4451  0.2750  0.6278
 3016SOL     OW19086   0.209   3.791   1.631  0.1574 -0.3717  0.4396
 3016SOL    HW119087   0.147   3.713   1.635  1.8337 -1.8014 -0.7968
 3016SOL    HW219088   0.240   3.805   1.537 -0.9337  2.4843  0.4331
 3017SOL     OW19089   0.568   9.913   0.293 -0.4203 -0.3574 -0.5038
 3017SOL    HW119090   0.615   9.911   0.205 -0.6764 -1.4525 -0.6275
 3017SOL    HW219091   0.594   9.832   0.346  1.4687  1.3700  1.3492
 3018SOL     OW19092   9.165   1.605   1.761  0.9267 -0.0251  0.6681
 3018SOL    HW119093   9.238   1.658   1.719 -0.6792  2.0346  0.3795
 3018SOL    HW219094   9.100   1.576   1.690 -0.9649  2.1187  1.4898
 3019SOL     OW19095   0.994   5.939   0.435  0.1856  0.1537  0.0490
 3019SOL    HW119096   1.015   5.922   0.531 -2.6888 -2.0157  0.3562
 3019SOL    HW219097   0.983   6.037   0.420  1.7092  0.5910  1.6702
 3020SOL     OW19098   2.134   2.576   0.554  0.1294  0.9302  0.1743
 3020SOL    HW119099   2.230   2.559   0.529 -0.7627 -3.5952 -0.6677
 3020SOL    HW219100   2.126   2.579   0.654  1.1571  1.4305  0.2479
 3021SOL     OW19101   0.381   0.228   2.462  0.5809 -0.7903  0.1396
 3021SOL    HW119102   0.294   0.276   2.473  1.3232  1.1194 -2.0493
 3021SOL    HW219103   0.431   0.229   2.549 -0.3838  0.4642  0.6966
 3022SOL     OW19104   3.520   2.353   1.856  0.1045 -0.2605  0.0177
 3022SOL    HW119105   3.431   2.382   1.821 -0.5837 -1.2930  0.8763
 3022SOL    HW219106   3.543   2.263   1.818  1.8501  1.0016 -2.0002
 3023SOL     OW19107   2.782   1.987   0.558 -0.6310  0.4495  0.3720
 3023SOL    HW119108   2.862   2.031   0.599  0.3325 -2.0147  1.2289
 3023SOL    HW219109   2.794   1.981   0.459 -0.1109  0.7850  0.4163
 3024SOL     OW19110   1.536   4.184   2.705  0.8749  0.3108 -0.1091
 3024SOL    HW119111   1.623   4.150   2.739  1.3156  0.7750 -0.7702
 3024SOL    HW219112   1.495   4.116   2.645  1.1067  0.3738 -0.3402
 3025SOL     OW19113   0.895   8.974   2.101 -0.8803  0.9198  0.5367
 3025SOL    HW119114   0.971   8.934   2.152 -2.4827  1.2265  3.2873
 3025SOL    HW219115   0.839   8.901   2.062 -0.9335  0.6158  1.1807
 3026SOL     OW19116   3.352   9.969   0.242 -0.1450  0.0209  0.5934
 3026SOL    HW119117   3.276  10.009   0.294 -2.6785 -0.6866 -2.4205
 3026SOL    HW219118   3.397   9.900   0.299 -2.6017 -0.4808  2.0340
 3027SOL     OW19119   2.451   6.150   1.928  0.0948 -0.3374 -0.0932
 3027SOL    HW119120   2.454   6.157   1.828 -0.6637 -1.7855 -0.2330
 3027SOL    HW219121   2.413   6.061   1.954 -1.4512  0.7503  1.4894
 3028SOL     OW19122   2.747   8.405   1.415 -0.2780  0.5204  0.3188
 3028SOL    HW119123   2.657   8.423   1.455  1.1669  3.8440  2.3068
 3028SOL    HW219124   2.763   8.468   1.339  0.8838  0.8192  0.8065
 3029SOL     OW19125   9.764   1.636   2.185 -0.6489  0.2204  0.0915
 3029SOL    HW119126   9.731   1.637   2.280  2.5603 -1.6017  1.2902
 3029SOL    HW219127   9.702   1.580   2.130 -0.5160 -1.8446  1.9550
 3030SOL     OW19128   1.188   5.880   2.122  0.3155  0.2329  0.0875
 3030SOL    HW119129   1.228   5.929   2.045 -0.2097  1.3429  0.5111
 3030SOL    HW219130   1.258   5.867   2.193 -0.2159  2.7576  1.1099
 3031SOL     OW19131   2.338   5.946   1.215  0.4499 -0.5831  0.2796
 3031SOL    HW119132   2.335   5.906   1.123  0.6509  0.2386 -0.0925
 3031SOL    HW219133   2.429   5.983   1.232 -0.1873  1.1968 -0.0310
 3032SOL     OW19134   3.437   4.078   0.046  0.6593 -0.2588 -0.1432
 3032SOL    HW119135   3.477   4.070  -0.046 -2.3614 -0.2630 -1.5134
 3032SOL    HW219136   3.427   4.175   0.069 -1.5341 -0.1782 -1.2327
 3033SOL     OW19137   9.774   2.043   1.481  0.2138 -0.0270  0.0318
 3033SOL    HW119138   9.731   2.127   1.448 -1.4412 -1.6153 -2.0445
 3033SOL    HW219139   9.777   2.043   1.581 -2.0619  1.4025  0.1273
 3034SOL     OW19140   3.146   8.712   1.631  0.4331  0.4040  0.3200
 3034SOL    HW119141   3.208   8.656   1.687  1.5572 -0.2288 -1.4976
 3034SOL    HW219142   3.103   8.655   1.562  0.1844  1.4471 -0.3984
 3035SOL     OW19143   0.363   2.488   0.528 -0.0604 -0.4522 -0.3434
 3035SOL    HW119144   0.291   2.452   0.588  1.1433 -1.1019  0.7579
 3035SOL    HW219145   0.417   2.411   0.492  1.0986  0.1064  0.1775
 3036SOL     OW19146   0.844   5.981   2.433  0.5649 -0.2688 -0.2041
 3036SOL    HW119147   0.920   6.024   2.384 -0.0830 -2.0347 -2.7990
 3036SOL    HW219148   0.759   6.030   2.413  0.5571  0.0555  0.5712
 3037SOL     OW19149   9.400   3.811   2.735  0.1857  0.0853  0.1399
 3037SOL    HW119150   9.336   3.743   2.701 -0.4579  1.2889 -1.1207
 3037SOL    HW219151   9.487   3.768   2.757  0.6157 -0.7751 -3.0234
 3038SOL     OW19152   1.552   9.184   1.731  0.2792 -0.2692  0.4621
 3038SOL    HW119153   1.615   9.198   1.808  2.1534 -2.0791 -0.6949
 3038SOL    HW219154   1.562   9.091   1.696 -0.2393  0.6506 -2.2445
 3039SOL     OW19155   4.272   1.487   0.302  0.1591  0.5456  0.7063
 3039SOL    HW119156   4.198   1.457   0.242  1.1589  1.2071 -0.9148
 3039SOL    HW219157   4.234   1.533   0.382 -1.2230 -0.7610  0.8258
 3040SOL     OW19158   2.966   8.833   1.847  0.5835 -0.8179  0.4088
 3040SOL    HW119159   2.918   8.807   1.764  0.0243  2.0172 -0.1958
 3040SOL    HW219160   2.901   8.870   1.913  1.2217 -1.8064  1.6268
 3041SOL     OW19161   2.577   5.830   2.542  0.0974 -0.0724 -0.0881
 3041SOL    HW119162   2.609   5.762   2.476 -0.7670  0.7346 -1.3581
 3041SOL    HW219163   2.619   5.918   2.522  0.1893  0.0737  0.7325
 3042SOL     OW19164   1.383   2.397   1.579 -0.2267 -0.7682  0.0432
 3042SOL    HW119165   1.361   2.347   1.495 -0.1828 -0.6478 -0.0413
 3042SOL    HW219166   1.439   2.341   1.638  0.1609 -0.6702 -0.2304
 3043SOL     OW19167   3.126   9.518   0.005 -0.2299  0.1389  0.0174
 3043SOL    HW119168   3.177   9.566  -0.066  0.5819  1.6895  1.6042
 3043SOL    HW219169   3.077   9.585   0.061  0.0404 -0.9622  1.6073
 3044SOL     OW19170   0.708   5.321   2.203 -0.8593 -0.3016 -0.2463
 3044SOL    HW119171   0.766   5.263   2.146 -0.3523  0.7245 -0.7734
 3044SOL    HW219172   0.623   5.271   2.225 -0.8547 -0.8857 -1.4902
 3045SOL     OW19173   3.164   2.992   0.194  0.4734  0.2647 -0.6406
 3045SOL    HW119174   3.149   3.076   0.141  0.5735  0.4157 -0.4277
 3045SOL    HW219175   3.090   2.928   0.175  0.0540  0.6489 -0.3127
 3046SOL     OW19176   8.700   1.759   2.443 -0.8217  0.5152  0.6389
 3046SOL    HW119177   8.662   1.852   2.441  1.6872  1.5371 -1.1034
 3046SOL    HW219178   8.777   1.753   2.380 -1.8103 -3.1645 -0.3405
 3047SOL     OW19179   3.041   8.502   1.435 -0.1025 -0.2259 -0.4657
 3047SOL    HW119180   3.041   8.463   1.343 -1.3048 -1.1161 -0.1015
 3047SOL    HW219181   2.995   8.440   1.498 -0.5927  1.0410  0.4592
 3048SOL     OW19182   3.151   3.851   2.143  0.3888  0.2191  0.6214
 3048SOL    HW119183   3.186   3.896   2.061  0.9492 -0.1428  0.6552
 3048SOL    HW219184   3.222   3.849   2.213  0.8604 -1.8946  0.1463
 3049SOL     OW19185   2.208   3.299   2.281  0.6889  0.6765 -0.0618
 3049SOL    HW119186   2.267   3.238   2.228  0.1170  0.5382 -0.5453
 3049SOL    HW219187   2.137   3.337   2.222 -1.0299 -0.8546  0.9771
 3050SOL     OW19188   2.294   4.039   1.019  0.0232 -0.1487 -0.2008
 3050SOL    HW119189   2.341   4.072   1.101  1.7536 -0.9976 -0.8200
 3050SOL    HW219190   2.262   3.946   1.034 -1.4811  0.4181  0.2086
 3051SOL     OW19191   2.147   2.340   2.362  0.2456  0.2967 -0.6411
 3051SOL    HW119192   2.224   2.392   2.399  1.6164 -1.3255 -1.2064
 3051SOL    HW219193   2.150   2.246   2.396 -0.2281 -0.3762 -2.4089
 3052SOL     OW19194   3.710   0.332   2.394  0.4562 -0.5178  0.4225
 3052SOL    HW119195   3.717   0.254   2.455  0.4129 -1.3212 -0.5879
 3052SOL    HW219196   3.633   0.390   2.422  1.8869  0.4244  2.5749
 3053SOL     OW19197   0.089   5.398   2.538 -0.5661 -1.2005 -0.3466
 3053SOL    HW119198   0.081   5.451   2.453 -0.4335 -0.6860 -0.0454
 3053SOL    HW219199   0.001   5.398   2.586 -0.5442 -1.1832 -0.3064
 3054SOL     OW19200   2.680   2.834   1.888 -0.4449  0.5364  0.0793
 3054SOL    HW119201   2.665   2.927   1.855  0.9629  0.4586 -0.8481
 3054SOL    HW219202   2.778   2.811   1.880 -0.4989 -0.4273  1.8699
 3055SOL     OW19203   9.596   3.622   2.730 -0.4226 -0.2201  0.4102
 3055SOL    HW119204   9.618   3.631   2.827 -1.0351  0.7327  0.4665
 3055SOL    HW219205   9.630   3.534   2.697 -2.1756 -1.5720  2.0326
 3056SOL     OW19206   2.127   0.284   0.694 -0.1017  0.0962  0.7565
 3056SOL    HW119207   2.140   0.190   0.661  1.2666  0.1445  1.1285
 3056SOL    HW219208   2.155   0.289   0.790 -1.5132  0.5656  1.1399
 3057SOL     OW19209   8.734   1.215   1.124  0.1981  0.0399 -0.0696
 3057SOL    HW119210   8.783   1.290   1.168 -1.1813  1.3459 -0.7168
 3057SOL    HW219211   8.758   1.212   1.027 -0.4406  0.2462 -0.2402
 3058SOL     OW19212   2.332   1.642   1.932  0.5727  0.6749  0.1137
 3058SOL    HW119213   2.360   1.548   1.951  1.3334  0.5952 -1.3395
 3058SOL    HW219214   2.232   1.649   1.935  0.4661 -0.4011 -0.7304
 3059SOL     OW19215   3.373   2.605   0.993  0.2223  0.6039  0.4486
 3059SOL    HW119216   3.446   2.655   0.946  0.7632 -0.0548  0.5741
 3059SOL    HW219217   3.350   2.524   0.939 -2.7247  2.5145 -1.3023
 3060SOL     OW19218   3.745   2.834   2.379  0.0317  0.0015 -0.1128
 3060SOL    HW119219   3.788   2.754   2.337  1.0794 -0.0255  0.9691
 3060SOL    HW219220   3.816   2.899   2.408 -0.6568  0.1397  1.3507
 3061SOL     OW19221   3.896   3.812   1.870  0.4685  0.3131  0.1919
 3061SOL    HW119222   3.823   3.827   1.937 -1.7228 -0.4422 -1.9821
 3061SOL    HW219223   3.968   3.756   1.911  0.2252  1.6960  2.6007
 3062SOL     OW19224   1.211   9.431   1.457  0.6224 -0.6299 -0.2898
 3062SOL    HW119225   1.112   9.446   1.456  0.8956  1.1801 -0.2248
 3062SOL    HW219226   1.234   9.363   1.527 -0.2969  0.8082  1.4284
 3063SOL     OW19227   0.520   4.730   2.360  0.3567  0.3049  0.7476
 3063SOL    HW119228   0.544   4.821   2.327 -1.0179 -0.3235 -2.1690
 3063SOL    HW219229   0.574   4.662   2.310 -1.3084 -0.6561  0.2174
 3064SOL     OW19230   2.632   6.016   0.210 -0.5911 -0.8844 -0.6782
 3064SOL    HW119231   2.585   5.932   0.237 -0.6664 -1.1422 -1.5825
 3064SOL    HW219232   2.728   6.012   0.240 -0.9202 -0.7313  0.4057
 3065SOL     OW19233   0.843   9.561   2.189 -0.2212 -0.0631  0.4937
 3065SOL    HW119234   0.853   9.480   2.247 -1.6377  0.6538  1.7741
 3065SOL    HW219235   0.798   9.536   2.104 -0.7798 -0.6037  0.9433
 3066SOL     OW19236   2.027   8.096   2.354 -0.4044 -0.2424 -0.3034
 3066SOL    HW119237   2.037   8.027   2.282 -2.9330  1.2284 -2.1330
 3066SOL    HW219238   1.936   8.090   2.394  0.2403  0.4025  1.3158
 3067SOL     OW19239   2.665   7.227   1.566  0.3969 -0.0151  0.1950
 3067SOL    HW119240   2.731   7.172   1.618  0.6656 -0.2842 -0.4226
 3067SOL    HW219241   2.650   7.184   1.477 -0.5593  0.0872  0.3085
 3068SOL     OW19242   2.167   9.964   0.547 -0.2643 -0.4887 -0.3809
 3068SOL    HW119243   2.176   9.881   0.602 -1.2182 -0.2867  0.0865
 3068SOL    HW219244   2.257   9.989   0.509 -0.0030 -1.8056 -0.6486
 3069SOL     OW19245   0.889   4.758   1.978  0.5215 -0.5054 -0.0833
 3069SOL    HW119246   0.981   4.736   1.946  0.4703  0.0513 -0.6394
 3069SOL    HW219247   0.891   4.778   2.076  0.5551 -3.0289  0.4608
 3070SOL     OW19248   0.039   3.993   1.746  0.4207  0.0119 -0.0496
 3070SOL    HW119249   0.069   4.068   1.687  3.8250 -0.3794  1.0449
 3070SOL    HW219250   0.092   3.911   1.724  0.1292 -0.7453  2.0080
 3071SOL     OW19251   2.766   3.443   1.176  0.0339  0.0966 -0.6760
 3071SOL    HW119252   2.815   3.419   1.092  1.2945  0.3262 -0.0055
 3071SOL    HW219253   2.671   3.468   1.153  0.4796  0.5426 -2.0692
 3072SOL     OW19254   1.345   2.168   1.119 -0.1045  0.0051  0.5667
 3072SOL    HW119255   1.435   2.137   1.089 -0.9442 -0.3590 -1.6624
 3072SOL    HW219256   1.286   2.181   1.039 -1.7669  1.0813  1.9365
 3073SOL     OW19257   1.761   4.086   2.810 -0.6417 -0.4261  0.1566
 3073SOL    HW119258   1.831   4.153   2.835 -0.7677  0.3184 -1.3920
 3073SOL    HW219259   1.723   4.045   2.893  1.6656 -0.8992  1.0247
 3074SOL     OW19260   1.694   5.111   0.446  0.4854 -0.7720 -0.1976
 3074SOL    HW119261   1.748   5.065   0.376  1.3465 -0.9664  0.5844
 3074SOL    HW219262   1.729   5.204   0.460 -1.2358  0.1608 -1.7612
 3075SOL     OW19263   3.006   9.607   2.075 -0.4835  0.0564  0.1263
 3075SOL    HW119264   3.095   9.651   2.064 -0.1671 -0.0758  1.9763
 3075SOL    HW219265   2.938   9.654   2.019  0.0334  2.3445  1.3416
 3076SOL     OW19266   2.379   9.616   1.528 -0.1857  0.4368 -0.0826
 3076SOL    HW119267   2.441   9.670   1.471 -0.6644 -0.8579 -1.8887
 3076SOL    HW219268   2.326   9.554   1.470 -2.1329  0.4732  1.5819
 3077SOL     OW19269   0.381   3.805   1.906 -0.0968 -0.5873 -0.5793
 3077SOL    HW119270   0.327   3.770   1.829 -0.9775  0.6189 -0.5163
 3077SOL    HW219271   0.462   3.852   1.871 -1.7062  2.0363 -0.9030
 3078SOL     OW19272   3.247   4.960   1.134 -0.2992 -0.0576  0.2538
 3078SOL    HW119273   3.181   4.920   1.198 -0.3524 -0.4728 -0.0537
 3078SOL    HW219274   3.200   5.024   1.074 -0.6396 -1.1406 -0.6584
 3079SOL     OW19275   3.536   7.951   2.114 -0.5769 -0.1509  0.5949
 3079SOL    HW119276   3.458   7.927   2.171 -0.4961  0.6327  1.0314
 3079SOL    HW219277   3.616   7.898   2.143 -0.8393 -0.6554  0.4084
 3080SOL     OW19278   3.176   3.587   2.004 -0.2337  0.1517  0.6813
 3080SOL    HW119279   3.167   3.661   2.069 -1.8365  0.5643  0.0313
 3080SOL    HW219280   3.086   3.547   1.986  0.0844  0.3759 -1.6380
 3081SOL     OW19281   0.555   5.061   2.548  0.1737  0.2915  0.6368
 3081SOL    HW119282   0.641   5.013   2.567 -0.1675  0.4637  2.7772
 3081SOL    HW219283   0.568   5.123   2.470  1.9861  0.2916  0.9123
 3082SOL     OW19284   3.310   7.489   1.456 -0.1508 -1.0123  0.2207
 3082SOL    HW119285   3.298   7.486   1.357 -0.9344 -0.1449  0.2810
 3082SOL    HW219286   3.230   7.530   1.498  1.1713  0.8670  1.0094
 3083SOL     OW19287   9.152   1.094   2.749 -0.0788 -0.2352 -0.4620
 3083SOL    HW119288   9.235   1.098   2.693  0.7778 -1.1382  0.7063
 3083SOL    HW219289   9.136   1.183   2.791  1.5183 -0.5884  0.9802
 3084SOL     OW19290   3.256   4.436   2.586 -0.0030 -0.1579  0.8945
 3084SOL    HW119291   3.326   4.503   2.561  0.2570 -0.8272 -0.2063
 3084SOL    HW219292   3.185   4.434   2.515  0.5217 -1.7669  0.3827
 3085SOL     OW19293   3.222   3.226   1.760 -0.6106  0.1369 -0.7343
 3085SOL    HW119294   3.154   3.293   1.731  0.6211  2.0091  0.6400
 3085SOL    HW219295   3.213   3.211   1.859  0.3557 -0.3365 -0.7143
 3086SOL     OW19296   8.854   4.505   0.061 -0.5372  0.4995 -0.5122
 3086SOL    HW119297   8.945   4.470   0.041 -1.1311 -0.7621 -1.0102
 3086SOL    HW219298   8.785   4.448   0.017 -1.6276  0.7974  0.7746
 3087SOL     OW19299   9.045   3.556   0.182  0.3411 -0.1153 -0.5365
 3087SOL    HW119300   9.114   3.504   0.133  2.5482  2.0073  0.2048
 3087SOL    HW219301   8.982   3.598   0.117  3.0768  2.4602 -1.6062
 3088SOL     OW19302   2.480   3.317   1.439  0.4753  0.6066 -0.2207
 3088SOL    HW119303   2.569   3.276   1.458  0.1703 -0.0407 -0.1701
 3088SOL    HW219304   2.421   3.249   1.393 -0.4772  0.5508  1.0548
 3089SOL     OW19305   4.792   2.818   1.020  0.4318  0.5005  0.1252
 3089SOL    HW119306   4.887   2.805   1.046  1.0184  1.7369 -1.3725
 3089SOL    HW219307   4.786   2.875   0.939 -1.5742  0.1302 -0.0318
 3090SOL     OW19308   1.199   8.147   1.410 -0.1121 -0.2136 -0.4666
 3090SOL    HW119309   1.189   8.178   1.315 -2.0575  1.5965  0.3026
 3090SOL    HW219310   1.173   8.221   1.472  0.0643 -1.7574  1.4840
 3091SOL     OW19311   1.492   7.400   0.655 -0.1284 -0.1567  0.1099
 3091SOL    HW119312   1.491   7.357   0.565  0.5290 -1.5320  0.7443
 3091SOL    HW219313   1.409   7.376   0.705 -0.6605  0.8941 -0.2442
 3092SOL     OW19314   1.158   3.070   2.530 -0.2319 -0.1728  0.5686
 3092SOL    HW119315   1.248   3.026   2.518 -0.6039 -0.5343 -1.0295
 3092SOL    HW219316   1.088   3.013   2.487 -0.7640  1.8618 -1.3342
 3093SOL     OW19317   9.978   2.331   1.002 -0.2309  0.5552  0.5030
 3093SOL    HW119318   9.922   2.279   1.067 -1.2906  0.5571 -0.3816
 3093SOL    HW219319  10.024   2.268   0.940 -3.3162  0.6490 -2.0441
 3094SOL     OW19320   1.376   1.968   1.623 -0.2914  0.2125 -0.6092
 3094SOL    HW119321   1.365   2.026   1.542 -0.5194 -0.0760 -0.7816
 3094SOL    HW219322   1.473   1.968   1.650 -0.1802  0.1403 -1.0030
 3095SOL     OW19323   1.155   4.333   0.962  0.6366 -0.6382 -0.0313
 3095SOL    HW119324   1.163   4.254   1.023  1.3324 -1.0261 -0.6126
 3095SOL    HW219325   1.234   4.393   0.976 -0.7580  0.8652  1.6664
 3096SOL     OW19326   0.857   3.031   1.294  0.1606 -0.4583 -0.6187
 3096SOL    HW119327   0.913   2.949   1.305 -1.6958 -1.5790  0.8680
 3096SOL    HW219328   0.816   3.055   1.382  0.4651  1.9205 -1.1081
 3097SOL     OW19329   4.228   1.508   2.736 -0.3241 -0.1219  0.5115
 3097SOL    HW119330   4.198   1.500   2.831 -1.0661  1.3811  0.4102
 3097SOL    HW219331   4.207   1.599   2.702  0.4820 -0.4620 -0.9182
 3098SOL     OW19332   1.843   6.758   0.016  0.1466 -0.7062  0.0293
 3098SOL    HW119333   1.784   6.786  -0.060 -1.2145 -1.3738  0.8186
 3098SOL    HW219334   1.931   6.804   0.009  0.5984 -1.9046 -2.8217
 3099SOL     OW19335   3.836   0.884   2.759  0.3165  0.5359  0.6701
 3099SOL    HW119336   3.867   0.827   2.835  1.8517  0.9103  0.3428
 3099SOL    HW219337   3.753   0.932   2.785 -0.4695 -1.1184  1.2838
 3100SOL     OW19338   2.660   4.498   1.707  0.2018 -0.2347  0.7215
 3100SOL    HW119339   2.666   4.438   1.628  1.3816  0.1779  0.4898
 3100SOL    HW219340   2.566   4.499   1.742  0.3353 -2.8389  1.2345
 3101SOL     OW19341   3.390   8.076   1.414  0.2968 -0.1433  0.2447
 3101SOL    HW119342   3.310   8.024   1.445  0.6800 -0.5511  0.5510
 3101SOL    HW219343   3.360   8.148   1.352 -0.2704 -0.5413  0.0488
 3102SOL     OW19344   0.479   3.347   1.682 -0.4559 -0.5083  0.4377
 3102SOL    HW119345   0.399   3.403   1.702 -0.1762 -0.1297  0.5094
 3102SOL    HW219346   0.453   3.272   1.622 -0.2600  1.4112 -2.1398
 3103SOL     OW19347   1.275   8.361   0.455 -0.8103 -0.0118 -0.3067
 3103SOL    HW119348   1.210   8.437   0.459 -2.8523 -1.6898 -0.1358
 3103SOL    HW219349   1.293   8.328   0.548 -0.2345  0.0304 -0.4066
 3104SOL     OW19350   2.684   9.672   1.550 -0.0758 -0.4361 -0.2414
 3104SOL    HW119351   2.773   9.633   1.525  0.1585 -0.6252  0.8578
 3104SOL    HW219352   2.684   9.770   1.530  1.5790  0.2612  2.7520
 3105SOL     OW19353   3.820   9.307   1.204 -0.5954 -0.3508 -0.4055
 3105SOL    HW119354   3.853   9.273   1.116  0.5817  0.3332 -0.2317
 3105SOL    HW219355   3.768   9.234   1.250 -2.1262 -0.3535 -2.1269
 3106SOL     OW19356   8.706   1.910   1.609 -0.0081 -0.0416  0.2732
 3106SOL    HW119357   8.795   1.873   1.581  0.8395  1.5835  0.7431
 3106SOL    HW219358   8.687   1.993   1.557 -0.0937  0.9955  1.9298
 3107SOL     OW19359   3.977   3.264   2.018 -0.5821 -0.3044  0.3837
 3107SOL    HW119360   3.920   3.185   1.997  1.0458 -1.0399 -1.4541
 3107SOL    HW219361   4.007   3.259   2.113  0.4962 -2.5829 -0.0311
 3108SOL     OW19362   1.571   9.999   0.628 -0.2675 -0.6333  0.7744
 3108SOL    HW119363   1.613   9.927   0.683  1.5225 -3.1904 -3.5921
 3108SOL    HW219364   1.637  10.073   0.614  0.1800 -1.1500  0.0925
 3109SOL     OW19365   2.491   2.406   0.798  0.4115  0.1284  0.0276
 3109SOL    HW119366   2.532   2.332   0.852 -1.1267  0.5321  1.8154
 3109SOL    HW219367   2.508   2.494   0.844 -0.3630  0.5540 -0.4963
 3110SOL     OW19368   3.862   1.259   0.182  0.4226 -0.4186  0.3775
 3110SOL    HW119369   3.810   1.275   0.098 -1.2627  2.4109  1.8669
 3110SOL    HW219370   3.854   1.164   0.209  0.7388 -1.3186 -2.4647
 3111SOL     OW19371   3.793   3.982   0.177  0.6786 -0.7458  0.1045
 3111SOL    HW119372   3.731   3.913   0.140  0.5897 -1.8257  2.1582
 3111SOL    HW219373   3.831   4.037   0.103 -1.7859 -0.8625 -1.2891
 3112SOL     OW19374   1.115   6.721   2.552  0.2912 -0.0065 -0.4356
 3112SOL    HW119375   1.145   6.771   2.632  2.6280  0.4298 -1.5481
 3112SOL    HW219376   1.019   6.741   2.534  0.6739  2.5865  0.2539
 3113SOL     OW19377   2.690   1.300   2.072 -0.1438  0.0214 -0.3633
 3113SOL    HW119378   2.659   1.213   2.035 -0.6776 -0.1188  0.3954
 3113SOL    HW219379   2.613   1.363   2.080  0.0837  0.2770 -0.1295
 3114SOL     OW19380   0.702   2.387   0.336  0.1920  0.7228  0.4644
 3114SOL    HW119381   0.719   2.300   0.383  1.3216  1.2819  1.1013
 3114SOL    HW219382   0.747   2.388   0.247 -1.3795 -0.0700 -0.3499
 3115SOL     OW19383   0.043   4.367   0.548 -0.4829 -0.4177  0.1136
 3115SOL    HW119384   0.060   4.272   0.526 -0.9493 -0.3505 -0.5670
 3115SOL    HW219385   0.107   4.426   0.497  0.1108 -0.3904  0.8877
 3116SOL     OW19386   3.631   1.201   2.473 -0.1044  0.3287 -0.5329
 3116SOL    HW119387   3.570   1.133   2.433  0.2505 -0.3567  0.0841
 3116SOL    HW219388   3.577   1.268   2.524 -0.3431 -0.2666 -0.0009
 3117SOL     OW19389   1.688   2.771   0.625 -0.5382 -0.3636 -0.0464
 3117SOL    HW119390   1.720   2.837   0.557  0.1321  0.8319  1.3911
 3117SOL    HW219391   1.765   2.714   0.655  0.1552  1.7735  2.5871
 3118SOL     OW19392   0.101   1.629   0.899  0.4805  0.4748  0.4422
 3118SOL    HW119393   0.147   1.541   0.909  0.8767  0.6261  0.0100
 3118SOL    HW219394   0.093   1.673   0.988 -0.9013 -0.5772  0.8553
 3119SOL     OW19395   9.468   4.881   0.027  0.4529  0.1494 -0.0007
 3119SOL    HW119396   9.448   4.900  -0.070 -0.0706  1.4726  0.3598
 3119SOL    HW219397   9.520   4.796   0.034  1.5728  0.6949 -1.5434
 3120SOL     OW19398   0.471   3.233   1.040  0.4175 -0.3179 -1.0161
 3120SOL    HW119399   0.403   3.237   1.114  0.9373  1.4537 -0.6031
 3120SOL    HW219400   0.528   3.153   1.051 -1.3924 -1.6665 -1.1755
 3121SOL     OW19401   3.880   0.774   1.036 -0.0150  0.4565 -0.2094
 3121SOL    HW119402   3.804   0.726   0.992  1.2416 -2.4925  0.7276
 3121SOL    HW219403   3.962   0.767   0.978  0.6871 -0.2503  0.8569
 3122SOL     OW19404   0.444   1.680   0.566  0.4458 -0.0745 -0.1418
 3122SOL    HW119405   0.374   1.616   0.598  1.2050 -1.1170 -0.5775
 3122SOL    HW219406   0.491   1.719   0.645  0.7922 -0.9532  0.0877
 3123SOL     OW19407   1.107   2.240   1.686 -0.3965  0.2857 -0.7843
 3123SOL    HW119408   1.044   2.198   1.621 -1.3335  0.2919  0.1157
 3123SOL    HW219409   1.152   2.168   1.739 -1.8021  0.3809  0.5713
 3124SOL     OW19410   1.990   3.147   1.456  0.4004 -0.0390  0.2203
 3124SOL    HW119411   2.024   3.150   1.363 -0.0157 -1.3523  0.0130
 3124SOL    HW219412   2.067   3.141   1.520  0.6541 -0.0585 -0.0866
 3125SOL     OW19413   3.161   8.288   0.068 -0.5058  1.0591 -0.3225
 3125SOL    HW119414   3.078   8.272   0.014 -1.0626  0.4836  0.6803
 3125SOL    HW219415   3.160   8.382   0.103 -0.9552  0.9176  0.0513
 3126SOL     OW19416   0.488   3.668   1.285  0.4332 -0.0760  0.6361
 3126SOL    HW119417   0.480   3.572   1.311 -0.3971 -0.2423 -0.2000
 3126SOL    HW219418   0.572   3.682   1.233 -1.1890 -1.1094 -2.4057
 3127SOL     OW19419   4.255   2.520   2.020  0.1821  0.3385 -0.2669
 3127SOL    HW119420   4.156   2.533   2.015  0.2257  0.7344 -0.1246
 3127SOL    HW219421   4.295   2.539   1.930  0.2518  1.2428 -0.0453
 3128SOL     OW19422   1.102   9.590   0.929 -0.1531  0.5234  0.3508
 3128SOL    HW119423   1.114   9.684   0.898  0.2333  1.0520  2.0739
 3128SOL    HW219424   1.089   9.588   1.028 -1.6976 -1.1159  0.1440
 3129SOL     OW19425   0.045   1.006   0.961 -0.1380  0.2505  0.3877
 3129SOL    HW119426   0.116   0.937   0.974  0.7965  1.0419 -0.4553
 3129SOL    HW219427   0.025   1.050   1.048  1.5158  1.0774  0.3842
 3130SOL     OW19428   8.502   3.255   0.028  0.0101 -0.4488  0.5789
 3130SOL    HW119429   8.591   3.215   0.006  0.7912  1.2119  0.6522
 3130SOL    HW219430   8.486   3.249   0.126  0.4673  0.1425  0.6841
 3131SOL     OW19431   0.317   4.849   1.145  0.3222 -0.7007  0.1057
 3131SOL    HW119432   0.339   4.752   1.143  0.6860 -0.6320  0.8240
 3131SOL    HW219433   0.361   4.894   1.067  0.9376 -0.9471  0.3073
 3132SOL     OW19434   8.615   3.376   1.690 -0.2591  0.1410  0.2098
 3132SOL    HW119435   8.672   3.294   1.687  0.8882  0.8257  2.0133
 3132SOL    HW219436   8.643   3.439   1.618  1.0834  0.3443  0.8976
 3133SOL     OW19437   1.917   7.242   1.217  0.3538  0.2393 -0.6321
 3133SOL    HW119438   1.949   7.283   1.303 -0.2300  0.5927 -0.5841
 3133SOL    HW219439   1.894   7.146   1.233  1.7042 -0.1079 -0.7409
 3134SOL     OW19440   2.152   0.862   1.413  0.0591 -0.0647 -0.0664
 3134SOL    HW119441   2.238   0.906   1.441  1.0980 -1.9874 -0.1961
 3134SOL    HW219442   2.109   0.917   1.341  2.1222 -0.0617 -1.3381
 3135SOL     OW19443   8.516   0.926   0.320 -0.1887  0.0465 -0.0869
 3135SOL    HW119444   8.602   0.898   0.362 -0.3154 -2.0851 -1.1686
 3135SOL    HW219445   8.535   0.977   0.236  0.0293 -0.3216 -0.2623
 3136SOL     OW19446   1.095   7.905   0.515  0.5159  0.4619  0.2391
 3136SOL    HW119447   1.100   7.997   0.476 -0.4234 -0.3955 -1.9694
 3136SOL    HW219448   1.018   7.901   0.580 -0.5242  0.7879 -0.9512
 3137SOL     OW19449   2.650   5.352   0.334  0.1438 -0.0163 -0.1665
 3137SOL    HW119450   2.581   5.295   0.378  1.5725 -2.1167 -0.5309
 3137SOL    HW219451   2.740   5.309   0.345  1.5311  3.0604  1.0246
 3138SOL     OW19452   2.459   9.429   2.590  0.6744 -0.2658  0.3056
 3138SOL    HW119453   2.500   9.519   2.604  0.2956  0.1133 -0.9082
 3138SOL    HW219454   2.479   9.398   2.497 -0.9929 -0.4770  0.0046
 3139SOL     OW19455   7.944   1.850   1.950  0.1917  0.1501 -0.0900
 3139SOL    HW119456   8.036   1.889   1.954 -0.0327  0.6203  0.4850
 3139SOL    HW219457   7.915   1.842   1.855  1.1121 -0.6601 -0.3147
 3140SOL     OW19458   3.561   1.688   2.139  0.0489 -0.1453 -0.1435
 3140SOL    HW119459   3.509   1.609   2.104  1.8446 -1.1920 -0.5436
 3140SOL    HW219460   3.612   1.660   2.220  3.4228 -0.4402 -2.2472
 3141SOL     OW19461   1.800   0.611   0.124  0.1597 -0.5561  0.0291
 3141SOL    HW119462   1.754   0.528   0.092 -1.2250 -0.3744  1.4888
 3141SOL    HW219463   1.758   0.691   0.081 -0.6562 -0.4162  1.0583
 3142SOL     OW19464   3.688   4.142   0.660  0.2806 -0.0947  0.3687
 3142SOL    HW119465   3.673   4.089   0.576  0.7928 -2.1489  1.5468
 3142SOL    HW219466   3.774   4.193   0.652  1.7746 -2.4500  0.6783
 3143SOL     OW19467   3.456   4.340   2.363  0.3826  0.2254 -0.9936
 3143SOL    HW119468   3.408   4.339   2.276 -2.0954  1.7579  0.2757
 3143SOL    HW219469   3.450   4.250   2.406 -3.3121  0.8778  0.0689
 3144SOL     OW19470   0.149   3.900   2.196  0.1027  0.6443 -0.7938
 3144SOL    HW119471   0.111   3.905   2.289 -0.1103  2.2379 -0.9426
 3144SOL    HW219472   0.236   3.950   2.193  1.4803 -1.7195 -0.8225
 3145SOL     OW19473   2.954   4.033   1.017 -0.4315 -0.3010 -0.1905
 3145SOL    HW119474   2.880   3.966   1.012  0.8084 -1.6567 -0.8911
 3145SOL    HW219475   2.975   4.066   0.925  0.0722 -0.1995 -0.0378
 3146SOL     OW19476   1.837   9.653   0.442 -0.4377 -0.5002  0.2243
 3146SOL    HW119477   1.896   9.597   0.384 -0.3009 -1.4956  1.2924
 3146SOL    HW219478   1.780   9.592   0.499 -0.6342  0.4455  1.0501
 3147SOL     OW19479   9.082   1.865   2.009 -0.1279 -0.1159  0.5310
 3147SOL    HW119480   9.061   1.773   2.043  2.0091 -1.1278 -0.7457
 3147SOL    HW219481   9.073   1.866   1.910  0.1531  0.9904  0.5156
 3148SOL     OW19482   1.564   4.450   1.226 -0.2140  0.0637  0.3652
 3148SOL    HW119483   1.558   4.548   1.242 -1.6276 -0.0814  0.7659
 3148SOL    HW219484   1.578   4.403   1.314  4.3529  0.1487 -0.1749
 3149SOL     OW19485   2.909   2.817   2.787  0.2157 -0.1752  0.4494
 3149SOL    HW119486   2.920   2.800   2.885  0.3225  0.3372  0.5269
 3149SOL    HW219487   2.951   2.743   2.736  1.9468  0.5699  0.7691
 3150SOL     OW19488   2.139   6.908   1.417  0.0934  0.2844 -0.1877
 3150SOL    HW119489   2.221   6.908   1.475 -0.0531  0.2527  0.0213
 3150SOL    HW219490   2.076   6.837   1.450  0.0536  0.2009 -0.4472
 3151SOL     OW19491   0.700   6.995   2.241  0.0129  0.0695 -0.9406
 3151SOL    HW119492   0.657   6.907   2.260 -1.8838  1.1347 -0.0428
 3151SOL    HW219493   0.738   7.032   2.326  0.4528  0.2925 -1.2325
 3152SOL     OW19494   0.546   5.295   0.493 -0.1093  0.3116 -0.7271
 3152SOL    HW119495   0.596   5.209   0.480  0.6868  0.6928 -0.2239
 3152SOL    HW219496   0.607   5.363   0.533 -1.4867  0.2856  1.4984
 3153SOL     OW19497   2.706   4.490   0.777  0.4929 -0.4567  0.1973
 3153SOL    HW119498   2.616   4.477   0.735 -0.0820  0.8430  0.9763
 3153SOL    HW219499   2.734   4.406   0.824 -0.3647 -0.8422  0.0282
 3154SOL     OW19500   9.465   4.336   1.799  0.4529 -0.0094 -0.2294
 3154SOL    HW119501   9.495   4.285   1.718  0.6931 -1.2301  0.6125
 3154SOL    HW219502   9.512   4.301   1.880  0.7782  1.7172  0.3422
 3155SOL     OW19503   2.627   6.110   2.536 -0.3397 -0.7044 -0.4326
 3155SOL    HW119504   2.599   6.120   2.632 -0.1218 -0.5902 -0.3797
 3155SOL    HW219505   2.550   6.135   2.477 -0.3855 -0.4954 -0.2890
 3156SOL     OW19506   2.132   3.505   0.571  0.6066 -0.2095  0.5409
 3156SOL    HW119507   2.158   3.425   0.626  0.7874 -1.4842 -1.3473
 3156SOL    HW219508   2.033   3.515   0.572  0.6880  0.7019  2.3228
 3157SOL     OW19509   8.273   1.844   1.806  0.4793  0.0800 -0.2189
 3157SOL    HW119510   8.356   1.877   1.851  1.2355  0.5156 -1.9216
 3157SOL    HW219511   8.236   1.915   1.746 -1.1991 -0.0715  0.5836
 3158SOL     OW19512   3.039   1.951   0.063 -0.5128  0.3211  0.4208
 3158SOL    HW119513   3.130   1.909   0.063  0.8786  3.1744 -0.7181
 3158SOL    HW219514   2.980   1.901  -0.000  0.6433 -0.8044  0.2062
 3159SOL     OW19515   1.049   5.028   0.633 -0.3743  0.2170  0.1686
 3159SOL    HW119516   0.976   4.999   0.695 -0.8637  1.0825  0.0028
 3159SOL    HW219517   1.011   5.047   0.543 -0.2219  2.3677  0.5480
 3160SOL     OW19518   2.932   5.429   2.423  0.1733 -0.6521 -0.1651
 3160SOL    HW119519   3.012   5.384   2.384  0.8470  0.6484 -0.3320
 3160SOL    HW219520   2.932   5.419   2.523  2.5395  2.4062  0.2133
 3161SOL     OW19521   1.753   6.355   0.900  0.2581 -0.4008 -0.0259
 3161SOL    HW119522   1.723   6.380   0.992 -0.3292  3.1574 -1.1105
 3161SOL    HW219523   1.765   6.256   0.895 -3.5632 -1.1085  2.7201
 3162SOL     OW19524   3.090   0.762   0.366  0.7636 -0.2404 -0.1245
 3162SOL    HW119525   3.182   0.795   0.344  0.1786  0.9935 -0.7897
 3162SOL    HW219526   3.028   0.784   0.290 -0.4025  0.3506  0.9828
 3163SOL     OW19527   2.798   0.202   2.137 -0.4043 -0.0804 -0.3053
 3163SOL    HW119528   2.810   0.244   2.047  1.4073  1.3011  0.5574
 3163SOL    HW219529   2.793   0.273   2.207  3.7627 -1.2483  1.3184
 3164SOL     OW19530   9.318   1.423   1.046 -0.0655  0.0047 -0.2585
 3164SOL    HW119531   9.362   1.504   1.085 -0.4134  0.2745 -0.4293
 3164SOL    HW219532   9.352   1.342   1.093 -0.2819  0.3092  0.4247
 3165SOL     OW19533   1.623   5.695   0.379 -0.3543  0.2850 -0.1801
 3165SOL    HW119534   1.559   5.772   0.368  1.2985  1.3637 -2.9291
 3165SOL    HW219535   1.699   5.723   0.438  0.3032  0.8190 -1.2688
 3166SOL     OW19536   8.982   2.336   1.938  0.0161 -0.0026  0.2514
 3166SOL    HW119537   8.971   2.241   1.969 -1.4044  0.2489  0.5328
 3166SOL    HW219538   8.936   2.347   1.850 -1.9780  1.0485  1.4061
 3167SOL     OW19539   1.710   5.985   2.607 -0.6791 -0.0142  0.3219
 3167SOL    HW119540   1.782   6.048   2.576 -0.3160  0.2444  1.6088
 3167SOL    HW219541   1.741   5.891   2.596 -0.3503  0.0876  0.3606
 3168SOL     OW19542   4.333   3.952   1.112  0.5613  0.0731 -0.0514
 3168SOL    HW119543   4.249   3.903   1.087  1.5772 -1.4721 -0.5032
 3168SOL    HW219544   4.352   4.022   1.044 -1.5829  1.9730  1.2541
 3169SOL     OW19545   2.240   4.986   1.302 -0.2322 -0.0262  0.0966
 3169SOL    HW119546   2.268   5.047   1.376 -0.7348  4.0768 -2.9050
 3169SOL    HW219547   2.140   4.985   1.297 -0.2105 -0.7003 -0.1906
 3170SOL     OW19548   2.672   3.769   0.256  0.4962  0.1065  0.6500
 3170SOL    HW119549   2.702   3.765   0.351  1.2668 -1.7684  0.3494
 3170SOL    HW219550   2.750   3.796   0.198 -0.4073  3.0468  0.7167
 3171SOL     OW19551   8.255   1.263   1.377  0.4844 -0.0252  0.0107
 3171SOL    HW119552   8.317   1.257   1.299 -1.0604 -0.6476 -1.1929
 3171SOL    HW219553   8.229   1.172   1.407 -0.4893  0.2395 -0.0114
 3172SOL     OW19554   1.579   6.413   1.264 -0.3453 -0.3780 -0.0026
 3172SOL    HW119555   1.582   6.462   1.350  1.8186 -0.4295 -0.0109
 3172SOL    HW219556   1.517   6.459   1.200  0.9831  1.8381  0.2887
 3173SOL     OW19557   0.731   3.312   0.952  0.3880 -0.7874 -0.4022
 3173SOL    HW119558   0.740   3.388   0.889  0.4431  0.4070  1.0103
 3173SOL    HW219559   0.636   3.301   0.979  0.6527  0.0839  0.9401
 3174SOL     OW19560   3.487   3.966   1.963  0.0097  0.0753 -0.5718
 3174SOL    HW119561   3.548   3.899   2.005  0.1692  2.0537  2.5196
 3174SOL    HW219562   3.534   4.053   1.955 -0.7666  0.2930 -2.9420
 3175SOL     OW19563   4.016   8.735   2.648  0.2365  0.4880 -0.0611
 3175SOL    HW119564   3.960   8.699   2.722  2.8797  0.5341  2.0793
 3175SOL    HW219565   3.992   8.691   2.562 -1.3557 -1.2245  1.2336
 3176SOL     OW19566   1.862   8.187   2.680 -0.0548 -0.7712  0.1421
 3176SOL    HW119567   1.788   8.126   2.654  0.5133 -1.0351 -0.8697
 3176SOL    HW219568   1.838   8.281   2.655 -0.0382 -0.8577 -0.1972
 3177SOL     OW19569   0.038   0.001   0.248 -0.1059  0.0736 -0.2396
 3177SOL    HW119570   0.122   0.020   0.298 -0.1872 -0.0932 -0.0370
 3177SOL    HW219571  -0.012  -0.073   0.294  0.0878 -0.4529 -0.8741
 3178SOL     OW19572   3.672   1.442   0.228  0.5988  0.0581  0.0982
 3178SOL    HW119573   3.613   1.402   0.158 -0.4496  0.7387  0.5752
 3178SOL    HW219574   3.757   1.391   0.233 -0.6082 -1.9728  0.5374
 3179SOL     OW19575   9.076   2.131   2.104  0.0838  0.0453 -0.3878
 3179SOL    HW119576   9.106   2.038   2.080  1.5653  0.1755  0.8711
 3179SOL    HW219577   9.149   2.196   2.083 -0.4160  0.7424  0.0272
 3180SOL     OW19578   8.626   3.259   2.000  0.1349  0.0245 -0.3604
 3180SOL    HW119579   8.595   3.337   1.945 -0.0207  1.8195  2.1872
 3180SOL    HW219580   8.547   3.218   2.047  0.4124 -0.8039 -0.6081
 3181SOL     OW19581   8.518   2.182   0.579  0.1623 -0.4890  0.0143
 3181SOL    HW119582   8.539   2.176   0.677  1.3102  1.0306 -0.1313
 3181SOL    HW219583   8.443   2.246   0.566 -0.6149 -1.3909 -0.0328
 3182SOL     OW19584   3.280   3.790   0.817 -0.6499  0.6361 -0.4091
 3182SOL    HW119585   3.299   3.748   0.906 -0.1768  3.3669  0.8253
 3182SOL    HW219586   3.345   3.865   0.801 -0.1877 -0.3310 -3.4480
 3183SOL     OW19587   1.089   7.688   0.708  0.1217 -0.2801  0.0284
 3183SOL    HW119588   1.096   7.591   0.687 -1.3588 -0.3905 -0.0141
 3183SOL    HW219589   1.111   7.742   0.627  0.2282 -0.6021 -0.1548
 3184SOL     OW19590   8.283   1.287   0.227 -0.1549 -0.4512  0.4482
 3184SOL    HW119591   8.186   1.261   0.227 -0.5280  0.8709 -0.2030
 3184SOL    HW219592   8.290   1.387   0.228  1.1948 -0.5267 -0.7333
 3185SOL     OW19593   2.928   1.113   1.759  0.3532 -0.3364 -0.6706
 3185SOL    HW119594   3.022   1.081   1.744  0.9354  0.1784  1.6806
 3185SOL    HW219595   2.877   1.045   1.810 -0.1691 -0.0723 -0.8409
 3186SOL     OW19596   2.708   6.222   2.105  0.1175  0.3402  0.6003
 3186SOL    HW119597   2.616   6.182   2.114  0.6899 -0.9432  0.8660
 3186SOL    HW219598   2.749   6.191   2.020  0.6950  0.1193  0.9608
 3187SOL     OW19599   1.593   7.375   1.623 -0.4235 -0.0226  0.4423
 3187SOL    HW119600   1.613   7.467   1.654 -3.1372  0.5599  0.6177
 3187SOL    HW219601   1.495   7.356   1.634 -0.0767 -2.6070 -0.4021
 3188SOL     OW19602   4.174   0.794   0.659 -0.0060 -0.1574  0.0893
 3188SOL    HW119603   4.240   0.725   0.627 -0.3703 -0.2998 -0.3695
 3188SOL    HW219604   4.143   0.770   0.751 -2.1084 -2.0763 -1.0636
 3189SOL     OW19605   3.158   2.449   1.239  0.3464  0.1734 -0.1207
 3189SOL    HW119606   3.117   2.459   1.149  0.8158 -0.5101 -0.4133
 3189SOL    HW219607   3.167   2.539   1.282 -2.6518  0.2335  0.4996
 3190SOL     OW19608   0.944   5.116   1.121  0.2240 -0.0594  0.3703
 3190SOL    HW119609   0.896   5.194   1.082  0.0937  0.1163  0.8782
 3190SOL    HW219610   1.033   5.146   1.156 -0.1940  0.0439  1.3668
 3191SOL     OW19611   0.901   1.460   0.617  0.1409  0.0811 -0.3361
 3191SOL    HW119612   0.856   1.447   0.705  2.2966 -1.3836  0.5547
 3191SOL    HW219613   0.831   1.467   0.545 -1.6567  1.8845  1.5161
 3192SOL     OW19614   1.745   1.476   0.804  0.6180  0.4717 -0.1307
 3192SOL    HW119615   1.661   1.530   0.796 -0.1131 -0.5467  0.5096
 3192SOL    HW219616   1.768   1.464   0.900  1.0511  0.0798 -0.2829
 3193SOL     OW19617   3.984   7.742   2.163  0.2677 -0.1111 -0.2918
 3193SOL    HW119618   3.907   7.681   2.183 -0.6582  1.1100 -0.0616
 3193SOL    HW219619   3.960   7.801   2.085  1.1300  0.0011 -0.4779
 3194SOL     OW19620   2.972   2.160   0.634 -0.1452  0.3673  0.0460
 3194SOL    HW119621   3.051   2.132   0.689 -0.2656 -0.2635 -0.1054
 3194SOL    HW219622   3.002   2.226   0.565  0.0516  0.9734  0.6972
 3195SOL     OW19623   1.923   7.688   1.328  0.7520 -0.6156  0.5391
 3195SOL    HW119624   1.901   7.760   1.393 -1.1882  0.2912 -1.0757
 3195SOL    HW219625   2.006   7.712   1.278 -0.7874  1.3440 -1.1574
 3196SOL     OW19626   1.904   8.988   1.712  0.0718 -0.0580 -0.1849
 3196SOL    HW119627   1.918   8.896   1.748 -1.3960  0.3438  1.4962
 3196SOL    HW219628   1.811   8.996   1.677  0.6660  0.3487 -1.6941
 3197SOL     OW19629   1.093   4.998   2.146 -0.7102 -0.2095  0.2803
 3197SOL    HW119630   1.032   5.025   2.221  0.5455 -0.0230  1.2600
 3197SOL    HW219631   1.183   5.039   2.161 -0.2874 -0.6549 -1.0332
 3198SOL     OW19632   1.917   7.313   0.217 -0.6346 -0.4545 -0.1789
 3198SOL    HW119633   1.910   7.375   0.139 -0.1686 -0.9266 -0.6051
 3198SOL    HW219634   1.866   7.229   0.198  0.9440 -1.3163 -0.7313
 3199SOL     OW19635   8.725   1.884   0.522 -0.6160  0.1506  0.3043
 3199SOL    HW119636   8.659   1.906   0.594  0.2849  0.9567  0.9010
 3199SOL    HW219637   8.726   1.958   0.454  1.3142  1.2847  1.5083
 3200SOL     OW19638   0.834   6.210   2.105 -0.1276 -0.2477 -1.1067
 3200SOL    HW119639   0.896   6.141   2.142 -0.1735  0.4646  0.3197
 3200SOL    HW219640   0.886   6.278   2.054  0.2061  0.0651 -0.3494
 3201SOL     OW19641   8.753   2.863   2.367  0.3800 -0.3866  0.3191
 3201SOL    HW119642   8.813   2.868   2.447  0.2432 -1.5273  0.4942
 3201SOL    HW219643   8.803   2.823   2.291  0.0325 -0.7508  0.2826
 3202SOL     OW19644   0.545   9.447   0.220 -0.2108 -0.1441  0.4889
 3202SOL    HW119645   0.493   9.464   0.137  0.1679  1.8934  0.6438
 3202SOL    HW219646   0.566   9.534   0.265  3.3128 -0.8732  0.4151
 3203SOL     OW19647   1.794   8.395   1.728  0.2220 -0.2862  0.0460
 3203SOL    HW119648   1.697   8.420   1.721 -0.3130 -2.6379 -1.4423
 3203SOL    HW219649   1.835   8.396   1.637  1.5530  0.4059  0.6365
 3204SOL     OW19650   8.858   2.571   0.479 -0.4904  0.0758 -0.4004
 3204SOL    HW119651   8.861   2.481   0.434 -1.5311 -0.2634  0.1703
 3204SOL    HW219652   8.764   2.604   0.479 -0.2933  0.6370  0.4278
 3205SOL     OW19653   0.016   0.782   2.730 -0.2682  0.3679  0.2917
 3205SOL    HW119654   0.042   0.704   2.787  0.8792 -0.0098 -0.7205
 3205SOL    HW219655  -0.078   0.808   2.750 -0.5072 -0.9794  0.9820
 3206SOL     OW19656   2.385   0.651   2.634 -0.0282  0.7033 -0.1517
 3206SOL    HW119657   2.295   0.689   2.655  0.0212  1.3464 -1.0822
 3206SOL    HW219658   2.383   0.552   2.647 -1.1463  0.5871 -1.0684
 3207SOL     OW19659   0.513   4.884   2.793  0.2718 -0.1563  0.4915
 3207SOL    HW119660   0.476   4.846   2.708 -1.7163  0.5990  0.9753
 3207SOL    HW219661   0.519   4.984   2.785 -0.2337 -0.0539  1.3382
 3208SOL     OW19662   0.895   0.426   2.337 -0.1038 -0.1621  0.0565
 3208SOL    HW119663   0.829   0.355   2.311 -1.7056  0.9046  1.1472
 3208SOL    HW219664   0.987   0.395   2.314 -0.8705 -2.1574 -0.4528
 3209SOL     OW19665   2.025   1.305   1.297 -0.4678 -0.2184  0.0228
 3209SOL    HW119666   2.034   1.379   1.363  1.3424 -2.0178  1.8623
 3209SOL    HW219667   1.968   1.233   1.336  0.6373 -1.3142 -0.3768
 3210SOL     OW19668   3.622   4.278   0.328 -0.2384 -0.2300 -0.1006
 3210SOL    HW119669   3.530   4.305   0.299 -0.7756  0.1536  1.9074
 3210SOL    HW219670   3.630   4.179   0.327  0.0620 -0.1998 -2.4495
 3211SOL     OW19671   9.574   4.996   2.439 -0.1988 -0.0877 -0.3119
 3211SOL    HW119672   9.479   5.020   2.419 -0.1329 -0.6870 -1.3525
 3211SOL    HW219673   9.577   4.916   2.498 -0.3248 -0.5192 -0.8921
 3212SOL     OW19674   3.145   0.958   1.675  0.1166 -0.8240  0.2124
 3212SOL    HW119675   3.204   1.039   1.674  0.6985 -1.2535 -0.3211
 3212SOL    HW219676   3.098   0.949   1.587 -0.7465 -0.4920  0.6274
 3213SOL     OW19677   9.576   5.170   1.086 -0.3422 -0.3562 -0.4609
 3213SOL    HW119678   9.644   5.111   1.130  1.0273  1.0427 -0.7056
 3213SOL    HW219679   9.556   5.135   0.995  0.2587 -0.5796 -0.5066
 3214SOL     OW19680   2.456   2.397   1.391 -0.3054 -0.2286  0.3853
 3214SOL    HW119681   2.478   2.458   1.468  1.7707  2.1266 -1.9802
 3214SOL    HW219682   2.537   2.342   1.369 -0.5558 -0.1115 -0.8245
 3215SOL     OW19683   0.374   1.059   1.214 -0.3417  0.1096  0.8109
 3215SOL    HW119684   0.369   1.146   1.164  1.4560  0.9950  2.0828
 3215SOL    HW219685   0.355   0.983   1.152  0.4053  1.2699 -0.8801
 3216SOL     OW19686   1.739   2.716   2.816  0.1901  0.3455 -0.1768
 3216SOL    HW119687   1.722   2.670   2.903  0.5020  1.0970  0.2814
 3216SOL    HW219688   1.682   2.798   2.810 -0.9450 -0.4972 -1.3252
 3217SOL     OW19689   2.823   5.208   1.365  0.1730  0.2154 -0.1620
 3217SOL    HW119690   2.747   5.201   1.300 -0.1696 -0.9394  0.3581
 3217SOL    HW219691   2.908   5.184   1.318 -0.0529 -0.4639 -0.2357
 3218SOL     OW19692   1.078   0.073   0.295  0.5739 -0.3018  0.0454
 3218SOL    HW119693   1.010   0.053   0.366 -0.8009  0.3006 -1.0619
 3218SOL    HW219694   1.164   0.102   0.337  1.2335 -4.2484  1.5825
 3219SOL     OW19695   0.665   5.800   1.698  0.0365  0.7005  0.1470
 3219SOL    HW119696   0.570   5.811   1.728 -0.2993 -1.1092 -0.2217
 3219SOL    HW219697   0.668   5.795   1.598  0.3263 -0.9923  0.2329
 3220SOL     OW19698   2.660   7.114   2.453  0.0561 -0.1278  0.1250
 3220SOL    HW119699   2.599   7.106   2.532 -0.5862  0.6584 -0.2873
 3220SOL    HW219700   2.650   7.033   2.395 -0.3319 -0.1680  0.2468
 3221SOL     OW19701   4.627   3.306   1.059 -0.0393 -0.0783 -0.2290
 3221SOL    HW119702   4.668   3.232   1.112 -2.9716 -2.0646 -0.6237
 3221SOL    HW219703   4.678   3.318   0.973  1.1568 -0.8178  0.3707
 3222SOL     OW19704   3.456   2.607   2.786 -0.3441 -0.2009  0.6962
 3222SOL    HW119705   3.505   2.565   2.863 -1.6463 -0.7186  1.2658
 3222SOL    HW219706   3.369   2.560   2.773  0.5999 -1.1879 -2.1875
 3223SOL     OW19707   0.245   9.586   2.532  0.2472 -0.1521 -0.0792
 3223SOL    HW119708   0.192   9.503   2.514 -0.2798  0.0368  0.5819
 3223SOL    HW219709   0.301   9.573   2.614 -0.9757  0.6679  0.9069
 3224SOL     OW19710   2.185   4.194   0.831 -0.0803  0.3886 -0.0065
 3224SOL    HW119711   2.201   4.145   0.916  1.2738  1.4949  0.3992
 3224SOL    HW219712   2.116   4.266   0.845 -0.2731  0.2011  0.0057
 3225SOL     OW19713   8.316   2.666   1.001  0.2745  0.2375 -0.7075
 3225SOL    HW119714   8.387   2.643   0.933  1.9613 -1.1792  1.4643
 3225SOL    HW219715   8.357   2.719   1.075 -1.4932  1.5136 -0.6200
 3226SOL     OW19716   2.856   8.949   0.878  0.0416  0.6333  0.2773
 3226SOL    HW119717   2.925   8.971   0.947  1.0911  0.1866 -0.6163
 3226SOL    HW219718   2.767   8.940   0.922  0.8344 -0.4473  1.7273
 3227SOL     OW19719   3.214   4.293   0.908 -0.2202  0.5627 -0.0048
 3227SOL    HW119720   3.199   4.391   0.906 -2.4381  0.2448 -0.4316
 3227SOL    HW219721   3.313   4.274   0.913  0.1346  2.8091  3.0113
 3228SOL     OW19722   1.516   9.746   1.995 -0.0331 -0.3037  0.0085
 3228SOL    HW119723   1.512   9.730   2.093  1.0589 -2.6250 -0.2938
 3228SOL    HW219724   1.480   9.667   1.946  1.0526  0.0846 -1.4899
 3229SOL     OW19725   0.330   5.849   2.723  0.6894 -0.0202 -0.2852
 3229SOL    HW119726   0.415   5.862   2.672  0.3359 -1.9329 -1.4124
 3229SOL    HW219727   0.337   5.895   2.812  3.1790 -0.8069 -0.0373
 3230SOL     OW19728   0.785   4.238   2.097 -0.3003 -0.2984  0.5164
 3230SOL    HW119729   0.821   4.210   2.185  0.1283 -1.4149 -0.0051
 3230SOL    HW219730   0.857   4.283   2.044 -0.3938 -0.1629  0.5040
 3231SOL     OW19731   2.343   1.199   1.389  0.0045 -0.2737 -0.2442
 3231SOL    HW119732   2.305   1.240   1.306  1.3027 -0.4642 -0.9471
 3231SOL    HW219733   2.442   1.212   1.390 -0.1631  1.1793  2.0782
 3232SOL     OW19734   9.669   1.292   2.377 -0.2921 -0.2170 -0.3737
 3232SOL    HW119735   9.724   1.325   2.300 -0.0514 -2.3450 -1.1532
 3232SOL    HW219736   9.729   1.250   2.445 -0.6531  0.3562  0.3105
 3233SOL     OW19737   8.270   1.953   0.478 -0.2876 -0.0300 -0.2560
 3233SOL    HW119738   8.364   1.964   0.444 -0.1616  0.8608  0.3685
 3233SOL    HW219739   8.215   2.031   0.450 -0.5788 -0.0527  0.2439
 3234SOL     OW19740   9.958   1.208   0.562 -0.1336  0.2570 -0.3698
 3234SOL    HW119741  10.056   1.205   0.577 -0.2203  0.2025  0.1752
 3234SOL    HW219742   9.931   1.302   0.537 -0.0717  0.4699  0.3554
 3235SOL     OW19743   9.758   0.877   2.543 -0.3649  0.0233 -0.0132
 3235SOL    HW119744   9.679   0.920   2.498 -0.0262 -0.4672 -1.1038
 3235SOL    HW219745   9.725   0.809   2.609 -0.8656 -0.7951 -1.0797
 3236SOL     OW19746   2.121   4.433   1.149  0.3340  0.3385 -0.3632
 3236SOL    HW119747   2.210   4.478   1.158 -0.2480  1.6576 -1.1132
 3236SOL    HW219748   2.108   4.403   1.055 -0.7956  1.8435 -0.7121
 3237SOL     OW19749   0.154   0.386   2.437 -0.2863 -0.1975 -0.3297
 3237SOL    HW119750   0.081   0.367   2.371 -2.3381 -0.4525  1.9863
 3237SOL    HW219751   0.158   0.484   2.455 -0.2602 -0.2245 -0.1911
 3238SOL     OW19752   1.898   3.432   1.277 -0.3224  0.2627  0.8939
 3238SOL    HW119753   1.825   3.421   1.345 -0.2751 -0.2331  0.8690
 3238SOL    HW219754   1.862   3.413   1.186 -0.4294  1.1015  0.7545
 3239SOL     OW19755   2.122   3.607   1.040  0.4895  0.0462 -0.1217
 3239SOL    HW119756   2.213   3.647   1.043  1.0850 -1.3257  0.7169
 3239SOL    HW219757   2.055   3.673   1.074  1.5073  0.1917  1.6532
 3240SOL     OW19758   1.156   6.363   2.373  0.2979 -1.0053 -0.1860
 3240SOL    HW119759   1.163   6.463   2.380 -0.9087 -1.0091  1.3693
 3240SOL    HW219760   1.103   6.328   2.450 -2.1950 -2.5409 -2.5445
 3241SOL     OW19761   0.378   5.996   1.131  0.3452 -0.3088  0.2783
 3241SOL    HW119762   0.345   6.011   1.225  0.7410 -0.2923  0.4153
 3241SOL    HW219763   0.461   5.941   1.133  0.4065 -0.2293 -0.0592
 3242SOL     OW19764   1.119   5.503   2.551 -0.6745  0.0552 -0.3764
 3242SOL    HW119765   1.140   5.598   2.526  0.5618  0.1432  0.9161
 3242SOL    HW219766   1.058   5.503   2.630 -1.1787 -0.2275 -0.7675
 3243SOL     OW19767   1.557   8.313   0.322  0.3123 -0.3847  0.0650
 3243SOL    HW119768   1.501   8.393   0.342  1.6925  0.4687  0.5502
 3243SOL    HW219769   1.520   8.234   0.371  0.3125  0.4524  1.4403
 3244SOL     OW19770   9.746   3.343   2.687 -0.6719 -0.8820  0.2589
 3244SOL    HW119771   9.756   3.294   2.774 -1.3616 -0.8917  0.3365
 3244SOL    HW219772   9.799   3.428   2.691  0.7768 -1.7566  0.0096
 3245SOL     OW19773   4.039   8.707   2.385 -0.5159 -0.0170 -0.1982
 3245SOL    HW119774   4.051   8.806   2.391  1.9701 -0.3518  0.6868
 3245SOL    HW219775   4.124   8.661   2.409 -1.4308 -2.3723 -1.2641
 3246SOL     OW19776   1.542   1.797   1.347  1.1218  0.0075 -0.7299
 3246SOL    HW119777   1.479   1.743   1.402 -0.7947  1.5262 -1.3662
 3246SOL    HW219778   1.508   1.803   1.253  1.3422  2.2025 -0.7034
 3247SOL     OW19779   1.560   6.504   0.489 -0.0294 -0.5783 -0.1145
 3247SOL    HW119780   1.563   6.598   0.521  0.7662 -0.4048 -0.6817
 3247SOL    HW219781   1.637   6.487   0.426  0.4509 -1.9008  0.7953
 3248SOL     OW19782   4.263   0.508   0.646  0.0523 -0.1028  0.0299
 3248SOL    HW119783   4.350   0.465   0.620 -0.1209  0.4277 -1.5386
 3248SOL    HW219784   4.225   0.463   0.726  1.7068 -0.4418  0.6316
 3249SOL     OW19785   3.682   8.816   0.684 -0.7241 -0.4535 -0.2510
 3249SOL    HW119786   3.766   8.782   0.726 -0.6958  1.1192  0.9960
 3249SOL    HW219787   3.701   8.903   0.638 -1.8023  0.2518  0.6207
 3250SOL     OW19788   2.077   2.023   0.079 -0.3224  0.1158  0.3291
 3250SOL    HW119789   2.043   2.117   0.085 -0.2238  0.0780  1.9298
 3250SOL    HW219790   2.004   1.963   0.046 -1.0929  0.4212  1.4307
 3251SOL     OW19791   2.562   3.265   2.388 -0.0386  0.4388 -0.3187
 3251SOL    HW119792   2.532   3.321   2.311 -1.0691 -1.3990 -1.2770
 3251SOL    HW219793   2.645   3.305   2.427 -0.7531  2.6380 -0.9576
 3252SOL     OW19794   2.086   1.204   2.268  0.4315  0.3450 -0.1803
 3252SOL    HW119795   2.183   1.225   2.253  0.7601  0.2832  1.6985
 3252SOL    HW219796   2.031   1.285   2.249  0.8788  0.4725 -0.9554
 3253SOL     OW19797   1.473   4.722   0.278  0.5084 -0.4757 -0.3306
 3253SOL    HW119798   1.410   4.648   0.301 -1.2188  1.1661  0.3513
 3253SOL    HW219799   1.482   4.783   0.356 -0.0332  1.3902 -1.7055
 3254SOL     OW19800   2.537   4.520   2.297 -0.6570  0.0233 -0.2266
 3254SOL    HW119801   2.564   4.572   2.216  0.2016  0.4636  0.3349
 3254SOL    HW219802   2.439   4.532   2.314 -0.5050  1.3062 -0.2095
 3255SOL     OW19803   2.492   2.039   1.522 -0.1217 -0.4949  0.5918
 3255SOL    HW119804   2.508   1.952   1.475 -0.2719 -1.6037  2.5359
 3255SOL    HW219805   2.394   2.049   1.540 -0.0926  0.0300  0.4502
 3256SOL     OW19806   0.100   4.241   2.589 -0.5230  0.2767 -0.8610
 3256SOL    HW119807   0.162   4.274   2.660 -1.2554  1.7058 -0.8651
 3256SOL    HW219808   0.151   4.228   2.503  0.1723 -0.5577 -0.3282
 3257SOL     OW19809   0.772   1.088   1.803 -0.5217 -0.2500 -0.2594
 3257SOL    HW119810   0.861   1.109   1.845 -0.8678 -0.7120  0.7082
 3257SOL    HW219811   0.748   0.992   1.821 -0.8022 -0.3833 -1.2869
 3258SOL     OW19812   0.976   4.352   0.065 -0.2671  0.0559 -0.4673
 3258SOL    HW119813   1.009   4.382  -0.024  2.1814 -1.2469 -0.0519
 3258SOL    HW219814   0.992   4.425   0.132 -1.2422  0.6760 -0.9085
 3259SOL     OW19815   0.872   4.326   0.560 -0.1131  0.1851 -0.3285
 3259SOL    HW119816   0.818   4.401   0.598  0.8338  0.8341 -0.2441
 3259SOL    HW219817   0.963   4.326   0.601 -0.0396 -0.8925 -0.4743
 3260SOL     OW19818   2.473   8.678   1.025  0.1217  0.1888 -0.0904
 3260SOL    HW119819   2.410   8.750   0.997  0.4965  1.1403  1.4152
 3260SOL    HW219820   2.529   8.711   1.101 -1.0272 -2.3279  1.9391
 3261SOL     OW19821   1.337   3.169   1.081 -0.3113  0.3779  0.3403
 3261SOL    HW119822   1.423   3.117   1.081 -1.1451 -1.0192  0.7635
 3261SOL    HW219823   1.346   3.247   1.143  0.8509  0.5849 -0.0685
 3262SOL     OW19824   2.894   5.072   1.120  0.8107  0.4625  0.1483
 3262SOL    HW119825   2.960   5.063   1.045 -1.6126  0.8434 -2.0942
 3262SOL    HW219826   2.874   4.982   1.158 -0.8351 -0.2391 -2.2710
 3263SOL     OW19827   9.128   3.948   0.594  0.0076 -0.7789 -0.1564
 3263SOL    HW119828   9.163   3.935   0.502  1.4613  2.8893 -0.2346
 3263SOL    HW219829   9.041   3.998   0.590 -0.0222 -0.7750  0.4320
 3264SOL     OW19830   0.708   3.041   2.074 -0.9291  0.1691 -0.2596
 3264SOL    HW119831   0.767   3.033   1.994  0.8867  0.5183  0.9977
 3264SOL    HW219832   0.694   2.951   2.115  2.3007  0.5526  1.8792
 3265SOL     OW19833   3.121   3.544   1.155 -0.0953 -0.2185 -0.3313
 3265SOL    HW119834   3.105   3.514   1.249 -0.2615 -0.2128 -0.3583
 3265SOL    HW219835   3.088   3.475   1.091  0.6250 -0.5236 -0.3807
 3266SOL     OW19836   0.894   5.365   1.335  0.0222  0.6137 -0.0083
 3266SOL    HW119837   0.914   5.279   1.382  0.2628  1.4480  1.4593
 3266SOL    HW219838   0.815   5.354   1.276 -2.0856  0.2852  2.7835
 3267SOL     OW19839   3.727   2.985   1.753 -0.6120  1.6289  0.0518
 3267SOL    HW119840   3.759   3.029   1.837  1.3238  0.1169  0.1491
 3267SOL    HW219841   3.667   2.909   1.776  1.6814 -0.1913  0.2165
 3268SOL     OW19842   4.078   4.111   1.394  0.0278 -0.1288  0.2273
 3268SOL    HW119843   4.020   4.093   1.314 -0.0270  0.4572  0.1325
 3268SOL    HW219844   4.077   4.031   1.454 -0.2121 -0.4400 -0.1846
 3269SOL     OW19845   4.009   8.178   0.737  0.0116  0.2528  0.6135
 3269SOL    HW119846   4.101   8.185   0.700 -0.2983  1.0029 -0.0342
 3269SOL    HW219847   3.994   8.251   0.804  0.2243 -0.4792  1.4657
 3270SOL     OW19848   0.884   1.688   1.808  0.0213 -0.3335 -0.0774
 3270SOL    HW119849   0.911   1.599   1.771  0.4385 -0.2179 -0.0526
 3270SOL    HW219850   0.820   1.674   1.884  0.5133 -0.6349  0.2888
 3271SOL     OW19851   9.907   5.327   1.683  0.3615  0.4203  0.5409
 3271SOL    HW119852   9.909   5.422   1.715  1.3759  1.7888 -3.3929
 3271SOL    HW219853   9.816   5.305   1.649  1.1422  1.3075 -2.2179
 3272SOL     OW19854   3.989   2.074   0.436  0.0791 -0.3556  0.2895
 3272SOL    HW119855   4.027   2.116   0.518  0.6283  0.3973 -0.3467
 3272SOL    HW219856   3.984   2.142   0.362 -2.9921 -0.2737  0.5002
 3273SOL     OW19857   3.646   2.241   0.652 -0.0257  0.1433 -0.3949
 3273SOL    HW119858   3.712   2.309   0.619 -2.0133  2.6770  0.6992
 3273SOL    HW219859   3.621   2.262   0.746 -2.4096 -0.7779 -0.7884
 3274SOL     OW19860   0.787   3.830   2.656  0.3507 -0.5493  0.0090
 3274SOL    HW119861   0.709   3.888   2.675  0.4882 -0.1699 -0.5709
 3274SOL    HW219862   0.820   3.848   2.563  2.0166  0.3322  0.7492
 3275SOL     OW19863   3.813   3.454   1.206 -0.4517 -0.9458 -0.2124
 3275SOL    HW119864   3.829   3.485   1.300  4.3293 -0.5962 -1.0124
 3275SOL    HW219865   3.822   3.354   1.202  0.2990 -0.8710 -0.4479
 3276SOL     OW19866   1.585   4.334   1.810 -0.0858 -0.6291 -0.7898
 3276SOL    HW119867   1.671   4.306   1.768  1.4838  4.6117 -1.4832
 3276SOL    HW219868   1.596   4.337   1.909  1.5944  2.8023 -1.0100
 3277SOL     OW19869   2.520   6.494   0.406 -0.0145  0.2288  0.1705
 3277SOL    HW119870   2.532   6.549   0.323  4.8257  0.0753  0.6524
 3277SOL    HW219871   2.540   6.398   0.385  0.7944  0.1157  1.4121
 3278SOL     OW19872   0.919   6.305   0.566 -0.4825  0.4847  0.2100
 3278SOL    HW119873   0.966   6.388   0.597 -0.8197  1.2160 -1.1609
 3278SOL    HW219874   0.861   6.270   0.640  2.6768 -0.8229  2.1349
 3279SOL     OW19875   1.744   1.842   0.758 -1.3758 -0.0720 -0.3407
 3279SOL    HW119876   1.769   1.764   0.700  0.1167  0.5267 -0.5121
 3279SOL    HW219877   1.804   1.919   0.738 -0.6791  0.0743  2.1671
 3280SOL     OW19878   3.653   0.479   1.389 -0.2941 -0.4096  0.3117
 3280SOL    HW119879   3.656   0.546   1.463  0.1891  0.0079 -0.0811
 3280SOL    HW219880   3.731   0.494   1.327 -1.3611  0.0226 -0.9522
 3281SOL     OW19881   1.372   5.454   0.421  0.4535 -0.1536 -0.5314
 3281SOL    HW119882   1.376   5.505   0.335  0.3794 -0.6551 -0.8387
 3281SOL    HW219883   1.398   5.359   0.404 -0.5243 -0.4863 -0.1894
 3282SOL     OW19884   9.670   1.919   0.743  0.4587 -0.1852 -1.1009
 3282SOL    HW119885   9.643   1.899   0.649 -1.0295 -1.0929 -0.4978
 3282SOL    HW219886   9.685   1.834   0.792 -1.6857  0.2037  0.2923
 3283SOL     OW19887   4.004   3.905   1.634  0.9442 -0.5958  0.0306
 3283SOL    HW119888   4.035   3.827   1.580  0.9000 -1.3758  1.1043
 3283SOL    HW219889   3.952   3.872   1.713 -1.2346  0.6180 -0.8460
 3284SOL     OW19890   2.254   2.275   1.295 -0.3911  0.1002  0.5087
 3284SOL    HW119891   2.185   2.337   1.256  1.4180  1.3187 -0.8648
 3284SOL    HW219892   2.327   2.329   1.335  1.1303 -1.1562 -0.5391
 3285SOL     OW19893   2.027   7.955   1.388  0.0785  0.2097 -0.0067
 3285SOL    HW119894   2.066   7.990   1.303  0.0801  1.7988  0.6338
 3285SOL    HW219895   2.100   7.935   1.453  0.0482 -0.5610 -0.2028
 3286SOL     OW19896   0.467   2.255   0.260 -0.3071 -0.2418 -0.1821
 3286SOL    HW119897   0.531   2.179   0.256  0.2130  0.1231  1.0946
 3286SOL    HW219898   0.518   2.341   0.269 -0.9729  0.0453  0.8847
 3287SOL     OW19899   2.698   8.729   0.836 -0.2624 -0.2808 -0.2869
 3287SOL    HW119900   2.625   8.775   0.887  0.4894  1.1888 -0.5361
 3287SOL    HW219901   2.748   8.796   0.781  1.0844 -1.3366 -0.3626
 3288SOL     OW19902   0.262   5.834   0.906  0.0106 -0.2264 -0.0430
 3288SOL    HW119903   0.252   5.898   0.830 -1.8213 -1.0985 -0.5622
 3288SOL    HW219904   0.291   5.883   0.988 -0.8479  1.1752 -0.5597
 3289SOL     OW19905   2.152   1.420   2.073  0.7596  0.3748 -0.3266
 3289SOL    HW119906   2.193   1.378   1.992 -0.3942  0.7436 -1.1179
 3289SOL    HW219907   2.054   1.435   2.056  0.6856  1.2217  0.8299
 3290SOL     OW19908   2.191   9.959   1.582  0.0554 -0.3576  0.2026
 3290SOL    HW119909   2.202  10.057   1.571  0.0345 -0.5590 -1.6314
 3290SOL    HW219910   2.208   9.935   1.678  3.1449  1.0105  0.0758
 3291SOL     OW19911   1.586   8.378   2.466 -1.1419  0.1477  0.8856
 3291SOL    HW119912   1.502   8.353   2.418 -0.2807 -0.8841 -0.1333
 3291SOL    HW219913   1.645   8.297   2.472  1.1216  1.5889 -1.2135
 3292SOL     OW19914   0.950   2.620   2.751  0.2976 -0.2423 -0.2211
 3292SOL    HW119915   0.934   2.668   2.837  0.3049 -2.7272  1.1979
 3292SOL    HW219916   1.042   2.642   2.717  0.9567 -0.5810  1.2997
 3293SOL     OW19917   4.122   1.021   2.700 -0.1691 -0.6494 -0.4401
 3293SOL    HW119918   4.053   0.949   2.707  1.4590 -2.1783  0.2501
 3293SOL    HW219919   4.193   1.005   2.768  0.1136  1.7591 -0.1216
 3294SOL     OW19920   0.493   2.246   2.323 -0.4095 -0.0478 -0.5728
 3294SOL    HW119921   0.406   2.198   2.339  1.5152 -3.0663  1.4188
 3294SOL    HW219922   0.516   2.301   2.402 -0.3884  0.5538 -0.9964
 3295SOL     OW19923   3.634   1.972   0.928 -0.0409  0.2333 -0.8538
 3295SOL    HW119924   3.536   1.952   0.923 -0.2167  1.3253 -2.2408
 3295SOL    HW219925   3.676   1.953   0.839  0.5784  1.9287 -0.9340
 3296SOL     OW19926   3.419   1.510   2.776  0.7859 -0.0717 -0.0975
 3296SOL    HW119927   3.350   1.532   2.846  0.6070  1.3349 -0.6988
 3296SOL    HW219928   3.504   1.558   2.797  0.6891  0.4595 -0.9259
 3297SOL     OW19929   1.336   9.576   0.303  0.3569  0.1299  0.2339
 3297SOL    HW119930   1.349   9.648   0.372  0.0843 -0.3781  0.8209
 3297SOL    HW219931   1.323   9.618   0.214 -1.4868  0.8846  0.8315
 3298SOL     OW19932   9.868   5.532   1.896 -0.1187 -0.1672 -0.1159
 3298SOL    HW119933   9.964   5.540   1.924  0.1865  1.7412 -1.5802
 3298SOL    HW219934   9.827   5.624   1.891 -1.7104 -0.8824 -0.5635
 3299SOL     OW19935   0.928   7.875   0.009  0.1756 -0.0991 -0.2810
 3299SOL    HW119936   0.955   7.831  -0.076 -1.1413 -0.2772 -0.6010
 3299SOL    HW219937   0.835   7.849   0.033  0.4045  0.2386  1.0209
 3300SOL     OW19938   1.356   3.116   0.727 -0.5560  0.2250 -0.0920
 3300SOL    HW119939   1.264   3.084   0.749 -0.6656 -0.4568 -1.4847
 3300SOL    HW219940   1.352   3.183   0.652  0.2540 -1.4106 -1.6292
 3301SOL     OW19941   2.039   5.890   0.685  0.3263 -0.2115  0.0891
 3301SOL    HW119942   2.126   5.845   0.669 -0.2556 -1.3963  0.1538
 3301SOL    HW219943   2.020   5.892   0.784 -0.0799 -0.6624  0.0224
 3302SOL     OW19944   2.516   6.121   2.771  0.1883 -0.0153 -0.0605
 3302SOL    HW119945   2.526   6.041   2.831 -0.8955 -0.6220 -0.6576
 3302SOL    HW219946   2.424   6.159   2.782  0.7034  1.1431  0.2114
 3303SOL     OW19947   1.267   9.519   2.664  0.6973 -0.2003 -0.1830
 3303SOL    HW119948   1.168   9.528   2.653  0.6350 -2.6267 -1.9717
 3303SOL    HW219949   1.288   9.433   2.710  2.0459 -0.2403 -0.8426
 3304SOL     OW19950   2.844   8.395   0.905 -0.1846 -0.7709  0.3844
 3304SOL    HW119951   2.914   8.332   0.873 -0.1841  0.0128 -1.1856
 3304SOL    HW219952   2.865   8.488   0.875 -1.4317 -0.3864  0.6483
 3305SOL     OW19953   2.267   6.140   1.399  0.4693  0.1178 -0.1101
 3305SOL    HW119954   2.346   6.197   1.424 -0.3124  1.8734 -1.5686
 3305SOL    HW219955   2.293   6.079   1.325  1.2521 -1.3427  1.3252
 3306SOL     OW19956   3.765   3.525   1.491 -0.1960 -0.4697  0.4667
 3306SOL    HW119957   3.859   3.495   1.505  0.0833 -0.2729 -0.9132
 3306SOL    HW219958   3.731   3.569   1.574  0.2254 -2.3884  1.6806
 3307SOL     OW19959   4.495   2.608   1.827 -0.2729  0.1962 -0.3964
 3307SOL    HW119960   4.464   2.691   1.780  1.0946  1.2319  0.5237
 3307SOL    HW219961   4.519   2.630   1.921  1.1451 -1.0385 -0.4635
 3308SOL     OW19962   9.675   1.502   1.569  0.5973 -0.2865  0.1866
 3308SOL    HW119963   9.652   1.490   1.665 -0.4806  0.0919 -0.0217
 3308SOL    HW219964   9.737   1.580   1.558 -1.0970  1.0986  0.3218
 3309SOL     OW19965   1.974   5.670   1.256  0.7291 -0.3537  0.1067
 3309SOL    HW119966   2.022   5.726   1.323 -0.3568  0.0644  0.5459
 3309SOL    HW219967   2.037   5.643   1.183  0.9607  2.4794 -0.7797
 3310SOL     OW19968   4.672   3.372   2.465 -0.5537 -0.2150  0.0457
 3310SOL    HW119969   4.604   3.444   2.452  0.2683  0.3683 -1.1867
 3310SOL    HW219970   4.643   3.289   2.419 -0.4064  0.0625 -0.5597
 3311SOL     OW19971   3.407   8.397   0.881  0.5691 -1.2447 -0.2085
 3311SOL    HW119972   3.484   8.419   0.821 -0.3083  2.1486 -0.1406
 3311SOL    HW219973   3.321   8.422   0.836 -0.1555  0.4434  2.0751
 3312SOL     OW19974   9.899   0.373   0.700 -0.0635  0.3447 -0.2793
 3312SOL    HW119975   9.803   0.393   0.681 -0.3231 -1.0712 -0.5404
 3312SOL    HW219976   9.955   0.452   0.676 -0.9826  0.5845 -1.6719
 3313SOL     OW19977   9.909   1.974   0.629 -0.0119  0.1171  0.6150
 3313SOL    HW119978   9.823   1.955   0.677 -1.1734  0.7702 -1.1374
 3313SOL    HW219979   9.986   1.956   0.690 -1.4144  0.3504  2.5138
 3314SOL     OW19980   3.300   7.453   2.308 -0.0596  0.0102  0.3015
 3314SOL    HW119981   3.351   7.447   2.393 -0.5482  1.9786  0.7702
 3314SOL    HW219982   3.295   7.363   2.265  4.0181 -0.2305  0.1043
 3315SOL     OW19983   9.084   2.589   2.013 -0.3991 -0.3631  0.1610
 3315SOL    HW119984   9.061   2.492   2.004 -0.2456 -0.4432  0.6024
 3315SOL    HW219985   9.183   2.598   2.030 -0.2817 -0.0840 -0.6634
 3316SOL     OW19986   1.077   5.439   0.276  0.2128 -0.4332  0.9145
 3316SOL    HW119987   1.170   5.446   0.240  0.0747 -0.7449  0.4902
 3316SOL    HW219988   1.054   5.522   0.326  0.4672 -0.0660  0.4265
 3317SOL     OW19989   0.541   5.857   1.344  0.2082 -0.4624  0.3714
 3317SOL    HW119990   0.617   5.920   1.354 -0.2320  0.1396 -0.0328
 3317SOL    HW219991   0.561   5.772   1.393  0.2838  0.4549  1.9459
 3318SOL     OW19992   2.322   5.553   2.744  0.4907 -0.3909  0.1231
 3318SOL    HW119993   2.366   5.495   2.675 -1.3548 -1.4739 -0.1886
 3318SOL    HW219994   2.322   5.505   2.832  0.0100 -0.3551  0.1414
 3319SOL     OW19995   9.962   4.159   2.301 -0.3573  0.2788 -0.1345
 3319SOL    HW119996   9.916   4.169   2.389 -2.8845  3.8273 -1.7213
 3319SOL    HW219997   9.913   4.212   2.232  3.6285  0.5706 -2.9148
 3320SOL     OW19998   1.660   6.904   1.444 -0.3048  0.0213 -0.3841
 3320SOL    HW119999   1.732   6.887   1.510 -0.8603  0.6240  0.3832
 3320SOL    HW220000   1.684   6.862   1.356 -0.6349 -2.8250  0.8294
 3321SOL     OW20001   3.993   1.717   0.010 -0.4546  0.2618  0.0370
 3321SOL    HW120002   4.020   1.638   0.065 -1.6808  0.0974  0.4238
 3321SOL    HW220003   4.056   1.728  -0.066  0.1452 -0.6605  0.3923
 3322SOL     OW20004   3.042   8.218   0.838 -0.3625  0.1220  0.3923
 3322SOL    HW120005   3.099   8.136   0.844  0.1362  0.5588  2.1007
 3322SOL    HW220006   3.099   8.298   0.819 -0.7304  0.2070 -0.3698
 3323SOL     OW20007   9.409   3.448   2.023  0.2286 -0.0286 -0.2186
 3323SOL    HW120008   9.310   3.452   2.012  0.4186 -0.6962 -2.4595
 3323SOL    HW220009   9.449   3.537   2.004  0.3049 -0.5009 -2.3664
 3324SOL     OW20010   2.057   4.946   2.376  0.2913  0.0183 -0.3767
 3324SOL    HW120011   1.993   5.010   2.333 -0.8507 -0.2799  0.8115
 3324SOL    HW220012   2.110   4.993   2.446  1.1745  0.1949 -1.1526
 3325SOL     OW20013   0.430   1.708   0.923  0.2124 -0.4195  0.8539
 3325SOL    HW120014   0.461   1.770   0.851 -0.0999 -2.0211 -0.7037
 3325SOL    HW220015   0.368   1.756   0.985 -2.7307 -0.0088 -2.2865
 3326SOL     OW20016   9.465   1.345   0.515 -0.2219  0.4190 -0.3703
 3326SOL    HW120017   9.540   1.393   0.468 -0.0857  1.4452  0.8823
 3326SOL    HW220018   9.435   1.268   0.458 -0.1062  1.6745 -2.1957
 3327SOL     OW20019   0.032   4.500   0.015  0.0389 -0.3289 -0.0873
 3327SOL    HW120020   0.122   4.517  -0.026 -0.4394  1.0324 -0.6139
 3327SOL    HW220021   0.035   4.415   0.069  1.3204 -0.9014 -1.0276
 3328SOL     OW20022   1.287   0.830   1.984 -0.3980 -0.7927 -0.4702
 3328SOL    HW120023   1.348   0.843   2.063 -1.5576  1.5813  0.0827
 3328SOL    HW220024   1.247   0.739   1.987 -2.8594  0.2875  3.4718
 3329SOL     OW20025   8.178   2.189   0.373  0.1299 -0.4815 -0.4446
 3329SOL    HW120026   8.140   2.222   0.459 -2.6637 -1.7497 -1.1301
 3329SOL    HW220027   8.103   2.170   0.309  2.0873 -0.7814 -2.7048
 3330SOL     OW20028   4.277   1.039   0.780  0.1506 -0.1406  0.6425
 3330SOL    HW120029   4.257   0.950   0.738 -4.5553 -1.2170  4.5953
 3330SOL    HW220030   4.271   1.111   0.711 -0.3507 -2.4631 -1.8199
 3331SOL     OW20031   3.615   2.741   0.883  0.5924  0.3965 -0.2301
 3331SOL    HW120032   3.616   2.830   0.837  0.6932  1.0242  0.9833
 3331SOL    HW220033   3.661   2.748   0.971  0.8031 -0.9174 -0.2271
 3332SOL     OW20034   2.491   5.023   2.363  0.6220  0.2851 -0.8114
 3332SOL    HW120035   2.468   4.953   2.430 -1.1164  0.3799 -1.2882
 3332SOL    HW220036   2.534   5.101   2.409 -1.9592  1.0126  0.4376
 3333SOL     OW20037   9.958   4.875   1.541 -0.1163 -0.0491 -0.2491
 3333SOL    HW120038   9.883   4.809   1.530  0.0946 -0.0983 -1.4900
 3333SOL    HW220039   9.924   4.956   1.589 -0.9670 -0.0793 -0.7855
 3334SOL     OW20040   8.694   3.538   0.531  1.0365 -0.0644 -0.0939
 3334SOL    HW120041   8.767   3.485   0.573  3.5247  2.7355 -0.7145
 3334SOL    HW220042   8.702   3.533   0.431 -1.4821 -2.1679 -0.2442
 3335SOL     OW20043   0.864   3.731   1.445  0.2118 -0.6047  0.3970
 3335SOL    HW120044   0.886   3.640   1.410  0.8415  0.1580 -1.2719
 3335SOL    HW220045   0.819   3.784   1.374  2.3637  1.3073  0.4090
 3336SOL     OW20046   3.370   0.949   1.148 -0.4400  0.2646 -0.0010
 3336SOL    HW120047   3.448   0.950   1.210  0.1721 -1.0957 -0.7231
 3336SOL    HW220048   3.331   0.856   1.145 -1.4201  0.6833 -0.4585
 3337SOL     OW20049   1.552   2.260   1.745 -0.3591 -0.2588 -0.6502
 3337SOL    HW120050   1.642   2.297   1.722 -0.0654  1.9019  3.5308
 3337SOL    HW220051   1.562   2.164   1.772  0.6650 -0.1492 -0.6033
 3338SOL     OW20052   0.581   4.272   2.791  0.1447  0.6499  0.5446
 3338SOL    HW120053   0.612   4.365   2.810 -0.3537  1.3192 -1.7769
 3338SOL    HW220054   0.482   4.268   2.797  0.1866  0.1446  1.0282
 3339SOL     OW20055   1.860   2.115   1.098 -0.7337 -0.1618 -0.7065
 3339SOL    HW120056   1.795   2.057   1.049 -0.0567  1.1465 -3.2236
 3339SOL    HW220057   1.813   2.194   1.136 -0.7084  0.5206 -2.0875
 3340SOL     OW20058   1.832   6.432   2.794 -0.0132 -0.0478  0.5570
 3340SOL    HW120059   1.844   6.354   2.856 -1.8861 -0.1940  0.7854
 3340SOL    HW220060   1.841   6.517   2.845  0.4838 -0.1439  0.6261
 3341SOL     OW20061   1.257   6.476   0.493  0.1333 -0.0218 -0.0414
 3341SOL    HW120062   1.351   6.500   0.472  0.1735 -0.4254 -0.3138
 3341SOL    HW220063   1.228   6.400   0.436 -0.3209  0.0259  0.1239
 3342SOL     OW20064   0.989   3.495   1.844 -0.4976 -0.3540 -0.1460
 3342SOL    HW120065   0.972   3.484   1.942  1.5880  1.9934  0.5509
 3342SOL    HW220066   0.903   3.517   1.797 -0.9575  2.0524  1.7480
 3343SOL     OW20067   9.174   3.212   0.354  0.0312  0.1395 -0.7637
 3343SOL    HW120068   9.117   3.132   0.373  0.6231 -0.1415 -0.1349
 3343SOL    HW220069   9.137   3.262   0.276 -1.4423  0.3124  0.0196
 3344SOL     OW20070   1.469   5.944   0.318  0.9401 -0.1832 -0.1628
 3344SOL    HW120071   1.469   6.035   0.359  0.1490  0.0777 -0.7277
 3344SOL    HW220072   1.376   5.919   0.291  1.5127 -0.0544 -2.4044
 3345SOL     OW20073   2.477   7.427   0.261 -0.6177 -0.0247  0.8486
 3345SOL    HW120074   2.436   7.388   0.179  3.8902 -3.7975  0.2112
 3345SOL    HW220075   2.483   7.357   0.332  0.0995  1.8515  2.7065
 3346SOL     OW20076   8.874   4.020   1.665  0.0738  0.6943 -0.2050
 3346SOL    HW120077   8.775   4.015   1.656  0.1046  0.2459 -0.3074
 3346SOL    HW220078   8.911   4.077   1.591 -0.1712  1.4475  0.2533
 3347SOL     OW20079   1.823   1.122   2.681 -0.1983  0.2474  0.4162
 3347SOL    HW120080   1.908   1.139   2.730  1.5687 -2.1862 -1.6678
 3347SOL    HW220081   1.746   1.155   2.735  1.9059  0.6365  3.2788
 3348SOL     OW20082   9.752   2.878   2.532 -0.3291 -0.3492  0.2492
 3348SOL    HW120083   9.827   2.882   2.599  1.0965 -0.3075 -1.3121
 3348SOL    HW220084   9.744   2.785   2.496 -0.0857 -0.0335 -0.6280
 3349SOL     OW20085   4.291   1.358   2.510 -0.0237  0.1025  0.4354
 3349SOL    HW120086   4.287   1.404   2.599 -0.2723 -1.4995  1.2903
 3349SOL    HW220087   4.209   1.301   2.500  0.3489 -0.2653 -0.5173
 3350SOL     OW20088   7.770   1.252   1.721 -0.6321 -0.0676 -0.2241
 3350SOL    HW120089   7.739   1.159   1.743 -1.0345 -0.0779 -0.7953
 3350SOL    HW220090   7.863   1.248   1.686  0.3285  0.0483  2.2455
 3351SOL     OW20091   1.355   8.325   2.013 -0.2781 -0.0099 -0.0371
 3351SOL    HW120092   1.353   8.296   1.917  1.8509  0.9687 -0.3928
 3351SOL    HW220093   1.392   8.251   2.069  2.0315  0.7803 -0.4947
 3352SOL     OW20094   0.634   9.979   0.575  0.4451 -0.5440 -0.1878
 3352SOL    HW120095   0.574  10.004   0.499  1.0576 -0.0277 -0.5134
 3352SOL    HW220096   0.679  10.061   0.610  0.0438 -0.7534  0.8473
 3353SOL     OW20097   1.465   0.234   0.721 -0.2799  0.0414 -0.2831
 3353SOL    HW120098   1.501   0.163   0.660  3.8360  1.8760 -0.2148
 3353SOL    HW220099   1.455   0.197   0.813  0.5668 -0.8369 -0.5257
 3354SOL     OW20100   3.600   2.180   1.135 -0.1597 -0.3991 -0.0850
 3354SOL    HW120101   3.618   2.117   1.060  0.4081 -0.5001  0.1297
 3354SOL    HW220102   3.613   2.274   1.104  1.5429 -0.5020  0.2691
 3355SOL     OW20103   3.607   7.918   1.352  0.3379  0.4662 -0.0163
 3355SOL    HW120104   3.516   7.960   1.353  0.4344  0.7261 -1.2276
 3355SOL    HW220105   3.623   7.870   1.439 -0.8381  0.6518  0.3099
 3356SOL     OW20106   3.699   8.509   1.633 -0.0086 -0.3903  0.6745
 3356SOL    HW120107   3.672   8.414   1.613 -0.0881 -0.0504 -0.9172
 3356SOL    HW220108   3.775   8.509   1.698  1.2894 -1.6245 -0.7964
 3357SOL     OW20109   1.862   7.660   0.172 -0.0265  0.5309 -0.0299
 3357SOL    HW120110   1.952   7.640   0.211  0.3367  1.3915 -0.4075
 3357SOL    HW220111   1.813   7.722   0.233  0.1923  1.1695 -0.4909
 3358SOL     OW20112   0.380   9.245   2.601 -0.1786  0.4485 -0.1421
 3358SOL    HW120113   0.477   9.264   2.588  0.0986 -0.0852  1.0594
 3358SOL    HW220114   0.352   9.279   2.691 -1.0358  0.3295 -0.3621
 3359SOL     OW20115   3.092   4.444   2.049  0.4997  0.0263 -0.0689
 3359SOL    HW120116   3.173   4.422   2.103  1.1539  0.4268 -0.8892
 3359SOL    HW220117   3.095   4.394   1.962  0.9580  1.7331 -1.0465
 3360SOL     OW20118   1.167   1.353   1.655  0.3731 -0.0363 -0.5528
 3360SOL    HW120119   1.080   1.368   1.703  0.6542  2.3652 -0.7094
 3360SOL    HW220120   1.213   1.273   1.694  1.1249  2.4478  4.0319
 3361SOL     OW20121   2.911   2.850   0.528  0.1728 -0.0635  0.1902
 3361SOL    HW120122   3.008   2.854   0.504  0.2478 -0.9752  0.3330
 3361SOL    HW220123   2.901   2.838   0.627 -0.0874 -0.2061  0.1478
 3362SOL     OW20124   4.070   4.140   0.475 -1.1814  0.3695 -0.4748
 3362SOL    HW120125   4.008   4.173   0.403 -4.8911  0.0694  2.4318
 3362SOL    HW220126   4.050   4.043   0.493  1.5199 -0.2813 -0.7611
 3363SOL     OW20127   2.608   3.101   1.781 -0.2958 -0.1191  0.1330
 3363SOL    HW120128   2.697   3.130   1.744 -0.4271 -1.1146 -0.9869
 3363SOL    HW220129   2.567   3.177   1.831  1.5302  0.1290  1.3160
 3364SOL     OW20130   0.612   0.876   1.892  0.1881  0.5643 -0.1798
 3364SOL    HW120131   0.533   0.856   1.834  0.1635 -0.2693  0.1331
 3364SOL    HW220132   0.581   0.920   1.976  0.0297 -0.0126  0.0639
 3365SOL     OW20133   9.151   2.159   0.906 -0.3386 -0.2582 -0.1908
 3365SOL    HW120134   9.243   2.126   0.928  0.2318  0.7818 -0.9033
 3365SOL    HW220135   9.130   2.238   0.963  0.5995  1.6032 -2.3171
 3366SOL     OW20136   4.416   3.174   0.509  0.1101  0.3467 -0.2603
 3366SOL    HW120137   4.437   3.077   0.527  0.9985  0.5600 -0.0976
 3366SOL    HW220138   4.492   3.215   0.458 -1.2886  0.3829 -2.3450
 3367SOL     OW20139   8.365   1.577   1.725 -0.1536 -0.1573 -0.9656
 3367SOL    HW120140   8.299   1.505   1.745 -1.3674  1.3120  0.4001
 3367SOL    HW220141   8.352   1.653   1.788  3.2922 -0.1082 -0.2056
 3368SOL     OW20142   2.948   9.576   1.477  0.1519 -0.8667  0.9948
 3368SOL    HW120143   2.933   9.502   1.542 -1.1591 -0.0246  1.6865
 3368SOL    HW220144   3.032   9.626   1.502  0.6167 -1.6373  0.9780
 3369SOL     OW20145   1.970   4.742   2.186 -0.0295  0.2117 -0.0631
 3369SOL    HW120146   2.008   4.804   2.254 -2.2414  0.2457  1.1683
 3369SOL    HW220147   1.914   4.673   2.232  0.5496 -1.3334 -1.6234
 3370SOL     OW20148   1.106   4.615   0.570  0.1788 -0.1054 -0.4204
 3370SOL    HW120149   1.039   4.688   0.584  0.5441  0.5669 -2.0399
 3370SOL    HW220150   1.070   4.529   0.608 -1.1756  0.4555 -0.4009
 3371SOL     OW20151   0.746   2.123   0.140 -0.1200  0.6759 -0.1218
 3371SOL    HW120152   0.791   2.045   0.097 -0.2448 -1.0265  2.6988
 3371SOL    HW220153   0.756   2.204   0.082  2.8943 -0.6499 -1.5378
 3372SOL     OW20154   0.183   4.797   0.241 -0.3724  0.1721  0.1869
 3372SOL    HW120155   0.181   4.811   0.142 -0.4116  2.0272  0.4265
 3372SOL    HW220156   0.229   4.875   0.284 -1.2622 -0.1350  1.7115
 3373SOL     OW20157   2.601   5.887   0.961 -0.6564 -0.2253  0.4931
 3373SOL    HW120158   2.667   5.821   0.998  0.0079  0.8945  1.3526
 3373SOL    HW220159   2.605   5.972   1.014 -4.3687 -0.8776  1.9208
 3374SOL     OW20160   0.507   5.178   0.815 -0.0037 -0.0697 -0.4085
 3374SOL    HW120161   0.523   5.274   0.836 -1.0349 -0.1360  0.7582
 3374SOL    HW220162   0.548   5.156   0.726 -0.8108  1.7533 -1.2675
 3375SOL     OW20163   8.638   2.596   2.468  0.0397 -0.3350 -0.3087
 3375SOL    HW120164   8.543   2.570   2.482 -0.1612 -0.6099 -1.9953
 3375SOL    HW220165   8.643   2.693   2.445  0.0781 -0.4996 -1.0115
 3376SOL     OW20166   9.248   4.732   1.193 -0.1436  0.3350 -0.2337
 3376SOL    HW120167   9.285   4.681   1.116  0.7321 -1.0931  1.0831
 3376SOL    HW220168   9.314   4.801   1.223  0.7891 -1.0527  1.0233
 3377SOL     OW20169   2.165   6.658   0.596 -0.0056  0.5361  0.0813
 3377SOL    HW120170   2.262   6.635   0.590 -0.2665 -0.3963 -0.7643
 3377SOL    HW220171   2.118   6.591   0.654  0.0211  1.5431  1.2830
 3378SOL     OW20172   8.623   3.350   2.280  0.0197 -0.0808  0.0841
 3378SOL    HW120173   8.649   3.320   2.189  0.3365 -0.9786  0.4666
 3378SOL    HW220174   8.659   3.286   2.348 -0.0660  0.6717  0.8507
 3379SOL     OW20175   3.269   9.127   2.237 -0.3750 -0.1143 -0.0723
 3379SOL    HW120176   3.308   9.191   2.170 -1.4228  1.6580  0.9889
 3379SOL    HW220177   3.220   9.055   2.188  1.5350 -0.6307 -1.3087
 3380SOL     OW20178   1.051   7.214   1.565  0.0606 -0.2306 -0.5908
 3380SOL    HW120179   0.963   7.250   1.534 -0.2921 -0.1164  0.5442
 3380SOL    HW220180   1.045   7.186   1.661  0.8300 -1.6438 -0.9268
 3381SOL     OW20181   0.714   3.525   0.792  0.3906  0.2757  0.1395
 3381SOL    HW120182   0.629   3.529   0.739  0.4036 -1.0280 -0.0030
 3381SOL    HW220183   0.791   3.552   0.734 -0.1108  3.2349  0.7670
 3382SOL     OW20184   2.721   7.438   0.092  0.6532  0.2325 -0.3265
 3382SOL    HW120185   2.670   7.435   0.178 -0.5014  1.2650 -0.9637
 3382SOL    HW220186   2.701   7.523   0.044  0.3064 -0.8826 -2.2110
 3383SOL     OW20187   2.440   7.262   1.727 -0.7311  0.1852 -0.0841
 3383SOL    HW120188   2.452   7.343   1.784 -1.2484 -0.5775  1.1474
 3383SOL    HW220189   2.520   7.249   1.669 -0.6321  1.5493 -0.2533
 3384SOL     OW20190   3.253   4.278   0.495 -0.5658 -0.3461 -0.2062
 3384SOL    HW120191   3.167   4.289   0.545 -1.3054 -2.8843 -0.8605
 3384SOL    HW220192   3.261   4.184   0.464  2.3491 -0.0595 -0.3870
 3385SOL     OW20193   1.809   0.336   1.968 -0.0381 -0.0840 -0.0867
 3385SOL    HW120194   1.902   0.302   1.956 -1.0854 -4.0874  1.9264
 3385SOL    HW220195   1.758   0.327   1.882  1.0958  1.0837 -0.8910
 3386SOL     OW20196   1.328   8.293   0.719 -0.4209  0.2493  0.5582
 3386SOL    HW120197   1.270   8.339   0.785  0.1095 -0.1257  1.2957
 3386SOL    HW220198   1.398   8.240   0.767 -0.2201 -0.2765 -0.2954
 3387SOL     OW20199   2.710   1.959   2.177  0.1762 -0.3611 -0.3613
 3387SOL    HW120200   2.758   1.976   2.263  1.6969 -0.5125 -1.1503
 3387SOL    HW220201   2.763   1.998   2.101 -0.6537 -1.0747 -1.3203
 3388SOL     OW20202   1.222   7.151   1.218 -0.3076  0.2971  0.2621
 3388SOL    HW120203   1.305   7.144   1.273 -0.8757  1.2787  1.2637
 3388SOL    HW220204   1.246   7.155   1.121  0.8361  0.9869  0.5641
 3389SOL     OW20205   8.693   1.268   0.839 -0.3805 -0.6101 -0.1593
 3389SOL    HW120206   8.763   1.324   0.795 -0.2970 -1.1928 -0.7842
 3389SOL    HW220207   8.644   1.216   0.769 -1.4511 -0.1835  0.2814
 3390SOL     OW20208   8.622   4.035   0.645 -0.0109 -0.3805 -0.7965
 3390SOL    HW120209   8.533   4.055   0.605 -0.1773  1.2037  0.3083
 3390SOL    HW220210   8.617   4.044   0.745  1.1233 -1.3326 -0.6285
 3391SOL     OW20211   7.989   1.489   1.629 -0.2839  0.2680  0.3171
 3391SOL    HW120212   7.891   1.491   1.651 -0.3845  0.2199 -0.1242
 3391SOL    HW220213   8.018   1.581   1.601  0.0762  0.5660  1.6526
 3392SOL     OW20214   8.779   1.342   2.725 -0.2343  0.0359  0.0046
 3392SOL    HW120215   8.768   1.248   2.757 -0.0275 -0.2385 -0.7338
 3392SOL    HW220216   8.793   1.402   2.804  0.4455 -0.6682  0.4287
 3393SOL     OW20217   9.788   4.632   1.598 -0.3284  0.5992  0.4723
 3393SOL    HW120218   9.833   4.545   1.618 -2.1491 -0.5621 -0.3524
 3393SOL    HW220219   9.704   4.640   1.651 -0.0233  1.9978  0.7629
 3394SOL     OW20220   2.208   7.102   0.089  0.1542  0.0501  0.2241
 3394SOL    HW120221   2.231   7.162   0.012  3.4368  0.2685  1.3319
 3394SOL    HW220222   2.195   7.157   0.171 -1.9116 -0.3346  0.1926
 3395SOL     OW20223   1.055   8.702   0.857  0.1036  0.5684 -0.7343
 3395SOL    HW120224   1.003   8.782   0.885  0.1814  0.9077 -1.5748
 3395SOL    HW220225   1.152   8.726   0.845  0.3973  0.0284  0.4253
 3396SOL     OW20226   0.153   1.420   2.599  0.1434  0.6062 -0.4043
 3396SOL    HW120227   0.235   1.395   2.650 -0.7213 -0.1876  0.6169
 3396SOL    HW220228   0.105   1.336   2.572 -1.6194  1.0918  1.1398
 3397SOL     OW20229   2.456   5.227   0.469  0.5090 -0.1661 -0.1951
 3397SOL    HW120230   2.376   5.278   0.437 -0.3049 -0.9656  0.5319
 3397SOL    HW220231   2.427   5.161   0.539  1.6752 -1.0509 -0.5471
 3398SOL     OW20232   2.360   7.473   2.123  0.8853  0.2267 -0.3032
 3398SOL    HW120233   2.400   7.476   2.032  0.3534  0.2664 -0.5348
 3398SOL    HW220234   2.319   7.383   2.140  1.8068 -0.1011  0.2525
 3399SOL     OW20235   3.727   2.937   0.690  0.0286  0.3863 -0.3381
 3399SOL    HW120236   3.701   2.926   0.594 -0.6084 -2.0019  0.0814
 3399SOL    HW220237   3.702   3.029   0.720 -2.5466  0.1702 -1.6407
 3400SOL     OW20238   8.487   1.829   0.315  0.1623 -0.0922  0.1474
 3400SOL    HW120239   8.412   1.833   0.248 -1.2176  0.0178  1.6586
 3400SOL    HW220240   8.515   1.734   0.327 -0.8158 -0.3228  0.7131
 3401SOL     OW20241   2.321   1.789   2.299 -0.3777 -0.6997 -0.2595
 3401SOL    HW120242   2.341   1.736   2.381  3.7642  1.9721  0.6112
 3401SOL    HW220243   2.379   1.758   2.224 -0.5752  0.1476 -0.7753
 3402SOL     OW20244   2.978   2.835   1.150 -0.2575 -0.0874 -0.2924
 3402SOL    HW120245   2.937   2.843   1.059 -0.4922  1.5869 -0.0631
 3402SOL    HW220246   2.911   2.796   1.213 -0.6115  0.1668 -0.5074
 3403SOL     OW20247   4.939   2.992   1.308  0.6995 -0.1655  0.0799
 3403SOL    HW120248   4.870   3.036   1.250 -0.1870 -0.7522  0.6845
 3403SOL    HW220249   5.014   3.056   1.324 -0.2974  0.9205  0.4683
 3404SOL     OW20250   1.583   8.996   0.114  0.6424  0.3251  0.0884
 3404SOL    HW120251   1.496   8.952   0.131  1.4026 -0.5362  1.8369
 3404SOL    HW220252   1.615   8.972   0.023  1.1427 -2.9612  1.0577
 3405SOL     OW20253   1.157   0.634   0.201 -0.5844 -0.0826  0.0085
 3405SOL    HW120254   1.198   0.549   0.170 -1.3526 -0.6929  0.6237
 3405SOL    HW220255   1.089   0.614   0.272  0.6862  1.1917  1.6545
 3406SOL     OW20256   3.498   0.993   0.655 -0.9063 -0.2759 -0.4819
 3406SOL    HW120257   3.506   1.046   0.571 -3.1593 -1.3002 -1.3759
 3406SOL    HW220258   3.548   1.040   0.728 -0.6538  1.7049 -1.8758
 3407SOL     OW20259   2.098   2.758   2.350 -0.4094  0.6636  0.9585
 3407SOL    HW120260   2.097   2.666   2.390  0.1048  0.2550  0.0454
 3407SOL    HW220261   2.064   2.824   2.418 -1.4145 -0.2817  1.4047
 3408SOL     OW20262   0.633   4.637   2.097  0.5018  0.0343 -0.2973
 3408SOL    HW120263   0.554   4.695   2.082  0.9098  0.5955 -0.2658
 3408SOL    HW220264   0.702   4.686   2.150  0.4153 -0.8340  0.6355
 3409SOL     OW20265   2.224   2.079   1.594  0.0806  0.1843 -0.3807
 3409SOL    HW120266   2.207   2.029   1.679  1.7242 -1.3300 -0.9027
 3409SOL    HW220267   2.147   2.066   1.532 -0.6144  0.3456  0.4447
 3410SOL     OW20268   7.949   2.383   2.232 -0.5384  0.0156 -0.5355
 3410SOL    HW120269   7.868   2.386   2.291  0.4574 -2.9977  1.1435
 3410SOL    HW220270   7.929   2.326   2.152 -0.9434  1.6338 -1.6070
 3411SOL     OW20271   9.169   3.507   1.099  0.3226 -0.3153 -0.4571
 3411SOL    HW120272   9.254   3.464   1.129  1.1818  0.6690 -1.4401
 3411SOL    HW220273   9.154   3.489   1.002  1.4676  2.7724 -1.2756
 3412SOL     OW20274   0.764   8.705   2.135  0.0463 -0.0248  0.0107
 3412SOL    HW120275   0.683   8.651   2.156 -1.1339  0.4689 -3.0896
 3412SOL    HW220276   0.827   8.650   2.080  0.5927  0.4826  0.1257
 3413SOL     OW20277   2.469   6.348   1.395 -0.0094 -0.5802  0.0315
 3413SOL    HW120278   2.495   6.418   1.461 -0.7556  1.1712 -1.5135
 3413SOL    HW220279   2.525   6.355   1.313 -2.1070  0.2315 -1.3936
 3414SOL     OW20280   1.993   6.793   1.811 -0.5124 -0.2283  0.9473
 3414SOL    HW120281   1.950   6.731   1.877 -0.9622  0.0016  0.8691
 3414SOL    HW220282   1.967   6.887   1.831 -1.2267 -0.2230  0.0086
 3415SOL     OW20283   0.780   0.620   1.574  0.0129  0.4379 -0.6818
 3415SOL    HW120284   0.692   0.579   1.553 -0.4013  1.6371 -1.3370
 3415SOL    HW220285   0.810   0.590   1.665 -1.1677  0.1881 -0.3634
 3416SOL     OW20286   9.362   2.830   1.431  0.6336  0.7656  0.4201
 3416SOL    HW120287   9.419   2.810   1.511 -0.9621  1.7554  1.8501
 3416SOL    HW220288   9.348   2.929   1.424 -4.0320  0.4106  2.4452
 3417SOL     OW20289   1.829   1.390   1.086  0.0082 -0.2074  0.1574
 3417SOL    HW120290   1.766   1.443   1.143 -0.2308  0.2940 -0.5653
 3417SOL    HW220291   1.884   1.331   1.145 -2.5100 -2.1441  0.6418
 3418SOL     OW20292   3.762   1.640   1.243 -0.2950 -0.1519 -0.3263
 3418SOL    HW120293   3.831   1.573   1.214  0.4264  0.6542 -0.4697
 3418SOL    HW220294   3.714   1.675   1.164  0.7837  1.0789 -0.4431
 3419SOL     OW20295   3.770   0.704   2.555  0.2791 -0.7243  0.4408
 3419SOL    HW120296   3.680   0.676   2.587  0.4613 -0.8539  0.8446
 3419SOL    HW220297   3.800   0.785   2.606  1.2714 -1.9026  1.7319
 3420SOL     OW20298   9.679   4.480   0.714 -0.0891  0.0045  0.0257
 3420SOL    HW120299   9.598   4.423   0.721 -0.4086  0.4283 -0.1456
 3420SOL    HW220300   9.713   4.479   0.620  0.0913 -0.1593  0.0937
 3421SOL     OW20301   9.095   3.451   2.069  0.6211  0.4782 -0.3442
 3421SOL    HW120302   9.109   3.358   2.103 -1.6859  0.3696  0.4615
 3421SOL    HW220303   9.046   3.504   2.138  0.8379  1.9348 -1.2851
 3422SOL     OW20304   7.992   1.777   0.755 -0.0938 -0.0362 -0.5571
 3422SOL    HW120305   7.921   1.846   0.766  1.2672  0.9535  2.8284
 3422SOL    HW220306   8.081   1.821   0.748  0.4755 -1.3477 -1.7729
 3423SOL     OW20307   2.895   1.992   1.981  0.3442 -0.7448  0.2867
 3423SOL    HW120308   2.845   1.962   1.900  0.1357  0.4762 -0.0525
 3423SOL    HW220309   2.993   1.983   1.966  0.3094 -0.3957 -0.1593
 3424SOL     OW20310   0.637   2.240   1.523 -0.3942 -0.0186 -0.3828
 3424SOL    HW120311   0.638   2.335   1.556  1.9504  0.1968 -0.9701
 3424SOL    HW220312   0.715   2.225   1.462  0.8785 -3.0716  1.8426
 3425SOL     OW20313   3.493   0.128   2.269 -0.3142 -0.3466  0.1513
 3425SOL    HW120314   3.571   0.069   2.246  0.0908  0.0414  0.5011
 3425SOL    HW220315   3.527   0.220   2.287 -0.5413 -0.7453  2.7680
 3426SOL     OW20316   0.381   3.447   2.774 -0.2784  0.2489 -0.1216
 3426SOL    HW120317   0.463   3.463   2.719 -0.1198  1.2220  0.3989
 3426SOL    HW220318   0.403   3.460   2.871 -1.1224  0.8325 -0.0041
 3427SOL     OW20319   2.948   9.623   0.753 -0.3426  0.1085  0.2625
 3427SOL    HW120320   2.882   9.630   0.827  0.6236  1.8871  0.9911
 3427SOL    HW220321   2.920   9.681   0.677 -1.0428 -1.2829 -0.5599
 3428SOL     OW20322   3.469   3.339   2.438  0.2722  0.3207  0.4660
 3428SOL    HW120323   3.472   3.413   2.370  0.0065  0.8080  0.9737
 3428SOL    HW220324   3.540   3.272   2.417 -0.4240 -0.0342 -0.8429
 3429SOL     OW20325   0.071   4.864   2.460  0.8396  0.1365  0.2559
 3429SOL    HW120326   0.089   4.775   2.420 -2.4058 -0.9398  1.0439
 3429SOL    HW220327   0.076   4.935   2.389 -0.1285 -1.1278 -1.0957
 3430SOL     OW20328   3.244   3.094   0.833 -0.3406  0.0113 -0.0143
 3430SOL    HW120329   3.280   3.131   0.748  0.4561  0.4847  0.5215
 3430SOL    HW220330   3.269   2.997   0.840 -0.5510 -0.0713 -0.3955
 3431SOL     OW20331   0.928   2.115   2.161  0.3272 -0.1048  0.0593
 3431SOL    HW120332   1.008   2.174   2.174  0.3657 -0.0423 -0.4244
 3431SOL    HW220333   0.942   2.057   2.081  0.0129 -0.3024  0.1468
 3432SOL     OW20334   3.885   0.562   1.256  0.0628 -0.5088  0.0324
 3432SOL    HW120335   3.854   0.629   1.189 -1.2178 -0.9470  0.1632
 3432SOL    HW220336   3.935   0.608   1.329  0.7109  0.0772 -0.7788
 3433SOL     OW20337   3.483   4.244   0.934  0.2336  0.1934  0.2583
 3433SOL    HW120338   3.462   4.218   0.840  0.8118 -0.3555  0.2767
 3433SOL    HW220339   3.580   4.228   0.952  0.3531  1.2613  0.6351
 3434SOL     OW20340   3.235   3.775   1.443 -0.5035  0.3399  0.4272
 3434SOL    HW120341   3.200   3.844   1.380  0.4725  0.3706 -0.0799
 3434SOL    HW220342   3.334   3.783   1.451  0.1900 -3.4482 -2.6243
 3435SOL     OW20343   0.233   5.874   1.626  0.0018 -0.2342 -0.4557
 3435SOL    HW120344   0.264   5.950   1.569  0.5064 -0.2519 -0.2041
 3435SOL    HW220345   0.209   5.796   1.567 -1.0592  0.3102 -0.7507
 3436SOL     OW20346   1.607   4.831   2.033  0.0017  0.5338  0.3912
 3436SOL    HW120347   1.609   4.909   1.970 -0.3546  0.3070  0.0993
 3436SOL    HW220348   1.696   4.785   2.031 -0.4341 -0.3076 -1.0101
 3437SOL     OW20349   0.876   3.594   0.562  0.2247  0.1288 -0.5925
 3437SOL    HW120350   0.820   3.637   0.490 -1.2369  3.9135  2.5972
 3437SOL    HW220351   0.970   3.626   0.554  0.3959 -0.6314 -1.6956
 3438SOL     OW20352   0.098   1.499   0.037  0.4251 -0.0414 -0.0536
 3438SOL    HW120353   0.108   1.482  -0.061  2.3394 -1.5564  0.3874
 3438SOL    HW220354   0.019   1.558   0.052 -1.4224 -1.8227 -2.3259
 3439SOL     OW20355   8.979   0.513   2.112  0.5685  0.4007 -0.0963
 3439SOL    HW120356   8.997   0.525   2.014  0.8581  0.4660 -0.0358
 3439SOL    HW220357   8.883   0.486   2.125  0.4959  0.5134 -0.3880
 3440SOL     OW20358   9.573   2.289   0.808  0.4263 -0.0318  0.3017
 3440SOL    HW120359   9.632   2.296   0.727 -0.6540  0.4142 -0.4677
 3440SOL    HW220360   9.517   2.206   0.802  2.1965 -1.3645  1.8793
 3441SOL     OW20361   1.382   1.972   0.861 -0.4369  0.3620 -0.2116
 3441SOL    HW120362   1.315   1.946   0.792  1.4895 -2.0137 -1.2448
 3441SOL    HW220363   1.454   2.028   0.820  1.9326 -2.9233 -0.7574
 3442SOL     OW20364   1.751   9.906   2.747 -0.5756 -0.5718 -0.1426
 3442SOL    HW120365   1.735   9.916   2.846 -0.8819  0.6695 -0.3088
 3442SOL    HW220366   1.847   9.883   2.731 -0.4119 -0.2947  0.4223
 3443SOL     OW20367   3.421   9.350   0.825 -0.1681 -0.0946  1.0276
 3443SOL    HW120368   3.462   9.283   0.887 -0.3889  0.3462  1.6550
 3443SOL    HW220369   3.354   9.405   0.875 -2.3980 -1.5912 -0.2799
 3444SOL     OW20370   4.126   3.276   2.502 -0.5495  0.1425 -0.5053
 3444SOL    HW120371   4.143   3.351   2.566  1.0714  2.2606 -3.3055
 3444SOL    HW220372   4.200   3.210   2.507 -0.2269  0.5062 -0.4735
 3445SOL     OW20373   8.463   2.096   2.794  0.2657  0.0933  0.4412
 3445SOL    HW120374   8.420   2.006   2.797  0.2032  0.0897 -0.3018
 3445SOL    HW220375   8.430   2.152   2.870 -0.3233 -0.2306  0.4294
 3446SOL     OW20376   3.750   9.745   0.846  0.2976  0.1773 -0.3463
 3446SOL    HW120377   3.665   9.703   0.815  0.1142  1.1009 -1.1392
 3446SOL    HW220378   3.752   9.748   0.946 -0.5283  0.0008 -0.3251
 3447SOL     OW20379   9.324   1.899   2.321  0.2114 -0.0285 -0.0202
 3447SOL    HW120380   9.246   1.956   2.293  1.3592  0.9473 -1.2797
 3447SOL    HW220381   9.323   1.814   2.268  0.2411  0.1694 -0.3420
 3448SOL     OW20382   1.730   9.837   0.251 -0.5244  0.4593 -0.0099
 3448SOL    HW120383   1.747   9.755   0.305 -0.0727  0.1056 -0.6911
 3448SOL    HW220384   1.817   9.879   0.225 -0.6121 -1.3832 -3.5396
 3449SOL     OW20385   0.990   1.536   2.393 -0.1233 -0.2859 -0.5724
 3449SOL    HW120386   0.909   1.561   2.447  0.7884 -3.4481  2.4398
 3449SOL    HW220387   0.974   1.448   2.348  1.7630 -1.1823  0.4464
 3450SOL     OW20388   9.475   3.289   2.661  0.2441  0.1285  0.0489
 3450SOL    HW120389   9.571   3.316   2.665  0.4105 -0.4860  0.3863
 3450SOL    HW220390   9.469   3.189   2.651 -0.3595 -0.0024  1.4937
 3451SOL     OW20391   2.796   3.999   0.521 -0.4819  0.0215  0.1752
 3451SOL    HW120392   2.836   3.909   0.538 -1.0229 -0.1731  0.4062
 3451SOL    HW220393   2.767   4.039   0.608  1.3433  1.1612  0.2937
 3452SOL     OW20394   9.484   1.011   1.390 -0.0805  0.4813 -0.2587
 3452SOL    HW120395   9.520   1.056   1.308  0.9717  1.7959  0.8952
 3452SOL    HW220396   9.545   0.937   1.417  1.0010  1.7265  0.8120
 3453SOL     OW20397   1.430   3.128   2.736  0.4065  0.4168 -0.6159
 3453SOL    HW120398   1.494   3.190   2.781 -0.1129  0.5198 -0.0204
 3453SOL    HW220399   1.390   3.174   2.657  0.6866  0.5269 -0.6970
 3454SOL     OW20400   1.124   9.964   1.414 -0.1045  0.2579  0.0522
 3454SOL    HW120401   1.124   9.979   1.513 -0.0119 -1.1453  0.2889
 3454SOL    HW220402   1.107  10.050   1.366 -2.1270  0.5994  1.3444
 3455SOL     OW20403   2.801   1.625   2.262 -0.6614 -0.4138 -0.6983
 3455SOL    HW120404   2.768   1.684   2.188 -2.4171 -2.4249 -1.5973
 3455SOL    HW220405   2.726   1.566   2.293 -0.4075  1.4228  3.8105
 3456SOL     OW20406   0.837   4.575   1.762  0.3854  0.0457  0.3118
 3456SOL    HW120407   0.822   4.619   1.850  0.2646 -2.0488  1.3746
 3456SOL    HW220408   0.935   4.567   1.744  0.4119  2.9194 -1.0413
 3457SOL     OW20409   0.418   3.164   0.772  0.5692  0.5036 -0.5393
 3457SOL    HW120410   0.435   3.210   0.859  1.2629  0.2483 -0.5359
 3457SOL    HW220411   0.396   3.232   0.702 -0.7409  0.6551  0.0043
 3458SOL     OW20412   0.622   0.188   1.697 -0.5176  0.4095  0.3854
 3458SOL    HW120413   0.608   0.227   1.788  0.4271 -1.3070  1.2860
 3458SOL    HW220414   0.719   0.167   1.684 -0.7318  0.1325 -0.8072
 3459SOL     OW20415   0.116   0.562   1.551  0.0713  0.1969 -0.4398
 3459SOL    HW120416   0.208   0.573   1.588  0.0672 -0.5478 -0.2074
 3459SOL    HW220417   0.068   0.490   1.601 -0.3334 -0.0204 -1.1316
 3460SOL     OW20418   3.312   0.674   1.169 -0.7155  0.6075  0.1459
 3460SOL    HW120419   3.213   0.685   1.157 -0.2855  0.8468 -3.6064
 3460SOL    HW220420   3.345   0.603   1.106  1.7939  1.9309 -0.0521
 3461SOL     OW20421   3.700   7.717   2.232 -0.4797 -0.2040  0.5532
 3461SOL    HW120422   3.698   7.682   2.326  0.1909 -1.6830  0.0375
 3461SOL    HW220423   3.622   7.681   2.181 -0.3789 -0.0815  0.3126
 3462SOL     OW20424   1.454   6.763   1.576 -0.5424 -1.0903  0.2676
 3462SOL    HW120425   1.519   6.817   1.523 -0.4261 -1.1120  0.3873
 3462SOL    HW220426   1.364   6.807   1.574 -0.4766 -0.9561  0.2640
 3463SOL     OW20427   0.943   2.584   0.639 -0.0150 -0.2750  0.2886
 3463SOL    HW120428   1.012   2.611   0.572  2.5096 -2.5671  1.8671
 3463SOL    HW220429   0.899   2.500   0.610  1.6541 -1.7205  1.8197
 3464SOL     OW20430   1.424   2.391   0.303 -0.2586 -0.1354 -0.6190
 3464SOL    HW120431   1.373   2.336   0.237 -0.8512 -1.1280  0.6344
 3464SOL    HW220432   1.470   2.467   0.256 -1.4508 -0.2639 -2.0126
 3465SOL     OW20433   1.818   0.511   2.226  0.1075 -0.3128  0.1621
 3465SOL    HW120434   1.808   0.447   2.150  1.2634 -0.2212 -0.0758
 3465SOL    HW220435   1.899   0.487   2.280 -1.2691 -0.9754  1.9624
 3466SOL     OW20436   0.366   4.554   1.160 -0.8703 -0.2265 -0.1410
 3466SOL    HW120437   0.450   4.567   1.213 -0.1684  0.3940 -1.3838
 3466SOL    HW220438   0.297   4.510   1.218  0.4958 -1.2940  0.7127
 3467SOL     OW20439   1.914   2.035   2.584  0.1933  0.1799 -0.5422
 3467SOL    HW120440   1.869   2.066   2.500  1.8133  1.1671 -1.0800
 3467SOL    HW220441   1.883   2.091   2.661  1.8896  2.1752 -1.2364
 3468SOL     OW20442   4.739   2.344   1.430  0.0916 -0.4698 -0.1733
 3468SOL    HW120443   4.701   2.252   1.426  0.9130 -0.8324  0.1481
 3468SOL    HW220444   4.674   2.406   1.473 -0.7751 -0.7352 -1.0777
 3469SOL     OW20445   3.328   2.997   1.366 -0.1319  0.7698 -0.2633
 3469SOL    HW120446   3.359   3.029   1.455  0.7868  1.0304 -0.6760
 3469SOL    HW220447   3.402   3.006   1.299 -0.6940  0.2263 -0.9683
 3470SOL     OW20448   2.273   7.684   0.121 -0.0948 -0.0137  0.0952
 3470SOL    HW120449   2.209   7.630   0.176 -0.6226  0.5094  0.0046
 3470SOL    HW220450   2.227   7.712   0.036  1.3568 -2.5638 -1.6033
 3471SOL     OW20451   2.097   2.235   0.957 -0.5582  0.2090 -0.1863
 3471SOL    HW120452   2.011   2.191   0.984  0.1023 -0.0315  1.5975
 3471SOL    HW220453   2.169   2.209   1.020  0.5391  1.4665 -0.8913
 3472SOL     OW20454   0.975   5.756   2.581 -0.1503  0.0324  0.4524
 3472SOL    HW120455   0.940   5.838   2.536  1.3313 -0.5017 -1.7355
 3472SOL    HW220456   0.917   5.678   2.558  0.1988 -0.1070  0.0442
 3473SOL     OW20457   0.101   1.119   1.236  0.3039 -0.0982 -0.2422
 3473SOL    HW120458   0.197   1.119   1.264  0.1331  0.3022  0.3461
 3473SOL    HW220459   0.079   1.207   1.195 -0.1991  0.3314  0.9525
 3474SOL     OW20460   9.613   1.477   0.925  1.1879 -0.3376 -0.7863
 3474SOL    HW120461   9.647   1.511   0.837  0.6609 -0.7475 -1.1495
 3474SOL    HW220462   9.607   1.377   0.922  0.1619 -0.2879 -0.6566
 3475SOL     OW20463   9.143   1.854   0.137 -0.3434  0.4776  0.2043
 3475SOL    HW120464   9.206   1.927   0.112  1.1682 -0.0098  2.4161
 3475SOL    HW220465   9.101   1.874   0.226 -0.9686 -0.6818  0.1927
 3476SOL     OW20466   2.230   8.362   0.398  0.0439 -0.4491  0.6774
 3476SOL    HW120467   2.222   8.450   0.446 -1.2546 -1.1616  1.8060
 3476SOL    HW220468   2.307   8.366   0.335 -0.1216  1.5855  0.5477
 3477SOL     OW20469   2.378   0.996   1.530  0.5005  0.0024 -0.7262
 3477SOL    HW120470   2.362   1.075   1.472 -1.0105  0.5020  0.3371
 3477SOL    HW220471   2.451   1.017   1.595  0.1410  0.5025 -0.4834
 3478SOL     OW20472   8.452   1.324   1.901 -0.7053 -0.1745  0.4040
 3478SOL    HW120473   8.367   1.354   1.859 -0.7436 -0.8392  0.0060
 3478SOL    HW220474   8.457   1.358   1.995 -0.1616  2.1693 -0.4351
 3479SOL     OW20475   3.008   3.242   0.450  0.4311  0.5225 -0.1487
 3479SOL    HW120476   2.933   3.256   0.386  0.7191 -0.9569 -0.8361
 3479SOL    HW220477   3.092   3.219   0.400  0.6713 -0.5820  0.7254
 3480SOL     OW20478   2.752   9.350   2.204  0.7459 -0.0273  0.1902
 3480SOL    HW120479   2.723   9.383   2.115  0.4517 -1.0154 -0.0867
 3480SOL    HW220480   2.811   9.418   2.248  1.0754  0.3595 -0.8518
 3481SOL     OW20481   2.059   8.617   0.509 -0.3253  0.2505 -0.1957
 3481SOL    HW120482   2.003   8.544   0.471  0.4904 -0.3508 -0.2662
 3481SOL    HW220483   2.035   8.704   0.465 -1.6994  0.1311  0.2997
 3482SOL     OW20484   2.435   8.371   2.458  0.2473  0.5683  0.4034
 3482SOL    HW120485   2.427   8.450   2.397  1.4393 -0.0835 -0.6200
 3482SOL    HW220486   2.480   8.399   2.543 -0.0741  1.1682  0.3762
 3483SOL     OW20487   2.074   3.842   0.454 -0.6820  0.0897 -0.1104
 3483SOL    HW120488   2.117   3.903   0.519 -0.3976 -0.8672  0.6031
 3483SOL    HW220489   2.138   3.822   0.380 -0.5825  0.2088 -0.0567
 3484SOL     OW20490   9.554   0.650   1.111 -0.0692  0.4002 -0.1041
 3484SOL    HW120491   9.552   0.731   1.053  0.9101 -1.3251 -2.6068
 3484SOL    HW220492   9.481   0.587   1.083  1.1040 -0.9371 -0.1847
 3485SOL     OW20493   3.508   1.905   1.633  0.1565 -0.2283  0.6898
 3485SOL    HW120494   3.464   1.844   1.699  1.0304 -0.2143  1.2854
 3485SOL    HW220495   3.587   1.859   1.594 -0.6220 -0.4123 -0.6985
 3486SOL     OW20496   3.311   1.882   0.078 -0.2421  0.5545 -0.1098
 3486SOL    HW120497   3.385   1.886   0.011 -0.6007 -1.4775 -0.6734
 3486SOL    HW220498   3.304   1.789   0.114 -3.0873  0.4574 -0.7717
 3487SOL     OW20499   2.071   0.539   0.601 -0.1043  0.1306 -0.1406
 3487SOL    HW120500   2.007   0.584   0.664 -1.1893  1.2149 -1.9647
 3487SOL    HW220501   2.085   0.444   0.629 -2.0120  0.0658  0.6587
 3488SOL     OW20502   0.143   4.509   2.111 -0.4215  0.1623 -0.0462
 3488SOL    HW120503   0.215   4.487   2.045  0.7327  2.3696  0.4184
 3488SOL    HW220504   0.072   4.439   2.108  1.8326 -2.1883 -0.3737
 3489SOL     OW20505   1.941   4.779   1.206 -0.6324  0.0611 -0.0478
 3489SOL    HW120506   1.871   4.765   1.135 -0.2718  1.8484 -0.7957
 3489SOL    HW220507   1.944   4.699   1.266 -1.2817 -1.2885 -1.7631
 3490SOL     OW20508   3.160   2.331   2.201  0.6662 -0.0656  0.2665
 3490SOL    HW120509   3.081   2.305   2.146  1.7327  0.0754 -1.3552
 3490SOL    HW220510   3.227   2.378   2.143  1.6269  0.4537  1.7738
 3491SOL     OW20511   0.128   0.340   0.860  0.3983 -0.2624  0.5044
 3491SOL    HW120512   0.067   0.341   0.781 -0.3063 -1.9369  1.0016
 3491SOL    HW220513   0.205   0.280   0.843  1.4661  1.1694  0.2188
 3492SOL     OW20514   0.927   1.463   0.901 -0.2802  0.4313  0.2882
 3492SOL    HW120515   0.911   1.423   0.991 -1.2133  0.1974  0.0237
 3492SOL    HW220516   0.988   1.542   0.910 -0.9045  0.8121  1.2108
 3493SOL     OW20517   3.519   0.527   2.644 -0.3202 -0.1004  0.1346
 3493SOL    HW120518   3.511   0.434   2.606  0.4469 -1.0715  2.3040
 3493SOL    HW220519   3.580   0.526   2.722 -1.4225  1.9944  1.0550
 3494SOL     OW20520   9.990   2.910   0.254 -0.4194  0.0432  0.0075
 3494SOL    HW120521  10.007   2.828   0.201 -1.7640 -0.9892  1.1238
 3494SOL    HW220522   9.967   2.885   0.348 -0.1992  1.7278  0.5360
 3495SOL     OW20523   0.910   2.333   0.970 -0.0945 -0.6841 -0.4879
 3495SOL    HW120524   0.913   2.433   0.967  0.8708 -0.7247 -1.0513
 3495SOL    HW220525   0.814   2.303   0.968 -0.3653  0.1978 -1.2292
 3496SOL     OW20526   2.210   5.333   0.764  0.2585 -0.4366  0.3131
 3496SOL    HW120527   2.179   5.241   0.789  0.4501 -0.8147 -0.8289
 3496SOL    HW220528   2.139   5.379   0.712 -0.6288  0.8107  2.5725
 3497SOL     OW20529   2.081   9.541   1.969 -0.2625 -0.8230  0.3242
 3497SOL    HW120530   1.998   9.568   2.017  0.7376  0.3806  1.4032
 3497SOL    HW220531   2.072   9.563   1.872 -0.8210  0.2009  0.6041
 3498SOL     OW20532   0.195   5.258   0.826  0.1761  0.1049  0.1924
 3498SOL    HW120533   0.257   5.195   0.780 -1.1289 -0.3646 -0.9749
 3498SOL    HW220534   0.156   5.321   0.758  0.7997  1.6040  1.2022
 3499SOL     OW20535   0.845   0.697   2.212  0.2824  0.0181  0.5871
 3499SOL    HW120536   0.888   0.622   2.262 -0.1259  0.1847  1.1916
 3499SOL    HW220537   0.783   0.660   2.143  2.0754 -0.2557 -0.9471
 3500SOL     OW20538   2.731   7.496   0.955 -0.2565  0.4370 -0.1742
 3500SOL    HW120539   2.742   7.397   0.967 -2.0315 -0.0970 -2.4279
 3500SOL    HW220540   2.714   7.515   0.858 -0.2319  2.9276  0.2913
 3501SOL     OW20541   1.022   5.660   0.433 -0.2345  0.2773 -0.1533
 3501SOL    HW120542   1.120   5.679   0.444  0.0588 -1.7913  1.0606
 3501SOL    HW220543   0.973   5.745   0.415  1.6596  1.4550  0.1807
 3502SOL     OW20544   0.782   5.483   0.482 -0.5702 -0.9899  0.3852
 3502SOL    HW120545   0.736   5.516   0.400 -0.6392 -0.8871  0.4656
 3502SOL    HW220546   0.874   5.524   0.487 -1.1749  0.2858  1.2181
 3503SOL     OW20547   3.719   3.745   1.665 -0.7045 -0.0052 -0.6643
 3503SOL    HW120548   3.784   3.764   1.738 -2.2386 -0.2001  0.7677
 3503SOL    HW220549   3.715   3.823   1.603  0.4002  0.2694 -0.4016
 3504SOL     OW20550   2.393   0.222   1.237 -0.6743  0.0547  0.7415
 3504SOL    HW120551   2.394   0.288   1.162 -0.8231  0.9892  1.5523
 3504SOL    HW220552   2.483   0.222   1.282 -0.4806 -0.7413  0.3646
 3505SOL     OW20553   1.076   0.193   1.000  0.1488 -0.4938  0.2174
 3505SOL    HW120554   1.136   0.114   1.013 -0.9909 -1.8956 -2.5356
 3505SOL    HW220555   0.983   0.162   0.981 -0.3696  1.5239 -0.7388
 3506SOL     OW20556   1.900   0.732   2.090 -0.8229  0.3423 -0.2325
 3506SOL    HW120557   1.843   0.756   2.011 -1.1117 -0.4247 -0.2655
 3506SOL    HW220558   1.852   0.665   2.147 -0.6344  0.9277  0.6214
 3507SOL     OW20559   1.103   3.089   0.978 -0.0141 -0.2590 -0.5004
 3507SOL    HW120560   1.192   3.126   1.004  0.5873 -0.0473 -2.7865
 3507SOL    HW220561   1.034   3.119   1.044  1.1183  1.8822 -0.2423
 3508SOL     OW20562   9.206   1.503   1.999  0.2135  0.0977  0.0794
 3508SOL    HW120563   9.190   1.556   1.916  0.6142  1.7022  1.0010
 3508SOL    HW220564   9.252   1.417   1.975  1.2938  1.0149 -1.2461
 3509SOL     OW20565   1.597   6.382   1.834 -0.2549 -0.7337  0.4491
 3509SOL    HW120566   1.634   6.332   1.756  0.5364 -0.9797  0.9811
 3509SOL    HW220567   1.506   6.416   1.811 -0.2251 -1.2172 -0.4106
 3510SOL     OW20568   9.973   3.010   2.734 -0.3524 -0.1388 -0.0869
 3510SOL    HW120569   9.928   2.986   2.821 -0.5219 -0.2426 -0.2034
 3510SOL    HW220570   9.988   3.109   2.731  2.2130 -0.4284  1.2949
 3511SOL     OW20571   8.881   4.051   0.517 -0.5083 -0.1761  0.9830
 3511SOL    HW120572   8.792   4.060   0.561 -0.4654 -0.6319  1.1615
 3511SOL    HW220573   8.912   4.141   0.487 -1.2864 -0.1006  0.3974
 3512SOL     OW20574   2.983   2.836   1.843  0.1661 -0.3340  0.3556
 3512SOL    HW120575   3.052   2.836   1.916  0.8599  1.8904 -0.2696
 3512SOL    HW220576   3.028   2.830   1.754 -0.4437  0.9541 -0.0486
 3513SOL     OW20577   3.455   2.830   2.421  0.1732 -0.1122 -0.1765
 3513SOL    HW120578   3.553   2.842   2.412  0.2177 -1.1504 -1.1375
 3513SOL    HW220579   3.436   2.740   2.461 -0.4512 -0.9078 -2.2281
 3514SOL     OW20580   9.981   2.610   0.937 -0.3553 -0.1852  0.3391
 3514SOL    HW120581   9.966   2.519   0.975  0.4721 -0.0967  0.8906
 3514SOL    HW220582  10.077   2.636   0.948 -0.3021  0.2126 -1.0128
 3515SOL     OW20583   9.708   1.604   2.766 -0.1412 -0.7011 -0.3468
 3515SOL    HW120584   9.676   1.544   2.692 -0.8074 -2.3433  1.2466
 3515SOL    HW220585   9.673   1.697   2.751  0.1162 -0.9075 -2.3354
 3516SOL     OW20586   0.222   0.828   0.486  0.2445 -0.0021  0.4218
 3516SOL    HW120587   0.175   0.879   0.558 -1.3875 -0.9374  0.0425
 3516SOL    HW220588   0.158   0.810   0.411  0.9706 -1.9960  0.2479
 3517SOL     OW20589   1.857   9.602   2.151 -0.0955  0.0470 -0.4959
 3517SOL    HW120590   1.822   9.685   2.195  1.2642  0.8023 -0.8084
 3517SOL    HW220591   1.913   9.551   2.216 -0.0241 -0.0648 -0.6449
 3518SOL     OW20592   1.159   9.964   0.603 -0.2974 -0.0532  0.4742
 3518SOL    HW120593   1.063   9.957   0.579 -0.8257 -0.8687  2.6826
 3518SOL    HW220594   1.189  10.059   0.594 -1.8972  0.6046  1.7830
 3519SOL     OW20595   9.193   2.430   1.084 -0.5356  0.2786  0.0396
 3519SOL    HW120596   9.160   2.382   1.165 -2.5652  0.2532 -0.7869
 3519SOL    HW220597   9.145   2.516   1.073 -0.3385  0.2520 -1.1873
 3520SOL     OW20598   0.528   6.385   0.964 -0.5044  0.1151 -0.1864
 3520SOL    HW120599   0.553   6.440   1.044 -0.0997 -0.5134  0.1297
 3520SOL    HW220600   0.582   6.300   0.965  0.8399  0.9294 -2.1054
 3521SOL     OW20601   0.173   4.682   1.813 -0.2815  0.5196  0.4478
 3521SOL    HW120602   0.242   4.752   1.828  1.0586 -0.2359 -2.0142
 3521SOL    HW220603   0.083   4.719   1.837  0.7030  2.1901  1.6942
 3522SOL     OW20604   4.014   1.635   1.515  0.1021 -0.4408  0.9870
 3522SOL    HW120605   4.110   1.607   1.513  0.1788 -0.0355 -2.1173
 3522SOL    HW220606   3.963   1.584   1.446 -1.2104  1.9172  0.1859
 3523SOL     OW20607   3.485   7.605   2.099 -0.0872  0.0397  0.0758
 3523SOL    HW120608   3.424   7.629   2.023 -0.3497  0.1880  0.3294
 3523SOL    HW220609   3.447   7.526   2.147  0.3223 -0.3473 -0.2295
 3524SOL     OW20610   9.286   1.138   0.402  0.1143 -0.6941 -0.2182
 3524SOL    HW120611   9.269   1.049   0.444  0.1139 -0.7176 -0.2687
 3524SOL    HW220612   9.331   1.126   0.314 -1.1387 -0.6954 -0.8614
 3525SOL     OW20613   3.658   9.322   1.553 -0.2388  0.2278 -0.4065
 3525SOL    HW120614   3.661   9.241   1.495  0.3088  0.4965 -0.7561
 3525SOL    HW220615   3.734   9.319   1.619  0.1582  0.7620 -0.8349
 3526SOL     OW20616   1.635   7.292   1.247  0.3364 -0.0632 -0.3663
 3526SOL    HW120617   1.651   7.354   1.324  0.9888  0.2221 -0.7342
 3526SOL    HW220618   1.722   7.260   1.211 -0.0083 -2.1777  0.6055
 3527SOL     OW20619   2.673   2.475   2.611 -0.2432  0.5221 -0.4531
 3527SOL    HW120620   2.622   2.527   2.542 -0.5391  0.0317 -0.6058
 3527SOL    HW220621   2.610   2.433   2.675 -0.0164  0.1778 -0.4534
 3528SOL     OW20622   4.518   2.357   1.932  0.5732  0.2472  0.5898
 3528SOL    HW120623   4.601   2.332   1.882 -0.3767  1.0310 -1.4209
 3528SOL    HW220624   4.487   2.447   1.902 -2.0576 -0.8534 -0.0958
 3529SOL     OW20625   2.728   0.277   0.955 -0.4226  0.2073 -0.4243
 3529SOL    HW120626   2.654   0.246   0.894  0.5109  0.5481 -1.7355
 3529SOL    HW220627   2.771   0.358   0.916  1.6188 -0.8594 -0.4079
 3530SOL     OW20628   3.418   1.486   1.432  0.8826 -0.3442 -0.0043
 3530SOL    HW120629   3.407   1.566   1.372 -1.7228 -1.8410 -1.6524
 3530SOL    HW220630   3.376   1.505   1.520  2.0001  0.7895  0.2954
 3531SOL     OW20631   9.099   4.565   1.692 -0.0576 -0.0464  0.2633
 3531SOL    HW120632   9.006   4.549   1.660 -1.0175  2.6699  1.5660
 3531SOL    HW220633   9.147   4.623   1.627 -0.6667  2.0139  1.5974
 3532SOL     OW20634   0.887   1.097   1.073  1.0323 -0.2937 -0.0985
 3532SOL    HW120635   0.876   1.191   1.105  2.1014 -0.1101 -0.2286
 3532SOL    HW220636   0.863   1.091   0.976  1.6364  0.0038 -0.2720
 3533SOL     OW20637   2.182   5.778   1.404 -0.0150 -0.4644  0.0451
 3533SOL    HW120638   2.230   5.838   1.341 -1.0521 -0.9416 -1.2175
 3533SOL    HW220639   2.248   5.733   1.465  1.0676 -0.5819 -1.1963
 3534SOL     OW20640   9.324   2.019   1.758  0.3858  0.6967 -0.2486
 3534SOL    HW120641   9.368   2.016   1.668  1.4613  1.5570  0.2302
 3534SOL    HW220642   9.393   2.037   1.828 -0.6054  1.1178  0.6342
 3535SOL     OW20643   1.600   5.825   0.709 -0.1058 -0.5199 -0.1107
 3535SOL    HW120644   1.591   5.907   0.653 -1.3738  0.2992  1.2520
 3535SOL    HW220645   1.629   5.850   0.802 -3.8095 -1.2247  1.3173
 3536SOL     OW20646   1.764   4.233   0.543 -0.0455  0.4299 -0.0399
 3536SOL    HW120647   1.809   4.269   0.462  2.6594 -2.1410  0.2280
 3536SOL    HW220648   1.665   4.226   0.526  0.3151  1.1102 -2.6425
 3537SOL     OW20649   0.400   4.428   2.268 -0.5994 -0.8159 -0.3067
 3537SOL    HW120650   0.315   4.464   2.229 -0.7272 -2.1514 -1.3050
 3537SOL    HW220651   0.418   4.472   2.356 -1.8308  0.1523 -0.5263
 3538SOL     OW20652   3.065   3.479   1.728 -0.1715 -0.4005  0.4856
 3538SOL    HW120653   2.969   3.485   1.756 -0.5064  0.0418 -0.7583
 3538SOL    HW220654   3.111   3.565   1.747 -0.3853 -0.1187 -0.2588
 3539SOL     OW20655   9.033   3.419   1.653  0.2998  0.2923  0.0097
 3539SOL    HW120656   8.986   3.363   1.584 -1.2965 -0.0835  1.3799
 3539SOL    HW220657   9.019   3.516   1.633 -0.1637  0.1855 -0.1786
 3540SOL     OW20658   2.050   3.124   1.198  0.4620 -0.6322  0.0018
 3540SOL    HW120659   2.085   3.153   1.109 -0.7045  0.7830 -0.0202
 3540SOL    HW220660   2.012   3.032   1.191  1.6353 -1.0805 -0.6213
 3541SOL     OW20661   1.185   9.960   1.125 -0.0598  0.3176  0.0699
 3541SOL    HW120662   1.256   9.889   1.125 -1.2975 -0.9639 -1.4610
 3541SOL    HW220663   1.138   9.959   1.214 -0.5116 -1.2878 -0.1570
 3542SOL     OW20664   3.954   3.175   2.731  0.3069  0.2988  0.0623
 3542SOL    HW120665   3.919   3.082   2.723  0.0133  0.2002  2.3568
 3542SOL    HW220666   4.008   3.197   2.649 -2.0184 -0.8282 -1.8403
 3543SOL     OW20667   2.358   8.607   0.283  0.2808 -0.3448 -0.1816
 3543SOL    HW120668   2.385   8.534   0.221  0.2173  0.0488 -0.6749
 3543SOL    HW220669   2.324   8.685   0.230 -0.9167 -0.4688  0.3921
 3544SOL     OW20670   1.772   3.832   0.186  0.4027 -0.6927 -0.4388
 3544SOL    HW120671   1.834   3.758   0.161  1.3308  0.0062 -0.2037
 3544SOL    HW220672   1.816   3.892   0.252 -0.4439 -0.0698 -0.4310
 3545SOL     OW20673   1.468   1.253   1.408  0.2283  0.3374 -0.0410
 3545SOL    HW120674   1.506   1.321   1.471 -1.0195  0.7958  0.2187
 3545SOL    HW220675   1.520   1.255   1.323  1.6681 -0.0001  0.8083
 3546SOL     OW20676   2.093   7.349   0.428  0.0550  0.2708  0.2306
 3546SOL    HW120677   2.043   7.304   0.353 -0.9134  0.5982  0.6652
 3546SOL    HW220678   2.084   7.293   0.511 -0.7541  1.0196  0.6545
 3547SOL     OW20679   0.795   2.542   1.179 -0.2947 -0.5022  0.2506
 3547SOL    HW120680   0.886   2.583   1.172  0.1055 -1.2567  0.9717
 3547SOL    HW220681   0.730   2.595   1.124  0.7507 -0.4420 -0.9539
 3548SOL     OW20682   2.821   8.445   1.673 -0.4575  0.3231  0.0295
 3548SOL    HW120683   2.917   8.424   1.693 -0.2000  1.1501 -0.2889
 3548SOL    HW220684   2.805   8.437   1.575 -0.0750  2.5846 -0.2516
 3549SOL     OW20685   2.251   4.408   2.645 -0.6654  0.3372  0.1238
 3549SOL    HW120686   2.182   4.337   2.662 -0.9433  0.0635 -2.0221
 3549SOL    HW220687   2.300   4.387   2.561  2.1608  0.4593  1.6777
 3550SOL     OW20688   2.477   9.610   0.739  0.2791 -0.8152  0.1866
 3550SOL    HW120689   2.403   9.554   0.701  0.8995  0.2223 -2.6487
 3550SOL    HW220690   2.529   9.555   0.805 -1.4718 -2.3374  0.3492
 3551SOL     OW20691   1.309   8.655   1.058  0.3817 -0.1822 -0.4219
 3551SOL    HW120692   1.346   8.709   0.982  0.2805 -1.0811 -1.1224
 3551SOL    HW220693   1.230   8.701   1.097  0.5476  0.3762 -0.7392
 3552SOL     OW20694   2.085   3.399   0.090 -0.2379 -0.3292 -0.8039
 3552SOL    HW120695   2.150   3.423   0.162 -0.4388  1.5639 -1.2298
 3552SOL    HW220696   2.106   3.452   0.007 -0.2995 -2.1319 -2.0043
 3553SOL     OW20697   0.243   9.686   1.688 -0.5415  1.0439 -0.2976
 3553SOL    HW120698   0.294   9.635   1.619 -0.1293  2.3861 -0.9969
 3553SOL    HW220699   0.220   9.625   1.764  1.3322  0.1863 -0.3821
 3554SOL     OW20700   1.647   1.742   0.172  0.3874  0.3519 -0.6036
 3554SOL    HW120701   1.552   1.771   0.174  0.8459  1.9578 -1.3957
 3554SOL    HW220702   1.692   1.772   0.257 -0.3755 -2.4512  0.8324
 3555SOL     OW20703   2.232   0.576   0.882 -0.4665 -0.0269  0.5455
 3555SOL    HW120704   2.162   0.638   0.918  0.1388  1.8200 -1.3516
 3555SOL    HW220705   2.189   0.513   0.817 -0.5050  0.6017 -0.0414
 3556SOL     OW20706   3.408   0.285   1.191  0.0225 -0.1109  0.0700
 3556SOL    HW120707   3.448   0.335   1.268 -0.0302  2.2075 -1.3488
 3556SOL    HW220708   3.309   0.293   1.193 -0.0027 -0.4070  0.0060
 3557SOL     OW20709   3.700   7.663   0.585 -0.1404 -0.6793  0.7186
 3557SOL    HW120710   3.622   7.725   0.595  1.6589  1.7035  0.4298
 3557SOL    HW220711   3.732   7.636   0.676 -0.6986 -0.8952  0.8546
 3558SOL     OW20712   9.281   2.965   0.946 -0.0475  0.5280  0.6818
 3558SOL    HW120713   9.307   3.040   1.007  0.3220 -0.1940  1.4153
 3558SOL    HW220714   9.219   2.903   0.993 -0.0473  0.1601  0.2049
 3559SOL     OW20715   1.250   3.988   0.350  0.2409 -0.6270  0.0715
 3559SOL    HW120716   1.150   3.987   0.348  0.2511 -1.0188 -0.4179
 3559SOL    HW220717   1.283   4.080   0.331 -0.0092 -0.7241 -0.8499
 3560SOL     OW20718   2.483   9.266   1.299  0.0433  0.9760 -0.0905
 3560SOL    HW120719   2.559   9.331   1.304 -1.4406  2.8180 -0.9437
 3560SOL    HW220720   2.418   9.296   1.230 -1.0990 -0.9952  0.0932
 3561SOL     OW20721   3.631   2.148   1.425 -0.1384 -0.2440 -0.0611
 3561SOL    HW120722   3.628   2.189   1.334 -0.5917 -1.7560 -0.7445
 3561SOL    HW220723   3.694   2.071   1.425 -1.4663 -1.3583  0.4160
 3562SOL     OW20724   3.936   3.904   0.879 -1.0883  0.4144 -0.2527
 3562SOL    HW120725   3.850   3.888   0.829 -0.5695 -0.3107 -0.9295
 3562SOL    HW220726   3.977   3.989   0.847 -1.3915  0.5984 -0.1594
 3563SOL     OW20727   0.167   5.496   0.639  0.2895 -0.5474 -0.0051
 3563SOL    HW120728   0.245   5.515   0.700  1.4842  0.7017 -1.8663
 3563SOL    HW220729   0.200   5.452   0.555 -1.2229 -1.3633 -0.1998
 3564SOL     OW20730   3.892   0.696   0.147 -0.5752  0.2869 -0.6877
 3564SOL    HW120731   3.991   0.683   0.150 -0.7673 -1.0764 -0.2431
 3564SOL    HW220732   3.849   0.645   0.221 -1.7163 -0.0316 -1.5555
 3565SOL     OW20733   1.238   6.468   1.306  0.2335  0.2722 -0.0916
 3565SOL    HW120734   1.306   6.489   1.376  1.4146 -0.0030 -1.1432
 3565SOL    HW220735   1.247   6.533   1.231  0.3966 -0.7499 -0.9599
 3566SOL     OW20736   0.160   0.959   2.598 -0.3455  1.2078  0.0919
 3566SOL    HW120737   0.252   0.951   2.635 -0.4211  0.0913  0.0438
 3566SOL    HW220738   0.094   0.919   2.662 -0.5858  0.2420 -0.7414
 3567SOL     OW20739   2.276   2.496   2.541  0.3781  0.2048 -0.3013
 3567SOL    HW120740   2.304   2.427   2.608  0.7072 -2.9589 -3.5101
 3567SOL    HW220741   2.356   2.542   2.504  0.6889 -1.7289 -2.1734
 3568SOL     OW20742   1.131   3.417   1.148  0.6734 -0.3327 -0.2462
 3568SOL    HW120743   1.148   3.358   1.069 -2.1424  0.2877 -1.3627
 3568SOL    HW220744   1.050   3.385   1.197 -1.3079  2.8918 -1.2596
 3569SOL     OW20745   0.170   1.367   0.926  0.0270  0.4582  0.4526
 3569SOL    HW120746   0.231   1.350   1.004 -0.8126  0.3398  1.0920
 3569SOL    HW220747   0.075   1.364   0.957 -0.3378 -0.1782 -0.6865
 3570SOL     OW20748   9.411   3.324   1.628 -0.3034  0.5940 -0.5153
 3570SOL    HW120749   9.368   3.413   1.609 -1.5701  0.3397  1.0673
 3570SOL    HW220750   9.341   3.260   1.659  1.2665  0.2870  2.5961
 3571SOL     OW20751   3.763   3.961   1.512  0.4321 -0.2067  0.5322
 3571SOL    HW120752   3.847   3.929   1.556 -0.3752 -1.8344  0.9556
 3571SOL    HW220753   3.784   4.034   1.447  1.8952  0.8786  2.1823
 3572SOL     OW20754   0.112   0.541   0.592  0.1757  0.5274 -0.0944
 3572SOL    HW120755   0.198   0.549   0.643  1.1327 -2.0134 -1.2094
 3572SOL    HW220756   0.132   0.518   0.497 -1.7430  0.0398 -0.3977
 3573SOL     OW20757   0.701   3.901   0.986  0.6523 -0.2875 -0.4029
 3573SOL    HW120758   0.604   3.926   0.989  0.5042 -0.9235  0.1177
 3573SOL    HW220759   0.710   3.802   0.988  1.2557 -0.2899 -2.0789
 3574SOL     OW20760   1.191   2.770   2.657  0.1669  0.0141  0.5152
 3574SOL    HW120761   1.279   2.731   2.684  0.3040  0.0483  0.1302
 3574SOL    HW220762   1.198   2.803   2.563 -0.0343  0.6883  0.7352
 3575SOL     OW20763   3.070   1.956   1.083 -0.1879  0.2591 -0.1814
 3575SOL    HW120764   2.971   1.948   1.093  0.0223 -0.3753  1.5237
 3575SOL    HW220765   3.107   2.007   1.160  0.8211  0.5575 -0.8539
 3576SOL     OW20766   1.866   0.609   0.423 -0.5990 -0.6378  0.7947
 3576SOL    HW120767   1.956   0.606   0.468  0.1599  2.1196 -0.3935
 3576SOL    HW220768   1.877   0.593   0.325 -1.4263 -0.4424  0.6694
 3577SOL     OW20769   3.846   1.021   2.367 -0.0324  0.7486 -0.2482
 3577SOL    HW120770   3.800   1.068   2.443  0.8179 -0.3803  0.9854
 3577SOL    HW220771   3.807   0.930   2.356 -0.0004  0.8326 -1.0349
 3578SOL     OW20772   3.245   7.830   2.803 -0.0022  0.2595  0.0157
 3578SOL    HW120773   3.207   7.880   2.881  0.1431  0.3703  0.0153
 3578SOL    HW220774   3.179   7.761   2.773 -0.5986  1.0868 -0.5962
 3579SOL     OW20775   0.908   3.838   1.864 -0.1474  0.3661  0.1749
 3579SOL    HW120776   0.908   3.743   1.897 -2.3658  0.0813 -0.5187
 3579SOL    HW220777   1.001   3.874   1.864  1.2467 -2.9445 -2.7566
 3580SOL     OW20778   8.505   2.031   2.208  0.6003  0.2006  0.3401
 3580SOL    HW120779   8.590   2.020   2.260  0.5137  1.9948  0.8950
 3580SOL    HW220780   8.528   2.054   2.113  0.7490  1.6262  0.7093
 3581SOL     OW20781   1.798   2.085   2.215  0.5774 -0.1117 -0.1536
 3581SOL    HW120782   1.774   2.045   2.127 -0.9062  1.4241 -0.4679
 3581SOL    HW220783   1.723   2.071   2.279  0.7932  0.5868  0.2593
 3582SOL     OW20784   9.663   1.322   1.357 -0.3323  0.3521  0.3759
 3582SOL    HW120785   9.720   1.249   1.397  0.0970  0.5834  0.1940
 3582SOL    HW220786   9.629   1.381   1.430  1.4191  1.4731  0.3334
 3583SOL     OW20787   9.225   0.653   2.496 -0.1278 -0.0595  0.0331
 3583SOL    HW120788   9.158   0.652   2.422  0.3356  0.8991 -0.4045
 3583SOL    HW220789   9.269   0.743   2.501  2.2478 -1.1245 -0.7137
 3584SOL     OW20790   9.074   0.957   2.444 -0.4112 -0.1698 -0.6227
 3584SOL    HW120791   9.054   0.933   2.349 -1.5962 -0.0695 -0.4119
 3584SOL    HW220792   9.088   1.056   2.451  0.1454 -0.2380 -0.7708
 3585SOL     OW20793   0.640   5.814   2.069  0.2158  0.6512 -0.2701
 3585SOL    HW120794   0.740   5.823   2.067 -0.0606  4.2510 -1.1783
 3585SOL    HW220795   0.611   5.751   1.997  1.7415  0.5464 -0.8138
 3586SOL     OW20796   0.606   4.268   1.502 -0.5924  0.4143 -0.4284
 3586SOL    HW120797   0.584   4.262   1.599 -1.0896 -0.5174 -0.5955
 3586SOL    HW220798   0.665   4.347   1.486 -0.3297  0.4411  0.6608
 3587SOL     OW20799   1.505   9.002   2.338  0.3430 -0.0105 -0.8107
 3587SOL    HW120800   1.563   9.084   2.330 -0.0071  0.4227  0.9174
 3587SOL    HW220801   1.458   9.003   2.426 -1.1015 -1.1591 -1.5499
 3588SOL     OW20802   1.734   3.075   1.460 -0.2952 -0.4129 -0.0060
 3588SOL    HW120803   1.828   3.095   1.487 -0.5424 -0.0563  0.5913
 3588SOL    HW220804   1.715   3.121   1.373 -0.1642  0.1709  0.2665
 3589SOL     OW20805   9.821   1.166   2.596 -0.0789 -0.0286  0.2592
 3589SOL    HW120806   9.818   1.068   2.617 -0.9798  0.2245  1.3338
 3589SOL    HW220807   9.915   1.194   2.581  0.4706 -0.4903  2.7116
 3590SOL     OW20808   1.844   3.404   0.609 -0.4280  0.1462 -0.2384
 3590SOL    HW120809   1.891   3.446   0.686  0.9065 -1.4405 -0.1588
 3590SOL    HW220810   1.884   3.315   0.590 -2.0357 -0.3289 -1.5305
 3591SOL     OW20811   2.317   8.512   1.849 -0.4318  0.6021 -0.5353
 3591SOL    HW120812   2.293   8.608   1.859  0.8824  1.0372 -1.4892
 3591SOL    HW220813   2.411   8.504   1.817 -0.1978 -1.0270  0.5193
 3592SOL     OW20814   0.119   1.241   2.189 -0.2690  0.1799 -0.6967
 3592SOL    HW120815   0.132   1.329   2.143  4.3149 -0.0170  0.0586
 3592SOL    HW220816   0.099   1.170   2.122 -0.2932  1.1035 -1.6674
 3593SOL     OW20817   3.167   9.258   0.220 -0.7472 -0.4833 -0.1354
 3593SOL    HW120818   3.179   9.294   0.313 -2.5856 -0.1774  0.0125
 3593SOL    HW220819   3.177   9.332   0.154  1.1514 -0.8144 -0.2320
 3594SOL     OW20820   8.950   4.567   2.549 -0.1815 -0.0753  0.3125
 3594SOL    HW120821   8.986   4.631   2.618 -0.5111 -1.6835  2.0055
 3594SOL    HW220822   9.007   4.572   2.467  1.4195  0.4538  1.4110
 3595SOL     OW20823   3.321   2.526   2.372  0.6409  0.0496  0.2693
 3595SOL    HW120824   3.337   2.432   2.403  0.0471 -0.1292  0.0558
 3595SOL    HW220825   3.230   2.531   2.330  0.7705  0.6676  0.0665
 3596SOL     OW20826   1.297   0.107   2.359 -0.1563  0.2355 -0.0281
 3596SOL    HW120827   1.389   0.145   2.360 -0.4853  1.1892 -1.8796
 3596SOL    HW220828   1.288   0.038   2.430  1.5438  1.1426  1.1101
 3597SOL     OW20829   3.415   2.520   0.726 -0.1330 -0.0535  0.2020
 3597SOL    HW120830   3.321   2.550   0.744  0.2805  1.0220  0.6148
 3597SOL    HW220831   3.462   2.588   0.670  0.9690  0.3198  1.5441
 3598SOL     OW20832   1.676   2.284   2.647 -0.2918 -0.1050 -0.2708
 3598SOL    HW120833   1.704   2.379   2.658 -0.7359 -0.1907  1.9025
 3598SOL    HW220834   1.631   2.253   2.731 -2.0917 -1.5777 -1.7560
 3599SOL     OW20835   2.499   8.132   0.878  0.2947  0.2396  0.1022
 3599SOL    HW120836   2.444   8.050   0.894  0.2541  0.7918  3.1062
 3599SOL    HW220837   2.444   8.214   0.896  1.5995  0.8182  1.6261
 3600SOL     OW20838   2.995   3.341   1.012  0.1815  0.4271 -0.1490
 3600SOL    HW120839   2.909   3.313   0.969  1.0525 -2.6518  0.0460
 3600SOL    HW220840   3.028   3.269   1.073  2.7102  1.7230  0.1076
 3601SOL     OW20841   1.371   6.557   2.046  0.2885 -0.3066  0.4533
 3601SOL    HW120842   1.429   6.631   2.080  1.5220 -1.6880  1.4103
 3601SOL    HW220843   1.371   6.482   2.111 -3.4002  0.0284  0.9730
 3602SOL     OW20844   2.792   0.899   1.878 -0.2486  0.6625 -0.1905
 3602SOL    HW120845   2.848   0.869   1.956 -0.5906 -0.0126 -0.1955
 3602SOL    HW220846   2.778   0.822   1.816  0.2833  1.2752 -1.0902
 3603SOL     OW20847   1.827   1.329   0.371 -0.1058 -0.8648 -0.1625
 3603SOL    HW120848   1.860   1.419   0.342  0.4637 -1.2852 -0.8505
 3603SOL    HW220849   1.754   1.340   0.438 -0.0197  0.1098 -0.2217
 3604SOL     OW20850   8.637   1.529   1.682  0.2276 -0.3306 -0.5440
 3604SOL    HW120851   8.660   1.535   1.585  0.3413 -2.0864 -0.6530
 3604SOL    HW220852   8.542   1.557   1.696 -1.1845 -4.0744 -1.8472
 3605SOL     OW20853   0.810   2.817   0.417 -0.2915 -0.7624  0.2123
 3605SOL    HW120854   0.726   2.764   0.404 -0.4639 -0.4385 -0.0147
 3605SOL    HW220855   0.846   2.802   0.509  1.0182 -3.2243 -0.6553
 3606SOL     OW20856   0.763   2.901   0.763 -0.6054  0.1400  0.3950
 3606SOL    HW120857   0.760   2.953   0.848 -1.2176 -0.2214  0.5950
 3606SOL    HW220858   0.672   2.898   0.722 -0.2258  0.7267 -0.5268
 3607SOL     OW20859   2.635   4.747   1.562 -0.6898 -0.3549 -0.2807
 3607SOL    HW120860   2.537   4.757   1.583 -0.3615  0.1581  1.0514
 3607SOL    HW220861   2.670   4.662   1.601 -0.3212  0.0602  0.2890
 3608SOL     OW20862   8.344   1.804   0.007  0.5309  0.3793  0.7789
 3608SOL    HW120863   8.313   1.722   0.055  1.3610  0.4228  1.4029
 3608SOL    HW220864   8.276   1.830  -0.062  0.6683 -1.2919  0.0023
 3609SOL     OW20865   2.005   1.042   2.085 -0.2505  0.0826 -0.3163
 3609SOL    HW120866   2.052   1.096   2.154  2.4844  0.0358 -2.0659
 3609SOL    HW220867   2.049   0.952   2.076 -0.5780  0.0770 -2.0883
 3610SOL     OW20868   9.234   4.534   1.927 -0.0806 -0.2152 -0.1504
 3610SOL    HW120869   9.205   4.548   1.832  0.4155 -1.1842 -0.4539
 3610SOL    HW220870   9.266   4.440   1.938 -0.6549 -0.2685  1.1195
 3611SOL     OW20871   4.225   1.665   0.803 -0.0932  0.2413 -0.0563
 3611SOL    HW120872   4.146   1.665   0.864  0.5444  0.7993  0.7788
 3611SOL    HW220873   4.288   1.738   0.829  1.5779 -1.3121  0.4641
 3612SOL     OW20874   1.529   4.882   0.508  0.1595  0.0547 -0.2014
 3612SOL    HW120875   1.468   4.931   0.570  0.3896 -1.4524  1.2512
 3612SOL    HW220876   1.607   4.940   0.484 -1.5570  1.7856 -1.6267
 3613SOL     OW20877   2.473   5.346   0.743  0.2173 -0.5215 -0.7307
 3613SOL    HW120878   2.498   5.428   0.691  2.1013 -0.7971 -0.2934
 3613SOL    HW220879   2.374   5.342   0.753 -0.0729  0.3368 -2.9823
 3614SOL     OW20880   8.881   4.043   1.252 -0.0041  0.0253 -0.3048
 3614SOL    HW120881   8.917   4.082   1.167  0.4508 -0.5191 -0.3737
 3614SOL    HW220882   8.940   4.070   1.328  1.1701 -1.6753 -0.5570
 3615SOL     OW20883   9.678   0.590   2.728  0.7697 -0.8184  0.1925
 3615SOL    HW120884   9.760   0.532   2.728 -0.6305 -2.8687 -1.1880
 3615SOL    HW220885   9.637   0.590   2.637 -1.4822 -0.8517  1.1730
 3616SOL     OW20886   9.860   4.921   0.450  0.2429 -0.0410 -0.0389
 3616SOL    HW120887   9.836   4.940   0.545 -0.2477  0.9401 -0.3517
 3616SOL    HW220888   9.847   5.004   0.395 -1.9689 -1.2554 -1.4387
 3617SOL     OW20889   3.443   7.783   0.606  0.5754 -0.4895  0.2234
 3617SOL    HW120890   3.440   7.804   0.508  1.4247 -1.1383  0.0495
 3617SOL    HW220891   3.357   7.740   0.633  0.1288  0.1835 -0.1254
 3618SOL     OW20892   2.562   0.965   2.807  0.2700  0.1566 -0.2689
 3618SOL    HW120893   2.506   0.971   2.725  0.7523  0.1285 -0.6017
 3618SOL    HW220894   2.577   0.869   2.830  0.4190  0.1621 -0.3425
 3619SOL     OW20895   9.293   1.612   2.675 -0.4201  0.0190 -0.2433
 3619SOL    HW120896   9.350   1.571   2.605 -1.2953  0.7737 -1.4086
 3619SOL    HW220897   9.223   1.669   2.633 -0.2910  1.3581  1.2832
 3620SOL     OW20898   3.030   4.160   0.754  0.0843 -0.0733  0.2170
 3620SOL    HW120899   3.111   4.182   0.809  0.2231 -3.2178  1.3505
 3620SOL    HW220900   3.010   4.236   0.692  1.9971  2.0907  2.1585
 3621SOL     OW20901   2.265   1.985   1.302  0.2220  0.1265 -0.1476
 3621SOL    HW120902   2.245   2.073   1.346 -1.8389 -0.9016  1.0628
 3621SOL    HW220903   2.232   1.987   1.208 -3.3967 -0.6291  1.0309
 3622SOL     OW20904   3.557   9.291   0.584 -0.0693 -0.0808  1.0489
 3622SOL    HW120905   3.542   9.327   0.492  0.0652  0.2021  1.1371
 3622SOL    HW220906   3.486   9.326   0.645 -0.5304 -0.7850  0.9106
 3623SOL     OW20907   9.732   1.588   0.703  0.2953 -0.4469 -0.5254
 3623SOL    HW120908   9.805   1.529   0.667 -0.6267 -2.8945  1.4441
 3623SOL    HW220909   9.666   1.607   0.631  2.4527  1.2173 -2.1481
 3624SOL     OW20910   1.088   8.844   0.379 -0.2392 -0.4033 -0.4734
 3624SOL    HW120911   1.061   8.907   0.452  1.6261  0.8209 -0.8062
 3624SOL    HW220912   1.031   8.862   0.298  2.4522  3.2907 -1.7103
 3625SOL     OW20913   2.414   7.225   0.443  0.3255  0.0689  0.3566
 3625SOL    HW120914   2.333   7.261   0.488  0.3058 -1.5403  1.6590
 3625SOL    HW220915   2.496   7.256   0.490  0.3904  0.1154  0.2140
 3626SOL     OW20916   8.569   3.965   1.604 -0.7079  0.6473 -0.3130
 3626SOL    HW120917   8.555   3.972   1.702 -1.0787  1.1359 -0.4014
 3626SOL    HW220918   8.531   3.879   1.571  1.2144 -0.4839  0.2893
 3627SOL     OW20919   0.337   9.833   1.289 -0.1679 -0.0755  0.0443
 3627SOL    HW120920   0.269   9.837   1.362  0.8858  0.8014  0.9992
 3627SOL    HW220921   0.310   9.894   1.214 -0.3177  0.4347  0.5157
 3628SOL     OW20922   3.446   0.477   2.280  0.0440 -0.1044  0.5587
 3628SOL    HW120923   3.413   0.570   2.293 -1.3967 -0.6287  0.7516
 3628SOL    HW220924   3.439   0.452   2.184  0.7396  0.1085  0.4563
 3629SOL     OW20925   3.229   2.466   0.027  0.2882 -0.6464  0.0953
 3629SOL    HW120926   3.182   2.479   0.114  0.6664 -1.1617  0.3730
 3629SOL    HW220927   3.214   2.373  -0.006 -0.8100 -0.1183 -0.9573
 3630SOL     OW20928   2.831   1.400   0.624 -0.6766 -1.0592  0.3895
 3630SOL    HW120929   2.860   1.403   0.720  1.1363 -1.5018 -0.1146
 3630SOL    HW220930   2.911   1.383   0.567 -1.3332  1.6971 -1.4045
 3631SOL     OW20931   3.588   8.225   1.548 -0.5976  0.4088 -0.0051
 3631SOL    HW120932   3.528   8.159   1.501 -2.3473  1.2605  0.9921
 3631SOL    HW220933   3.658   8.256   1.484 -0.3965 -1.5913 -0.8226
 3632SOL     OW20934   1.883   7.797   2.532  0.4079 -0.0597 -0.2908
 3632SOL    HW120935   1.785   7.781   2.526  0.0158  2.3870 -1.0981
 3632SOL    HW220936   1.906   7.836   2.621  0.4116  0.8299 -0.6775
 3633SOL     OW20937   2.099   1.938   1.053  0.1438  0.0718  0.1679
 3633SOL    HW120938   2.085   1.840   1.041 -1.0448  0.5817 -2.9801
 3633SOL    HW220939   2.015   1.980   1.088  1.1091 -0.1848  2.9760
 3634SOL     OW20940   0.445   2.055   1.582 -0.6733 -0.4487 -0.1489
 3634SOL    HW120941   0.452   2.038   1.680 -0.8113  0.6817  0.0613
 3634SOL    HW220942   0.500   2.135   1.558  0.6504 -1.6653 -1.2665
 3635SOL     OW20943   7.820   1.926   1.129  0.1328 -0.1845 -0.4877
 3635SOL    HW120944   7.896   1.913   1.066 -0.5451 -1.4520 -1.0615
 3635SOL    HW220945   7.840   2.003   1.190  1.9348 -0.6163 -0.5096
 3636SOL     OW20946   0.667   2.734   2.321  0.5568 -0.3954 -0.2729
 3636SOL    HW120947   0.687   2.642   2.354  0.1475 -0.5937 -0.5740
 3636SOL    HW220948   0.601   2.729   2.246  0.6744  0.1297 -0.4131
 3637SOL     OW20949   9.847   3.652   2.369  0.3431  0.4184 -0.7743
 3637SOL    HW120950   9.825   3.681   2.276 -0.5880  1.1742 -0.3313
 3637SOL    HW220951   9.833   3.553   2.377 -1.9889  0.7161 -0.7879
 3638SOL     OW20952   1.626   0.337   2.380  0.2780 -0.3419  0.7700
 3638SOL    HW120953   1.640   0.250   2.333 -1.2530  0.5066 -1.3481
 3638SOL    HW220954   1.676   0.409   2.331 -1.6618  0.6190  0.1430
 3639SOL     OW20955   3.279   8.684   0.593  0.0734 -0.2067  0.3470
 3639SOL    HW120956   3.191   8.728   0.612 -0.0599 -1.3580  2.6585
 3639SOL    HW220957   3.353   8.746   0.618 -0.1128 -0.5875  1.8982
 3640SOL     OW20958   8.126   1.734   0.439 -0.1480 -0.0775  0.3104
 3640SOL    HW120959   8.186   1.809   0.466  0.0011 -0.1977  0.3158
 3640SOL    HW220960   8.119   1.669   0.515 -0.0409 -0.2171  0.2021
 3641SOL     OW20961   2.588   1.111   1.689 -0.1456 -0.3277  0.3862
 3641SOL    HW120962   2.679   1.068   1.693 -0.6267 -1.2293  1.9755
 3641SOL    HW220963   2.583   1.185   1.756 -0.1618  0.5561 -0.5903
 3642SOL     OW20964   2.407   8.316   0.195  0.2917  0.4700  0.0250
 3642SOL    HW120965   2.346   8.240   0.175  0.0151  0.1844  1.9337
 3642SOL    HW220966   2.490   8.282   0.240  1.4950  0.9599 -1.7331
 3643SOL     OW20967   2.068   0.402   2.704  0.4200 -0.9731 -0.1133
 3643SOL    HW120968   1.994   0.341   2.676  0.4340 -1.0410 -0.0018
 3643SOL    HW220969   2.037   0.497   2.699 -0.0006 -1.0459  0.8809
 3644SOL     OW20970   1.885   6.218   0.146 -0.1892 -0.1453  0.2876
 3644SOL    HW120971   1.961   6.168   0.189 -1.1473  0.2271  2.4606
 3644SOL    HW220972   1.807   6.156   0.134 -0.9975  0.5351  1.9688
 3645SOL     OW20973   1.386   8.866   0.388  0.0616 -0.2221 -0.1209
 3645SOL    HW120974   1.296   8.829   0.366 -0.5698 -0.7281  3.0791
 3645SOL    HW220975   1.456   8.800   0.362 -0.5807 -0.5644 -1.0300
 3646SOL     OW20976   9.439   2.925   1.691 -0.2397  0.2962  0.0132
 3646SOL    HW120977   9.414   2.892   1.782  1.9203  1.0172  0.9049
 3646SOL    HW220978   9.373   2.995   1.662  0.7574  2.3070  2.3931
 3647SOL     OW20979   3.594   8.530   0.709  0.9980 -0.3070 -0.3853
 3647SOL    HW120980   3.586   8.629   0.701 -0.0728 -0.2017  1.6627
 3647SOL    HW220981   3.607   8.490   0.619 -1.5408  1.4188 -1.5591
 3648SOL     OW20982   9.593   2.229   2.567 -0.1334 -0.5208  0.2061
 3648SOL    HW120983   9.664   2.216   2.636 -1.1130 -2.9661  0.8052
 3648SOL    HW220984   9.550   2.141   2.547 -2.5129  0.8086 -0.6625
 3649SOL     OW20985   9.495   1.956   2.512 -0.3455 -0.4867  0.2004
 3649SOL    HW120986   9.480   1.913   2.601 -1.4568  2.6682  1.5900
 3649SOL    HW220987   9.417   1.938   2.452  0.2569 -2.3381 -0.0594
 3650SOL     OW20988   1.320   1.591   1.243  0.5267 -0.8332 -0.4185
 3650SOL    HW120989   1.278   1.534   1.314  0.5071  0.0150  0.2678
 3650SOL    HW220990   1.273   1.679   1.239  1.8807 -0.0650  0.0010
 3651SOL     OW20991   1.284   2.223   0.156 -0.4647 -0.1098  0.6448
 3651SOL    HW120992   1.256   2.261   0.068  0.0359 -0.4163  0.3489
 3651SOL    HW220993   1.215   2.158   0.187 -0.7216  0.1176  0.5560
 3652SOL     OW20994   2.586   1.044   1.989  0.1174  0.1580 -0.4359
 3652SOL    HW120995   2.493   1.020   1.960 -0.1454  0.9579 -0.2806
 3652SOL    HW220996   2.651   0.982   1.947 -0.5108 -0.5416 -0.3830
 3653SOL     OW20997   1.136   0.314   2.263  0.1356  0.5745  0.0820
 3653SOL    HW120998   1.171   0.222   2.281  0.3946  0.7761  0.6056
 3653SOL    HW220999   1.177   0.348   2.178  0.0779  0.2281 -0.0866
 3654SOL     OW21000   2.626   1.229   0.673  0.0119  0.0250  0.4434
 3654SOL    HW121001   2.694   1.294   0.639 -0.6310  0.5695  0.1751
 3654SOL    HW221002   2.670   1.142   0.694  1.1898  1.0404  2.3740
 3655SOL     OW21003   0.395   5.572   2.692 -0.2814 -0.4924 -0.1294
 3655SOL    HW121004   0.349   5.656   2.720 -0.1174 -0.9520  1.5331
 3655SOL    HW221005   0.328   5.498   2.683 -0.2345 -0.5147 -0.3024
 3656SOL     OW21006   2.392   1.809   1.730  0.2252  0.3510  0.1708
 3656SOL    HW121007   2.431   1.881   1.787 -0.8271  1.6961 -0.7675
 3656SOL    HW221008   2.367   1.731   1.787  0.7540  1.0000  1.3000
 3657SOL     OW21009   8.474   2.534   0.217 -0.4374 -0.2757  0.0827
 3657SOL    HW121010   8.442   2.548   0.123  0.8609  0.1079 -0.3260
 3657SOL    HW221011   8.564   2.578   0.227  0.5696 -2.4254  0.7734
 3658SOL     OW21012   3.019   4.024   0.307 -0.2080  0.0975 -0.3933
 3658SOL    HW121013   2.952   4.074   0.362  1.2892  1.2775  0.3796
 3658SOL    HW221014   3.040   3.937   0.352  2.5054  1.9244  2.0244
 3659SOL     OW21015   3.346   9.938   0.888 -0.3072  0.3853  0.7323
 3659SOL    HW121016   3.410   9.972   0.820  1.2607 -0.5182  1.7266
 3659SOL    HW221017   3.280   9.877   0.845  1.2741 -0.9569  0.1637
 3660SOL     OW21018   2.616   5.023   1.558 -0.4223  0.5736  0.6370
 3660SOL    HW121019   2.619   4.923   1.549 -2.3340  0.6041 -0.7058
 3660SOL    HW221020   2.709   5.060   1.558  0.2405 -0.9346 -2.2267
 3661SOL     OW21021   2.044   0.016   1.156  0.0630  0.1364 -0.5496
 3661SOL    HW121022   2.008  -0.076   1.169 -0.7099  0.4264 -0.5974
 3661SOL    HW221023   2.128   0.027   1.210 -0.1835 -0.3957 -0.0483
 3662SOL     OW21024   8.437   2.922   2.579  0.1952  0.4651 -0.7185
 3662SOL    HW121025   8.506   2.902   2.649  1.0880 -0.7184 -1.8895
 3662SOL    HW221026   8.448   3.017   2.548  0.3865  0.7155  0.0999
 3663SOL     OW21027   9.868   2.748   1.467 -0.6710 -0.2095  0.1293
 3663SOL    HW121028   9.847   2.843   1.488  2.5368  0.0466  2.5709
 3663SOL    HW221029   9.802   2.713   1.401 -1.8412  3.7267 -0.9174
 3664SOL     OW21030   8.128   2.106   1.218  0.5161  0.3827 -0.1412
 3664SOL    HW121031   8.144   2.033   1.152  0.8795  1.9270 -1.8114
 3664SOL    HW221032   8.153   2.194   1.176 -0.0173  1.4674  1.7841
 3665SOL     OW21033   2.920   2.895   2.502  0.4856  0.2612  0.1467
 3665SOL    HW121034   2.898   2.989   2.476 -1.5462 -0.0453  0.6417
 3665SOL    HW221035   2.924   2.888   2.602  1.3058 -0.0298  0.0925
 3666SOL     OW21036   9.875   5.813   1.973  0.2907  0.1447  0.2850
 3666SOL    HW121037   9.969   5.846   1.978 -0.3080  1.9752 -0.0737
 3666SOL    HW221038   9.822   5.849   2.050 -0.2770 -0.3545  0.1391
 3667SOL     OW21039   7.869   1.619   0.010 -0.5889 -0.1186 -0.1137
 3667SOL    HW121040   7.877   1.564  -0.073  1.3423 -0.2957  0.1722
 3667SOL    HW221041   7.827   1.564   0.083  0.3804 -0.8940 -0.1309
 3668SOL     OW21042   0.724   0.564   2.528  0.3595 -0.7921 -0.6776
 3668SOL    HW121043   0.636   0.600   2.498  0.3162 -0.2921  0.0255
 3668SOL    HW221044   0.780   0.541   2.449  0.9099  2.1288 -1.1941
 3669SOL     OW21045   3.078   4.408   2.394  0.3736  0.4106 -0.1766
 3669SOL    HW121046   3.002   4.458   2.353 -0.5835 -0.7353  0.2073
 3669SOL    HW221047   3.079   4.314   2.360  0.5569 -0.0804  1.1646
 3670SOL     OW21048   9.646   4.598   2.738 -0.1986 -0.4809  0.2901
 3670SOL    HW121049   9.659   4.536   2.816 -1.3623 -1.0818  0.0234
 3670SOL    HW221050   9.733   4.639   2.713  0.0262  0.4757  2.5203
 3671SOL     OW21051   3.118   8.194   1.272 -0.1293 -0.0917  0.0975
 3671SOL    HW121052   3.152   8.280   1.234  0.6660 -0.8358 -0.8777
 3671SOL    HW221053   3.019   8.202   1.287  0.0265  1.1850  0.5578
 3672SOL     OW21054   0.217   2.638   1.165  0.5206  0.2060  0.0987
 3672SOL    HW121055   0.251   2.545   1.148 -1.4156 -0.5447  0.2856
 3672SOL    HW221056   0.281   2.704   1.125  2.2417 -1.1698  0.5028
 3673SOL     OW21057   2.389   9.850   0.878 -0.0805 -0.4727  0.0713
 3673SOL    HW121058   2.420   9.833   0.971 -1.6994  1.0833  0.9303
 3673SOL    HW221059   2.423   9.778   0.817  0.3233 -1.9389  1.9963
 3674SOL     OW21060   2.086   2.727   1.136 -0.4336 -0.0867  0.0419
 3674SOL    HW121061   2.150   2.670   1.187 -1.0607 -1.3066 -0.4804
 3674SOL    HW221062   2.029   2.779   1.199 -1.1304 -1.4960  0.5983
 3675SOL     OW21063   0.246   2.921   1.632  0.6645  0.2589 -0.2682
 3675SOL    HW121064   0.213   2.908   1.726  0.8429 -1.3394 -0.4183
 3675SOL    HW221065   0.214   2.846   1.575  0.8495  1.0467 -1.4224
 3676SOL     OW21066   3.467   9.714   1.116  0.0135 -0.2124  0.5283
 3676SOL    HW121067   3.408   9.736   1.039 -1.5187 -2.7918  0.9126
 3676SOL    HW221068   3.454   9.781   1.189 -0.9597  0.3637 -0.1747
 3677SOL     OW21069   9.401   1.976   1.079 -0.5015  0.8481 -0.2652
 3677SOL    HW121070   9.427   2.017   0.991  0.8935 -1.3992 -0.9355
 3677SOL    HW221071   9.454   2.019   1.152  0.2451  0.9223 -0.8398
 3678SOL     OW21072   0.496   0.750   0.179  0.1476  0.1455  0.1937
 3678SOL    HW121073   0.483   0.736   0.277  2.3746  1.3186  0.6953
 3678SOL    HW221074   0.530   0.666   0.138  0.2860 -0.0155  0.6365
 3679SOL     OW21075   2.809   8.593   1.216 -0.1703 -0.5399 -0.3856
 3679SOL    HW121076   2.787   8.645   1.134  0.5066  2.3426  1.1971
 3679SOL    HW221077   2.904   8.609   1.241 -0.7595 -0.2157  1.7647
 3680SOL     OW21078   2.676   0.511   0.631 -0.7277 -0.2960  0.5654
 3680SOL    HW121079   2.658   0.416   0.656  2.1945 -0.6682  1.4480
 3680SOL    HW221080   2.596   0.567   0.653 -1.5672 -2.1402  2.3708
 3681SOL     OW21081   3.693   8.268   1.271  0.2118  0.3646 -0.3827
 3681SOL    HW121082   3.653   8.191   1.221  2.1725 -1.7381  1.1645
 3681SOL    HW221083   3.766   8.309   1.216  0.5978 -0.2567 -0.3419
 3682SOL     OW21084   8.369   2.378   1.743 -0.0484  0.4619 -0.3249
 3682SOL    HW121085   8.376   2.328   1.829 -0.1932  1.5658  0.3451
 3682SOL    HW221086   8.351   2.475   1.762  1.5225  1.0202 -1.5605
 3683SOL     OW21087   1.116   2.684   1.895 -0.7612  0.8305 -0.4954
 3683SOL    HW121088   1.112   2.774   1.939 -0.3318  0.4182  0.4128
 3683SOL    HW221089   1.129   2.613   1.965 -0.1416  0.1462 -1.2905
 3684SOL     OW21090   3.701   9.218   2.190 -0.1123  0.5777  0.3711
 3684SOL    HW121091   3.740   9.309   2.204  0.0219  0.8219 -1.5683
 3684SOL    HW221092   3.656   9.213   2.101 -0.0334 -1.2781  0.4102
 3685SOL     OW21093   4.478   3.083   0.927 -0.2195 -0.2242 -0.1089
 3685SOL    HW121094   4.440   3.109   0.838 -0.7323  0.5326  0.3199
 3685SOL    HW221095   4.550   3.146   0.953 -0.9387  0.3245  0.5865
 3686SOL     OW21096   3.055   0.692   1.502 -0.2309 -0.3650 -0.7710
 3686SOL    HW121097   3.154   0.705   1.497 -0.0504 -0.6883  1.6567
 3686SOL    HW221098   3.010   0.762   1.446  1.3300  0.2908 -1.2471
 3687SOL     OW21099   3.784   2.638   0.653  0.2305  0.7088 -0.3152
 3687SOL    HW121100   3.771   2.737   0.655 -1.3482  0.5124  0.0241
 3687SOL    HW221101   3.743   2.598   0.735  0.7227 -0.2535 -0.5337
 3688SOL     OW21102   0.078   5.640   0.950 -0.4497  0.1696  0.4263
 3688SOL    HW121103   0.004   5.661   1.014 -0.7224  0.3509  0.0507
 3688SOL    HW221104   0.140   5.718   0.945 -0.4402  0.1640  0.4540
 3689SOL     OW21105   1.334   9.041   2.114 -0.0859  0.3320  0.4787
 3689SOL    HW121106   1.362   9.034   2.210  0.7633  0.3964  0.2464
 3689SOL    HW221107   1.407   9.086   2.062  0.5852 -1.9918 -0.6809
 3690SOL     OW21108   1.137   7.005   0.585 -0.6852 -0.2540 -0.3874
 3690SOL    HW121109   1.037   7.011   0.579 -0.8682 -2.6178 -0.1612
 3690SOL    HW221110   1.171   6.940   0.518  0.5333 -0.8357  0.7527
 3691SOL     OW21111   1.367   0.738   0.381  0.0584 -0.1772  0.0051
 3691SOL    HW121112   1.274   0.702   0.378 -0.0999  0.0035  1.8833
 3691SOL    HW221113   1.422   0.695   0.309 -1.1075 -1.3533 -0.2054
 3692SOL     OW21114   1.543   5.327   1.757  0.2081 -0.3321 -0.0747
 3692SOL    HW121115   1.463   5.365   1.710 -0.4390 -1.7570 -0.1320
 3692SOL    HW221116   1.622   5.386   1.739 -0.8237  1.1151  0.0218
 3693SOL     OW21117   9.241   3.931   0.872  0.4210 -0.2874  0.0727
 3693SOL    HW121118   9.185   3.938   0.789 -0.3906  3.7474  0.8757
 3693SOL    HW221119   9.337   3.922   0.847 -0.0413 -1.7934 -1.2693
 3694SOL     OW21120   1.693   1.484   0.050 -0.0871 -0.2205 -0.2690
 3694SOL    HW121121   1.668   1.569   0.098  0.2669 -0.8417  1.0401
 3694SOL    HW221122   1.785   1.493   0.013 -0.7973  0.6908 -1.8616
 3695SOL     OW21123   0.754   0.451   0.522 -0.5785 -0.4689 -0.3268
 3695SOL    HW121124   0.770   0.505   0.605  2.8713 -0.1681 -1.1024
 3695SOL    HW221125   0.731   0.513   0.446 -1.9582 -0.5886 -0.0155
 3696SOL     OW21126   1.400   0.825   1.718  0.2775  0.3290 -0.3594
 3696SOL    HW121127   1.374   0.834   1.815  1.6743 -0.1252  0.0730
 3696SOL    HW221128   1.459   0.745   1.707  1.9644  1.6462 -1.1911
 3697SOL     OW21129   9.151   4.832   2.328  0.1531  0.1898  0.2039
 3697SOL    HW121130   9.158   4.928   2.353 -2.0070  0.0615  1.4323
 3697SOL    HW221131   9.119   4.779   2.407  1.0780 -1.5096 -0.5229
 3698SOL     OW21132   0.004   9.922   2.175  0.7166 -0.3342 -0.1993
 3698SOL    HW121133  -0.062   9.996   2.160  1.7841  1.1610  2.1211
 3698SOL    HW221134   0.091   9.946   2.132  1.1213 -0.1533  0.7225
 3699SOL     OW21135   0.184   1.016   0.674  0.8580  0.0926 -0.0198
 3699SOL    HW121136   0.151   0.992   0.765  3.9663 -3.0779  0.3860
 3699SOL    HW221137   0.248   1.093   0.681  1.1037 -0.1548  0.5072
 3700SOL     OW21138   1.785   8.659   2.424  0.2697  0.6743 -0.1811
 3700SOL    HW121139   1.756   8.677   2.330  0.2623  1.4782 -0.0343
 3700SOL    HW221140   1.721   8.596   2.467 -0.0549  0.7612 -0.5338
 3701SOL     OW21141   3.164   7.390   0.225 -0.2072 -0.4181  0.2050
 3701SOL    HW121142   3.212   7.398   0.138 -1.7128 -0.4715 -0.6426
 3701SOL    HW221143   3.087   7.455   0.227  1.2156  1.3073  2.4397
 3702SOL     OW21144   2.193   2.411   1.559 -0.2426  0.4505 -1.1047
 3702SOL    HW121145   2.282   2.455   1.550  0.4195 -0.6051  0.1740
 3702SOL    HW221146   2.189   2.332   1.498  0.4112 -0.5977  0.1716
 3703SOL     OW21147   3.742   8.908   1.192 -0.2192 -0.3062 -0.4575
 3703SOL    HW121148   3.836   8.878   1.175 -0.4525 -1.4815  0.3416
 3703SOL    HW221149   3.700   8.937   1.106  0.9227  0.3665 -0.7942
 3704SOL     OW21150   0.653   1.795   2.142  0.2700  0.1218 -0.2121
 3704SOL    HW121151   0.575   1.746   2.181  0.8239 -2.0509 -1.7127
 3704SOL    HW221152   0.667   1.881   2.191 -1.2839 -0.8119  1.9230
 3705SOL     OW21153   1.316   7.263   1.609  0.5423  0.6238  0.0964
 3705SOL    HW121154   1.366   7.224   1.532  1.4097  1.7006  0.1052
 3705SOL    HW221155   1.218   7.268   1.587  0.7352  0.5504 -0.7747
 3706SOL     OW21156   8.199   1.526   0.621 -0.5136  0.3275  0.4824
 3706SOL    HW121157   8.245   1.524   0.709 -1.8672  0.0766  1.2133
 3706SOL    HW221158   8.166   1.434   0.599  2.2468 -0.2165 -1.6320
 3707SOL     OW21159   9.397   1.952   1.505  0.2142  0.0308 -0.1864
 3707SOL    HW121160   9.432   2.000   1.423  1.6689  0.3911  0.6166
 3707SOL    HW221161   9.298   1.947   1.500 -0.0597  3.6457 -0.0712
 3708SOL     OW21162   2.143   5.557   1.102 -0.2041 -0.0676  0.4086
 3708SOL    HW121163   2.227   5.541   1.051  0.4107 -1.5478  1.8397
 3708SOL    HW221164   2.116   5.473   1.150 -0.6367  1.3169  2.6715
 3709SOL     OW21165   1.104   4.499   1.718 -0.7254  0.2761 -0.1611
 3709SOL    HW121166   1.065   4.425   1.664  0.4303  0.1045 -0.7740
 3709SOL    HW221167   1.200   4.480   1.738 -1.2734  0.0730  2.4484
 3710SOL     OW21168   3.680   9.931   2.380  0.1823  0.1387  0.2425
 3710SOL    HW121169   3.589   9.914   2.419 -0.1007  1.6494  0.2716
 3710SOL    HW221170   3.750   9.904   2.445 -0.1695 -3.4680 -0.7487
 3711SOL     OW21171   2.966   4.640   1.002  0.1596 -0.3224  0.1375
 3711SOL    HW121172   2.926   4.566   1.056  1.5115  0.0153  1.6281
 3711SOL    HW221173   2.941   4.728   1.042 -1.0923  0.0298 -1.3836
 3712SOL     OW21174   3.803   8.214   0.540  0.3414  0.4804  0.6178
 3712SOL    HW121175   3.795   8.131   0.485  1.0093  0.1430  1.0099
 3712SOL    HW221176   3.886   8.208   0.596  0.5304  1.5340  0.4535
 3713SOL     OW21177   2.466   6.906   0.438 -0.3791 -0.2337 -0.0885
 3713SOL    HW121178   2.510   6.855   0.364 -1.0012 -1.7140  0.5462
 3713SOL    HW221179   2.457   7.002   0.411  3.1310  0.1269 -0.2878
 3714SOL     OW21180   3.975   1.393   0.604  0.1453  0.2097 -0.5312
 3714SOL    HW121181   3.881   1.388   0.570 -0.2198  1.3819  0.2823
 3714SOL    HW221182   3.978   1.364   0.699  0.5202  0.6667 -0.4029
 3715SOL     OW21183   2.768   9.916   2.133  0.2320 -0.2720  0.2252
 3715SOL    HW121184   2.782  10.012   2.158  1.4946 -0.6743  1.0772
 3715SOL    HW221185   2.722   9.911   2.044 -0.8163  1.1248  0.6684
 3716SOL     OW21186   8.134   1.831   2.476  0.0309 -0.8924  0.7228
 3716SOL    HW121187   8.169   1.905   2.418  0.3724 -1.1292  0.6277
 3716SOL    HW221188   8.179   1.745   2.451 -1.3635 -1.4039 -0.1274
 3717SOL     OW21189   1.552   9.895   2.341  0.3804  0.1252  0.6109
 3717SOL    HW121190   1.499   9.821   2.384 -0.5705  0.7469  0.5321
 3717SOL    HW221191   1.614   9.936   2.407  2.4371 -2.1231  0.1297
 3718SOL     OW21192   1.262   6.638   2.342 -0.1129  0.0077  0.1563
 3718SOL    HW121193   1.216   6.683   2.266 -0.9226  0.2545  0.7876
 3718SOL    HW221194   1.225   6.671   2.429  1.0213 -0.0410  0.6708
 3719SOL     OW21195   7.883   1.519   0.803 -0.2434 -0.4181  0.3521
 3719SOL    HW121196   7.918   1.612   0.803  1.4370 -1.0324  0.2813
 3719SOL    HW221197   7.821   1.507   0.880 -0.2734  0.6932  0.5035
 3720SOL     OW21198   0.938   2.116   1.500 -0.4020 -0.2115  0.0660
 3720SOL    HW121199   0.875   2.058   1.553 -1.2151  0.6007  0.0055
 3720SOL    HW221200   0.891   2.200   1.474  1.3664  1.3748  1.8340
 3721SOL     OW21201   3.612   1.750   0.213  0.1166 -0.0039 -0.4343
 3721SOL    HW121202   3.512   1.757   0.221 -0.0046 -0.4888 -1.4399
 3721SOL    HW221203   3.640   1.656   0.234  0.6181  0.6843  2.1721
 3722SOL     OW21204   1.916   7.549   0.759 -0.6949  0.5694 -0.2220
 3722SOL    HW121205   1.968   7.464   0.769 -1.3349  0.4885  2.5529
 3722SOL    HW221206   1.980   7.625   0.746  0.0421  0.1616  0.9004
 3723SOL     OW21207   1.177   8.171   2.714  0.4916 -0.2636  0.1007
 3723SOL    HW121208   1.119   8.128   2.783 -0.0608  0.7384  0.2805
 3723SOL    HW221209   1.261   8.205   2.757 -0.8395  2.3678  0.7762
 3724SOL     OW21210   9.267   3.921   1.146  0.1216  0.1225 -0.1277
 3724SOL    HW121211   9.227   3.849   1.203  0.0356  1.7147  1.8543
 3724SOL    HW221212   9.236   3.909   1.051 -2.0216 -0.8770  0.6697
 3725SOL     OW21213   8.440   2.374   2.314  0.8199 -0.5468 -0.2631
 3725SOL    HW121214   8.453   2.281   2.348 -1.0342 -1.1685 -1.1371
 3725SOL    HW221215   8.350   2.407   2.343  2.7353  2.2233  2.7504
 3726SOL     OW21216   0.956   6.207   0.329  0.0489 -0.0363 -0.0175
 3726SOL    HW121217   0.932   6.260   0.410  0.3635  0.0644  0.0130
 3726SOL    HW221218   1.055   6.211   0.316  0.1015 -0.8356  0.1376
  10.00000  10.00000   2.82000
